Generated by trjconv : CNT in water t= 203.00000
33518
    1C        C    1   2.842   2.768   4.749
    1C        C    2   2.895   2.714   4.868
    1C        C    3   2.845   2.775   4.985
    1C        C    4   2.846   2.773   4.262
    1C        C    5   2.898   2.725   4.384
    1C        C    6   2.844   2.770   4.506
    1C        C    7   3.013   2.641   4.625
    1C        C    8   2.898   2.724   4.628
    1C        C    9   3.077   2.602   4.745
    1C        C   10   3.007   2.629   4.865
    1C        C   11   3.183   2.490   4.977
    1C        C   12   3.060   2.558   4.973
    1C        C   13   2.845   2.766   3.774
    1C        C   14   2.901   2.720   3.895
    1C        C   15   2.848   2.770   4.016
    1C        C   16   3.021   2.652   4.140
    1C        C   17   2.902   2.728   4.140
    1C        C   18   3.081   2.616   4.262
    1C        C   19   3.017   2.648   4.384
    1C        C   20   3.210   2.557   4.505
    1C        C   21   3.079   2.610   4.505
    1C        C   22   3.280   2.539   4.626
    1C        C   23   3.207   2.545   4.747
    1C        C   24   3.414   2.483   4.865
    1C        C   25   3.272   2.504   4.866
    1C        C   26   3.491   2.478   4.982
    1C        C   27   2.848   2.770   3.283
    1C        C   28   2.903   2.727   3.406
    1C        C   29   2.850   2.772   3.529
    1C        C   30   3.013   2.638   3.651
    1C        C   31   2.897   2.720   3.651
    1C        C   32   3.075   2.603   3.773
    1C        C   33   3.018   2.641   3.896
    1C        C   34   3.212   2.561   4.018
    1C        C   35   3.079   2.608   4.019
    1C        C   36   3.281   2.542   4.141
    1C        C   37   3.212   2.562   4.262
    1C        C   38   3.418   2.508   4.383
    1C        C   39   3.279   2.534   4.383
    1C        C   40   3.490   2.507   4.504
    1C        C   41   3.420   2.517   4.626
    1C        C   42   3.633   2.485   4.746
    1C        C   43   3.491   2.492   4.746
    1C        C   44   3.707   2.489   4.866
    1C        C   45   3.630   2.479   4.983
    1C        C   46   2.836   2.752   2.795
    1C        C   47   2.892   2.711   2.918
    1C        C   48   2.842   2.761   3.040
    1C        C   49   3.014   2.637   3.163
    1C        C   50   2.897   2.717   3.162
    1C        C   51   3.075   2.604   3.286
    1C        C   52   3.016   2.642   3.408
    1C        C   53   3.209   2.552   3.528
    1C        C   54   3.079   2.607   3.530
    1C        C   55   3.276   2.531   3.651
    1C        C   56   3.207   2.553   3.772
    1C        C   57   3.415   2.513   3.894
    1C        C   58   3.276   2.538   3.894
    1C        C   59   3.486   2.512   4.016
    1C        C   60   3.419   2.513   4.140
    1C        C   61   3.630   2.503   4.262
    1C        C   62   3.489   2.500   4.261
    1C        C   63   3.704   2.505   4.383
    1C        C   64   3.632   2.509   4.504
    1C        C   65   3.839   2.545   4.622
    1C        C   66   3.702   2.511   4.626
    1C        C   67   3.907   2.561   4.745
    1C        C   68   3.844   2.523   4.865
    1C        C   69   4.057   2.579   4.978
    1C        C   70   3.923   2.538   4.980
    1C        C   71   2.822   2.734   2.308
    1C        C   72   2.878   2.692   2.431
    1C        C   73   2.833   2.751   2.552
    1C        C   74   3.008   2.627   2.673
    1C        C   75   2.892   2.708   2.673
    1C        C   76   3.073   2.599   2.795
    1C        C   77   3.013   2.637   2.917
    1C        C   78   3.205   2.550   3.037
    1C        C   79   3.074   2.603   3.040
    1C        C   80   3.275   2.534   3.159
    1C        C   81   3.208   2.554   3.281
    1C        C   82   3.412   2.502   3.402
    1C        C   83   3.274   2.532   3.404
    1C        C   84   3.482   2.497   3.524
    1C        C   85   3.415   2.506   3.648
    1C        C   86   3.626   2.502   3.770
    1C        C   87   3.485   2.501   3.771
    1C        C   88   3.696   2.511   3.893
    1C        C   89   3.628   2.507   4.016
    1C        C   90   3.834   2.554   4.137
    1C        C   91   3.698   2.517   4.139
    1C        C   92   3.905   2.573   4.257
    1C        C   93   3.841   2.541   4.379
    1C        C   94   4.033   2.633   4.500
    1C        C   95   3.907   2.568   4.501
    1C        C   96   4.093   2.672   4.622
    1C        C   97   4.033   2.628   4.742
    1C        C   98   4.191   2.766   4.863
    1C        C   99   4.101   2.654   4.864
    1C        C  100   4.215   2.840   4.979
    1C        C  101   2.822   2.735   2.071
    1C        C  102   2.991   2.595   2.190
    1C        C  103   2.877   2.681   2.188
    1C        C  104   3.059   2.572   2.312
    1C        C  105   2.996   2.615   2.431
    1C        C  106   3.197   2.534   2.550
    1C        C  107   3.066   2.585   2.551
    1C        C  108   3.269   2.520   2.671
    1C        C  109   3.203   2.545   2.793
    1C        C  110   3.411   2.499   2.915
    1C        C  111   3.272   2.524   2.915
    1C        C  112   3.484   2.492   3.036
    1C        C  113   3.414   2.511   3.157
    1C        C  114   3.624   2.503   3.280
    1C        C  115   3.483   2.498   3.280
    1C        C  116   3.692   2.509   3.403
    1C        C  117   3.623   2.503   3.527
    1C        C  118   3.833   2.548   3.646
    1C        C  119   3.695   2.514   3.648
    1C        C  120   3.897   2.572   3.769
    1C        C  121   3.832   2.548   3.892
    1C        C  122   4.025   2.639   4.012
    1C        C  123   3.900   2.575   4.013
    1C        C  124   4.090   2.673   4.133
    1C        C  125   4.029   2.640   4.256
    1C        C  126   4.202   2.762   4.376
    1C        C  127   4.089   2.676   4.378
    1C        C  128   4.248   2.818   4.497
    1C        C  129   4.199   2.765   4.619
    1C        C  130   4.334   2.927   4.740
    1C        C  131   4.244   2.817   4.742
    1C        C  132   4.359   2.999   4.859
    1C        C  133   4.287   2.959   4.973
    1C        C  134   3.174   2.465   2.084
    1C        C  135   3.042   2.513   2.084
    1C        C  136   3.261   2.479   2.193
    1C        C  137   3.192   2.523   2.308
    1C        C  138   3.404   2.484   2.429
    1C        C  139   3.265   2.509   2.429
    1C        C  140   3.478   2.479   2.549
    1C        C  141   3.408   2.497   2.671
    1C        C  142   3.622   2.496   2.790
    1C        C  143   3.481   2.494   2.792
    1C        C  144   3.695   2.506   2.911
    1C        C  145   3.625   2.497   3.033
    1C        C  146   3.830   2.542   3.157
    1C        C  147   3.693   2.507   3.156
    1C        C  148   3.898   2.561   3.279
    1C        C  149   3.830   2.540   3.401
    1C        C  150   4.027   2.625   3.522
    1C        C  151   3.897   2.568   3.522
    1C        C  152   4.084   2.667   3.644
    1C        C  153   4.023   2.637   3.768
    1C        C  154   4.199   2.759   3.887
    1C        C  155   4.084   2.678   3.889
    1C        C  156   4.247   2.813   4.008
    1C        C  157   4.199   2.763   4.131
    1C        C  158   4.342   2.919   4.253
    1C        C  159   4.252   2.810   4.253
    1C        C  160   4.376   2.983   4.374
    1C        C  161   4.334   2.930   4.497
    1C        C  162   4.445   3.111   4.619
    1C        C  163   4.377   2.987   4.619
    1C        C  164   4.468   3.182   4.739
    1C        C  165   4.430   3.121   4.860
    1C        C  166   4.524   3.313   4.972
    1C        C  167   4.487   3.179   4.975
    1C        C  168   3.476   2.436   2.073
    1C        C  169   3.400   2.459   2.188
    1C        C  170   3.617   2.470   2.308
    1C        C  171   3.475   2.465   2.308
    1C        C  172   3.692   2.488   2.426
    1C        C  173   3.619   2.486   2.547
    1C        C  174   3.828   2.536   2.667
    1C        C  175   3.691   2.504   2.667
    1C        C  176   3.898   2.560   2.788
    1C        C  177   3.833   2.535   2.911
    1C        C  178   4.026   2.621   3.032
    1C        C  179   3.897   2.562   3.034
    1C        C  180   4.087   2.656   3.154
    1C        C  181   4.027   2.619   3.277
    1C        C  182   4.195   2.749   3.399
    1C        C  183   4.087   2.657   3.399
    1C        C  184   4.247   2.800   3.520
    1C        C  185   4.195   2.754   3.643
    1C        C  186   4.339   2.912   3.763
    1C        C  187   4.253   2.800   3.763
    1C        C  188   4.385   2.971   3.883
    1C        C  189   4.342   2.919   4.008
    1C        C  190   4.445   3.103   4.128
    1C        C  191   4.383   2.976   4.130
    1C        C  192   4.470   3.170   4.250
    1C        C  193   4.443   3.108   4.374
    1C        C  194   4.502   3.313   4.492
    1C        C  195   4.467   3.176   4.496
    1C        C  196   4.522   3.384   4.612
    1C        C  197   4.506   3.319   4.736
    1C        C  198   4.556   3.532   4.851
    1C        C  199   4.533   3.391   4.856
    1C        C  200   4.583   3.619   4.961
    1C        C  201   3.615   2.419   2.073
    1C        C  202   3.825   2.515   2.181
    1C        C  203   3.691   2.465   2.186
    1C        C  204   3.896   2.545   2.300
    1C        C  205   3.830   2.521   2.422
    1C        C  206   4.020   2.618   2.543
    1C        C  207   3.895   2.552   2.544
    1C        C  208   4.081   2.658   2.664
    1C        C  209   4.023   2.625   2.789
    1C        C  210   4.197   2.747   2.908
    1C        C  211   4.086   2.660   2.910
    1C        C  212   4.250   2.794   3.030
    1C        C  213   4.198   2.744   3.152
    1C        C  214   4.330   2.908   3.273
    1C        C  215   4.244   2.796   3.275
    1C        C  216   4.372   2.969   3.393
    1C        C  217   4.338   2.908   3.516
    1C        C  218   4.433   3.097   3.638
    1C        C  219   4.372   2.970   3.638
    1C        C  220   4.462   3.165   3.759
    1C        C  221   4.444   3.099   3.882
    1C        C  222   4.496   3.305   4.007
    1C        C  223   4.466   3.167   4.004
    1C        C  224   4.512   3.377   4.128
    1C        C  225   4.509   3.306   4.250
    1C        C  226   4.511   3.522   4.368
    1C        C  227   4.518   3.381   4.369
    1C        C  228   4.512   3.596   4.489
    1C        C  229   4.534   3.524   4.609
    1C        C  230   4.501   3.738   4.727
    1C        C  231   4.537   3.600   4.728
    1C        C  232   4.487   3.816   4.843
    1C        C  233   4.543   3.754   4.955
    1C        C  234   4.022   2.608   2.062
    1C        C  235   3.898   2.545   2.065
    1C        C  236   4.086   2.648   2.180
    1C        C  237   4.023   2.610   2.300
    1C        C  238   4.201   2.730   2.419
    1C        C  239   4.085   2.648   2.421
    1C        C  240   4.253   2.783   2.540
    1C        C  241   4.194   2.742   2.662
    1C        C  242   4.337   2.900   2.785
    1C        C  243   4.248   2.790   2.783
    1C        C  244   4.376   2.960   2.906
    1C        C  245   4.338   2.904   3.031
    1C        C  246   4.436   3.094   3.149
    1C        C  247   4.375   2.966   3.152
    1C        C  248   4.458   3.161   3.272
    1C        C  249   4.434   3.096   3.394
    1C        C  250   4.491   3.301   3.517
    1C        C  251   4.456   3.164   3.516
    1C        C  252   4.509   3.371   3.638
    1C        C  253   4.496   3.302   3.761
    1C        C  254   4.512   3.514   3.880
    1C        C  255   4.507   3.372   3.883
    1C        C  256   4.509   3.586   4.001
    1C        C  257   4.512   3.518   4.125
    1C        C  258   4.483   3.731   4.242
    1C        C  259   4.507   3.592   4.245
    1C        C  260   4.464   3.802   4.363
    1C        C  261   4.483   3.734   4.486
    1C        C  262   4.419   3.937   4.603
    1C        C  263   4.462   3.803   4.607
    1C        C  264   4.398   4.009   4.722
    1C        C  265   4.427   3.944   4.844
    1C        C  266   4.318   4.131   4.961
    1C        C  267   4.387   4.010   4.962
    1C        C  268   4.263   2.776   2.062
    1C        C  269   4.200   2.732   2.179
    1C        C  270   4.353   2.883   2.301
    1C        C  271   4.257   2.778   2.299
    1C        C  272   4.386   2.950   2.420
    1C        C  273   4.339   2.895   2.541
    1C        C  274   4.449   3.079   2.663
    1C        C  275   4.380   2.956   2.662
    1C        C  276   4.476   3.149   2.783
    1C        C  277   4.445   3.083   2.904
    1C        C  278   4.498   3.291   3.025
    1C        C  279   4.466   3.153   3.025
    1C        C  280   4.508   3.363   3.145
    1C        C  281   4.494   3.298   3.270
    1C        C  282   4.506   3.508   3.391
    1C        C  283   4.496   3.367   3.393
    1C        C  284   4.502   3.580   3.512
    1C        C  285   4.507   3.513   3.636
    1C        C  286   4.486   3.724   3.755
    1C        C  287   4.508   3.585   3.758
    1C        C  288   4.470   3.793   3.878
    1C        C  289   4.486   3.725   4.001
    1C        C  290   4.423   3.933   4.116
    1C        C  291   4.474   3.801   4.120
    1C        C  292   4.394   4.001   4.236
    1C        C  293   4.421   3.936   4.359
    1C        C  294   4.327   4.128   4.479
    1C        C  295   4.392   4.002   4.481
    1C        C  296   4.284   4.188   4.599
    1C        C  297   4.323   4.130   4.722
    1C        C  298   4.196   4.310   4.839
    1C        C  299   4.279   4.193   4.842
    1C        C  300   4.166   4.399   4.947
    1C        C  301   4.351   2.883   2.065
    1C        C  302   4.475   3.064   2.179
    1C        C  303   4.407   2.938   2.181
    1C        C  304   4.480   3.142   2.298
    1C        C  305   4.445   3.079   2.419
    1C        C  306   4.502   3.284   2.536
    1C        C  307   4.471   3.147   2.540
    1C        C  308   4.514   3.355   2.658
    1C        C  309   4.502   3.288   2.782
    1C        C  310   4.516   3.502   2.901
    1C        C  311   4.514   3.360   2.903
    1C        C  312   4.514   3.573   3.023
    1C        C  313   4.513   3.505   3.147
    1C        C  314   4.480   3.716   3.265
    1C        C  315   4.506   3.578   3.268
    1C        C  316   4.470   3.787   3.387
    1C        C  317   4.487   3.720   3.510
    1C        C  318   4.421   3.924   3.629
    1C        C  319   4.469   3.791   3.632
    1C        C  320   4.392   3.989   3.750
    1C        C  321   4.424   3.926   3.872
    1C        C  322   4.320   4.116   3.992
    1C        C  323   4.392   3.994   3.992
    1C        C  324   4.276   4.176   4.112
    1C        C  325   4.321   4.121   4.235
    1C        C  326   4.190   4.288   4.355
    1C        C  327   4.285   4.184   4.356
    1C        C  328   4.139   4.341   4.476
    1C        C  329   4.188   4.291   4.598
    1C        C  330   4.029   4.442   4.711
    1C        C  331   4.140   4.353   4.716
    1C        C  332   3.974   4.499   4.828
    1C        C  333   4.055   4.485   4.941
    1C        C  334   4.548   3.264   2.060
    1C        C  335   4.534   3.125   2.064
    1C        C  336   4.532   3.348   2.172
    1C        C  337   4.511   3.281   2.294
    1C        C  338   4.527   3.495   2.413
    1C        C  339   4.519   3.354   2.415
    1C        C  340   4.522   3.566   2.535
    1C        C  341   4.520   3.496   2.657
    1C        C  342   4.492   3.710   2.773
    1C        C  343   4.512   3.570   2.778
    1C        C  344   4.479   3.779   2.896
    1C        C  345   4.493   3.713   3.019
    1C        C  346   4.419   3.914   3.139
    1C        C  347   4.468   3.782   3.140
    1C        C  348   4.392   3.982   3.260
    1C        C  349   4.421   3.920   3.383
    1C        C  350   4.321   4.107   3.504
    1C        C  351   4.393   3.986   3.505
    1C        C  352   4.277   4.166   3.624
    1C        C  353   4.320   4.111   3.747
    1C        C  354   4.182   4.272   3.868
    1C        C  355   4.281   4.171   3.868
    1C        C  356   4.127   4.325   3.987
    1C        C  357   4.179   4.279   4.110
    1C        C  358   4.015   4.409   4.231
    1C        C  359   4.130   4.326   4.233
    1C        C  360   3.953   4.449   4.352
    1C        C  361   4.023   4.422   4.471
    1C        C  362   3.831   4.522   4.594
    1C        C  363   3.962   4.469   4.590
    1C        C  364   3.765   4.552   4.715
    1C        C  365   3.843   4.550   4.833
    1C        C  366   3.634   4.599   4.949
    1C        C  367   3.773   4.584   4.949
    1C        C  368   4.512   3.564   2.055
    1C        C  369   4.524   3.489   2.172
    1C        C  370   4.494   3.704   2.288
    1C        C  371   4.518   3.565   2.291
    1C        C  372   4.478   3.775   2.410
    1C        C  373   4.498   3.705   2.531
    1C        C  374   4.430   3.911   2.647
    1C        C  375   4.478   3.778   2.651
    1C        C  376   4.400   3.974   2.770
    1C        C  377   4.429   3.911   2.893
    1C        C  378   4.319   4.095   3.013
    1C        C  379   4.395   3.976   3.014
    1C        C  380   4.274   4.152   3.134
    1C        C  381   4.317   4.102   3.258
    1C        C  382   4.181   4.263   3.379
    1C        C  383   4.281   4.163   3.381
    1C        C  384   4.129   4.315   3.499
    1C        C  385   4.181   4.271   3.623
    1C        C  386   4.013   4.397   3.743
    1C        C  387   4.129   4.317   3.746
    1C        C  388   3.950   4.436   3.864
    1C        C  389   4.010   4.405   3.988
    1C        C  390   3.823   4.502   4.109
    1C        C  391   3.952   4.445   4.110
    1C        C  392   3.753   4.523   4.230
    1C        C  393   3.824   4.506   4.351
    1C        C  394   3.618   4.551   4.475
    1C        C  395   3.758   4.530   4.474
    1C        C  396   3.547   4.569   4.596
    1C        C  397   3.624   4.565   4.714
    1C        C  398   3.414   4.557   4.840
    1C        C  399   3.554   4.577   4.836
    1C        C  400   3.343   4.515   4.953
    1C        C  401   4.507   3.703   2.054
    1C        C  402   4.448   3.915   2.169
    1C        C  403   4.493   3.781   2.170
    1C        C  404   4.413   3.980   2.289
    1C        C  405   4.436   3.909   2.409
    1C        C  406   4.324   4.098   2.525
    1C        C  407   4.396   3.976   2.527
    1C        C  408   4.278   4.149   2.648
    1C        C  409   4.321   4.091   2.770
    1C        C  410   4.182   4.256   2.891
    1C        C  411   4.277   4.152   2.890
    1C        C  412   4.127   4.302   3.013
    1C        C  413   4.178   4.256   3.136
    1C        C  414   4.011   4.390   3.255
    1C        C  415   4.127   4.309   3.256
    1C        C  416   3.946   4.423   3.376
    1C        C  417   4.008   4.388   3.498
    1C        C  418   3.818   4.480   3.619
    1C        C  419   3.948   4.425   3.620
    1C        C  420   3.750   4.505   3.741
    1C        C  421   3.818   4.487   3.863
    1C        C  422   3.614   4.533   3.987
    1C        C  423   3.754   4.512   3.986
    1C        C  424   3.541   4.540   4.107
    1C        C  425   3.613   4.539   4.229
    1C        C  426   3.405   4.550   4.356
    1C        C  427   3.546   4.548   4.353
    1C        C  428   3.333   4.548   4.478
    1C        C  429   3.407   4.553   4.598
    1C        C  430   3.199   4.521   4.722
    1C        C  431   3.338   4.549   4.721
    1C        C  432   3.127   4.498   4.843
    1C        C  433   3.205   4.494   4.959
    1C        C  434   4.378   4.118   2.049
    1C        C  435   4.449   3.998   2.056
    1C        C  436   4.308   4.167   2.164
    1C        C  437   4.339   4.102   2.287
    1C        C  438   4.183   4.257   2.402
    1C        C  439   4.284   4.158   2.404
    1C        C  440   4.131   4.301   2.526
    1C        C  441   4.181   4.252   2.649
    1C        C  442   4.009   4.380   2.765
    1C        C  443   4.125   4.300   2.769
    1C        C  444   3.949   4.417   2.887
    1C        C  445   4.011   4.383   3.009
    1C        C  446   3.819   4.473   3.129
    1C        C  447   3.949   4.419   3.131
    1C        C  448   3.750   4.498   3.250
    1C        C  449   3.816   4.477   3.374
    1C        C  450   3.613   4.531   3.496
    1C        C  451   3.752   4.505   3.497
    1C        C  452   3.542   4.535   3.618
    1C        C  453   3.611   4.530   3.741
    1C        C  454   3.402   4.545   3.864
    1C        C  455   3.544   4.542   3.865
    1C        C  456   3.331   4.533   3.986
    1C        C  457   3.400   4.540   4.109
    1C        C  458   3.198   4.500   4.237
    1C        C  459   3.334   4.537   4.234
    1C        C  460   3.127   4.486   4.358
    1C        C  461   3.196   4.514   4.478
    1C        C  462   3.003   4.432   4.606
    1C        C  463   3.131   4.491   4.602
    1C        C  464   2.937   4.400   4.727
    1C        C  465   2.994   4.446   4.849
    1C        C  466   2.804   4.340   4.959
    1C        C  467   2.905   4.437   4.961
    1C        C  468   4.121   4.281   2.042
    1C        C  469   4.190   4.249   2.159
    1C        C  470   4.011   4.375   2.278
    1C        C  471   4.131   4.299   2.278
    1C        C  472   3.945   4.405   2.399
    1C        C  473   4.011   4.376   2.520
    1C        C  474   3.817   4.465   2.644
    1C        C  475   3.948   4.413   2.641
    1C        C  476   3.749   4.491   2.764
    1C        C  477   3.817   4.469   2.886
    1C        C  478   3.612   4.523   3.009
    1C        C  479   3.750   4.495   3.007
    1C        C  480   3.540   4.529   3.130
    1C        C  481   3.611   4.522   3.251
    1C        C  482   3.401   4.530   3.376
    1C        C  483   3.542   4.531   3.374
    1C        C  484   3.330   4.528   3.498
    1C        C  485   3.401   4.536   3.620
    1C        C  486   3.195   4.497   3.745
    1C        C  487   3.331   4.534   3.743
    1C        C  488   3.129   4.476   3.867
    1C        C  489   3.197   4.490   3.990
    1C        C  490   3.005   4.409   4.118
    1C        C  491   3.133   4.470   4.115
    1C        C  492   2.944   4.380   4.242
    1C        C  493   2.999   4.427   4.363
    1C        C  494   2.831   4.302   4.486
    1C        C  495   2.938   4.393   4.486
    1C        C  496   2.775   4.255   4.607
    1C        C  497   2.823   4.315   4.726
    1C        C  498   2.667   4.166   4.846
    1C        C  499   2.759   4.273   4.845
    1C        C  500   2.589   4.122   4.954
    1C        C  501   4.004   4.357   2.041
    1C        C  502   3.818   4.467   2.155
    1C        C  503   3.947   4.411   2.157
    1C        C  504   3.747   4.480   2.277
    1C        C  505   3.814   4.457   2.399
    1C        C  506   3.610   4.508   2.520
    1C        C  507   3.748   4.481   2.522
    1C        C  508   3.539   4.521   2.641
    1C        C  509   3.611   4.523   2.763
    1C        C  510   3.401   4.522   2.888
    1C        C  511   3.542   4.529   2.886
    1C        C  512   3.327   4.517   3.008
    1C        C  513   3.398   4.528   3.130
    1C        C  514   3.193   4.490   3.255
    1C        C  515   3.331   4.523   3.254
    1C        C  516   3.127   4.465   3.377
    1C        C  517   3.192   4.495   3.499
    1C        C  518   3.000   4.412   3.627
    1C        C  519   3.128   4.472   3.623
    1C        C  520   2.943   4.371   3.749
    1C        C  521   3.007   4.404   3.871
    1C        C  522   2.836   4.284   3.998
    1C        C  523   2.947   4.372   3.994
    1C        C  524   2.784   4.237   4.121
    1C        C  525   2.835   4.290   4.242
    1C        C  526   2.695   4.136   4.365
    1C        C  527   2.782   4.247   4.366
    1C        C  528   2.653   4.078   4.486
    1C        C  529   2.690   4.142   4.606
    1C        C  530   2.586   3.960   4.730
    1C        C  531   2.646   4.089   4.729
    1C        C  532   2.539   3.903   4.852
    1C        C  533   2.531   3.995   4.962
    1C        C  534   3.620   4.556   2.044
    1C        C  535   3.751   4.508   2.039
    1C        C  536   3.536   4.525   2.156
    1C        C  537   3.608   4.508   2.277
    1C        C  538   3.395   4.519   2.401
    1C        C  539   3.537   4.515   2.399
    1C        C  540   3.325   4.508   2.523
    1C        C  541   3.397   4.516   2.644
    1C        C  542   3.191   4.478   2.768
    1C        C  543   3.328   4.510   2.767
    1C        C  544   3.123   4.458   2.890
    1C        C  545   3.190   4.485   3.012
    1C        C  546   3.000   4.396   3.139
    1C        C  547   3.124   4.462   3.135
    1C        C  548   2.941   4.362   3.262
    1C        C  549   3.003   4.398   3.384
    1C        C  550   2.831   4.278   3.508
    1C        C  551   2.941   4.365   3.507
    1C        C  552   2.782   4.229   3.631
    1C        C  553   2.833   4.282   3.752
    1C        C  554   2.701   4.121   3.875
    1C        C  555   2.788   4.232   3.876
    1C        C  556   2.660   4.066   3.999
    1C        C  557   2.695   4.128   4.121
    1C        C  558   2.598   3.944   4.246
    1C        C  559   2.654   4.073   4.245
    1C        C  560   2.561   3.884   4.368
    1C        C  561   2.584   3.955   4.488
    1C        C  562   2.531   3.750   4.616
    1C        C  563   2.560   3.888   4.611
    1C        C  564   2.519   3.682   4.739
    1C        C  565   2.519   3.762   4.857
    1C        C  566   2.527   3.547   4.978
    1C        C  567   2.527   3.686   4.974
    1C        C  568   3.330   4.469   2.042
    1C        C  569   3.395   4.509   2.159
    1C        C  570   3.184   4.478   2.282
    1C        C  571   3.321   4.516   2.281
    1C        C  572   3.115   4.458   2.404
    1C        C  573   3.187   4.479   2.523
    1C        C  574   2.992   4.402   2.648
    1C        C  575   3.122   4.455   2.646
    1C        C  576   2.934   4.361   2.771
    1C        C  577   2.996   4.396   2.893
    1C        C  578   2.826   4.274   3.017
    1C        C  579   2.938   4.360   3.017
    1C        C  580   2.780   4.221   3.140
    1C        C  581   2.833   4.271   3.261
    1C        C  582   2.692   4.117   3.387
    1C        C  583   2.782   4.226   3.385
    1C        C  584   2.653   4.057   3.508
    1C        C  585   2.696   4.117   3.629
    1C        C  586   2.593   3.938   3.756
    1C        C  587   2.659   4.063   3.754
    1C        C  588   2.570   3.875   3.880
    1C        C  589   2.598   3.939   4.003
    1C        C  590   2.532   3.738   4.128
    1C        C  591   2.573   3.873   4.126
    1C        C  592   2.521   3.673   4.253
    1C        C  593   2.530   3.746   4.374
    1C        C  594   2.514   3.535   4.498
    1C        C  595   2.520   3.676   4.496
    1C        C  596   2.519   3.465   4.621
    1C        C  597   2.516   3.540   4.741
    1C        C  598   2.532   3.327   4.863
    1C        C  599   2.525   3.468   4.862
    1C        C  600   2.530   3.249   4.979
    1C        C  601   3.196   4.438   2.045
    1C        C  602   2.982   4.398   2.160
    1C        C  603   3.119   4.440   2.162
    1C        C  604   2.923   4.359   2.284
    1C        C  605   2.989   4.395   2.404
    1C        C  606   2.818   4.275   2.530
    1C        C  607   2.929   4.362   2.528
    1C        C  608   2.774   4.221   2.652
    1C        C  609   2.826   4.269   2.774
    1C        C  610   2.688   4.110   2.897
    1C        C  611   2.774   4.223   2.897
    1C        C  612   2.651   4.054   3.021
    1C        C  613   2.690   4.112   3.144
    1C        C  614   2.587   3.929   3.268
    1C        C  615   2.648   4.056   3.267
    1C        C  616   2.561   3.866   3.392
    1C        C  617   2.591   3.930   3.514
    1C        C  618   2.529   3.729   3.637
    1C        C  619   2.566   3.866   3.637
    1C        C  620   2.513   3.668   3.763
    1C        C  621   2.529   3.739   3.884
    1C        C  622   2.513   3.527   4.010
    1C        C  623   2.520   3.668   4.006
    1C        C  624   2.520   3.459   4.133
    1C        C  625   2.517   3.532   4.254
    1C        C  626   2.542   3.324   4.379
    1C        C  627   2.514   3.462   4.377
    1C        C  628   2.560   3.255   4.501
    1C        C  629   2.538   3.325   4.622
    1C        C  630   2.598   3.121   4.744
    1C        C  631   2.554   3.256   4.743
    1C        C  632   2.617   3.049   4.865
    1C        C  633   2.557   3.111   4.980
    1C        C  634   2.784   4.308   2.055
    1C        C  635   2.892   4.397   2.049
    1C        C  636   2.747   4.235   2.169
    1C        C  637   2.809   4.275   2.289
    1C        C  638   2.676   4.111   2.414
    1C        C  639   2.760   4.224   2.411
    1C        C  640   2.637   4.050   2.535
    1C        C  641   2.684   4.112   2.653
    1C        C  642   2.586   3.925   2.779
    1C        C  643   2.649   4.051   2.775
    1C        C  644   2.563   3.860   2.903
    1C        C  645   2.588   3.927   3.024
    1C        C  646   2.531   3.724   3.149
    1C        C  647   2.561   3.862   3.146
    1C        C  648   2.513   3.657   3.273
    1C        C  649   2.525   3.730   3.394
    1C        C  650   2.506   3.518   3.519
    1C        C  651   2.514   3.659   3.516
    1C        C  652   2.513   3.452   3.644
    1C        C  653   2.513   3.526   3.764
    1C        C  654   2.543   3.318   3.890
    1C        C  655   2.518   3.457   3.887
    1C        C  656   2.560   3.250   4.013
    1C        C  657   2.545   3.320   4.135
    1C        C  658   2.608   3.120   4.261
    1C        C  659   2.560   3.252   4.258
    1C        C  660   2.629   3.052   4.383
    1C        C  661   2.600   3.120   4.504
    1C        C  662   2.709   2.936   4.626
    1C        C  663   2.628   3.052   4.625
    1C        C  664   2.754   2.880   4.748
    1C        C  665   2.701   2.933   4.869
    1C        C  666   2.745   2.871   4.986
    1C        C  667   2.683   4.025   2.060
    1C        C  668   2.683   4.109   2.172
    1C        C  669   2.586   3.917   2.293
    1C        C  670   2.641   4.048   2.292
    1C        C  671   2.559   3.850   2.414
    1C        C  672   2.577   3.921   2.535
    1C        C  673   2.521   3.720   2.661
    1C        C  674   2.557   3.857   2.658
    1C        C  675   2.518   3.653   2.785
    1C        C  676   2.533   3.722   2.907
    1C        C  677   2.508   3.511   3.028
    1C        C  678   2.519   3.651   3.029
    1C        C  679   2.509   3.444   3.153
    1C        C  680   2.508   3.516   3.274
    1C        C  681   2.531   3.307   3.404
    1C        C  682   2.507   3.446   3.397
    1C        C  683   2.550   3.240   3.526
    1C        C  684   2.537   3.313   3.647
    1C        C  685   2.602   3.113   3.773
    1C        C  686   2.554   3.245   3.770
    1C        C  687   2.636   3.052   3.895
    1C        C  688   2.605   3.117   4.017
    1C        C  689   2.710   2.933   4.139
    1C        C  690   2.636   3.053   4.139
    1C        C  691   2.754   2.880   4.263
    1C        C  692   2.706   2.934   4.384
    1C        C  693   2.752   2.878   4.505
    1C        C  694   2.633   3.894   2.063
    1C        C  695   2.521   3.707   2.174
    1C        C  696   2.572   3.839   2.176
    1C        C  697   2.504   3.639   2.297
    1C        C  698   2.521   3.714   2.415
    1C        C  699   2.493   3.507   2.543
    1C        C  700   2.510   3.648   2.540
    1C        C  701   2.501   3.439   2.666
    1C        C  702   2.504   3.512   2.787
    1C        C  703   2.531   3.298   2.912
    1C        C  704   2.514   3.439   2.907
    1C        C  705   2.545   3.232   3.036
    1C        C  706   2.531   3.304   3.156
    1C        C  707   2.600   3.107   3.281
    1C        C  708   2.553   3.240   3.281
    1C        C  709   2.633   3.048   3.405
    1C        C  710   2.601   3.108   3.529
    1C        C  711   2.708   2.927   3.651
    1C        C  712   2.632   3.046   3.652
    1C        C  713   2.752   2.873   3.774
    1C        C  714   2.714   2.934   3.895
    1C        C  715   2.753   2.875   4.017
    1C        C  716   2.455   3.495   2.057
    1C        C  717   2.489   3.631   2.060
    1C        C  718   2.467   3.425   2.181
    1C        C  719   2.481   3.499   2.301
    1C        C  720   2.515   3.292   2.427
    1C        C  721   2.487   3.430   2.424
    1C        C  722   2.533   3.223   2.549
    1C        C  723   2.523   3.299   2.667
    1C        C  724   2.592   3.098   2.791
    1C        C  725   2.543   3.230   2.789
    1C        C  726   2.623   3.035   2.914
    1C        C  727   2.595   3.099   3.036
    1C        C  728   2.705   2.922   3.159
    1C        C  729   2.624   3.039   3.160
    1C        C  730   2.751   2.873   3.283
    1C        C  731   2.708   2.929   3.405
    1C        C  732   2.749   2.871   3.527
    1C        C  733   2.489   3.195   2.077
    1C        C  734   2.488   3.283   2.186
    1C        C  735   2.576   3.085   2.307
    1C        C  736   2.523   3.217   2.307
    1C        C  737   2.601   3.018   2.429
    1C        C  738   2.574   3.088   2.549
    1C        C  739   2.693   2.910   2.671
    1C        C  740   2.618   3.030   2.670
    1C        C  741   2.740   2.856   2.793
    1C        C  742   2.698   2.914   2.914
    1C        C  743   2.743   2.862   3.037
    1C        C  744   2.552   3.071   2.072
    1C        C  745   2.682   2.896   2.189
    1C        C  746   2.605   3.014   2.189
    1C        C  747   2.726   2.838   2.311
    1C        C  748   2.681   2.902   2.429
    1C        C  749   2.733   2.850   2.550
    1C        C  750   2.734   2.843   2.071
    1C        C  751   3.667   2.317   1.979
    1C        O  752   3.692   2.198   2.010
    1C        O  753   3.629   2.301   1.845
    1C        C  754   4.641   3.059   1.986
    1C        O  755   4.639   3.047   1.861
    1C        O  756   4.770   3.045   2.041
    1C        C  757   4.424   4.211   1.943
    1C        O  758   4.490   4.314   1.974
    1C        O  759   4.446   4.176   1.809
    1C        C  760   3.590   4.682   1.972
    1C        O  761   3.662   4.785   1.979
    1C        O  762   3.530   4.669   1.846
    1C        C  763   2.896   4.485   1.930
    1C        O  764   2.905   4.432   1.815
    1C        O  765   2.848   4.616   1.917
    1C        C  766   2.341   3.470   1.966
    1C        O  767   2.340   3.406   1.858
    1C        O  768   2.217   3.536   1.970
    1C        C  769   4.699   3.607   5.052
    1C        O  770   4.685   3.542   5.159
    1C        O  771   4.826   3.664   5.043
    1C        C  772   4.276   4.443   5.037
    1C        O  773   4.287   4.407   5.157
    1C        O  774   4.356   4.551   4.998
    1C        C  775   4.140   2.500   5.072
    1C        O  776   4.207   2.401   5.034
    1C        O  777   4.155   2.529   5.208
    1C        C  778   2.876   4.555   5.045
    1C        O  779   2.856   4.669   4.997
    1C        O  780   2.930   4.585   5.171
    1C        C  781   2.448   3.034   5.044
    1C        O  782   2.340   3.000   4.990
    1C        O  783   2.485   2.972   5.163
    1C        C  784   2.421   3.992   5.062
    1C        O  785   2.308   4.046   5.050
    1C        O  786   2.442   3.960   5.196
    1C        C  787   2.957   2.461   1.974
    1C        O  788   2.990   2.476   1.853
    1C        O  789   2.867   2.357   1.991
    1C        C  790   3.181   2.368   5.061
    1C        O  791   3.175   2.249   5.020
    1C        O  792   3.166   2.372   5.200
    1C        H  793   4.263   3.038   5.039
    1C        H  794   4.233   2.787   5.071
    1C        H  795   4.461   3.137   5.070
    1C        H  796   4.502   3.359   5.066
    1C        H  797   4.596   3.820   5.021
    1C        H  798   4.381   3.954   5.053
    1C        H  799   4.334   4.188   5.050
    1C        H  800   4.020   4.533   5.030
    1C        H  801   3.833   4.612   5.033
    1C        H  802   3.588   4.640   5.036
    1C        H  803   3.400   4.458   5.023
    1C        H  804   3.155   4.511   5.052
    1C        H  805   3.882   2.546   5.078
    1C        H  806   3.684   2.466   5.074
    1C        H  807   2.996   2.536   5.056
    1C        H  808   3.443   2.453   5.075
    1C        H  809   2.918   2.785   5.063
    1C        H  810   2.679   2.872   5.070
    1C        H  811   2.491   3.290   5.070
    1C        H  812   2.547   3.499   5.072
    1C        H  813   2.512   3.731   5.070
    1C        H  814   2.533   4.200   5.000
    1C        H  815   2.788   4.291   5.053
    1C        H  816   2.672   2.848   1.983
    1C        H  817   2.814   2.669   1.987
    1C        H  818   3.213   2.423   1.993
    1C        H  819   3.425   2.409   1.983
    1C        H  820   3.852   2.536   1.969
    1C        H  821   4.079   2.595   1.972
    1C        H  822   4.249   2.724   1.969
    1C        H  823   4.378   2.926   1.970
    1C        H  824   4.564   3.314   1.967
    1C        H  825   4.497   3.517   1.960
    1C        H  826   4.514   3.751   1.959
    1C        H  827   3.812   4.560   1.968
    1C        H  828   4.002   4.426   1.960
    1C        H  829   4.150   4.234   1.951
    1C        H  830   4.500   3.961   1.969
    1C        H  831   2.664   3.832   1.980
    1C        H  832   2.658   4.071   1.967
    1C        H  833   2.730   4.291   1.965
    1C        H  834   3.383   4.437   1.954
    1C        H  835   3.148   4.436   1.949
    1C        H  836   2.522   3.010   1.989
    1C        H  837   2.426   3.218   1.993
    1C        H  838   2.480   3.683   1.967
    2V3OU   H29  839   2.803   3.551   1.987
    2V3OU   C27  840   2.791   3.506   2.089
    2V3OU   H27  841   2.738   3.576   2.158
    2V3OU   H28  842   2.736   3.408   2.083
    2V3OU   O11  843   2.915   3.480   2.156
    2V3OU   C15  844   2.926   3.397   2.266
    2V3OU   C13  845   3.051   3.372   2.326
    2V3OU   C14  846   3.076   3.267   2.416
    2V3OU   C16  847   2.972   3.182   2.449
    2V3OU    H6  848   2.987   3.107   2.528
    2V3OU   C12  849   3.213   3.228   2.455
    2V3OU    O2  850   3.239   3.118   2.509
    2V3OU   C10  851   3.329   3.313   2.425
    2V3OU    C8  852   3.456   3.269   2.461
    2V3OU   O10  853   3.487   3.159   2.535
    2V3OU   H26  854   3.404   3.111   2.549
    2V3OU    C6  855   3.564   3.353   2.418
    2V3OU    C5  856   3.538   3.468   2.344
    2V3OU    C4  857   3.702   3.299   2.412
    2V3OU    H4  858   3.725   3.237   2.503
    2V3OU    H5  859   3.714   3.225   2.328
    2V3OU    C2  860   3.818   3.399   2.408
    2V3OU    O6  861   3.813   3.478   2.527
    2V3OU   H21  862   3.764   3.558   2.500
    2V3OU    C3  863   3.782   3.495   2.294
    2V3OU    H2  864   3.869   3.566   2.288
    2V3OU    H3  865   3.777   3.441   2.196
    2V3OU   C25  866   3.954   3.330   2.389
    2V3OU    O7  867   3.999   3.298   2.279
    2V3OU   C26  868   4.032   3.291   2.513
    2V3OU   H22  869   4.073   3.383   2.563
    2V3OU   H23  870   4.118   3.224   2.486
    2V3OU    O8  871   3.968   3.207   2.606
    2V3OU   H24  872   3.929   3.268   2.671
    2V3OU    C1  873   3.649   3.565   2.315
    2V3OU    H1  874   3.621   3.621   2.220
    2V3OU    O3  875   3.658   3.655   2.426
    2V3OU   C19  876   3.621   3.792   2.418
    2V3OU    H9  877   3.527   3.806   2.356
    2V3OU    O4  878   3.717   3.848   2.332
    2V3OU   C20  879   3.846   3.879   2.387
    2V3OU   H10  880   3.897   3.780   2.407
    2V3OU   C24  881   3.613   3.857   2.556
    2V3OU   H16  882   3.556   3.796   2.631
    2V3OU   H17  883   3.565   3.958   2.545
    2V3OU   C23  884   3.751   3.878   2.618
    2V3OU   H15  885   3.795   3.776   2.646
    2V3OU    N1  886   3.732   3.956   2.739
    2V3OU   H19  887   3.798   3.919   2.805
    2V3OU   H20  888   3.647   3.930   2.784
    2V3OU   C21  889   3.850   3.950   2.522
    2V3OU   H11  890   3.955   3.927   2.557
    2V3OU    O5  891   3.825   4.090   2.517
    2V3OU   H18  892   3.772   4.110   2.595
    2V3OU   C22  893   3.911   3.954   2.271
    2V3OU   H12  894   3.865   4.054   2.252
    2V3OU   H13  895   3.905   3.892   2.178
    2V3OU   H14  896   4.021   3.958   2.290
    2V3OU   C11  897   3.162   3.466   2.305
    2V3OU    O1  898   3.136   3.581   2.262
    2V3OU    C9  899   3.296   3.432   2.356
    2V3OU    C7  900   3.405   3.506   2.309
    2V3OU    O9  901   3.391   3.618   2.230
    2V3OU   H25  902   3.295   3.627   2.219
    2V3OU   C17  903   2.821   3.313   2.309
    2V3OU    H7  904   2.725   3.340   2.266
    2V3OU   C18  905   2.845   3.212   2.402
    2V3OU    H8  906   2.775   3.158   2.468
    3SOL     OW  907   3.326   4.695   1.243
    3SOL    HW1  908   3.288   4.619   1.190
    3SOL    HW2  909   3.302   4.781   1.199
    4SOL     OW  910   6.464   5.783   1.560
    4SOL    HW1  911   6.385   5.844   1.565
    4SOL    HW2  912   6.438   5.701   1.509
    5SOL     OW  913   4.553   1.257   2.540
    5SOL    HW1  914   4.561   1.328   2.470
    5SOL    HW2  915   4.643   1.242   2.583
    6SOL     OW  916   4.027   1.166   1.480
    6SOL    HW1  917   4.023   1.216   1.393
    6SOL    HW2  918   4.095   1.209   1.539
    7SOL     OW  919   6.990   3.621   2.342
    7SOL    HW1  920   0.006   3.558   2.408
    7SOL    HW2  921   6.939   3.692   2.390
    8SOL     OW  922   2.271   0.420   6.668
    8SOL    HW1  923   2.257   0.502   6.613
    8SOL    HW2  924   2.182   0.385   6.698
    9SOL     OW  925   6.469   6.561   6.542
    9SOL    HW1  926   6.420   6.505   6.475
    9SOL    HW2  927   6.471   6.656   6.511
   10SOL     OW  928   1.210   5.081   6.104
   10SOL    HW1  929   1.234   5.150   6.173
   10SOL    HW2  930   1.121   5.104   6.064
   11SOL     OW  931   2.483   0.669   6.308
   11SOL    HW1  932   2.458   0.603   6.379
   11SOL    HW2  933   2.483   0.761   6.347
   12SOL     OW  934   3.585   6.989   4.020
   12SOL    HW1  935   3.659   0.027   3.999
   12SOL    HW2  936   3.591   6.909   3.960
   13SOL     OW  937   3.764   5.645   3.642
   13SOL    HW1  938   3.730   5.602   3.726
   13SOL    HW2  939   3.860   5.668   3.653
   14SOL     OW  940   4.490   4.966   5.660
   14SOL    HW1  941   4.527   5.046   5.613
   14SOL    HW2  942   4.416   4.926   5.606
   15SOL     OW  943   1.444   5.659   1.601
   15SOL    HW1  944   1.351   5.659   1.564
   15SOL    HW2  945   1.494   5.737   1.565
   16SOL     OW  946   5.427   2.971   5.755
   16SOL    HW1  947   5.433   3.054   5.700
   16SOL    HW2  948   5.515   2.956   5.801
   17SOL     OW  949   5.128   6.114   5.595
   17SOL    HW1  950   5.052   6.105   5.530
   17SOL    HW2  951   5.131   6.207   5.631
   18SOL     OW  952   3.324   0.920   5.949
   18SOL    HW1  953   3.240   0.908   6.002
   18SOL    HW2  954   3.396   0.861   5.986
   19SOL     OW  955   0.090   0.351   3.270
   19SOL    HW1  956   0.038   0.303   3.199
   19SOL    HW2  957   0.133   0.432   3.230
   20SOL     OW  958   5.554   2.771   4.482
   20SOL    HW1  959   5.487   2.702   4.455
   20SOL    HW2  960   5.582   2.823   4.401
   21SOL     OW  961   3.091   2.143   2.501
   21SOL    HW1  962   3.049   2.053   2.510
   21SOL    HW2  963   3.168   2.137   2.437
   22SOL     OW  964   2.230   6.614   0.044
   22SOL    HW1  965   2.302   6.648   0.105
   22SOL    HW2  966   2.148   6.670   0.057
   23SOL     OW  967   4.939   6.526   2.833
   23SOL    HW1  968   4.842   6.504   2.842
   23SOL    HW2  969   4.952   6.625   2.844
   24SOL     OW  970   4.586   1.268   3.077
   24SOL    HW1  971   4.551   1.227   3.161
   24SOL    HW2  972   4.545   1.359   3.065
   25SOL     OW  973   3.270   0.091   5.109
   25SOL    HW1  974   3.271   0.170   5.048
   25SOL    HW2  975   3.181   0.085   5.154
   26SOL     OW  976   0.033   0.615   0.672
   26SOL    HW1  977   7.016   0.554   0.739
   26SOL    HW2  978   0.106   0.668   0.715
   27SOL     OW  979   1.104   1.839   2.261
   27SOL    HW1  980   1.158   1.835   2.177
   27SOL    HW2  981   1.093   1.747   2.299
   28SOL     OW  982   3.747   1.712   6.480
   28SOL    HW1  983   3.807   1.716   6.401
   28SOL    HW2  984   3.773   1.783   6.546
   29SOL     OW  985   4.827   2.871   2.227
   29SOL    HW1  986   4.920   2.907   2.232
   29SOL    HW2  987   4.772   2.930   2.168
   30SOL     OW  988   3.509   1.148   4.104
   30SOL    HW1  989   3.558   1.157   4.018
   30SOL    HW2  990   3.426   1.203   4.101
   31SOL     OW  991   0.952   2.776   6.121
   31SOL    HW1  992   0.927   2.681   6.102
   31SOL    HW2  993   0.873   2.825   6.157
   32SOL     OW  994   0.338   1.417   3.067
   32SOL    HW1  995   0.383   1.495   3.024
   32SOL    HW2  996   0.253   1.396   3.017
   33SOL     OW  997   2.119   4.146   6.405
   33SOL    HW1  998   2.134   4.211   6.480
   33SOL    HW2  999   2.203   4.095   6.388
   34SOL     OW 1000   2.298   1.641   3.791
   34SOL    HW1 1001   2.264   1.687   3.708
   34SOL    HW2 1002   2.228   1.577   3.825
   35SOL     OW 1003   3.438   3.490   6.632
   35SOL    HW1 1004   3.399   3.404   6.597
   35SOL    HW2 1005   3.437   3.559   6.560
   36SOL     OW 1006   5.967   0.677   5.457
   36SOL    HW1 1007   5.972   0.591   5.406
   36SOL    HW2 1008   5.986   0.754   5.395
   37SOL     OW 1009   0.877   0.633   0.689
   37SOL    HW1 1010   0.867   0.732   0.695
   37SOL    HW2 1011   0.786   0.591   0.677
   38SOL     OW 1012   6.934   5.033   2.871
   38SOL    HW1 1013   6.847   4.986   2.884
   38SOL    HW2 1014   6.975   5.053   2.960
   39SOL     OW 1015   0.161   5.184   6.653
   39SOL    HW1 1016   0.175   5.282   6.667
   39SOL    HW2 1017   0.160   5.138   6.741
   40SOL     OW 1018   5.063   2.166   1.613
   40SOL    HW1 1019   4.999   2.089   1.610
   40SOL    HW2 1020   5.056   2.210   1.703
   41SOL     OW 1021   6.893   6.006   4.499
   41SOL    HW1 1022   6.892   5.910   4.526
   41SOL    HW2 1023   6.876   6.064   4.579
   42SOL     OW 1024   2.726   5.241   5.492
   42SOL    HW1 1025   2.802   5.176   5.501
   42SOL    HW2 1026   2.644   5.193   5.461
   43SOL     OW 1027   5.634   6.046   5.607
   43SOL    HW1 1028   5.624   6.007   5.515
   43SOL    HW2 1029   5.576   5.996   5.671
   44SOL     OW 1030   5.655   1.735   6.820
   44SOL    HW1 1031   5.559   1.706   6.815
   44SOL    HW2 1032   5.701   1.714   6.734
   45SOL     OW 1033   3.637   6.861   3.114
   45SOL    HW1 1034   3.621   6.907   3.201
   45SOL    HW2 1035   3.711   6.907   3.065
   46SOL     OW 1036   0.405   3.474   3.067
   46SOL    HW1 1037   0.427   3.507   3.159
   46SOL    HW2 1038   0.435   3.379   3.058
   47SOL     OW 1039   5.107   4.749   1.632
   47SOL    HW1 1040   5.147   4.658   1.621
   47SOL    HW2 1041   5.117   4.801   1.547
   48SOL     OW 1042   6.565   2.516   5.729
   48SOL    HW1 1043   6.507   2.436   5.720
   48SOL    HW2 1044   6.631   2.518   5.654
   49SOL     OW 1045   5.151   3.861   1.832
   49SOL    HW1 1046   5.210   3.780   1.834
   49SOL    HW2 1047   5.069   3.842   1.779
   50SOL     OW 1048   6.315   1.545   5.185
   50SOL    HW1 1049   6.332   1.635   5.144
   50SOL    HW2 1050   6.229   1.508   5.148
   51SOL     OW 1051   3.037   6.200   2.906
   51SOL    HW1 1052   3.066   6.235   2.817
   51SOL    HW2 1053   3.054   6.269   2.976
   52SOL     OW 1054   5.070   2.325   3.419
   52SOL    HW1 1055   4.997   2.272   3.462
   52SOL    HW2 1056   5.064   2.316   3.320
   53SOL     OW 1057   3.557   6.749   4.608
   53SOL    HW1 1058   3.567   6.842   4.643
   53SOL    HW2 1059   3.502   6.695   4.672
   54SOL     OW 1060   3.612   4.686   1.124
   54SOL    HW1 1061   3.582   4.742   1.202
   54SOL    HW2 1062   3.533   4.640   1.084
   55SOL     OW 1063   2.787   1.660   6.617
   55SOL    HW1 1064   2.780   1.567   6.580
   55SOL    HW2 1065   2.846   1.715   6.558
   56SOL     OW 1066   0.336   0.691   1.399
   56SOL    HW1 1067   0.413   0.749   1.427
   56SOL    HW2 1068   0.252   0.744   1.402
   57SOL     OW 1069   5.420   0.693   1.251
   57SOL    HW1 1070   5.496   0.661   1.306
   57SOL    HW2 1071   5.437   0.787   1.222
   58SOL     OW 1072   6.165   6.620   5.874
   58SOL    HW1 1073   6.092   6.552   5.865
   58SOL    HW2 1074   6.206   6.613   5.965
   59SOL     OW 1075   0.596   1.743   5.639
   59SOL    HW1 1076   0.610   1.726   5.541
   59SOL    HW2 1077   0.680   1.778   5.680
   60SOL     OW 1078   5.121   1.441   5.706
   60SOL    HW1 1079   5.094   1.345   5.693
   60SOL    HW2 1080   5.218   1.445   5.728
   61SOL     OW 1081   5.126   2.326   4.728
   61SOL    HW1 1082   5.131   2.426   4.734
   61SOL    HW2 1083   5.061   2.292   4.796
   62SOL     OW 1084   0.252   1.137   2.164
   62SOL    HW1 1085   0.184   1.191   2.215
   62SOL    HW2 1086   0.343   1.175   2.181
   63SOL     OW 1087   5.243   1.127   4.243
   63SOL    HW1 1088   5.322   1.186   4.257
   63SOL    HW2 1089   5.194   1.156   4.161
   64SOL     OW 1090   0.116   3.626   5.735
   64SOL    HW1 1091   0.094   3.657   5.828
   64SOL    HW2 1092   0.075   3.537   5.719
   65SOL     OW 1093   6.886   4.988   5.868
   65SOL    HW1 1094   6.851   4.895   5.876
   65SOL    HW2 1095   6.817   5.052   5.901
   66SOL     OW 1096   3.640   0.952   5.663
   66SOL    HW1 1097   3.694   0.938   5.580
   66SOL    HW2 1098   3.644   0.869   5.719
   67SOL     OW 1099   5.517   4.251   5.726
   67SOL    HW1 1100   5.435   4.235   5.671
   67SOL    HW2 1101   5.490   4.267   5.821
   68SOL     OW 1102   5.377   0.831   6.895
   68SOL    HW1 1103   5.345   0.766   6.965
   68SOL    HW2 1104   5.301   0.889   6.867
   69SOL     OW 1105   0.389   3.633   5.776
   69SOL    HW1 1106   0.293   3.609   5.764
   69SOL    HW2 1107   0.396   3.723   5.821
   70SOL     OW 1108   5.483   4.451   4.460
   70SOL    HW1 1109   5.464   4.367   4.409
   70SOL    HW2 1110   5.499   4.429   4.556
   71SOL     OW 1111   3.808   1.798   3.006
   71SOL    HW1 1112   3.874   1.869   3.028
   71SOL    HW2 1113   3.854   1.709   3.003
   72SOL     OW 1114   2.498   6.597   4.318
   72SOL    HW1 1115   2.471   6.645   4.402
   72SOL    HW2 1116   2.424   6.604   4.250
   73SOL     OW 1117   3.113   1.307   0.765
   73SOL    HW1 1118   3.061   1.225   0.740
   73SOL    HW2 1119   3.118   1.369   0.687
   74SOL     OW 1120   5.330   6.843   6.911
   74SOL    HW1 1121   5.416   6.805   6.944
   74SOL    HW2 1122   5.285   6.894   6.985
   75SOL     OW 1123   3.721   0.137   0.268
   75SOL    HW1 1124   3.739   0.206   0.337
   75SOL    HW2 1125   3.641   0.164   0.214
   76SOL     OW 1126   3.017   2.959   0.893
   76SOL    HW1 1127   2.971   3.010   0.820
   76SOL    HW2 1128   3.107   2.998   0.910
   77SOL     OW 1129   6.685   6.640   3.556
   77SOL    HW1 1130   6.648   6.558   3.601
   77SOL    HW2 1131   6.664   6.637   3.458
   78SOL     OW 1132   5.619   0.714   6.975
   78SOL    HW1 1133   5.622   0.630   6.920
   78SOL    HW2 1134   5.537   0.767   6.950
   79SOL     OW 1135   3.430   6.025   0.538
   79SOL    HW1 1136   3.491   5.947   0.524
   79SOL    HW2 1137   3.460   6.101   0.482
   80SOL     OW 1138   5.032   1.818   3.839
   80SOL    HW1 1139   5.120   1.850   3.805
   80SOL    HW2 1140   4.980   1.894   3.877
   81SOL     OW 1141   2.129   6.937   2.785
   81SOL    HW1 1142   2.085   7.024   2.766
   81SOL    HW2 1143   2.166   6.899   2.701
   82SOL     OW 1144   6.611   4.793   1.101
   82SOL    HW1 1145   6.640   4.742   1.020
   82SOL    HW2 1146   6.516   4.770   1.123
   83SOL     OW 1147   0.384   0.934   0.556
   83SOL    HW1 1148   0.374   1.032   0.570
   83SOL    HW2 1149   0.454   0.899   0.618
   84SOL     OW 1150   5.763   2.933   3.371
   84SOL    HW1 1151   5.749   2.987   3.453
   84SOL    HW2 1152   5.752   2.992   3.290
   85SOL     OW 1153   1.611   1.894   4.382
   85SOL    HW1 1154   1.563   1.844   4.310
   85SOL    HW2 1155   1.554   1.971   4.412
   86SOL     OW 1156   6.789   0.566   4.939
   86SOL    HW1 1157   6.694   0.589   4.916
   86SOL    HW2 1158   6.789   0.505   5.018
   87SOL     OW 1159   5.089   3.530   0.720
   87SOL    HW1 1160   5.095   3.526   0.819
   87SOL    HW2 1161   5.128   3.447   0.680
   88SOL     OW 1162   3.518   1.867   5.935
   88SOL    HW1 1163   3.525   1.805   5.857
   88SOL    HW2 1164   3.576   1.947   5.920
   89SOL     OW 1165   0.863   2.670   5.525
   89SOL    HW1 1166   0.810   2.598   5.479
   89SOL    HW2 1167   0.800   2.734   5.570
   90SOL     OW 1168   3.347   5.691   2.396
   90SOL    HW1 1169   3.425   5.635   2.370
   90SOL    HW2 1170   3.264   5.635   2.397
   91SOL     OW 1171   4.779   4.164   4.873
   91SOL    HW1 1172   4.791   4.132   4.779
   91SOL    HW2 1173   4.804   4.090   4.937
   92SOL     OW 1174   4.157   4.589   0.387
   92SOL    HW1 1175   4.238   4.631   0.346
   92SOL    HW2 1176   4.084   4.586   0.319
   93SOL     OW 1177   3.056   4.018   6.598
   93SOL    HW1 1178   2.979   4.067   6.557
   93SOL    HW2 1179   3.138   4.074   6.593
   94SOL     OW 1180   2.353   5.586   6.538
   94SOL    HW1 1181   2.291   5.614   6.465
   94SOL    HW2 1182   2.440   5.635   6.528
   95SOL     OW 1183   1.243   0.666   3.182
   95SOL    HW1 1184   1.237   0.698   3.088
   95SOL    HW2 1185   1.277   0.572   3.184
   96SOL     OW 1186   3.357   0.222   5.509
   96SOL    HW1 1187   3.422   0.193   5.439
   96SOL    HW2 1188   3.272   0.169   5.499
   97SOL     OW 1189   2.263   3.115   5.876
   97SOL    HW1 1190   2.248   3.019   5.902
   97SOL    HW2 1191   2.275   3.120   5.777
   98SOL     OW 1192   6.876   3.393   0.851
   98SOL    HW1 1193   6.861   3.345   0.764
   98SOL    HW2 1194   6.896   3.489   0.833
   99SOL     OW 1195   3.878   3.726   1.049
   99SOL    HW1 1196   3.901   3.724   0.952
   99SOL    HW2 1197   3.789   3.682   1.064
  100SOL     OW 1198   6.494   6.910   5.231
  100SOL    HW1 1199   6.544   6.996   5.245
  100SOL    HW2 1200   6.414   6.908   5.291
  101SOL     OW 1201   1.759   5.081   2.381
  101SOL    HW1 1202   1.768   5.108   2.285
  101SOL    HW2 1203   1.675   5.028   2.393
  102SOL     OW 1204   4.073   6.336   2.674
  102SOL    HW1 1205   3.986   6.385   2.676
  102SOL    HW2 1206   4.069   6.264   2.604
  103SOL     OW 1207   2.468   1.232   2.066
  103SOL    HW1 1208   2.483   1.259   1.970
  103SOL    HW2 1209   2.501   1.304   2.126
  104SOL     OW 1210   0.487   5.831   2.528
  104SOL    HW1 1211   0.388   5.836   2.515
  104SOL    HW2 1212   0.532   5.893   2.464
  105SOL     OW 1213   6.174   2.802   6.814
  105SOL    HW1 1214   6.222   2.715   6.818
  105SOL    HW2 1215   6.087   2.790   6.766
  106SOL     OW 1216   3.464   6.296   4.981
  106SOL    HW1 1217   3.388   6.341   4.933
  106SOL    HW2 1218   3.437   6.202   5.004
  107SOL     OW 1219   2.059   1.352   1.261
  107SOL    HW1 1220   1.971   1.336   1.218
  107SOL    HW2 1221   2.069   1.449   1.284
  108SOL     OW 1222   3.408   4.983   6.099
  108SOL    HW1 1223   3.324   4.943   6.138
  108SOL    HW2 1224   3.417   4.955   6.004
  109SOL     OW 1225   6.976   0.425   1.725
  109SOL    HW1 1226   6.942   0.404   1.816
  109SOL    HW2 1227   7.004   0.521   1.720
  110SOL     OW 1228   3.236   5.700   5.050
  110SOL    HW1 1229   3.151   5.743   5.019
  110SOL    HW2 1230   3.220   5.653   5.137
  111SOL     OW 1231   2.224   1.386   4.156
  111SOL    HW1 1232   2.207   1.425   4.246
  111SOL    HW2 1233   2.287   1.445   4.105
  112SOL     OW 1234   4.294   6.860   6.408
  112SOL    HW1 1235   4.349   6.921   6.352
  112SOL    HW2 1236   4.204   6.847   6.365
  113SOL     OW 1237   6.236   6.336   2.943
  113SOL    HW1 1238   6.329   6.358   2.912
  113SOL    HW2 1239   6.234   6.334   3.043
  114SOL     OW 1240   0.589   6.966   1.637
  114SOL    HW1 1241   0.489   6.977   1.641
  114SOL    HW2 1242   0.616   6.939   1.545
  115SOL     OW 1243   4.327   1.559   3.216
  115SOL    HW1 1244   4.276   1.639   3.185
  115SOL    HW2 1245   4.382   1.522   3.141
  116SOL     OW 1246   5.580   4.747   1.061
  116SOL    HW1 1247   5.545   4.722   1.151
  116SOL    HW2 1248   5.521   4.709   0.990
  117SOL     OW 1249   1.470   2.157   0.287
  117SOL    HW1 1250   1.391   2.161   0.349
  117SOL    HW2 1251   1.437   2.161   0.192
  118SOL     OW 1252   1.544   0.767   3.690
  118SOL    HW1 1253   1.588   0.720   3.613
  118SOL    HW2 1254   1.602   0.758   3.771
  119SOL     OW 1255   0.741   1.135   0.219
  119SOL    HW1 1256   0.660   1.119   0.275
  119SOL    HW2 1257   0.731   1.089   0.131
  120SOL     OW 1258   6.170   6.971   0.041
  120SOL    HW1 1259   6.221   0.020   7.023
  120SOL    HW2 1260   6.158   6.990   0.138
  121SOL     OW 1261   1.692   3.830   5.787
  121SOL    HW1 1262   1.660   3.751   5.736
  121SOL    HW2 1263   1.614   3.890   5.807
  122SOL     OW 1264   2.130   3.543   6.264
  122SOL    HW1 1265   2.043   3.523   6.219
  122SOL    HW2 1266   2.196   3.573   6.196
  123SOL     OW 1267   0.518   0.745   2.530
  123SOL    HW1 1268   0.552   0.784   2.445
  123SOL    HW2 1269   0.424   0.774   2.546
  124SOL     OW 1270   4.709   2.776   0.653
  124SOL    HW1 1271   4.630   2.811   0.603
  124SOL    HW2 1272   4.739   2.845   0.719
  125SOL     OW 1273   3.022   1.846   1.331
  125SOL    HW1 1274   3.085   1.782   1.375
  125SOL    HW2 1275   3.017   1.826   1.233
  126SOL     OW 1276   2.361   3.947   0.959
  126SOL    HW1 1277   2.370   3.998   0.874
  126SOL    HW2 1278   2.291   3.990   1.016
  127SOL     OW 1279   0.726   5.286   6.826
  127SOL    HW1 1280   0.649   5.224   6.839
  127SOL    HW2 1281   0.767   5.308   6.915
  128SOL     OW 1282   5.279   2.887   1.454
  128SOL    HW1 1283   5.316   2.929   1.371
  128SOL    HW2 1284   5.191   2.928   1.475
  129SOL     OW 1285   2.329   3.385   6.400
  129SOL    HW1 1286   2.265   3.444   6.351
  129SOL    HW2 1287   2.414   3.379   6.348
  130SOL     OW 1288   0.813   2.151   3.690
  130SOL    HW1 1289   0.866   2.234   3.704
  130SOL    HW2 1290   0.791   2.110   3.779
  131SOL     OW 1291   5.327   1.864   3.704
  131SOL    HW1 1292   5.344   1.917   3.787
  131SOL    HW2 1293   5.261   1.914   3.647
  132SOL     OW 1294   2.518   2.399   1.138
  132SOL    HW1 1295   2.420   2.384   1.128
  132SOL    HW2 1296   2.564   2.313   1.157
  133SOL     OW 1297   5.076   6.516   3.747
  133SOL    HW1 1298   5.047   6.505   3.842
  133SOL    HW2 1299   5.084   6.613   3.726
  134SOL     OW 1300   6.344   1.239   2.667
  134SOL    HW1 1301   6.360   1.195   2.755
  134SOL    HW2 1302   6.253   1.212   2.633
  135SOL     OW 1303   5.762   4.057   3.516
  135SOL    HW1 1304   5.719   4.109   3.442
  135SOL    HW2 1305   5.800   4.120   3.583
  136SOL     OW 1306   2.944   3.910   5.971
  136SOL    HW1 1307   3.022   3.861   6.011
  136SOL    HW2 1308   2.953   3.911   5.872
  137SOL     OW 1309   5.756   2.174   4.510
  137SOL    HW1 1310   5.681   2.237   4.531
  137SOL    HW2 1311   5.824   2.221   4.454
  138SOL     OW 1312   1.192   4.338   2.262
  138SOL    HW1 1313   1.191   4.438   2.265
  138SOL    HW2 1314   1.099   4.303   2.279
  139SOL     OW 1315   1.687   0.137   4.716
  139SOL    HW1 1316   1.770   0.144   4.660
  139SOL    HW2 1317   1.634   0.057   4.687
  140SOL     OW 1318   1.041   6.089   2.714
  140SOL    HW1 1319   1.046   5.995   2.746
  140SOL    HW2 1320   0.989   6.144   2.780
  141SOL     OW 1321   6.766   3.061   5.397
  141SOL    HW1 1322   6.728   3.022   5.481
  141SOL    HW2 1323   6.850   3.110   5.417
  142SOL     OW 1324   0.775   4.320   1.018
  142SOL    HW1 1325   0.737   4.275   1.099
  142SOL    HW2 1326   0.835   4.255   0.969
  143SOL     OW 1327   5.846   4.178   1.106
  143SOL    HW1 1328   5.833   4.128   1.020
  143SOL    HW2 1329   5.846   4.113   1.182
  144SOL     OW 1330   1.229   5.988   5.711
  144SOL    HW1 1331   1.212   5.963   5.616
  144SOL    HW2 1332   1.157   6.050   5.743
  145SOL     OW 1333   6.980   5.453   0.511
  145SOL    HW1 1334   7.024   5.391   0.577
  145SOL    HW2 1335   0.011   5.535   0.499
  146SOL     OW 1336   4.889   0.193   6.884
  146SOL    HW1 1337   4.900   0.206   6.785
  146SOL    HW2 1338   4.824   0.119   6.901
  147SOL     OW 1339   6.140   3.797   6.195
  147SOL    HW1 1340   6.202   3.868   6.161
  147SOL    HW2 1341   6.045   3.822   6.172
  148SOL     OW 1342   6.545   5.436   6.687
  148SOL    HW1 1343   6.485   5.427   6.767
  148SOL    HW2 1344   6.636   5.402   6.709
  149SOL     OW 1345   3.507   1.690   3.897
  149SOL    HW1 1346   3.433   1.740   3.853
  149SOL    HW2 1347   3.480   1.595   3.910
  150SOL     OW 1348   5.920   5.746   6.671
  150SOL    HW1 1349   5.916   5.826   6.731
  150SOL    HW2 1350   5.830   5.728   6.632
  151SOL     OW 1351   3.082   2.186   0.923
  151SOL    HW1 1352   3.021   2.227   0.991
  151SOL    HW2 1353   3.040   2.195   0.832
  152SOL     OW 1354   1.368   0.985   2.353
  152SOL    HW1 1355   1.359   0.897   2.400
  152SOL    HW2 1356   1.356   1.060   2.418
  153SOL     OW 1357   2.803   0.683   1.479
  153SOL    HW1 1358   2.763   0.620   1.413
  153SOL    HW2 1359   2.895   0.652   1.503
  154SOL     OW 1360   0.724   1.846   2.184
  154SOL    HW1 1361   0.678   1.774   2.132
  154SOL    HW2 1362   0.816   1.860   2.147
  155SOL     OW 1363   6.733   1.534   3.145
  155SOL    HW1 1364   6.746   1.448   3.097
  155SOL    HW2 1365   6.643   1.535   3.188
  156SOL     OW 1366   0.264   2.373   0.696
  156SOL    HW1 1367   0.171   2.368   0.733
  156SOL    HW2 1368   0.260   2.406   0.601
  157SOL     OW 1369   5.774   3.053   1.769
  157SOL    HW1 1370   5.786   3.124   1.700
  157SOL    HW2 1371   5.687   3.066   1.817
  158SOL     OW 1372   2.323   4.966   2.427
  158SOL    HW1 1373   2.239   4.979   2.479
  158SOL    HW2 1374   2.347   5.050   2.380
  159SOL     OW 1375   4.556   4.807   2.263
  159SOL    HW1 1376   4.535   4.905   2.267
  159SOL    HW2 1377   4.505   4.765   2.188
  160SOL     OW 1378   5.392   5.565   0.705
  160SOL    HW1 1379   5.328   5.584   0.779
  160SOL    HW2 1380   5.474   5.521   0.743
  161SOL     OW 1381   1.912   5.805   3.943
  161SOL    HW1 1382   1.826   5.830   3.988
  161SOL    HW2 1383   1.969   5.886   3.932
  162SOL     OW 1384   3.722   5.725   0.128
  162SOL    HW1 1385   3.800   5.737   0.067
  162SOL    HW2 1386   3.706   5.627   0.142
  163SOL     OW 1387   6.186   5.205   0.980
  163SOL    HW1 1388   6.283   5.180   0.984
  163SOL    HW2 1389   6.175   5.301   1.005
  164SOL     OW 1390   7.018   5.031   0.665
  164SOL    HW1 1391   7.001   4.989   0.755
  164SOL    HW2 1392   0.009   4.959   0.598
  165SOL     OW 1393   5.142   3.215   1.619
  165SOL    HW1 1394   5.227   3.162   1.622
  165SOL    HW2 1395   5.071   3.167   1.671
  166SOL     OW 1396   6.958   4.106   2.918
  166SOL    HW1 1397   6.983   4.106   3.015
  166SOL    HW2 1398   6.996   4.187   2.874
  167SOL     OW 1399   4.991   3.278   0.505
  167SOL    HW1 1400   4.980   3.376   0.486
  167SOL    HW2 1401   4.901   3.235   0.514
  168SOL     OW 1402   2.314   3.028   1.080
  168SOL    HW1 1403   2.367   2.994   1.158
  168SOL    HW2 1404   2.255   3.103   1.110
  169SOL     OW 1405   4.869   1.348   1.961
  169SOL    HW1 1406   4.806   1.305   1.897
  169SOL    HW2 1407   4.833   1.436   1.990
  170SOL     OW 1408   0.984   1.158   3.482
  170SOL    HW1 1409   1.079   1.150   3.454
  170SOL    HW2 1410   0.950   1.068   3.510
  171SOL     OW 1411   3.634   4.618   6.674
  171SOL    HW1 1412   3.683   4.606   6.760
  171SOL    HW2 1413   3.567   4.692   6.684
  172SOL     OW 1414   5.853   1.928   3.143
  172SOL    HW1 1415   5.815   1.941   3.234
  172SOL    HW2 1416   5.953   1.927   3.149
  173SOL     OW 1417   6.523   2.065   4.570
  173SOL    HW1 1418   6.510   2.043   4.474
  173SOL    HW2 1419   6.473   2.149   4.591
  174SOL     OW 1420   3.757   5.316   3.284
  174SOL    HW1 1421   3.850   5.353   3.293
  174SOL    HW2 1422   3.735   5.262   3.365
  175SOL     OW 1423   2.551   0.251   1.362
  175SOL    HW1 1424   2.474   0.265   1.425
  175SOL    HW2 1425   2.540   0.163   1.317
  176SOL     OW 1426   0.664   4.643   0.535
  176SOL    HW1 1427   0.676   4.740   0.560
  176SOL    HW2 1428   0.628   4.637   0.442
  177SOL     OW 1429   5.756   3.018   2.819
  177SOL    HW1 1430   5.853   3.037   2.835
  177SOL    HW2 1431   5.710   3.102   2.789
  178SOL     OW 1432   2.406   3.075   6.762
  178SOL    HW1 1433   2.501   3.046   6.749
  178SOL    HW2 1434   2.391   3.161   6.712
  179SOL     OW 1435   3.663   0.779   5.406
  179SOL    HW1 1436   3.622   0.704   5.355
  179SOL    HW2 1437   3.757   0.756   5.432
  180SOL     OW 1438   1.653   6.648   0.326
  180SOL    HW1 1439   1.616   6.557   0.308
  180SOL    HW2 1440   1.582   6.705   0.367
  181SOL     OW 1441   3.531   2.968   6.296
  181SOL    HW1 1442   3.587   2.904   6.244
  181SOL    HW2 1443   3.455   2.999   6.240
  182SOL     OW 1444   3.991   1.536   5.090
  182SOL    HW1 1445   3.893   1.552   5.088
  182SOL    HW2 1446   4.015   1.463   5.026
  183SOL     OW 1447   3.976   1.989   3.111
  183SOL    HW1 1448   4.048   2.058   3.105
  183SOL    HW2 1449   4.000   1.923   3.182
  184SOL     OW 1450   1.307   6.394   4.424
  184SOL    HW1 1451   1.337   6.366   4.333
  184SOL    HW2 1452   1.210   6.372   4.435
  185SOL     OW 1453   0.085   1.526   6.060
  185SOL    HW1 1454   0.075   1.463   6.136
  185SOL    HW2 1455   0.165   1.501   6.005
  186SOL     OW 1456   5.828   0.645   4.957
  186SOL    HW1 1457   5.815   0.571   4.890
  186SOL    HW2 1458   5.741   0.690   4.975
  187SOL     OW 1459   4.041   0.196   3.166
  187SOL    HW1 1460   3.969   0.141   3.209
  187SOL    HW2 1461   4.106   0.135   3.120
  188SOL     OW 1462   0.377   1.745   2.986
  188SOL    HW1 1463   0.468   1.760   2.946
  188SOL    HW2 1464   0.360   1.814   3.056
  189SOL     OW 1465   2.323   5.167   1.417
  189SOL    HW1 1466   2.287   5.253   1.382
  189SOL    HW2 1467   2.300   5.158   1.514
  190SOL     OW 1468   5.358   2.227   4.858
  190SOL    HW1 1469   5.415   2.295   4.813
  190SOL    HW2 1470   5.262   2.252   4.847
  191SOL     OW 1471   6.022   6.597   0.159
  191SOL    HW1 1472   5.960   6.519   0.162
  191SOL    HW2 1473   6.056   6.609   0.065
  192SOL     OW 1474   1.004   5.774   2.222
  192SOL    HW1 1475   1.065   5.853   2.217
  192SOL    HW2 1476   1.048   5.696   2.179
  193SOL     OW 1477   4.717   2.782   5.461
  193SOL    HW1 1478   4.691   2.759   5.367
  193SOL    HW2 1479   4.636   2.816   5.510
  194SOL     OW 1480   3.668   0.720   2.920
  194SOL    HW1 1481   3.628   0.668   2.995
  194SOL    HW2 1482   3.727   0.659   2.866
  195SOL     OW 1483   1.969   0.031   5.174
  195SOL    HW1 1484   2.051   7.002   5.153
  195SOL    HW2 1485   1.915   0.044   5.091
  196SOL     OW 1486   2.819   0.173   0.795
  196SOL    HW1 1487   2.904   0.227   0.800
  196SOL    HW2 1488   2.838   0.084   0.753
  197SOL     OW 1489   2.706   6.884   1.537
  197SOL    HW1 1490   2.648   6.856   1.460
  197SOL    HW2 1491   2.708   6.811   1.606
  198SOL     OW 1492   4.699   0.535   2.493
  198SOL    HW1 1493   4.726   0.540   2.590
  198SOL    HW2 1494   4.615   0.588   2.479
  199SOL     OW 1495   6.608   1.909   3.900
  199SOL    HW1 1496   6.695   1.950   3.874
  199SOL    HW2 1497   6.599   1.819   3.858
  200SOL     OW 1498   0.946   4.119   0.921
  200SOL    HW1 1499   0.959   4.022   0.940
  200SOL    HW2 1500   1.033   4.168   0.936
  201SOL     OW 1501   0.201   6.959   5.818
  201SOL    HW1 1502   0.218   7.013   5.900
  201SOL    HW2 1503   0.265   6.986   5.747
  202SOL     OW 1504   4.186   1.168   0.105
  202SOL    HW1 1505   4.157   1.220   0.186
  202SOL    HW2 1506   4.106   1.127   0.062
  203SOL     OW 1507   5.728   2.310   5.093
  203SOL    HW1 1508   5.772   2.362   5.019
  203SOL    HW2 1509   5.747   2.213   5.082
  204SOL     OW 1510   1.303   0.558   5.280
  204SOL    HW1 1511   1.248   0.538   5.361
  204SOL    HW2 1512   1.243   0.584   5.204
  205SOL     OW 1513   0.180   2.287   2.928
  205SOL    HW1 1514   0.164   2.236   2.843
  205SOL    HW2 1515   0.098   2.337   2.953
  206SOL     OW 1516   0.822   4.414   0.661
  206SOL    HW1 1517   0.807   4.336   0.600
  206SOL    HW2 1518   0.770   4.493   0.629
  207SOL     OW 1519   6.336   1.708   3.407
  207SOL    HW1 1520   6.341   1.722   3.308
  207SOL    HW2 1521   6.264   1.641   3.427
  208SOL     OW 1522   6.697   4.004   5.252
  208SOL    HW1 1523   6.657   3.932   5.195
  208SOL    HW2 1524   6.751   4.065   5.194
  209SOL     OW 1525   0.502   5.786   4.232
  209SOL    HW1 1526   0.588   5.779   4.182
  209SOL    HW2 1527   0.494   5.878   4.271
  210SOL     OW 1528   4.118   2.132   0.571
  210SOL    HW1 1529   4.135   2.166   0.478
  210SOL    HW2 1530   4.205   2.104   0.612
  211SOL     OW 1531   1.960   6.556   2.659
  211SOL    HW1 1532   1.885   6.549   2.593
  211SOL    HW2 1533   2.040   6.507   2.623
  212SOL     OW 1534   1.003   4.036   1.850
  212SOL    HW1 1535   1.075   4.026   1.919
  212SOL    HW2 1536   1.012   4.124   1.804
  213SOL     OW 1537   3.214   0.298   0.576
  213SOL    HW1 1538   3.153   0.346   0.513
  213SOL    HW2 1539   3.278   0.241   0.524
  214SOL     OW 1540   4.232   5.319   2.212
  214SOL    HW1 1541   4.252   5.336   2.308
  214SOL    HW2 1542   4.231   5.221   2.194
  215SOL     OW 1543   2.388   3.756   0.502
  215SOL    HW1 1544   2.413   3.842   0.547
  215SOL    HW2 1545   2.405   3.679   0.565
  216SOL     OW 1546   1.613   6.049   3.896
  216SOL    HW1 1547   1.649   6.121   3.956
  216SOL    HW2 1548   1.624   5.960   3.941
  217SOL     OW 1549   1.433   2.586   3.911
  217SOL    HW1 1550   1.399   2.563   4.003
  217SOL    HW2 1551   1.390   2.670   3.880
  218SOL     OW 1552   0.248   3.490   4.478
  218SOL    HW1 1553   0.160   3.470   4.433
  218SOL    HW2 1554   0.302   3.550   4.419
  219SOL     OW 1555   4.535   0.455   0.291
  219SOL    HW1 1556   4.505   0.365   0.325
  219SOL    HW2 1557   4.530   0.456   0.191
  220SOL     OW 1558   3.271   6.614   1.455
  220SOL    HW1 1559   3.364   6.649   1.471
  220SOL    HW2 1560   3.209   6.691   1.442
  221SOL     OW 1561   6.542   4.134   0.754
  221SOL    HW1 1562   6.534   4.193   0.674
  221SOL    HW2 1563   6.522   4.186   0.836
  222SOL     OW 1564   1.954   4.570   5.893
  222SOL    HW1 1565   1.907   4.490   5.930
  222SOL    HW2 1566   1.889   4.646   5.885
  223SOL     OW 1567   6.241   3.588   6.344
  223SOL    HW1 1568   6.290   3.507   6.312
  223SOL    HW2 1569   6.259   3.665   6.283
  224SOL     OW 1570   2.696   1.739   5.021
  224SOL    HW1 1571   2.620   1.796   4.991
  224SOL    HW2 1572   2.744   1.785   5.096
  225SOL     OW 1573   4.779   4.077   6.565
  225SOL    HW1 1574   4.825   4.166   6.560
  225SOL    HW2 1575   4.752   4.059   6.659
  226SOL     OW 1576   1.191   1.261   5.743
  226SOL    HW1 1577   1.217   1.165   5.727
  226SOL    HW2 1578   1.269   1.320   5.726
  227SOL     OW 1579   1.522   3.985   1.990
  227SOL    HW1 1580   1.575   4.025   2.065
  227SOL    HW2 1581   1.425   3.983   2.014
  228SOL     OW 1582   2.350   0.184   3.654
  228SOL    HW1 1583   2.309   0.124   3.722
  228SOL    HW2 1584   2.435   0.223   3.691
  229SOL     OW 1585   6.141   6.059   6.707
  229SOL    HW1 1586   6.220   6.002   6.725
  229SOL    HW2 1587   6.170   6.152   6.682
  230SOL     OW 1588   3.413   4.946   3.892
  230SOL    HW1 1589   3.483   4.915   3.957
  230SOL    HW2 1590   3.322   4.928   3.930
  231SOL     OW 1591   6.048   1.844   6.525
  231SOL    HW1 1592   6.086   1.910   6.591
  231SOL    HW2 1593   5.971   1.796   6.567
  232SOL     OW 1594   0.624   3.210   6.704
  232SOL    HW1 1595   0.664   3.175   6.619
  232SOL    HW2 1596   0.603   3.134   6.765
  233SOL     OW 1597   3.157   1.339   2.736
  233SOL    HW1 1598   3.247   1.304   2.711
  233SOL    HW2 1599   3.104   1.266   2.780
  234SOL     OW 1600   5.614   0.738   5.977
  234SOL    HW1 1601   5.559   0.703   5.901
  234SOL    HW2 1602   5.589   0.833   5.995
  235SOL     OW 1603   4.228   2.590   1.672
  235SOL    HW1 1604   4.327   2.593   1.686
  235SOL    HW2 1605   4.193   2.502   1.702
  236SOL     OW 1606   5.475   2.747   6.372
  236SOL    HW1 1607   5.401   2.715   6.313
  236SOL    HW2 1608   5.516   2.828   6.332
  237SOL     OW 1609   6.258   4.447   1.713
  237SOL    HW1 1610   6.286   4.398   1.796
  237SOL    HW2 1611   6.339   4.488   1.670
  238SOL     OW 1612   5.395   1.439   0.639
  238SOL    HW1 1613   5.416   1.478   0.549
  238SOL    HW2 1614   5.453   1.481   0.708
  239SOL     OW 1615   0.568   5.070   6.905
  239SOL    HW1 1616   0.474   5.040   6.926
  239SOL    HW2 1617   0.629   4.991   6.906
  240SOL     OW 1618   7.001   3.099   3.490
  240SOL    HW1 1619   0.027   3.086   3.405
  240SOL    HW2 1620   0.040   3.116   3.565
  241SOL     OW 1621   2.885   2.185   4.931
  241SOL    HW1 1622   2.955   2.217   4.995
  241SOL    HW2 1623   2.806   2.153   4.982
  242SOL     OW 1624   3.925   3.536   3.913
  242SOL    HW1 1625   3.964   3.458   3.962
  242SOL    HW2 1626   3.983   3.557   3.834
  243SOL     OW 1627   4.626   0.351   6.345
  243SOL    HW1 1628   4.682   0.404   6.408
  243SOL    HW2 1629   4.554   0.304   6.396
  244SOL     OW 1630   5.861   2.647   5.415
  244SOL    HW1 1631   5.863   2.703   5.498
  244SOL    HW2 1632   5.842   2.552   5.440
  245SOL     OW 1633   5.223   3.380   4.081
  245SOL    HW1 1634   5.142   3.407   4.132
  245SOL    HW2 1635   5.301   3.372   4.143
  246SOL     OW 1636   4.466   2.149   3.331
  246SOL    HW1 1637   4.524   2.111   3.402
  246SOL    HW2 1638   4.459   2.248   3.342
  247SOL     OW 1639   2.800   1.986   0.690
  247SOL    HW1 1640   2.885   1.934   0.699
  247SOL    HW2 1641   2.821   2.084   0.697
  248SOL     OW 1642   3.885   1.064   2.294
  248SOL    HW1 1643   3.938   1.124   2.235
  248SOL    HW2 1644   3.911   1.078   2.389
  249SOL     OW 1645   4.254   6.684   4.920
  249SOL    HW1 1646   4.256   6.717   5.014
  249SOL    HW2 1647   4.240   6.584   4.921
  250SOL     OW 1648   5.068   3.043   0.323
  250SOL    HW1 1649   5.051   3.105   0.399
  250SOL    HW2 1650   5.003   3.063   0.249
  251SOL     OW 1651   4.800   3.982   5.602
  251SOL    HW1 1652   4.886   3.930   5.602
  251SOL    HW2 1653   4.809   4.061   5.541
  252SOL     OW 1654   6.804   5.634   6.639
  252SOL    HW1 1655   6.738   5.560   6.652
  252SOL    HW2 1656   6.756   5.718   6.615
  253SOL     OW 1657   2.333   4.868   6.078
  253SOL    HW1 1658   2.312   4.890   6.174
  253SOL    HW2 1659   2.297   4.777   6.056
  254SOL     OW 1660   5.698   2.417   3.706
  254SOL    HW1 1661   5.777   2.411   3.767
  254SOL    HW2 1662   5.727   2.410   3.611
  255SOL     OW 1663   1.760   5.233   5.220
  255SOL    HW1 1664   1.682   5.270   5.170
  255SOL    HW2 1665   1.734   5.219   5.316
  256SOL     OW 1666   6.390   3.503   5.740
  256SOL    HW1 1667   6.313   3.528   5.682
  256SOL    HW2 1668   6.452   3.442   5.689
  257SOL     OW 1669   4.708   0.430   3.917
  257SOL    HW1 1670   4.685   0.389   4.005
  257SOL    HW2 1671   4.649   0.390   3.846
  258SOL     OW 1672   2.358   5.390   5.229
  258SOL    HW1 1673   2.307   5.376   5.143
  258SOL    HW2 1674   2.328   5.322   5.296
  259SOL     OW 1675   0.175   1.704   2.611
  259SOL    HW1 1676   0.090   1.755   2.596
  259SOL    HW2 1677   0.251   1.769   2.622
  260SOL     OW 1678   4.566   0.447   1.828
  260SOL    HW1 1679   4.581   0.389   1.908
  260SOL    HW2 1680   4.606   0.404   1.747
  261SOL     OW 1681   6.720   3.241   0.695
  261SOL    HW1 1682   6.657   3.293   0.639
  261SOL    HW2 1683   6.687   3.239   0.790
  262SOL     OW 1684   0.548   3.427   0.093
  262SOL    HW1 1685   0.555   3.395   7.024
  262SOL    HW2 1686   0.629   3.399   0.144
  263SOL     OW 1687   2.065   0.856   4.501
  263SOL    HW1 1688   2.159   0.862   4.536
  263SOL    HW2 1689   2.067   0.828   4.405
  264SOL     OW 1690   6.282   3.445   6.940
  264SOL    HW1 1691   6.227   3.496   6.873
  264SOL    HW2 1692   6.224   3.376   6.985
  265SOL     OW 1693   5.078   6.605   2.474
  265SOL    HW1 1694   4.987   6.575   2.501
  265SOL    HW2 1695   5.114   6.543   2.404
  266SOL     OW 1696   3.543   2.627   5.800
  266SOL    HW1 1697   3.588   2.702   5.751
  266SOL    HW2 1698   3.467   2.593   5.745
  267SOL     OW 1699   0.390   1.291   6.755
  267SOL    HW1 1700   0.293   1.275   6.771
  267SOL    HW2 1701   0.427   1.348   6.828
  268SOL     OW 1702   3.359   1.007   5.636
  268SOL    HW1 1703   3.454   0.980   5.651
  268SOL    HW2 1704   3.355   1.105   5.619
  269SOL     OW 1705   0.622   3.525   1.891
  269SOL    HW1 1706   0.557   3.592   1.928
  269SOL    HW2 1707   0.626   3.534   1.791
  270SOL     OW 1708   1.134   6.953   0.728
  270SOL    HW1 1709   1.068   7.021   0.695
  270SOL    HW2 1710   1.090   6.895   0.796
  271SOL     OW 1711   6.790   1.962   6.932
  271SOL    HW1 1712   6.729   1.884   6.923
  271SOL    HW2 1713   6.742   2.037   6.978
  272SOL     OW 1714   3.629   5.478   4.480
  272SOL    HW1 1715   3.624   5.551   4.412
  272SOL    HW2 1716   3.723   5.441   4.483
  273SOL     OW 1717   1.921   4.592   4.733
  273SOL    HW1 1718   1.946   4.516   4.672
  273SOL    HW2 1719   1.960   4.577   4.824
  274SOL     OW 1720   4.170   2.174   3.021
  274SOL    HW1 1721   4.164   2.236   2.942
  274SOL    HW2 1722   4.257   2.125   3.019
  275SOL     OW 1723   6.203   4.697   5.143
  275SOL    HW1 1724   6.207   4.779   5.086
  275SOL    HW2 1725   6.184   4.724   5.238
  276SOL     OW 1726   6.881   6.827   3.039
  276SOL    HW1 1727   6.976   6.801   3.049
  276SOL    HW2 1728   6.857   6.831   2.941
  277SOL     OW 1729   1.488   4.354   0.219
  277SOL    HW1 1730   1.507   4.280   0.154
  277SOL    HW2 1731   1.431   4.320   0.293
  278SOL     OW 1732   6.215   5.246   2.125
  278SOL    HW1 1733   6.222   5.216   2.030
  278SOL    HW2 1734   6.302   5.287   2.153
  279SOL     OW 1735   6.710   3.419   4.028
  279SOL    HW1 1736   6.796   3.465   4.004
  279SOL    HW2 1737   6.655   3.407   3.946
  280SOL     OW 1738   3.034   0.121   2.958
  280SOL    HW1 1739   3.108   0.188   2.969
  280SOL    HW2 1740   2.985   0.140   2.873
  281SOL     OW 1741   2.548   4.583   1.904
  281SOL    HW1 1742   2.535   4.607   1.808
  281SOL    HW2 1743   2.645   4.592   1.929
  282SOL     OW 1744   3.528   1.742   5.708
  282SOL    HW1 1745   3.552   1.646   5.721
  282SOL    HW2 1746   3.531   1.765   5.611
  283SOL     OW 1747   6.203   1.179   6.756
  283SOL    HW1 1748   6.142   1.214   6.684
  283SOL    HW2 1749   6.148   1.151   6.835
  284SOL     OW 1750   1.274   4.185   3.141
  284SOL    HW1 1751   1.345   4.122   3.173
  284SOL    HW2 1752   1.299   4.279   3.166
  285SOL     OW 1753   5.969   4.910   5.239
  285SOL    HW1 1754   6.006   4.958   5.159
  285SOL    HW2 1755   5.912   4.834   5.207
  286SOL     OW 1756   3.226   5.606   5.847
  286SOL    HW1 1757   3.222   5.535   5.777
  286SOL    HW2 1758   3.134   5.640   5.866
  287SOL     OW 1759   0.507   4.030   0.404
  287SOL    HW1 1760   0.598   4.071   0.418
  287SOL    HW2 1761   0.439   4.082   0.457
  288SOL     OW 1762   4.061   1.030   6.146
  288SOL    HW1 1763   4.045   1.122   6.182
  288SOL    HW2 1764   4.023   1.023   6.054
  289SOL     OW 1765   0.263   4.563   5.166
  289SOL    HW1 1766   0.276   4.519   5.255
  289SOL    HW2 1767   0.265   4.493   5.095
  290SOL     OW 1768   6.175   1.774   4.531
  290SOL    HW1 1769   6.197   1.696   4.588
  290SOL    HW2 1770   6.191   1.859   4.583
  291SOL     OW 1771   1.600   2.620   4.361
  291SOL    HW1 1772   1.611   2.696   4.296
  291SOL    HW2 1773   1.689   2.593   4.397
  292SOL     OW 1774   1.528   2.256   3.286
  292SOL    HW1 1775   1.491   2.345   3.260
  292SOL    HW2 1776   1.554   2.258   3.383
  293SOL     OW 1777   4.268   5.697   2.032
  293SOL    HW1 1778   4.275   5.779   2.089
  293SOL    HW2 1779   4.172   5.671   2.022
  294SOL     OW 1780   0.610   5.661   6.181
  294SOL    HW1 1781   0.612   5.577   6.127
  294SOL    HW2 1782   0.628   5.739   6.121
  295SOL     OW 1783   3.725   1.804   4.028
  295SOL    HW1 1784   3.771   1.745   4.094
  295SOL    HW2 1785   3.634   1.769   4.009
  296SOL     OW 1786   4.241   1.805   3.101
  296SOL    HW1 1787   4.195   1.837   3.184
  296SOL    HW2 1788   4.311   1.870   3.074
  297SOL     OW 1789   2.637   4.608   3.104
  297SOL    HW1 1790   2.600   4.680   3.162
  297SOL    HW2 1791   2.737   4.616   3.098
  298SOL     OW 1792   4.143   6.312   1.065
  298SOL    HW1 1793   4.093   6.279   0.985
  298SOL    HW2 1794   4.163   6.409   1.054
  299SOL     OW 1795   5.195   3.411   5.882
  299SOL    HW1 1796   5.240   3.500   5.873
  299SOL    HW2 1797   5.182   3.371   5.791
  300SOL     OW 1798   6.577   1.332   1.960
  300SOL    HW1 1799   6.488   1.298   1.991
  300SOL    HW2 1800   6.610   1.273   1.886
  301SOL     OW 1801   4.667   3.480   1.201
  301SOL    HW1 1802   4.600   3.439   1.263
  301SOL    HW2 1803   4.759   3.468   1.239
  302SOL     OW 1804   0.963   0.871   3.356
  302SOL    HW1 1805   0.966   0.772   3.345
  302SOL    HW2 1806   0.912   0.893   3.439
  303SOL     OW 1807   5.621   0.951   2.128
  303SOL    HW1 1808   5.702   0.928   2.074
  303SOL    HW2 1809   5.589   0.869   2.176
  304SOL     OW 1810   2.324   6.965   3.872
  304SOL    HW1 1811   2.398   6.900   3.890
  304SOL    HW2 1812   2.314   0.002   3.950
  305SOL     OW 1813   0.746   3.316   0.230
  305SOL    HW1 1814   0.807   3.356   0.161
  305SOL    HW2 1815   0.799   3.264   0.296
  306SOL     OW 1816   2.112   1.431   3.135
  306SOL    HW1 1817   2.164   1.350   3.110
  306SOL    HW2 1818   2.162   1.483   3.204
  307SOL     OW 1819   4.838   0.510   0.915
  307SOL    HW1 1820   4.843   0.554   1.005
  307SOL    HW2 1821   4.745   0.475   0.901
  308SOL     OW 1822   5.983   3.612   4.704
  308SOL    HW1 1823   5.893   3.635   4.668
  308SOL    HW2 1824   6.035   3.562   4.635
  309SOL     OW 1825   3.131   5.014   6.489
  309SOL    HW1 1826   3.155   5.069   6.569
  309SOL    HW2 1827   3.167   4.921   6.501
  310SOL     OW 1828   6.105   6.826   5.676
  310SOL    HW1 1829   6.042   6.774   5.617
  310SOL    HW2 1830   6.113   6.779   5.764
  311SOL     OW 1831   5.974   4.844   1.505
  311SOL    HW1 1832   5.886   4.797   1.496
  311SOL    HW2 1833   6.047   4.785   1.471
  312SOL     OW 1834   4.311   1.266   5.844
  312SOL    HW1 1835   4.340   1.287   5.938
  312SOL    HW2 1836   4.363   1.188   5.810
  313SOL     OW 1837   3.287   4.253   1.714
  313SOL    HW1 1838   3.310   4.350   1.716
  313SOL    HW2 1839   3.188   4.242   1.713
  314SOL     OW 1840   3.728   5.010   6.680
  314SOL    HW1 1841   3.722   4.943   6.606
  314SOL    HW2 1842   3.684   5.095   6.651
  315SOL     OW 1843   0.978   3.460   3.780
  315SOL    HW1 1844   0.966   3.555   3.750
  315SOL    HW2 1845   1.027   3.460   3.868
  316SOL     OW 1846   3.022   1.919   4.170
  316SOL    HW1 1847   3.043   2.015   4.192
  316SOL    HW2 1848   3.101   1.862   4.193
  317SOL     OW 1849   1.160   0.482   1.065
  317SOL    HW1 1850   1.142   0.493   0.967
  317SOL    HW2 1851   1.222   0.405   1.080
  318SOL     OW 1852   0.882   6.176   6.881
  318SOL    HW1 1853   0.887   6.276   6.879
  318SOL    HW2 1854   0.848   6.142   6.793
  319SOL     OW 1855   6.773   0.769   3.684
  319SOL    HW1 1856   6.773   0.674   3.654
  319SOL    HW2 1857   6.853   0.816   3.648
  320SOL     OW 1858   6.211   1.788   0.308
  320SOL    HW1 1859   6.159   1.849   0.248
  320SOL    HW2 1860   6.294   1.833   0.338
  321SOL     OW 1861   3.433   1.170   1.067
  321SOL    HW1 1862   3.360   1.113   1.029
  321SOL    HW2 1863   3.416   1.186   1.164
  322SOL     OW 1864   3.773   4.054   4.946
  322SOL    HW1 1865   3.839   3.983   4.969
  322SOL    HW2 1866   3.792   4.136   5.000
  323SOL     OW 1867   0.698   3.784   6.581
  323SOL    HW1 1868   0.673   3.717   6.511
  323SOL    HW2 1869   0.766   3.743   6.642
  324SOL     OW 1870   1.864   2.170   3.607
  324SOL    HW1 1871   1.908   2.090   3.648
  324SOL    HW2 1872   1.927   2.214   3.543
  325SOL     OW 1873   1.313   3.002   1.495
  325SOL    HW1 1874   1.252   3.011   1.416
  325SOL    HW2 1875   1.381   2.930   1.478
  326SOL     OW 1876   1.483   4.996   6.398
  326SOL    HW1 1877   1.437   5.052   6.467
  326SOL    HW2 1878   1.581   5.017   6.399
  327SOL     OW 1879   1.471   5.333   3.673
  327SOL    HW1 1880   1.463   5.302   3.768
  327SOL    HW2 1881   1.551   5.291   3.631
  328SOL     OW 1882   2.200   6.076   1.660
  328SOL    HW1 1883   2.169   6.118   1.746
  328SOL    HW2 1884   2.123   6.031   1.615
  329SOL     OW 1885   3.311   4.195   4.685
  329SOL    HW1 1886   3.320   4.159   4.592
  329SOL    HW2 1887   3.372   4.273   4.697
  330SOL     OW 1888   3.237   6.759   1.029
  330SOL    HW1 1889   3.286   6.723   1.108
  330SOL    HW2 1890   3.150   6.712   1.020
  331SOL     OW 1891   3.730   5.019   0.156
  331SOL    HW1 1892   3.752   5.053   0.064
  331SOL    HW2 1893   3.800   5.050   0.220
  332SOL     OW 1894   3.447   1.793   4.689
  332SOL    HW1 1895   3.349   1.803   4.704
  332SOL    HW2 1896   3.486   1.735   4.760
  333SOL     OW 1897   3.194   6.846   6.313
  333SOL    HW1 1898   3.290   6.867   6.298
  333SOL    HW2 1899   3.182   6.814   6.407
  334SOL     OW 1900   2.550   0.122   0.916
  334SOL    HW1 1901   2.639   0.158   0.887
  334SOL    HW2 1902   2.490   0.198   0.942
  335SOL     OW 1903   3.206   6.533   4.334
  335SOL    HW1 1904   3.175   6.476   4.411
  335SOL    HW2 1905   3.155   6.619   4.334
  336SOL     OW 1906   2.848   1.497   3.609
  336SOL    HW1 1907   2.912   1.430   3.572
  336SOL    HW2 1908   2.899   1.569   3.657
  337SOL     OW 1909   6.944   3.108   0.591
  337SOL    HW1 1910   6.976   3.191   0.544
  337SOL    HW2 1911   6.859   3.128   0.640
  338SOL     OW 1912   3.161   2.724   0.936
  338SOL    HW1 1913   3.075   2.774   0.927
  338SOL    HW2 1914   3.142   2.630   0.963
  339SOL     OW 1915   3.401   6.262   4.330
  339SOL    HW1 1916   3.462   6.320   4.277
  339SOL    HW2 1917   3.368   6.187   4.273
  340SOL     OW 1918   4.940   4.443   5.315
  340SOL    HW1 1919   4.888   4.393   5.246
  340SOL    HW2 1920   4.903   4.424   5.406
  341SOL     OW 1921   6.395   0.351   4.741
  341SOL    HW1 1922   6.388   0.320   4.647
  341SOL    HW2 1923   6.307   0.389   4.771
  342SOL     OW 1924   5.903   3.602   6.646
  342SOL    HW1 1925   5.928   3.534   6.716
  342SOL    HW2 1926   5.833   3.563   6.587
  343SOL     OW 1927   1.946   5.482   0.811
  343SOL    HW1 1928   2.021   5.458   0.873
  343SOL    HW2 1929   1.860   5.483   0.862
  344SOL     OW 1930   1.692   4.656   2.276
  344SOL    HW1 1931   1.697   4.628   2.180
  344SOL    HW2 1932   1.754   4.734   2.291
  345SOL     OW 1933   6.504   1.324   5.091
  345SOL    HW1 1934   6.527   1.355   4.999
  345SOL    HW2 1935   6.448   1.394   5.137
  346SOL     OW 1936   1.575   0.895   1.978
  346SOL    HW1 1937   1.487   0.928   2.011
  346SOL    HW2 1938   1.648   0.926   2.040
  347SOL     OW 1939   3.801   6.311   6.122
  347SOL    HW1 1940   3.818   6.319   6.024
  347SOL    HW2 1941   3.887   6.298   6.170
  348SOL     OW 1942   4.688   5.010   1.465
  348SOL    HW1 1943   4.758   4.939   1.464
  348SOL    HW2 1944   4.717   5.086   1.407
  349SOL     OW 1945   6.378   4.426   1.300
  349SOL    HW1 1946   6.437   4.367   1.356
  349SOL    HW2 1947   6.289   4.437   1.345
  350SOL     OW 1948   3.406   3.359   1.506
  350SOL    HW1 1949   3.314   3.321   1.519
  350SOL    HW2 1950   3.472   3.285   1.497
  351SOL     OW 1951   2.443   2.856   0.432
  351SOL    HW1 1952   2.456   2.766   0.474
  351SOL    HW2 1953   2.369   2.904   0.480
  352SOL     OW 1954   3.570   0.206   4.894
  352SOL    HW1 1955   3.566   0.285   4.832
  352SOL    HW2 1956   3.663   0.169   4.896
  353SOL     OW 1957   2.675   6.877   0.939
  353SOL    HW1 1958   2.604   6.946   0.924
  353SOL    HW2 1959   2.753   6.918   0.985
  354SOL     OW 1960   3.940   2.403   0.352
  354SOL    HW1 1961   3.926   2.316   0.305
  354SOL    HW2 1962   3.857   2.428   0.401
  355SOL     OW 1963   6.897   3.361   2.533
  355SOL    HW1 1964   6.820   3.419   2.557
  355SOL    HW2 1965   6.978   3.418   2.518
  356SOL     OW 1966   3.945   5.960   5.184
  356SOL    HW1 1967   4.037   5.963   5.145
  356SOL    HW2 1968   3.883   6.015   5.128
  357SOL     OW 1969   6.324   6.886   5.438
  357SOL    HW1 1970   6.242   6.941   5.425
  357SOL    HW2 1971   6.343   6.877   5.536
  358SOL     OW 1972   5.820   0.044   1.897
  358SOL    HW1 1973   5.916   0.065   1.882
  358SOL    HW2 1974   5.807   0.013   1.991
  359SOL     OW 1975   1.785   2.285   2.321
  359SOL    HW1 1976   1.836   2.304   2.406
  359SOL    HW2 1977   1.757   2.189   2.320
  360SOL     OW 1978   1.471   5.532   6.296
  360SOL    HW1 1979   1.502   5.469   6.367
  360SOL    HW2 1980   1.530   5.523   6.215
  361SOL     OW 1981   5.417   5.800   3.165
  361SOL    HW1 1982   5.433   5.891   3.203
  361SOL    HW2 1983   5.329   5.798   3.118
  362SOL     OW 1984   3.866   4.149   0.739
  362SOL    HW1 1985   3.805   4.150   0.660
  362SOL    HW2 1986   3.839   4.221   0.803
  363SOL     OW 1987   4.542   4.463   3.251
  363SOL    HW1 1988   4.549   4.374   3.206
  363SOL    HW2 1989   4.621   4.477   3.310
  364SOL     OW 1990   0.141   5.753   5.842
  364SOL    HW1 1991   0.235   5.785   5.833
  364SOL    HW2 1992   0.140   5.661   5.881
  365SOL     OW 1993   4.894   5.580   2.426
  365SOL    HW1 1994   4.952   5.544   2.500
  365SOL    HW2 1995   4.808   5.528   2.423
  366SOL     OW 1996   6.203   0.905   0.422
  366SOL    HW1 1997   6.117   0.903   0.472
  366SOL    HW2 1998   6.189   0.870   0.329
  367SOL     OW 1999   4.990   2.966   1.528
  367SOL    HW1 2000   4.929   3.031   1.482
  367SOL    HW2 2001   5.000   2.992   1.624
  368SOL     OW 2002   0.856   3.853   4.669
  368SOL    HW1 2003   0.785   3.788   4.697
  368SOL    HW2 2004   0.827   3.946   4.691
  369SOL     OW 2005   6.386   4.995   1.816
  369SOL    HW1 2006   6.312   5.061   1.817
  369SOL    HW2 2007   6.357   4.913   1.766
  370SOL     OW 2008   3.064   1.881   5.581
  370SOL    HW1 2009   3.138   1.867   5.646
  370SOL    HW2 2010   3.085   1.834   5.495
  371SOL     OW 2011   2.617   3.540   6.340
  371SOL    HW1 2012   2.674   3.568   6.262
  371SOL    HW2 2013   2.577   3.622   6.382
  372SOL     OW 2014   6.901   0.730   5.163
  372SOL    HW1 2015   6.898   0.653   5.099
  372SOL    HW2 2016   6.823   0.790   5.145
  373SOL     OW 2017   6.118   6.323   5.319
  373SOL    HW1 2018   6.193   6.278   5.366
  373SOL    HW2 2019   6.039   6.328   5.380
  374SOL     OW 2020   3.607   0.015   2.515
  374SOL    HW1 2021   3.592   6.957   2.570
  374SOL    HW2 2022   3.688   0.003   2.458
  375SOL     OW 2023   0.840   4.680   3.768
  375SOL    HW1 2024   0.855   4.632   3.854
  375SOL    HW2 2025   0.791   4.620   3.705
  376SOL     OW 2026   1.822   3.339   3.988
  376SOL    HW1 2027   1.920   3.331   4.006
  376SOL    HW2 2028   1.791   3.430   4.013
  377SOL     OW 2029   6.620   2.813   1.857
  377SOL    HW1 2030   6.535   2.806   1.804
  377SOL    HW2 2031   6.642   2.909   1.873
  378SOL     OW 2032   3.641   2.816   5.631
  378SOL    HW1 2033   3.643   2.876   5.551
  378SOL    HW2 2034   3.732   2.813   5.672
  379SOL     OW 2035   6.332   4.164   1.681
  379SOL    HW1 2036   6.392   4.199   1.753
  379SOL    HW2 2037   6.247   4.217   1.680
  380SOL     OW 2038   2.529   0.928   2.003
  380SOL    HW1 2039   2.606   0.870   2.031
  380SOL    HW2 2040   2.552   1.024   2.020
  381SOL     OW 2041   1.772   4.836   1.678
  381SOL    HW1 2042   1.784   4.848   1.579
  381SOL    HW2 2043   1.797   4.743   1.704
  382SOL     OW 2044   5.574   6.441   6.443
  382SOL    HW1 2045   5.586   6.539   6.424
  382SOL    HW2 2046   5.607   6.388   6.365
  383SOL     OW 2047   5.870   2.788   6.207
  383SOL    HW1 2048   5.784   2.740   6.190
  383SOL    HW2 2049   5.918   2.745   6.284
  384SOL     OW 2050   0.003   4.222   4.741
  384SOL    HW1 2051   0.025   4.312   4.703
  384SOL    HW2 2052   6.936   4.195   4.711
  385SOL     OW 2053   4.299   6.269   6.482
  385SOL    HW1 2054   4.329   6.198   6.418
  385SOL    HW2 2055   4.335   6.358   6.453
  386SOL     OW 2056   3.481   0.077   5.273
  386SOL    HW1 2057   3.413   0.096   5.203
  386SOL    HW2 2058   3.458   7.017   5.321
  387SOL     OW 2059   6.633   6.119   3.456
  387SOL    HW1 2060   6.580   6.084   3.379
  387SOL    HW2 2061   6.640   6.048   3.526
  388SOL     OW 2062   0.534   2.315   4.008
  388SOL    HW1 2063   0.624   2.289   4.044
  388SOL    HW2 2064   0.544   2.354   3.917
  389SOL     OW 2065   4.121   4.280   1.610
  389SOL    HW1 2066   4.044   4.342   1.627
  389SOL    HW2 2067   4.200   4.311   1.662
  390SOL     OW 2068   3.180   1.443   0.314
  390SOL    HW1 2069   3.262   1.493   0.341
  390SOL    HW2 2070   3.200   1.345   0.311
  391SOL     OW 2071   2.267   3.781   5.273
  391SOL    HW1 2072   2.199   3.759   5.204
  391SOL    HW2 2073   2.329   3.852   5.238
  392SOL     OW 2074   1.778   3.325   2.117
  392SOL    HW1 2075   1.834   3.256   2.161
  392SOL    HW2 2076   1.686   3.289   2.101
  393SOL     OW 2077   1.410   5.408   0.533
  393SOL    HW1 2078   1.400   5.499   0.493
  393SOL    HW2 2079   1.502   5.399   0.572
  394SOL     OW 2080   1.050   2.928   6.556
  394SOL    HW1 2081   0.993   2.871   6.615
  394SOL    HW2 2082   1.123   2.969   6.611
  395SOL     OW 2083   5.356   4.194   2.163
  395SOL    HW1 2084   5.418   4.147   2.100
  395SOL    HW2 2085   5.402   4.208   2.251
  396SOL     OW 2086   2.463   2.532   2.315
  396SOL    HW1 2087   2.412   2.609   2.355
  396SOL    HW2 2088   2.525   2.495   2.384
  397SOL     OW 2089   5.363   1.653   6.545
  397SOL    HW1 2090   5.304   1.718   6.498
  397SOL    HW2 2091   5.355   1.666   6.644
  398SOL     OW 2092   1.319   6.315   4.161
  398SOL    HW1 2093   1.306   6.223   4.127
  398SOL    HW2 2094   1.340   6.377   4.085
  399SOL     OW 2095   6.324   6.013   4.527
  399SOL    HW1 2096   6.415   6.013   4.569
  399SOL    HW2 2097   6.334   6.007   4.428
  400SOL     OW 2098   6.105   6.357   5.029
  400SOL    HW1 2099   6.169   6.312   4.965
  400SOL    HW2 2100   6.125   6.328   5.122
  401SOL     OW 2101   5.706   0.062   6.068
  401SOL    HW1 2102   5.780   0.008   6.108
  401SOL    HW2 2103   5.630   0.067   6.134
  402SOL     OW 2104   6.515   0.049   2.631
  402SOL    HW1 2105   6.584   0.104   2.585
  402SOL    HW2 2106   6.442   0.026   2.568
  403SOL     OW 2107   3.230   0.148   6.139
  403SOL    HW1 2108   3.311   0.103   6.176
  403SOL    HW2 2109   3.179   0.191   6.214
  404SOL     OW 2110   2.534   5.606   5.572
  404SOL    HW1 2111   2.619   5.601   5.625
  404SOL    HW2 2112   2.491   5.515   5.570
  405SOL     OW 2113   2.053   4.259   3.563
  405SOL    HW1 2114   2.107   4.179   3.587
  405SOL    HW2 2115   2.022   4.304   3.646
  406SOL     OW 2116   0.789   4.761   5.267
  406SOL    HW1 2117   0.736   4.809   5.198
  406SOL    HW2 2118   0.746   4.772   5.357
  407SOL     OW 2119   2.312   2.803   3.571
  407SOL    HW1 2120   2.286   2.894   3.539
  407SOL    HW2 2121   2.292   2.736   3.500
  408SOL     OW 2122   3.423   2.041   2.764
  408SOL    HW1 2123   3.494   1.974   2.786
  408SOL    HW2 2124   3.453   2.096   2.685
  409SOL     OW 2125   6.949   3.282   1.582
  409SOL    HW1 2126   0.016   3.321   1.590
  409SOL    HW2 2127   6.892   3.342   1.526
  410SOL     OW 2128   1.553   1.725   0.959
  410SOL    HW1 2129   1.544   1.726   1.059
  410SOL    HW2 2130   1.501   1.800   0.919
  411SOL     OW 2131   6.132   1.781   2.019
  411SOL    HW1 2132   6.079   1.754   2.099
  411SOL    HW2 2133   6.222   1.814   2.048
  412SOL     OW 2134   3.802   4.905   2.908
  412SOL    HW1 2135   3.712   4.878   2.940
  412SOL    HW2 2136   3.794   4.961   2.826
  413SOL     OW 2137   4.108   5.327   1.730
  413SOL    HW1 2138   4.071   5.304   1.820
  413SOL    HW2 2139   4.149   5.418   1.734
  414SOL     OW 2140   3.851   0.204   4.207
  414SOL    HW1 2141   3.824   0.298   4.226
  414SOL    HW2 2142   3.832   0.182   4.111
  415SOL     OW 2143   0.015   1.570   0.120
  415SOL    HW1 2144   6.952   1.524   0.113
  415SOL    HW2 2145   0.022   1.641   0.050
  416SOL     OW 2146   4.875   4.608   4.469
  416SOL    HW1 2147   4.879   4.692   4.415
  416SOL    HW2 2148   4.783   4.569   4.463
  417SOL     OW 2149   1.852   0.979   6.563
  417SOL    HW1 2150   1.783   0.944   6.500
  417SOL    HW2 2151   1.943   0.964   6.525
  418SOL     OW 2152   2.796   0.122   5.245
  418SOL    HW1 2153   2.830   0.207   5.207
  418SOL    HW2 2154   2.871   0.055   5.250
  419SOL     OW 2155   0.132   6.773   3.066
  419SOL    HW1 2156   0.178   6.719   3.137
  419SOL    HW2 2157   0.187   6.773   2.983
  420SOL     OW 2158   5.336   1.394   6.505
  420SOL    HW1 2159   5.316   1.338   6.584
  420SOL    HW2 2160   5.356   1.488   6.534
  421SOL     OW 2161   5.843   3.888   5.018
  421SOL    HW1 2162   5.786   3.866   5.097
  421SOL    HW2 2163   5.785   3.921   4.944
  422SOL     OW 2164   5.528   1.816   0.788
  422SOL    HW1 2165   5.598   1.778   0.728
  422SOL    HW2 2166   5.455   1.749   0.800
  423SOL     OW 2167   2.265   1.333   6.581
  423SOL    HW1 2168   2.188   1.352   6.643
  423SOL    HW2 2169   2.230   1.302   6.493
  424SOL     OW 2170   1.955   5.018   2.851
  424SOL    HW1 2171   1.974   4.923   2.873
  424SOL    HW2 2172   1.905   5.023   2.765
  425SOL     OW 2173   4.725   0.910   4.820
  425SOL    HW1 2174   4.811   0.861   4.831
  425SOL    HW2 2175   4.727   0.994   4.873
  426SOL     OW 2176   2.298   2.753   5.102
  426SOL    HW1 2177   2.322   2.835   5.051
  426SOL    HW2 2178   2.374   2.729   5.164
  427SOL     OW 2179   4.871   1.123   4.395
  427SOL    HW1 2180   4.808   1.109   4.471
  427SOL    HW2 2181   4.825   1.100   4.309
  428SOL     OW 2182   2.476   0.669   4.271
  428SOL    HW1 2183   2.408   0.681   4.198
  428SOL    HW2 2184   2.451   0.726   4.349
  429SOL     OW 2185   0.748   5.507   4.403
  429SOL    HW1 2186   0.674   5.463   4.454
  429SOL    HW2 2187   0.759   5.462   4.315
  430SOL     OW 2188   1.597   6.915   3.811
  430SOL    HW1 2189   1.677   6.975   3.823
  430SOL    HW2 2190   1.519   6.970   3.782
  431SOL     OW 2191   2.320   2.051   0.509
  431SOL    HW1 2192   2.398   1.990   0.495
  431SOL    HW2 2193   2.257   2.042   0.432
  432SOL     OW 2194   5.691   1.735   1.266
  432SOL    HW1 2195   5.765   1.777   1.319
  432SOL    HW2 2196   5.666   1.794   1.189
  433SOL     OW 2197   3.564   6.473   6.161
  433SOL    HW1 2198   3.473   6.447   6.128
  433SOL    HW2 2199   3.623   6.392   6.161
  434SOL     OW 2200   3.919   5.500   3.945
  434SOL    HW1 2201   3.871   5.585   3.921
  434SOL    HW2 2202   3.852   5.428   3.966
  435SOL     OW 2203   3.952   1.018   5.605
  435SOL    HW1 2204   4.047   1.049   5.600
  435SOL    HW2 2205   3.937   0.944   5.540
  436SOL     OW 2206   3.258   6.147   2.681
  436SOL    HW1 2207   3.243   6.234   2.635
  436SOL    HW2 2208   3.231   6.071   2.621
  437SOL     OW 2209   0.197   1.367   5.013
  437SOL    HW1 2210   0.249   1.387   5.096
  437SOL    HW2 2211   0.171   1.453   4.969
  438SOL     OW 2212   1.291   4.592   2.985
  438SOL    HW1 2213   1.326   4.672   3.034
  438SOL    HW2 2214   1.226   4.543   3.043
  439SOL     OW 2215   5.822   0.680   2.874
  439SOL    HW1 2216   5.785   0.663   2.782
  439SOL    HW2 2217   5.887   0.607   2.897
  440SOL     OW 2218   3.631   1.258   6.787
  440SOL    HW1 2219   3.644   1.321   6.711
  440SOL    HW2 2220   3.541   1.274   6.828
  441SOL     OW 2221   5.985   4.445   3.056
  441SOL    HW1 2222   6.019   4.531   3.095
  441SOL    HW2 2223   5.906   4.464   2.997
  442SOL     OW 2224   4.847   4.421   5.570
  442SOL    HW1 2225   4.855   4.520   5.565
  442SOL    HW2 2226   4.851   4.392   5.666
  443SOL     OW 2227   5.360   4.822   3.491
  443SOL    HW1 2228   5.372   4.724   3.504
  443SOL    HW2 2229   5.310   4.861   3.568
  444SOL     OW 2230   3.962   1.328   6.493
  444SOL    HW1 2231   3.983   1.286   6.582
  444SOL    HW2 2232   4.024   1.406   6.479
  445SOL     OW 2233   2.655   6.149   2.780
  445SOL    HW1 2234   2.567   6.121   2.818
  445SOL    HW2 2235   2.729   6.114   2.838
  446SOL     OW 2236   4.353   5.694   3.042
  446SOL    HW1 2237   4.277   5.757   3.023
  446SOL    HW2 2238   4.365   5.632   2.964
  447SOL     OW 2239   6.213   3.269   5.444
  447SOL    HW1 2240   6.182   3.335   5.376
  447SOL    HW2 2241   6.291   3.306   5.494
  448SOL     OW 2242   1.871   1.336   3.157
  448SOL    HW1 2243   1.874   1.242   3.122
  448SOL    HW2 2244   1.962   1.376   3.153
  449SOL     OW 2245   2.263   2.669   2.993
  449SOL    HW1 2246   2.255   2.574   2.963
  449SOL    HW2 2247   2.331   2.676   3.065
  450SOL     OW 2248   0.762   4.583   3.349
  450SOL    HW1 2249   0.748   4.676   3.383
  450SOL    HW2 2250   0.680   4.528   3.366
  451SOL     OW 2251   6.951   2.810   3.515
  451SOL    HW1 2252   6.980   2.906   3.514
  451SOL    HW2 2253   6.863   2.801   3.470
  452SOL     OW 2254   3.295   6.821   2.630
  452SOL    HW1 2255   3.272   6.724   2.638
  452SOL    HW2 2256   3.215   6.876   2.654
  453SOL     OW 2257   4.217   0.709   6.463
  453SOL    HW1 2258   4.143   0.655   6.503
  453SOL    HW2 2259   4.251   0.664   6.381
  454SOL     OW 2260   0.058   4.384   6.448
  454SOL    HW1 2261   7.021   4.319   6.404
  454SOL    HW2 2262   0.035   4.477   6.419
  455SOL     OW 2263   6.473   3.616   5.374
  455SOL    HW1 2264   6.534   3.680   5.420
  455SOL    HW2 2265   6.487   3.622   5.275
  456SOL     OW 2266   1.657   0.734   3.932
  456SOL    HW1 2267   1.716   0.665   3.972
  456SOL    HW2 2268   1.625   0.796   4.003
  457SOL     OW 2269   1.146   5.552   5.788
  457SOL    HW1 2270   1.193   5.633   5.822
  457SOL    HW2 2271   1.180   5.471   5.837
  458SOL     OW 2272   2.585   1.140   2.788
  458SOL    HW1 2273   2.629   1.211   2.844
  458SOL    HW2 2274   2.582   1.055   2.839
  459SOL     OW 2275   2.182   0.651   5.656
  459SOL    HW1 2276   2.274   0.614   5.671
  459SOL    HW2 2277   2.185   0.716   5.580
  460SOL     OW 2278   1.488   1.308   5.062
  460SOL    HW1 2279   1.542   1.251   5.000
  460SOL    HW2 2280   1.485   1.401   5.028
  461SOL     OW 2281   6.608   4.775   5.058
  461SOL    HW1 2282   6.542   4.850   5.065
  461SOL    HW2 2283   6.701   4.812   5.055
  462SOL     OW 2284   3.851   3.776   4.910
  462SOL    HW1 2285   3.757   3.803   4.889
  462SOL    HW2 2286   3.903   3.765   4.826
  463SOL     OW 2287   6.613   6.712   2.783
  463SOL    HW1 2288   6.683   6.669   2.726
  463SOL    HW2 2289   6.630   6.810   2.789
  464SOL     OW 2290   3.001   6.661   6.112
  464SOL    HW1 2291   3.049   6.741   6.145
  464SOL    HW2 2292   2.951   6.618   6.187
  465SOL     OW 2293   1.241   2.494   7.008
  465SOL    HW1 2294   1.222   2.501   6.910
  465SOL    HW2 2295   1.179   2.428   0.024
  466SOL     OW 2296   3.095   6.136   4.339
  466SOL    HW1 2297   3.181   6.187   4.342
  466SOL    HW2 2298   3.070   6.118   4.244
  467SOL     OW 2299   0.492   1.538   2.431
  467SOL    HW1 2300   0.505   1.488   2.517
  467SOL    HW2 2301   0.496   1.636   2.448
  468SOL     OW 2302   5.338   0.293   6.359
  468SOL    HW1 2303   5.321   0.289   6.458
  468SOL    HW2 2304   5.262   0.342   6.315
  469SOL     OW 2305   3.033   4.626   5.705
  469SOL    HW1 2306   3.036   4.613   5.804
  469SOL    HW2 2307   2.941   4.655   5.678
  470SOL     OW 2308   3.293   6.249   3.196
  470SOL    HW1 2309   3.300   6.336   3.148
  470SOL    HW2 2310   3.284   6.174   3.131
  471SOL     OW 2311   2.694   2.209   4.059
  471SOL    HW1 2312   2.665   2.216   4.154
  471SOL    HW2 2313   2.644   2.134   4.014
  472SOL     OW 2314   5.743   4.666   6.522
  472SOL    HW1 2315   5.771   4.724   6.446
  472SOL    HW2 2316   5.669   4.711   6.573
  473SOL     OW 2317   0.083   2.732   2.504
  473SOL    HW1 2318   0.087   2.714   2.603
  473SOL    HW2 2319   0.164   2.785   2.477
  474SOL     OW 2320   6.203   5.371   5.188
  474SOL    HW1 2321   6.254   5.309   5.248
  474SOL    HW2 2322   6.204   5.335   5.095
  475SOL     OW 2323   5.539   3.133   6.986
  475SOL    HW1 2324   5.469   3.066   7.012
  475SOL    HW2 2325   5.627   3.105   0.000
  476SOL     OW 2326   0.203   4.050   2.159
  476SOL    HW1 2327   0.157   3.962   2.145
  476SOL    HW2 2328   0.242   4.081   2.072
  477SOL     OW 2329   2.813   6.356   3.609
  477SOL    HW1 2330   2.741   6.405   3.559
  477SOL    HW2 2331   2.787   6.260   3.617
  478SOL     OW 2332   4.181   5.873   2.926
  478SOL    HW1 2333   4.167   5.952   2.867
  478SOL    HW2 2334   4.153   5.895   3.020
  479SOL     OW 2335   3.993   3.100   4.023
  479SOL    HW1 2336   4.049   3.182   4.013
  479SOL    HW2 2337   3.941   3.105   4.108
  480SOL     OW 2338   1.629   0.128   2.819
  480SOL    HW1 2339   1.622   0.168   2.728
  480SOL    HW2 2340   1.589   0.036   2.818
  481SOL     OW 2341   1.298   6.099   1.410
  481SOL    HW1 2342   1.248   6.032   1.355
  481SOL    HW2 2343   1.234   6.143   1.474
  482SOL     OW 2344   5.390   4.892   2.995
  482SOL    HW1 2345   5.356   4.984   3.012
  482SOL    HW2 2346   5.463   4.894   2.927
  483SOL     OW 2347   6.631   2.795   2.624
  483SOL    HW1 2348   6.713   2.851   2.632
  483SOL    HW2 2349   6.551   2.853   2.610
  484SOL     OW 2350   1.859   4.288   4.330
  484SOL    HW1 2351   1.821   4.213   4.276
  484SOL    HW2 2352   1.920   4.342   4.273
  485SOL     OW 2353   5.739   3.389   2.224
  485SOL    HW1 2354   5.703   3.384   2.131
  485SOL    HW2 2355   5.669   3.357   2.288
  486SOL     OW 2356   5.840   0.355   6.550
  486SOL    HW1 2357   5.778   0.312   6.485
  486SOL    HW2 2358   5.842   0.301   6.635
  487SOL     OW 2359   0.077   0.222   3.499
  487SOL    HW1 2360   0.075   0.257   3.405
  487SOL    HW2 2361   0.172   0.199   3.523
  488SOL     OW 2362   1.721   6.779   2.704
  488SOL    HW1 2363   1.766   6.692   2.721
  488SOL    HW2 2364   1.788   6.845   2.670
  489SOL     OW 2365   6.197   5.833   4.701
  489SOL    HW1 2366   6.100   5.825   4.677
  489SOL    HW2 2367   6.244   5.888   4.631
  490SOL     OW 2368   1.393   5.722   5.527
  490SOL    HW1 2369   1.453   5.731   5.607
  490SOL    HW2 2370   1.416   5.637   5.478
  491SOL     OW 2371   0.252   3.485   0.711
  491SOL    HW1 2372   0.268   3.510   0.616
  491SOL    HW2 2373   0.156   3.459   0.724
  492SOL     OW 2374   1.513   1.380   5.624
  492SOL    HW1 2375   1.474   1.315   5.559
  492SOL    HW2 2376   1.612   1.365   5.630
  493SOL     OW 2377   2.526   0.157   5.193
  493SOL    HW1 2378   2.501   0.165   5.290
  493SOL    HW2 2379   2.623   0.131   5.186
  494SOL     OW 2380   2.735   1.291   5.926
  494SOL    HW1 2381   2.716   1.379   5.971
  494SOL    HW2 2382   2.811   1.246   5.974
  495SOL     OW 2383   4.328   5.993   5.858
  495SOL    HW1 2384   4.379   5.908   5.871
  495SOL    HW2 2385   4.261   5.980   5.785
  496SOL     OW 2386   6.285   2.010   2.701
  496SOL    HW1 2387   6.369   2.054   2.670
  496SOL    HW2 2388   6.280   1.917   2.664
  497SOL     OW 2389   3.695   1.128   5.858
  497SOL    HW1 2390   3.673   1.218   5.822
  497SOL    HW2 2391   3.674   1.058   5.790
  498SOL     OW 2392   0.055   5.349   1.845
  498SOL    HW1 2393   7.004   5.284   1.847
  498SOL    HW2 2394   0.019   5.442   1.853
  499SOL     OW 2395   2.912   4.908   6.132
  499SOL    HW1 2396   3.009   4.883   6.131
  499SOL    HW2 2397   2.863   4.851   6.066
  500SOL     OW 2398   5.258   2.711   6.154
  500SOL    HW1 2399   5.204   2.795   6.159
  500SOL    HW2 2400   5.345   2.730   6.110
  501SOL     OW 2401   1.882   6.948   2.540
  501SOL    HW1 2402   1.952   6.911   2.479
  501SOL    HW2 2403   1.924   7.014   2.603
  502SOL     OW 2404   1.767   4.868   5.926
  502SOL    HW1 2405   1.837   4.917   5.875
  502SOL    HW2 2406   1.686   4.857   5.869
  503SOL     OW 2407   3.120   4.740   6.398
  503SOL    HW1 2408   3.029   4.744   6.437
  503SOL    HW2 2409   3.147   4.644   6.388
  504SOL     OW 2410   6.712   6.314   1.890
  504SOL    HW1 2411   6.799   6.308   1.939
  504SOL    HW2 2412   6.656   6.234   1.912
  505SOL     OW 2413   3.972   6.805   5.590
  505SOL    HW1 2414   3.939   6.893   5.556
  505SOL    HW2 2415   4.025   6.819   5.674
  506SOL     OW 2416   3.119   5.363   2.921
  506SOL    HW1 2417   3.170   5.312   2.852
  506SOL    HW2 2418   3.164   5.451   2.938
  507SOL     OW 2419   4.505   1.341   1.971
  507SOL    HW1 2420   4.417   1.338   2.018
  507SOL    HW2 2421   4.490   1.358   1.874
  508SOL     OW 2422   6.804   2.956   3.900
  508SOL    HW1 2423   6.770   3.022   3.834
  508SOL    HW2 2424   6.895   2.984   3.932
  509SOL     OW 2425   5.059   0.621   0.270
  509SOL    HW1 2426   5.021   0.678   0.197
  509SOL    HW2 2427   4.985   0.573   0.316
  510SOL     OW 2428   6.423   4.916   5.401
  510SOL    HW1 2429   6.507   4.896   5.451
  510SOL    HW2 2430   6.408   4.846   5.331
  511SOL     OW 2431   1.072   1.672   6.458
  511SOL    HW1 2432   1.102   1.585   6.496
  511SOL    HW2 2433   1.143   1.740   6.471
  512SOL     OW 2434   5.690   2.067   0.066
  512SOL    HW1 2435   5.684   2.114   0.153
  512SOL    HW2 2436   5.702   1.969   0.082
  513SOL     OW 2437   5.868   6.810   2.578
  513SOL    HW1 2438   5.890   6.760   2.662
  513SOL    HW2 2439   5.777   6.782   2.546
  514SOL     OW 2440   0.018   6.635   3.838
  514SOL    HW1 2441   0.032   6.618   3.740
  514SOL    HW2 2442   6.986   6.716   3.851
  515SOL     OW 2443   2.849   0.809   6.057
  515SOL    HW1 2444   2.814   0.761   6.138
  515SOL    HW2 2445   2.813   0.903   6.057
  516SOL     OW 2446   2.524   4.302   1.812
  516SOL    HW1 2447   2.512   4.387   1.864
  516SOL    HW2 2448   2.581   4.319   1.732
  517SOL     OW 2449   3.761   4.982   2.651
  517SOL    HW1 2450   3.857   4.987   2.625
  517SOL    HW2 2451   3.708   4.945   2.575
  518SOL     OW 2452   2.250   3.035   3.434
  518SOL    HW1 2453   2.217   3.129   3.440
  518SOL    HW2 2454   2.268   3.012   3.338
  519SOL     OW 2455   6.809   6.590   4.121
  519SOL    HW1 2456   6.841   6.671   4.071
  519SOL    HW2 2457   6.852   6.509   4.082
  520SOL     OW 2458   1.060   3.544   6.953
  520SOL    HW1 2459   1.109   3.519   0.013
  520SOL    HW2 2460   1.106   3.622   6.910
  521SOL     OW 2461   4.533   5.635   4.577
  521SOL    HW1 2462   4.601   5.707   4.597
  521SOL    HW2 2463   4.546   5.601   4.484
  522SOL     OW 2464   4.218   3.826   1.317
  522SOL    HW1 2465   4.215   3.796   1.221
  522SOL    HW2 2466   4.126   3.820   1.357
  523SOL     OW 2467   6.964   6.336   1.671
  523SOL    HW1 2468   6.971   6.249   1.623
  523SOL    HW2 2469   6.877   6.341   1.720
  524SOL     OW 2470   1.044   2.855   2.353
  524SOL    HW1 2471   1.001   2.820   2.436
  524SOL    HW2 2472   1.000   2.814   2.273
  525SOL     OW 2473   1.224   3.318   6.781
  525SOL    HW1 2474   1.231   3.361   6.871
  525SOL    HW2 2475   1.301   3.347   6.724
  526SOL     OW 2476   2.681   6.954   4.141
  526SOL    HW1 2477   2.650   6.892   4.069
  526SOL    HW2 2478   2.666   0.024   4.112
  527SOL     OW 2479   0.927   2.525   6.815
  527SOL    HW1 2480   0.959   2.431   6.804
  527SOL    HW2 2481   0.904   2.541   6.911
  528SOL     OW 2482   0.714   3.640   3.913
  528SOL    HW1 2483   0.751   3.669   3.824
  528SOL    HW2 2484   0.780   3.663   3.985
  529SOL     OW 2485   2.408   0.450   5.648
  529SOL    HW1 2486   2.462   0.501   5.715
  529SOL    HW2 2487   2.426   0.352   5.659
  530SOL     OW 2488   3.803   3.004   2.327
  530SOL    HW1 2489   3.764   2.914   2.311
  530SOL    HW2 2490   3.837   3.042   2.241
  531SOL     OW 2491   2.091   0.764   2.617
  531SOL    HW1 2492   2.182   0.801   2.598
  531SOL    HW2 2493   2.049   0.735   2.531
  532SOL     OW 2494   1.692   4.034   0.446
  532SOL    HW1 2495   1.743   3.970   0.504
  532SOL    HW2 2496   1.755   4.082   0.386
  533SOL     OW 2497   5.397   0.033   3.448
  533SOL    HW1 2498   5.390   0.080   3.360
  533SOL    HW2 2499   5.354   0.089   3.519
  534SOL     OW 2500   0.745   5.758   2.105
  534SOL    HW1 2501   0.731   5.847   2.062
  534SOL    HW2 2502   0.827   5.761   2.163
  535SOL     OW 2503   6.594   4.451   3.122
  535SOL    HW1 2504   6.606   4.396   3.205
  535SOL    HW2 2505   6.684   4.477   3.086
  536SOL     OW 2506   6.537   5.832   2.702
  536SOL    HW1 2507   6.438   5.824   2.692
  536SOL    HW2 2508   6.562   5.813   2.797
  537SOL     OW 2509   3.483   6.645   4.361
  537SOL    HW1 2510   3.398   6.593   4.362
  537SOL    HW2 2511   3.506   6.673   4.454
  538SOL     OW 2512   1.330   5.224   5.460
  538SOL    HW1 2513   1.276   5.140   5.461
  538SOL    HW2 2514   1.272   5.300   5.488
  539SOL     OW 2515   1.165   5.393   2.178
  539SOL    HW1 2516   1.070   5.387   2.210
  539SOL    HW2 2517   1.169   5.371   2.081
  540SOL     OW 2518   1.952   0.999   3.987
  540SOL    HW1 2519   1.985   0.989   3.894
  540SOL    HW2 2520   1.854   1.016   3.986
  541SOL     OW 2521   4.180   6.076   3.421
  541SOL    HW1 2522   4.113   6.131   3.370
  541SOL    HW2 2523   4.268   6.123   3.421
  542SOL     OW 2524   2.964   6.549   6.567
  542SOL    HW1 2525   3.051   6.501   6.570
  542SOL    HW2 2526   2.980   6.648   6.560
  543SOL     OW 2527   5.734   3.897   3.752
  543SOL    HW1 2528   5.775   3.946   3.676
  543SOL    HW2 2529   5.669   3.829   3.717
  544SOL     OW 2530   0.588   4.984   0.203
  544SOL    HW1 2531   0.579   4.942   0.113
  544SOL    HW2 2532   0.684   5.004   0.221
  545SOL     OW 2533   4.410   1.203   1.435
  545SOL    HW1 2534   4.375   1.234   1.347
  545SOL    HW2 2535   4.506   1.177   1.424
  546SOL     OW 2536   0.625   4.080   1.535
  546SOL    HW1 2537   0.579   4.164   1.563
  546SOL    HW2 2538   0.724   4.092   1.541
  547SOL     OW 2539   3.457   2.707   0.867
  547SOL    HW1 2540   3.375   2.711   0.924
  547SOL    HW2 2541   3.476   2.798   0.830
  548SOL     OW 2542   3.580   3.488   0.784
  548SOL    HW1 2543   3.507   3.522   0.843
  548SOL    HW2 2544   3.644   3.562   0.764
  549SOL     OW 2545   5.536   2.539   1.553
  549SOL    HW1 2546   5.498   2.518   1.463
  549SOL    HW2 2547   5.591   2.622   1.548
  550SOL     OW 2548   0.070   5.019   3.623
  550SOL    HW1 2549   0.169   5.013   3.622
  550SOL    HW2 2550   0.037   5.010   3.717
  551SOL     OW 2551   0.175   0.751   1.121
  551SOL    HW1 2552   0.272   0.762   1.141
  551SOL    HW2 2553   0.162   0.674   1.059
  552SOL     OW 2554   4.876   5.391   5.137
  552SOL    HW1 2555   4.938   5.383   5.215
  552SOL    HW2 2556   4.851   5.299   5.106
  553SOL     OW 2557   3.506   0.440   3.880
  553SOL    HW1 2558   3.493   0.483   3.969
  553SOL    HW2 2559   3.440   0.366   3.868
  554SOL     OW 2560   5.381   5.544   6.966
  554SOL    HW1 2561   5.414   5.475   0.005
  554SOL    HW2 2562   5.366   5.630   7.015
  555SOL     OW 2563   3.432   5.124   5.355
  555SOL    HW1 2564   3.334   5.138   5.369
  555SOL    HW2 2565   3.461   5.170   5.272
  556SOL     OW 2566   5.187   1.538   4.349
  556SOL    HW1 2567   5.231   1.494   4.428
  556SOL    HW2 2568   5.256   1.588   4.297
  557SOL     OW 2569   0.122   4.851   6.324
  557SOL    HW1 2570   0.164   4.874   6.411
  557SOL    HW2 2571   0.150   4.917   6.254
  558SOL     OW 2572   3.989   3.144   3.740
  558SOL    HW1 2573   4.026   3.111   3.827
  558SOL    HW2 2574   3.976   3.243   3.746
  559SOL     OW 2575   6.541   6.143   5.913
  559SOL    HW1 2576   6.465   6.185   5.863
  559SOL    HW2 2577   6.521   6.046   5.929
  560SOL     OW 2578   6.124   3.720   3.281
  560SOL    HW1 2579   6.040   3.712   3.227
  560SOL    HW2 2580   6.185   3.787   3.239
  561SOL     OW 2581   6.588   2.665   6.998
  561SOL    HW1 2582   6.503   2.652   6.946
  561SOL    HW2 2583   6.567   2.675   0.070
  562SOL     OW 2584   4.619   0.316   6.055
  562SOL    HW1 2585   4.644   0.222   6.029
  562SOL    HW2 2586   4.620   0.325   6.154
  563SOL     OW 2587   1.896   1.218   3.422
  563SOL    HW1 2588   1.823   1.247   3.483
  563SOL    HW2 2589   1.885   1.263   3.333
  564SOL     OW 2590   0.124   2.010   6.559
  564SOL    HW1 2591   0.202   2.019   6.621
  564SOL    HW2 2592   0.040   2.039   6.605
  565SOL     OW 2593   3.207   3.657   3.749
  565SOL    HW1 2594   3.260   3.694   3.825
  565SOL    HW2 2595   3.176   3.733   3.690
  566SOL     OW 2596   1.776   4.158   3.265
  566SOL    HW1 2597   1.823   4.104   3.335
  566SOL    HW2 2598   1.841   4.221   3.222
  567SOL     OW 2599   2.995   2.713   0.669
  567SOL    HW1 2600   2.950   2.702   0.757
  567SOL    HW2 2601   3.058   2.790   0.672
  568SOL     OW 2602   5.706   6.863   0.679
  568SOL    HW1 2603   5.741   6.770   0.679
  568SOL    HW2 2604   5.782   6.928   0.693
  569SOL     OW 2605   1.300   2.637   1.363
  569SOL    HW1 2606   1.373   2.704   1.350
  569SOL    HW2 2607   1.226   2.657   1.299
  570SOL     OW 2608   3.363   0.187   6.661
  570SOL    HW1 2609   3.452   0.212   6.625
  570SOL    HW2 2610   3.296   0.257   6.638
  571SOL     OW 2611   2.893   4.804   3.964
  571SOL    HW1 2612   2.865   4.746   3.887
  571SOL    HW2 2613   2.853   4.769   4.048
  572SOL     OW 2614   1.904   5.440   5.014
  572SOL    HW1 2615   1.948   5.405   4.931
  572SOL    HW2 2616   1.806   5.452   4.996
  573SOL     OW 2617   6.362   1.006   5.555
  573SOL    HW1 2618   6.403   0.922   5.592
  573SOL    HW2 2619   6.265   0.992   5.540
  574SOL     OW 2620   3.902   7.025   5.311
  574SOL    HW1 2621   3.899   0.004   5.411
  574SOL    HW2 2622   3.856   0.081   5.273
  575SOL     OW 2623   4.302   2.513   1.256
  575SOL    HW1 2624   4.250   2.580   1.203
  575SOL    HW2 2625   4.239   2.458   1.310
  576SOL     OW 2626   1.572   3.127   2.791
  576SOL    HW1 2627   1.651   3.073   2.818
  576SOL    HW2 2628   1.488   3.084   2.825
  577SOL     OW 2629   1.519   0.415   2.322
  577SOL    HW1 2630   1.458   0.402   2.400
  577SOL    HW2 2631   1.516   0.334   2.263
  578SOL     OW 2632   1.260   5.816   5.950
  578SOL    HW1 2633   1.352   5.847   5.973
  578SOL    HW2 2634   1.225   5.871   5.874
  579SOL     OW 2635   1.299   4.940   2.945
  579SOL    HW1 2636   1.266   4.983   2.861
  579SOL    HW2 2637   1.394   4.911   2.932
  580SOL     OW 2638   4.035   4.796   5.707
  580SOL    HW1 2639   4.073   4.887   5.724
  580SOL    HW2 2640   4.071   4.732   5.775
  581SOL     OW 2641   1.247   3.021   3.301
  581SOL    HW1 2642   1.324   2.958   3.311
  581SOL    HW2 2643   1.178   3.001   3.371
  582SOL     OW 2644   4.424   6.020   3.182
  582SOL    HW1 2645   4.431   6.103   3.237
  582SOL    HW2 2646   4.334   5.979   3.194
  583SOL     OW 2647   2.733   6.059   5.298
  583SOL    HW1 2648   2.826   6.027   5.317
  583SOL    HW2 2649   2.706   6.027   5.207
  584SOL     OW 2650   3.581   0.060   6.874
  584SOL    HW1 2651   3.505   0.105   6.827
  584SOL    HW2 2652   3.660   0.057   6.813
  585SOL     OW 2653   4.449   0.787   1.262
  585SOL    HW1 2654   4.355   0.814   1.239
  585SOL    HW2 2655   4.473   0.822   1.353
  586SOL     OW 2656   3.596   0.477   1.298
  586SOL    HW1 2657   3.665   0.549   1.286
  586SOL    HW2 2658   3.519   0.494   1.236
  587SOL     OW 2659   4.985   2.489   2.741
  587SOL    HW1 2660   5.012   2.567   2.797
  587SOL    HW2 2661   4.997   2.510   2.644
  588SOL     OW 2662   1.905   4.929   0.876
  588SOL    HW1 2663   1.810   4.955   0.892
  588SOL    HW2 2664   1.965   5.001   0.911
  589SOL     OW 2665   4.090   5.754   1.501
  589SOL    HW1 2666   4.142   5.682   1.455
  589SOL    HW2 2667   3.993   5.729   1.503
  590SOL     OW 2668   5.790   1.605   0.786
  590SOL    HW1 2669   5.839   1.520   0.765
  590SOL    HW2 2670   5.834   1.649   0.864
  591SOL     OW 2671   4.049   6.273   3.976
  591SOL    HW1 2672   3.958   6.300   4.007
  591SOL    HW2 2673   4.110   6.266   4.055
  592SOL     OW 2674   4.479   0.279   2.949
  592SOL    HW1 2675   4.509   0.184   2.955
  592SOL    HW2 2676   4.471   0.318   3.041
  593SOL     OW 2677   4.731   2.164   4.721
  593SOL    HW1 2678   4.649   2.194   4.770
  593SOL    HW2 2679   4.802   2.139   4.786
  594SOL     OW 2680   6.506   1.201   0.641
  594SOL    HW1 2681   6.466   1.118   0.680
  594SOL    HW2 2682   6.605   1.193   0.638
  595SOL     OW 2683   5.982   6.537   3.558
  595SOL    HW1 2684   5.992   6.624   3.606
  595SOL    HW2 2685   5.965   6.555   3.461
  596SOL     OW 2686   6.932   5.013   3.388
  596SOL    HW1 2687   6.999   4.962   3.442
  596SOL    HW2 2688   6.900   5.092   3.440
  597SOL     OW 2689   2.575   6.227   6.057
  597SOL    HW1 2690   2.605   6.147   6.005
  597SOL    HW2 2691   2.578   6.207   6.155
  598SOL     OW 2692   3.103   4.069   4.852
  598SOL    HW1 2693   3.026   4.132   4.842
  598SOL    HW2 2694   3.188   4.117   4.828
  599SOL     OW 2695   2.006   5.757   3.180
  599SOL    HW1 2696   2.047   5.716   3.099
  599SOL    HW2 2697   1.909   5.736   3.184
  600SOL     OW 2698   6.768   3.200   6.056
  600SOL    HW1 2699   6.730   3.121   6.104
  600SOL    HW2 2700   6.694   3.258   6.023
  601SOL     OW 2701   1.269   1.887   4.288
  601SOL    HW1 2702   1.194   1.862   4.227
  601SOL    HW2 2703   1.264   1.833   4.371
  602SOL     OW 2704   2.628   0.969   5.783
  602SOL    HW1 2705   2.568   1.016   5.718
  602SOL    HW2 2706   2.712   0.941   5.738
  603SOL     OW 2707   1.706   2.018   5.370
  603SOL    HW1 2708   1.790   1.963   5.365
  603SOL    HW2 2709   1.696   2.056   5.462
  604SOL     OW 2710   1.383   2.061   1.566
  604SOL    HW1 2711   1.346   1.972   1.593
  604SOL    HW2 2712   1.339   2.133   1.619
  605SOL     OW 2713   6.978   4.299   1.856
  605SOL    HW1 2714   6.997   4.214   1.807
  605SOL    HW2 2715   6.940   4.367   1.794
  606SOL     OW 2716   4.970   6.398   5.562
  606SOL    HW1 2717   4.905   6.459   5.518
  606SOL    HW2 2718   5.063   6.433   5.550
  607SOL     OW 2719   0.196   5.210   5.066
  607SOL    HW1 2720   0.268   5.228   5.133
  607SOL    HW2 2721   0.137   5.137   5.098
  608SOL     OW 2722   3.814   6.707   6.592
  608SOL    HW1 2723   3.809   6.647   6.672
  608SOL    HW2 2724   3.779   6.660   6.511
  609SOL     OW 2725   3.906   2.853   1.800
  609SOL    HW1 2726   3.926   2.780   1.736
  609SOL    HW2 2727   3.833   2.825   1.862
  610SOL     OW 2728   5.229   2.356   0.017
  610SOL    HW1 2729   5.180   2.398   0.093
  610SOL    HW2 2730   5.197   2.262   0.005
  611SOL     OW 2731   3.452   6.979   2.224
  611SOL    HW1 2732   3.482   6.907   2.161
  611SOL    HW2 2733   3.517   0.031   2.219
  612SOL     OW 2734   3.010   5.859   4.995
  612SOL    HW1 2735   2.970   5.769   5.012
  612SOL    HW2 2736   3.022   5.872   4.897
  613SOL     OW 2737   5.113   4.000   5.162
  613SOL    HW1 2738   5.200   4.041   5.134
  613SOL    HW2 2739   5.129   3.911   5.205
  614SOL     OW 2740   5.606   5.382   4.936
  614SOL    HW1 2741   5.644   5.357   4.847
  614SOL    HW2 2742   5.676   5.427   4.991
  615SOL     OW 2743   0.146   2.531   1.220
  615SOL    HW1 2744   0.163   2.437   1.250
  615SOL    HW2 2745   0.229   2.570   1.181
  616SOL     OW 2746   6.641   2.557   2.466
  616SOL    HW1 2747   6.570   2.586   2.401
  616SOL    HW2 2748   6.656   2.630   2.533
  617SOL     OW 2749   1.115   4.749   5.836
  617SOL    HW1 2750   1.130   4.774   5.931
  617SOL    HW2 2751   1.017   4.750   5.815
  618SOL     OW 2752   1.499   2.757   0.785
  618SOL    HW1 2753   1.499   2.784   0.882
  618SOL    HW2 2754   1.562   2.681   0.772
  619SOL     OW 2755   2.050   2.148   0.797
  619SOL    HW1 2756   2.031   2.082   0.725
  619SOL    HW2 2757   2.094   2.229   0.758
  620SOL     OW 2758   4.548   2.351   0.024
  620SOL    HW1 2759   4.571   2.448   0.017
  620SOL    HW2 2760   4.571   2.318   0.116
  621SOL     OW 2761   4.146   5.295   6.636
  621SOL    HW1 2762   4.072   5.313   6.571
  621SOL    HW2 2763   4.153   5.197   6.653
  622SOL     OW 2764   1.076   1.422   6.578
  622SOL    HW1 2765   0.998   1.456   6.630
  622SOL    HW2 2766   1.119   1.347   6.628
  623SOL     OW 2767   0.411   6.473   6.150
  623SOL    HW1 2768   0.317   6.469   6.185
  623SOL    HW2 2769   0.449   6.380   6.149
  624SOL     OW 2770   0.983   2.594   1.711
  624SOL    HW1 2771   1.081   2.579   1.695
  624SOL    HW2 2772   0.936   2.602   1.623
  625SOL     OW 2773   2.238   2.358   1.154
  625SOL    HW1 2774   2.235   2.334   1.251
  625SOL    HW2 2775   2.220   2.276   1.098
  626SOL     OW 2776   2.827   5.519   3.507
  626SOL    HW1 2777   2.787   5.611   3.505
  626SOL    HW2 2778   2.926   5.525   3.494
  627SOL     OW 2779   5.039   0.525   0.750
  627SOL    HW1 2780   5.015   0.474   0.667
  627SOL    HW2 2781   4.964   0.519   0.815
  628SOL     OW 2782   4.615   4.935   5.171
  628SOL    HW1 2783   4.555   4.919   5.250
  628SOL    HW2 2784   4.602   4.862   5.104
  629SOL     OW 2785   0.184   6.817   1.040
  629SOL    HW1 2786   0.103   6.841   1.093
  629SOL    HW2 2787   0.157   6.784   0.949
  630SOL     OW 2788   5.488   2.131   2.827
  630SOL    HW1 2789   5.540   2.217   2.826
  630SOL    HW2 2790   5.435   2.122   2.743
  631SOL     OW 2791   3.625   6.969   5.710
  631SOL    HW1 2792   3.604   0.041   5.723
  631SOL    HW2 2793   3.622   6.947   5.613
  632SOL     OW 2794   2.610   1.548   0.004
  632SOL    HW1 2795   2.698   1.501   7.016
  632SOL    HW2 2796   2.573   1.573   6.940
  633SOL     OW 2797   3.793   5.101   6.935
  633SOL    HW1 2798   3.781   5.200   6.925
  633SOL    HW2 2799   3.780   5.056   6.847
  634SOL     OW 2800   4.400   4.529   1.833
  634SOL    HW1 2801   4.408   4.603   1.900
  634SOL    HW2 2802   4.424   4.442   1.875
  635SOL     OW 2803   4.779   6.129   2.426
  635SOL    HW1 2804   4.839   6.152   2.504
  635SOL    HW2 2805   4.685   6.154   2.449
  636SOL     OW 2806   5.326   6.254   6.420
  636SOL    HW1 2807   5.258   6.230   6.350
  636SOL    HW2 2808   5.350   6.351   6.412
  637SOL     OW 2809   5.154   4.443   1.599
  637SOL    HW1 2810   5.195   4.409   1.683
  637SOL    HW2 2811   5.114   4.366   1.548
  638SOL     OW 2812   5.342   1.188   2.324
  638SOL    HW1 2813   5.402   1.196   2.403
  638SOL    HW2 2814   5.302   1.096   2.321
  639SOL     OW 2815   5.200   4.398   2.218
  639SOL    HW1 2816   5.225   4.301   2.214
  639SOL    HW2 2817   5.101   4.407   2.206
  640SOL     OW 2818   2.373   4.649   4.995
  640SOL    HW1 2819   2.469   4.677   5.001
  640SOL    HW2 2820   2.317   4.713   5.048
  641SOL     OW 2821   0.420   5.605   4.668
  641SOL    HW1 2822   0.385   5.666   4.596
  641SOL    HW2 2823   0.449   5.519   4.627
  642SOL     OW 2824   0.355   4.300   4.172
  642SOL    HW1 2825   0.353   4.284   4.073
  642SOL    HW2 2826   0.446   4.277   4.206
  643SOL     OW 2827   5.573   4.568   4.929
  643SOL    HW1 2828   5.665   4.537   4.908
  643SOL    HW2 2829   5.534   4.511   5.002
  644SOL     OW 2830   0.971   5.622   2.851
  644SOL    HW1 2831   0.914   5.666   2.920
  644SOL    HW2 2832   0.925   5.539   2.818
  645SOL     OW 2833   4.992   2.759   4.230
  645SOL    HW1 2834   4.996   2.699   4.150
  645SOL    HW2 2835   4.918   2.826   4.217
  646SOL     OW 2836   2.545   2.118   3.531
  646SOL    HW1 2837   2.456   2.116   3.577
  646SOL    HW2 2838   2.615   2.149   3.594
  647SOL     OW 2839   5.764   2.316   5.847
  647SOL    HW1 2840   5.726   2.286   5.934
  647SOL    HW2 2841   5.762   2.240   5.782
  648SOL     OW 2842   6.074   3.606   2.808
  648SOL    HW1 2843   6.030   3.516   2.809
  648SOL    HW2 2844   6.168   3.596   2.778
  649SOL     OW 2845   4.513   4.110   0.211
  649SOL    HW1 2846   4.470   4.168   0.142
  649SOL    HW2 2847   4.465   4.119   0.298
  650SOL     OW 2848   5.224   4.242   0.501
  650SOL    HW1 2849   5.178   4.177   0.441
  650SOL    HW2 2850   5.228   4.332   0.457
  651SOL     OW 2851   0.506   6.823   0.052
  651SOL    HW1 2852   0.503   6.805   0.150
  651SOL    HW2 2853   0.422   6.788   0.009
  652SOL     OW 2854   5.111   6.103   3.854
  652SOL    HW1 2855   5.086   6.011   3.821
  652SOL    HW2 2856   5.029   6.154   3.876
  653SOL     OW 2857   3.246   5.246   5.863
  653SOL    HW1 2858   3.307   5.230   5.941
  653SOL    HW2 2859   3.296   5.229   5.778
  654SOL     OW 2860   6.582   4.772   5.755
  654SOL    HW1 2861   6.610   4.844   5.692
  654SOL    HW2 2862   6.663   4.731   5.797
  655SOL     OW 2863   0.551   6.738   2.292
  655SOL    HW1 2864   0.616   6.812   2.276
  655SOL    HW2 2865   0.569   6.696   2.381
  656SOL     OW 2866   2.338   5.730   1.023
  656SOL    HW1 2867   2.390   5.784   1.090
  656SOL    HW2 2868   2.351   5.633   1.042
  657SOL     OW 2869   2.498   2.030   1.465
  657SOL    HW1 2870   2.493   2.015   1.564
  657SOL    HW2 2871   2.589   2.003   1.432
  658SOL     OW 2872   3.206   2.832   5.886
  658SOL    HW1 2873   3.299   2.821   5.920
  658SOL    HW2 2874   3.198   2.790   5.796
  659SOL     OW 2875   2.914   6.464   6.302
  659SOL    HW1 2876   2.965   6.387   6.264
  659SOL    HW2 2877   2.942   6.479   6.397
  660SOL     OW 2878   4.375   4.383   1.362
  660SOL    HW1 2879   4.415   4.348   1.446
  660SOL    HW2 2880   4.289   4.335   1.343
  661SOL     OW 2881   4.613   6.627   3.782
  661SOL    HW1 2882   4.657   6.601   3.867
  661SOL    HW2 2883   4.663   6.588   3.704
  662SOL     OW 2884   3.821   0.420   5.342
  662SOL    HW1 2885   3.726   0.448   5.346
  662SOL    HW2 2886   3.851   0.389   5.432
  663SOL     OW 2887   2.433   3.957   5.923
  663SOL    HW1 2888   2.465   4.029   5.861
  663SOL    HW2 2889   2.512   3.913   5.966
  664SOL     OW 2890   0.131   5.937   6.770
  664SOL    HW1 2891   0.033   5.950   6.763
  664SOL    HW2 2892   0.158   5.938   6.867
  665SOL     OW 2893   4.356   5.446   2.015
  665SOL    HW1 2894   4.318   5.535   2.039
  665SOL    HW2 2895   4.323   5.378   2.081
  666SOL     OW 2896   5.205   0.747   1.970
  666SOL    HW1 2897   5.261   0.669   1.941
  666SOL    HW2 2898   5.165   0.791   1.889
  667SOL     OW 2899   1.037   4.944   2.450
  667SOL    HW1 2900   0.947   4.901   2.444
  667SOL    HW2 2901   1.081   4.918   2.536
  668SOL     OW 2902   4.874   6.633   6.007
  668SOL    HW1 2903   4.943   6.564   5.986
  668SOL    HW2 2904   4.874   6.703   5.936
  669SOL     OW 2905   5.722   0.383   3.984
  669SOL    HW1 2906   5.790   0.374   4.057
  669SOL    HW2 2907   5.633   0.405   4.024
  670SOL     OW 2908   2.740   1.751   2.245
  670SOL    HW1 2909   2.756   1.762   2.343
  670SOL    HW2 2910   2.786   1.824   2.195
  671SOL     OW 2911   3.059   6.200   1.030
  671SOL    HW1 2912   3.113   6.141   0.970
  671SOL    HW2 2913   3.075   6.174   1.125
  672SOL     OW 2914   6.556   5.644   2.245
  672SOL    HW1 2915   6.556   5.654   2.345
  672SOL    HW2 2916   6.639   5.597   2.217
  673SOL     OW 2917   6.412   6.809   1.177
  673SOL    HW1 2918   6.467   6.892   1.189
  673SOL    HW2 2919   6.317   6.829   1.200
  674SOL     OW 2920   0.654   1.451   4.336
  674SOL    HW1 2921   0.742   1.485   4.301
  674SOL    HW2 2922   0.607   1.525   4.384
  675SOL     OW 2923   5.611   2.343   2.784
  675SOL    HW1 2924   5.597   2.413   2.854
  675SOL    HW2 2925   5.655   2.384   2.705
  676SOL     OW 2926   2.825   5.069   4.007
  676SOL    HW1 2927   2.821   5.083   4.106
  676SOL    HW2 2928   2.846   4.973   3.988
  677SOL     OW 2929   5.129   1.018   0.965
  677SOL    HW1 2930   5.205   1.075   0.936
  677SOL    HW2 2931   5.122   0.938   0.905
  678SOL     OW 2932   2.990   5.952   5.299
  678SOL    HW1 2933   2.945   5.862   5.296
  678SOL    HW2 2934   3.049   5.963   5.219
  679SOL     OW 2935   5.011   1.782   4.263
  679SOL    HW1 2936   5.056   1.710   4.316
  679SOL    HW2 2937   4.975   1.742   4.178
  680SOL     OW 2938   4.731   5.826   4.629
  680SOL    HW1 2939   4.751   5.923   4.643
  680SOL    HW2 2940   4.781   5.772   4.697
  681SOL     OW 2941   4.530   5.848   1.811
  681SOL    HW1 2942   4.586   5.931   1.817
  681SOL    HW2 2943   4.558   5.783   1.881
  682SOL     OW 2944   5.959   1.163   1.981
  682SOL    HW1 2945   6.021   1.216   1.923
  682SOL    HW2 2946   5.923   1.222   2.053
  683SOL     OW 2947   4.483   2.764   0.485
  683SOL    HW1 2948   4.393   2.730   0.511
  683SOL    HW2 2949   4.482   2.793   0.390
  684SOL     OW 2950   6.583   1.050   0.889
  684SOL    HW1 2951   6.550   1.057   0.983
  684SOL    HW2 2952   6.637   0.966   0.879
  685SOL     OW 2953   3.293   2.106   3.804
  685SOL    HW1 2954   3.299   2.082   3.707
  685SOL    HW2 2955   3.361   2.053   3.855
  686SOL     OW 2956   4.686   2.393   4.537
  686SOL    HW1 2957   4.685   2.339   4.453
  686SOL    HW2 2958   4.705   2.333   4.615
  687SOL     OW 2959   0.799   1.949   3.896
  687SOL    HW1 2960   0.894   1.957   3.924
  687SOL    HW2 2961   0.795   1.922   3.800
  688SOL     OW 2962   6.988   1.420   6.626
  688SOL    HW1 2963   6.925   1.365   6.571
  688SOL    HW2 2964   6.974   1.517   6.607
  689SOL     OW 2965   1.432   4.666   6.030
  689SOL    HW1 2966   1.423   4.635   6.125
  689SOL    HW2 2967   1.487   4.601   5.978
  690SOL     OW 2968   6.789   3.905   3.353
  690SOL    HW1 2969   6.821   3.975   3.289
  690SOL    HW2 2970   6.844   3.909   3.437
  691SOL     OW 2971   3.341   1.257   0.148
  691SOL    HW1 2972   3.269   1.323   0.123
  691SOL    HW2 2973   3.415   1.305   0.194
  692SOL     OW 2974   4.526   2.293   4.827
  692SOL    HW1 2975   4.560   2.337   4.910
  692SOL    HW2 2976   4.479   2.361   4.770
  693SOL     OW 2977   4.734   6.559   4.002
  693SOL    HW1 2978   4.824   6.598   4.023
  693SOL    HW2 2979   4.673   6.573   4.080
  694SOL     OW 2980   4.269   6.478   5.129
  694SOL    HW1 2981   4.178   6.440   5.142
  694SOL    HW2 2982   4.316   6.431   5.055
  695SOL     OW 2983   3.957   6.632   3.801
  695SOL    HW1 2984   3.892   6.626   3.877
  695SOL    HW2 2985   4.030   6.565   3.815
  696SOL     OW 2986   5.013   4.666   3.542
  696SOL    HW1 2987   5.101   4.649   3.499
  696SOL    HW2 2988   4.988   4.762   3.530
  697SOL     OW 2989   1.626   3.965   2.697
  697SOL    HW1 2990   1.580   3.897   2.640
  697SOL    HW2 2991   1.559   4.009   2.756
  698SOL     OW 2992   5.627   6.143   0.913
  698SOL    HW1 2993   5.716   6.187   0.927
  698SOL    HW2 2994   5.600   6.152   0.817
  699SOL     OW 2995   1.477   3.366   6.610
  699SOL    HW1 2996   1.552   3.353   6.675
  699SOL    HW2 2997   1.450   3.463   6.610
  700SOL     OW 2998   3.102   6.562   2.015
  700SOL    HW1 2999   3.116   6.656   1.984
  700SOL    HW2 3000   3.156   6.500   1.958
  701SOL     OW 3001   0.381   4.060   6.986
  701SOL    HW1 3002   0.397   4.030   6.892
  701SOL    HW2 3003   0.385   3.980   0.022
  702SOL     OW 3004   2.165   6.730   4.900
  702SOL    HW1 3005   2.264   6.745   4.898
  702SOL    HW2 3006   2.119   6.815   4.874
  703SOL     OW 3007   3.542   3.236   5.444
  703SOL    HW1 3008   3.477   3.264   5.374
  703SOL    HW2 3009   3.635   3.256   5.414
  704SOL     OW 3010   1.747   2.655   6.232
  704SOL    HW1 3011   1.764   2.699   6.144
  704SOL    HW2 3012   1.744   2.725   6.304
  705SOL     OW 3013   6.026   5.623   3.090
  705SOL    HW1 3014   5.966   5.698   3.119
  705SOL    HW2 3015   5.972   5.555   3.040
  706SOL     OW 3016   4.259   1.844   5.354
  706SOL    HW1 3017   4.173   1.793   5.357
  706SOL    HW2 3018   4.270   1.896   5.439
  707SOL     OW 3019   4.199   4.704   2.976
  707SOL    HW1 3020   4.281   4.657   3.008
  707SOL    HW2 3021   4.179   4.675   2.882
  708SOL     OW 3022   2.769   1.339   2.904
  708SOL    HW1 3023   2.806   1.390   2.826
  708SOL    HW2 3024   2.738   1.403   2.975
  709SOL     OW 3025   1.517   5.880   0.503
  709SOL    HW1 3026   1.459   5.958   0.478
  709SOL    HW2 3027   1.547   5.891   0.598
  710SOL     OW 3028   4.608   2.106   1.770
  710SOL    HW1 3029   4.615   2.030   1.706
  710SOL    HW2 3030   4.594   2.070   1.863
  711SOL     OW 3031   0.041   2.795   6.586
  711SOL    HW1 3032   0.110   2.867   6.577
  711SOL    HW2 3033   0.023   2.778   6.683
  712SOL     OW 3034   4.636   2.339   0.589
  712SOL    HW1 3035   4.605   2.434   0.589
  712SOL    HW2 3036   4.575   2.283   0.646
  713SOL     OW 3037   4.268   3.111   5.802
  713SOL    HW1 3038   4.216   3.133   5.720
  713SOL    HW2 3039   4.290   3.195   5.851
  714SOL     OW 3040   0.269   5.380   3.655
  714SOL    HW1 3041   0.281   5.479   3.665
  714SOL    HW2 3042   0.255   5.358   3.558
  715SOL     OW 3043   5.758   5.843   6.426
  715SOL    HW1 3044   5.739   5.777   6.499
  715SOL    HW2 3045   5.857   5.861   6.423
  716SOL     OW 3046   1.054   1.046   2.598
  716SOL    HW1 3047   1.130   0.995   2.639
  716SOL    HW2 3048   0.982   0.981   2.570
  717SOL     OW 3049   6.974   5.004   3.896
  717SOL    HW1 3050   6.962   5.096   3.934
  717SOL    HW2 3051   6.936   4.937   3.960
  718SOL     OW 3052   5.096   3.168   5.009
  718SOL    HW1 3053   5.177   3.118   4.980
  718SOL    HW2 3054   5.024   3.157   4.940
  719SOL     OW 3055   5.944   0.019   2.438
  719SOL    HW1 3056   5.848   0.034   2.461
  719SOL    HW2 3057   5.971   6.951   2.462
  720SOL     OW 3058   2.051   0.692   5.945
  720SOL    HW1 3059   2.105   0.626   5.996
  720SOL    HW2 3060   2.057   0.672   5.847
  721SOL     OW 3061   2.040   1.479   1.859
  721SOL    HW1 3062   2.136   1.468   1.883
  721SOL    HW2 3063   2.033   1.522   1.769
  722SOL     OW 3064   3.173   1.318   5.122
  722SOL    HW1 3065   3.104   1.302   5.193
  722SOL    HW2 3066   3.132   1.368   5.046
  723SOL     OW 3067   2.273   5.166   3.584
  723SOL    HW1 3068   2.185   5.152   3.539
  723SOL    HW2 3069   2.347   5.139   3.522
  724SOL     OW 3070   0.398   1.517   3.541
  724SOL    HW1 3071   0.367   1.463   3.464
  724SOL    HW2 3072   0.375   1.613   3.526
  725SOL     OW 3073   1.886   4.851   2.265
  725SOL    HW1 3074   1.864   4.941   2.303
  725SOL    HW2 3075   1.976   4.823   2.298
  726SOL     OW 3076   2.833   5.080   1.058
  726SOL    HW1 3077   2.805   5.153   0.995
  726SOL    HW2 3078   2.756   5.021   1.078
  727SOL     OW 3079   4.736   4.696   6.198
  727SOL    HW1 3080   4.731   4.647   6.284
  727SOL    HW2 3081   4.782   4.784   6.212
  728SOL     OW 3082   6.996   3.555   4.147
  728SOL    HW1 3083   6.915   3.563   4.206
  728SOL    HW2 3084   6.974   3.587   4.055
  729SOL     OW 3085   0.382   2.794   0.840
  729SOL    HW1 3086   0.456   2.861   0.830
  729SOL    HW2 3087   0.334   2.783   0.753
  730SOL     OW 3088   6.060   6.975   4.104
  730SOL    HW1 3089   6.046   0.042   4.067
  730SOL    HW2 3090   6.023   6.970   4.197
  731SOL     OW 3091   4.867   5.322   0.202
  731SOL    HW1 3092   4.832   5.412   0.228
  731SOL    HW2 3093   4.804   5.279   0.137
  732SOL     OW 3094   5.908   2.578   2.567
  732SOL    HW1 3095   5.857   2.628   2.638
  732SOL    HW2 3096   5.893   2.480   2.578
  733SOL     OW 3097   6.036   0.146   5.186
  733SOL    HW1 3098   5.992   0.232   5.159
  733SOL    HW2 3099   5.965   0.076   5.199
  734SOL     OW 3100   5.914   5.283   2.716
  734SOL    HW1 3101   5.888   5.238   2.802
  734SOL    HW2 3102   5.990   5.233   2.674
  735SOL     OW 3103   4.362   1.516   0.581
  735SOL    HW1 3104   4.355   1.606   0.538
  735SOL    HW2 3105   4.299   1.511   0.659
  736SOL     OW 3106   1.394   1.298   4.077
  736SOL    HW1 3107   1.488   1.326   4.095
  736SOL    HW2 3108   1.349   1.274   4.163
  737SOL     OW 3109   5.637   1.617   6.410
  737SOL    HW1 3110   5.624   1.597   6.313
  737SOL    HW2 3111   5.548   1.637   6.452
  738SOL     OW 3112   2.781   4.121   1.578
  738SOL    HW1 3113   2.876   4.134   1.606
  738SOL    HW2 3114   2.764   4.023   1.562
  739SOL     OW 3115   3.800   0.089   4.712
  739SOL    HW1 3116   3.845   0.130   4.792
  739SOL    HW2 3117   3.856   0.103   4.631
  740SOL     OW 3118   5.443   1.392   3.116
  740SOL    HW1 3119   5.540   1.375   3.097
  740SOL    HW2 3120   5.389   1.374   3.033
  741SOL     OW 3121   1.901   0.508   3.907
  741SOL    HW1 3122   1.990   0.480   3.943
  741SOL    HW2 3123   1.915   0.566   3.826
  742SOL     OW 3124   2.099   6.017   1.278
  742SOL    HW1 3125   2.042   6.088   1.235
  742SOL    HW2 3126   2.179   6.059   1.319
  743SOL     OW 3127   0.251   5.796   3.053
  743SOL    HW1 3128   0.322   5.744   3.007
  743SOL    HW2 3129   0.236   5.883   3.005
  744SOL     OW 3130   5.978   0.645   0.586
  744SOL    HW1 3131   5.969   0.601   0.675
  744SOL    HW2 3132   6.049   0.599   0.533
  745SOL     OW 3133   2.112   5.557   5.389
  745SOL    HW1 3134   2.058   5.600   5.317
  745SOL    HW2 3135   2.206   5.592   5.386
  746SOL     OW 3136   5.904   4.018   5.937
  746SOL    HW1 3137   5.907   3.924   5.903
  746SOL    HW2 3138   5.830   4.027   6.004
  747SOL     OW 3139   4.174   5.727   4.766
  747SOL    HW1 3140   4.109   5.802   4.770
  747SOL    HW2 3141   4.208   5.717   4.672
  748SOL     OW 3142   4.567   5.687   2.044
  748SOL    HW1 3143   4.474   5.696   2.008
  748SOL    HW2 3144   4.568   5.705   2.142
  749SOL     OW 3145   6.090   3.514   4.229
  749SOL    HW1 3146   6.148   3.436   4.203
  749SOL    HW2 3147   6.000   3.504   4.186
  750SOL     OW 3148   2.136   1.166   0.998
  750SOL    HW1 3149   2.107   1.189   1.090
  750SOL    HW2 3150   2.170   1.249   0.952
  751SOL     OW 3151   3.923   1.172   0.924
  751SOL    HW1 3152   3.953   1.256   0.878
  751SOL    HW2 3153   3.857   1.124   0.866
  752SOL     OW 3154   3.168   2.575   0.271
  752SOL    HW1 3155   3.216   2.656   0.236
  752SOL    HW2 3156   3.190   2.496   0.215
  753SOL     OW 3157   1.908   3.485   5.958
  753SOL    HW1 3158   1.962   3.569   5.952
  753SOL    HW2 3159   1.953   3.413   5.906
  754SOL     OW 3160   4.461   1.338   0.152
  754SOL    HW1 3161   4.362   1.351   0.140
  754SOL    HW2 3162   4.489   1.379   0.239
  755SOL     OW 3163   2.781   4.679   5.573
  755SOL    HW1 3164   2.736   4.605   5.623
  755SOL    HW2 3165   2.762   4.670   5.475
  756SOL     OW 3166   3.140   4.682   0.169
  756SOL    HW1 3167   3.054   4.723   0.138
  756SOL    HW2 3168   3.213   4.706   0.106
  757SOL     OW 3169   2.171   6.011   3.181
  757SOL    HW1 3170   2.127   6.094   3.146
  757SOL    HW2 3171   2.105   5.935   3.180
  758SOL     OW 3172   4.191   0.733   3.849
  758SOL    HW1 3173   4.236   0.801   3.792
  758SOL    HW2 3174   4.255   0.700   3.919
  759SOL     OW 3175   6.769   3.095   2.561
  759SOL    HW1 3176   6.825   3.021   2.524
  759SOL    HW2 3177   6.821   3.181   2.558
  760SOL     OW 3178   6.286   6.605   4.309
  760SOL    HW1 3179   6.379   6.570   4.300
  760SOL    HW2 3180   6.241   6.604   4.220
  761SOL     OW 3181   5.734   4.473   6.060
  761SOL    HW1 3182   5.654   4.518   6.020
  761SOL    HW2 3183   5.787   4.429   5.988
  762SOL     OW 3184   2.682   0.141   5.519
  762SOL    HW1 3185   2.723   0.168   5.432
  762SOL    HW2 3186   2.676   0.042   5.524
  763SOL     OW 3187   4.522   6.480   6.548
  763SOL    HW1 3188   4.580   6.525   6.616
  763SOL    HW2 3189   4.562   6.391   6.524
  764SOL     OW 3190   5.517   0.986   6.057
  764SOL    HW1 3191   5.420   0.962   6.062
  764SOL    HW2 3192   5.562   0.963   6.144
  765SOL     OW 3193   1.915   6.316   0.467
  765SOL    HW1 3194   1.917   6.350   0.373
  765SOL    HW2 3195   1.995   6.259   0.484
  766SOL     OW 3196   2.939   2.191   5.279
  766SOL    HW1 3197   2.855   2.244   5.289
  766SOL    HW2 3198   3.006   2.244   5.226
  767SOL     OW 3199   6.369   6.527   3.772
  767SOL    HW1 3200   6.436   6.454   3.754
  767SOL    HW2 3201   6.397   6.611   3.725
  768SOL     OW 3202   2.255   5.791   3.552
  768SOL    HW1 3203   2.239   5.713   3.612
  768SOL    HW2 3204   2.321   5.766   3.482
  769SOL     OW 3205   2.958   1.282   5.284
  769SOL    HW1 3206   2.906   1.258   5.366
  769SOL    HW2 3207   2.921   1.366   5.245
  770SOL     OW 3208   1.604   5.341   4.081
  770SOL    HW1 3209   1.547   5.310   4.005
  770SOL    HW2 3210   1.575   5.296   4.165
  771SOL     OW 3211   1.062   4.830   3.024
  771SOL    HW1 3212   1.160   4.839   3.007
  771SOL    HW2 3213   1.016   4.916   3.004
  772SOL     OW 3214   6.131   4.677   6.342
  772SOL    HW1 3215   6.092   4.637   6.425
  772SOL    HW2 3216   6.102   4.772   6.334
  773SOL     OW 3217   0.613   3.902   2.683
  773SOL    HW1 3218   0.694   3.872   2.633
  773SOL    HW2 3219   0.557   3.960   2.623
  774SOL     OW 3220   1.530   1.228   2.939
  774SOL    HW1 3221   1.480   1.150   2.903
  774SOL    HW2 3222   1.550   1.214   3.036
  775SOL     OW 3223   2.340   1.872   4.557
  775SOL    HW1 3224   2.430   1.836   4.584
  775SOL    HW2 3225   2.349   1.919   4.470
  776SOL     OW 3226   6.748   0.257   6.267
  776SOL    HW1 3227   6.806   0.313   6.207
  776SOL    HW2 3228   6.694   0.317   6.326
  777SOL     OW 3229   1.785   4.133   0.990
  777SOL    HW1 3230   1.708   4.105   1.047
  777SOL    HW2 3231   1.767   4.224   0.952
  778SOL     OW 3232   2.341   0.280   1.535
  778SOL    HW1 3233   2.368   0.229   1.616
  778SOL    HW2 3234   2.301   0.367   1.562
  779SOL     OW 3235   6.661   1.880   1.647
  779SOL    HW1 3236   6.684   1.919   1.558
  779SOL    HW2 3237   6.732   1.904   1.714
  780SOL     OW 3238   0.784   2.300   4.127
  780SOL    HW1 3239   0.758   2.253   4.211
  780SOL    HW2 3240   0.883   2.307   4.121
  781SOL     OW 3241   6.649   4.905   0.533
  781SOL    HW1 3242   6.593   4.825   0.512
  781SOL    HW2 3243   6.612   4.952   0.613
  782SOL     OW 3244   1.875   3.628   5.660
  782SOL    HW1 3245   1.776   3.636   5.662
  782SOL    HW2 3246   1.915   3.698   5.719
  783SOL     OW 3247   6.003   4.560   1.246
  783SOL    HW1 3248   6.067   4.557   1.169
  783SOL    HW2 3249   5.925   4.500   1.226
  784SOL     OW 3250   3.616   5.105   1.808
  784SOL    HW1 3251   3.578   5.190   1.770
  784SOL    HW2 3252   3.557   5.073   1.882
  785SOL     OW 3253   6.965   1.540   3.801
  785SOL    HW1 3254   0.009   1.551   3.873
  785SOL    HW2 3255   7.010   1.535   3.712
  786SOL     OW 3256   6.678   1.166   2.557
  786SOL    HW1 3257   6.619   1.113   2.618
  786SOL    HW2 3258   6.773   1.153   2.583
  787SOL     OW 3259   2.130   6.927   7.005
  787SOL    HW1 3260   2.072   6.983   0.039
  787SOL    HW2 3261   2.080   6.902   6.922
  788SOL     OW 3262   4.106   2.368   1.369
  788SOL    HW1 3263   4.010   2.395   1.361
  788SOL    HW2 3264   4.117   2.311   1.451
  789SOL     OW 3265   4.567   5.425   2.471
  789SOL    HW1 3266   4.608   5.366   2.402
  789SOL    HW2 3267   4.483   5.466   2.435
  790SOL     OW 3268   2.239   1.179   1.679
  790SOL    HW1 3269   2.296   1.179   1.596
  790SOL    HW2 3270   2.252   1.092   1.727
  791SOL     OW 3271   2.664   5.987   5.560
  791SOL    HW1 3272   2.696   6.028   5.475
  791SOL    HW2 3273   2.571   5.952   5.547
  792SOL     OW 3274   0.758   0.979   1.959
  792SOL    HW1 3275   0.821   0.989   1.882
  792SOL    HW2 3276   0.676   1.033   1.942
  793SOL     OW 3277   4.985   5.600   5.406
  793SOL    HW1 3278   5.002   5.519   5.350
  793SOL    HW2 3279   4.898   5.589   5.455
  794SOL     OW 3280   2.961   3.424   5.937
  794SOL    HW1 3281   2.872   3.423   5.893
  794SOL    HW2 3282   3.018   3.351   5.900
  795SOL     OW 3283   3.906   0.351   5.748
  795SOL    HW1 3284   3.887   0.257   5.774
  795SOL    HW2 3285   4.005   0.365   5.741
  796SOL     OW 3286   1.820   3.154   0.338
  796SOL    HW1 3287   1.786   3.197   0.422
  796SOL    HW2 3288   1.763   3.181   0.261
  797SOL     OW 3289   4.161   0.347   0.607
  797SOL    HW1 3290   4.085   0.326   0.669
  797SOL    HW2 3291   4.239   0.288   0.629
  798SOL     OW 3292   3.683   6.299   1.182
  798SOL    HW1 3293   3.728   6.309   1.093
  798SOL    HW2 3294   3.749   6.320   1.255
  799SOL     OW 3295   0.410   1.437   6.196
  799SOL    HW1 3296   0.352   1.414   6.118
  799SOL    HW2 3297   0.353   1.451   6.277
  800SOL     OW 3298   6.688   1.848   2.503
  800SOL    HW1 3299   6.747   1.787   2.556
  800SOL    HW2 3300   6.715   1.845   2.407
  801SOL     OW 3301   2.278   4.267   5.196
  801SOL    HW1 3302   2.307   4.228   5.284
  801SOL    HW2 3303   2.293   4.200   5.123
  802SOL     OW 3304   3.914   1.714   6.808
  802SOL    HW1 3305   3.906   1.745   6.903
  802SOL    HW2 3306   4.004   1.739   6.773
  803SOL     OW 3307   1.598   0.019   6.099
  803SOL    HW1 3308   1.680   0.062   6.062
  803SOL    HW2 3309   1.600   6.946   6.080
  804SOL     OW 3310   6.508   0.005   1.529
  804SOL    HW1 3311   6.578   6.960   1.513
  804SOL    HW2 3312   6.532   0.058   1.610
  805SOL     OW 3313   1.285   0.250   4.389
  805SOL    HW1 3314   1.367   0.237   4.445
  805SOL    HW2 3315   1.312   0.265   4.294
  806SOL     OW 3316   6.631   0.431   6.458
  806SOL    HW1 3317   6.558   0.481   6.504
  806SOL    HW2 3318   6.679   0.493   6.395
  807SOL     OW 3319   0.485   6.974   4.031
  807SOL    HW1 3320   0.413   6.914   3.996
  807SOL    HW2 3321   0.457   7.012   4.119
  808SOL     OW 3322   5.087   2.838   6.636
  808SOL    HW1 3323   5.182   2.811   6.652
  808SOL    HW2 3324   5.061   2.909   6.702
  809SOL     OW 3325   1.150   4.696   0.772
  809SOL    HW1 3326   1.061   4.688   0.817
  809SOL    HW2 3327   1.155   4.632   0.696
  810SOL     OW 3328   3.383   3.384   0.611
  810SOL    HW1 3329   3.314   3.335   0.663
  810SOL    HW2 3330   3.460   3.407   0.670
  811SOL     OW 3331   5.462   5.133   4.219
  811SOL    HW1 3332   5.537   5.067   4.221
  811SOL    HW2 3333   5.437   5.153   4.125
  812SOL     OW 3334   0.667   1.743   1.690
  812SOL    HW1 3335   0.569   1.762   1.675
  812SOL    HW2 3336   0.679   1.701   1.779
  813SOL     OW 3337   2.604   6.999   4.700
  813SOL    HW1 3338   2.507   6.982   4.719
  813SOL    HW2 3339   2.618   7.012   4.602
  814SOL     OW 3340   6.400   6.305   2.450
  814SOL    HW1 3341   6.390   6.254   2.365
  814SOL    HW2 3342   6.496   6.325   2.466
  815SOL     OW 3343   5.412   2.792   3.006
  815SOL    HW1 3344   5.477   2.861   3.036
  815SOL    HW2 3345   5.356   2.762   3.083
  816SOL     OW 3346   5.051   5.111   0.217
  816SOL    HW1 3347   4.971   5.170   0.229
  816SOL    HW2 3348   5.056   5.082   0.122
  817SOL     OW 3349   0.979   5.182   1.928
  817SOL    HW1 3350   0.974   5.149   2.023
  817SOL    HW2 3351   1.035   5.264   1.924
  818SOL     OW 3352   5.719   2.872   3.701
  818SOL    HW1 3353   5.671   2.826   3.776
  818SOL    HW2 3354   5.659   2.941   3.662
  819SOL     OW 3355   5.944   2.529   1.732
  819SOL    HW1 3356   6.010   2.489   1.795
  819SOL    HW2 3357   5.910   2.616   1.769
  820SOL     OW 3358   3.605   2.035   4.630
  820SOL    HW1 3359   3.563   1.972   4.696
  820SOL    HW2 3360   3.533   2.083   4.580
  821SOL     OW 3361   6.196   4.826   6.049
  821SOL    HW1 3362   6.248   4.789   6.126
  821SOL    HW2 3363   6.227   4.785   5.964
  822SOL     OW 3364   0.294   3.853   3.022
  822SOL    HW1 3365   0.243   3.881   2.941
  822SOL    HW2 3366   0.389   3.834   2.997
  823SOL     OW 3367   6.436   4.492   6.566
  823SOL    HW1 3368   6.399   4.432   6.495
  823SOL    HW2 3369   6.536   4.492   6.561
  824SOL     OW 3370   5.029   0.796   5.403
  824SOL    HW1 3371   5.053   0.884   5.443
  824SOL    HW2 3372   4.949   0.759   5.449
  825SOL     OW 3373   6.506   5.823   0.892
  825SOL    HW1 3374   6.600   5.792   0.902
  825SOL    HW2 3375   6.495   5.871   0.805
  826SOL     OW 3376   3.272   2.215   5.493
  826SOL    HW1 3377   3.237   2.146   5.430
  826SOL    HW2 3378   3.341   2.271   5.447
  827SOL     OW 3379   2.910   4.338   5.651
  827SOL    HW1 3380   2.960   4.284   5.720
  827SOL    HW2 3381   2.976   4.381   5.589
  828SOL     OW 3382   6.348   6.019   6.434
  828SOL    HW1 3383   6.358   5.935   6.488
  828SOL    HW2 3384   6.425   6.080   6.452
  829SOL     OW 3385   3.286   3.438   1.980
  829SOL    HW1 3386   3.386   3.433   1.974
  829SOL    HW2 3387   3.256   3.533   1.970
  830SOL     OW 3388   5.616   5.294   6.745
  830SOL    HW1 3389   5.709   5.297   6.709
  830SOL    HW2 3390   5.561   5.364   6.700
  831SOL     OW 3391   6.498   0.050   1.267
  831SOL    HW1 3392   6.583   0.075   1.221
  831SOL    HW2 3393   6.510   0.059   1.366
  832SOL     OW 3394   4.467   1.531   4.159
  832SOL    HW1 3395   4.537   1.567   4.222
  832SOL    HW2 3396   4.427   1.606   4.107
  833SOL     OW 3397   2.000   3.637   6.501
  833SOL    HW1 3398   2.057   3.578   6.443
  833SOL    HW2 3399   1.969   3.715   6.448
  834SOL     OW 3400   5.337   3.119   0.279
  834SOL    HW1 3401   5.324   3.172   0.195
  834SOL    HW2 3402   5.252   3.071   0.302
  835SOL     OW 3403   2.568   0.587   4.729
  835SOL    HW1 3404   2.585   0.634   4.816
  835SOL    HW2 3405   2.516   0.503   4.748
  836SOL     OW 3406   2.904   1.065   5.138
  836SOL    HW1 3407   2.890   1.093   5.043
  836SOL    HW2 3408   2.948   1.140   5.189
  837SOL     OW 3409   0.957   0.035   1.099
  837SOL    HW1 3410   0.939   0.082   1.013
  837SOL    HW2 3411   0.910   6.971   1.099
  838SOL     OW 3412   1.891   6.057   4.327
  838SOL    HW1 3413   1.866   6.103   4.412
  838SOL    HW2 3414   1.812   6.007   4.291
  839SOL     OW 3415   2.312   1.418   1.818
  839SOL    HW1 3416   2.410   1.400   1.820
  839SOL    HW2 3417   2.265   1.342   1.773
  840SOL     OW 3418   6.199   5.501   0.282
  840SOL    HW1 3419   6.293   5.484   0.252
  840SOL    HW2 3420   6.179   5.446   0.363
  841SOL     OW 3421   3.512   6.027   6.027
  841SOL    HW1 3422   3.585   5.998   6.089
  841SOL    HW2 3423   3.426   5.984   6.054
  842SOL     OW 3424   3.635   6.718   6.845
  842SOL    HW1 3425   3.666   6.623   6.834
  842SOL    HW2 3426   3.596   6.750   6.759
  843SOL     OW 3427   1.940   1.882   1.878
  843SOL    HW1 3428   1.857   1.936   1.864
  843SOL    HW2 3429   1.988   1.873   1.791
  844SOL     OW 3430   0.121   6.754   1.423
  844SOL    HW1 3431   0.108   6.794   1.332
  844SOL    HW2 3432   0.049   6.687   1.440
  845SOL     OW 3433   5.481   3.186   3.361
  845SOL    HW1 3434   5.479   3.196   3.261
  845SOL    HW2 3435   5.464   3.091   3.385
  846SOL     OW 3436   2.838   0.657   5.835
  846SOL    HW1 3437   2.819   0.715   5.914
  846SOL    HW2 3438   2.924   0.607   5.849
  847SOL     OW 3439   1.995   3.390   1.887
  847SOL    HW1 3440   2.086   3.430   1.903
  847SOL    HW2 3441   1.951   3.371   1.974
  848SOL     OW 3442   6.868   6.737   5.780
  848SOL    HW1 3443   6.785   6.768   5.826
  848SOL    HW2 3444   6.926   6.815   5.759
  849SOL     OW 3445   6.467   4.113   6.106
  849SOL    HW1 3446   6.449   4.172   6.028
  849SOL    HW2 3447   6.392   4.121   6.172
  850SOL     OW 3448   6.737   0.150   5.479
  850SOL    HW1 3449   6.730   0.052   5.494
  850SOL    HW2 3450   6.661   0.180   5.421
  851SOL     OW 3451   6.552   2.868   6.758
  851SOL    HW1 3452   6.625   2.933   6.735
  851SOL    HW2 3453   6.522   2.883   6.852
  852SOL     OW 3454   0.737   4.695   1.076
  852SOL    HW1 3455   0.662   4.629   1.082
  852SOL    HW2 3456   0.710   4.780   1.122
  853SOL     OW 3457   1.490   4.741   6.476
  853SOL    HW1 3458   1.442   4.825   6.450
  853SOL    HW2 3459   1.580   4.765   6.514
  854SOL     OW 3460   5.017   6.396   0.377
  854SOL    HW1 3461   5.016   6.317   0.316
  854SOL    HW2 3462   4.930   6.445   0.370
  855SOL     OW 3463   6.398   0.213   0.389
  855SOL    HW1 3464   6.409   0.182   0.295
  855SOL    HW2 3465   6.473   0.275   0.413
  856SOL     OW 3466   1.337   0.679   6.149
  856SOL    HW1 3467   1.402   0.732   6.094
  856SOL    HW2 3468   1.312   0.731   6.230
  857SOL     OW 3469   6.543   5.651   1.787
  857SOL    HW1 3470   6.502   5.559   1.788
  857SOL    HW2 3471   6.518   5.697   1.701
  858SOL     OW 3472   3.516   4.068   1.030
  858SOL    HW1 3473   3.468   3.997   1.081
  858SOL    HW2 3474   3.556   4.134   1.093
  859SOL     OW 3475   5.623   5.889   5.362
  859SOL    HW1 3476   5.614   5.794   5.394
  859SOL    HW2 3477   5.686   5.891   5.284
  860SOL     OW 3478   5.913   3.007   6.867
  860SOL    HW1 3479   5.927   2.910   6.889
  860SOL    HW2 3480   5.879   3.055   6.948
  861SOL     OW 3481   2.669   5.522   3.136
  861SOL    HW1 3482   2.599   5.462   3.174
  861SOL    HW2 3483   2.670   5.512   3.036
  862SOL     OW 3484   2.049   4.566   3.225
  862SOL    HW1 3485   2.097   4.514   3.296
  862SOL    HW2 3486   2.110   4.635   3.187
  863SOL     OW 3487   5.998   1.392   6.128
  863SOL    HW1 3488   5.954   1.475   6.162
  863SOL    HW2 3489   6.084   1.377   6.177
  864SOL     OW 3490   3.760   6.291   5.267
  864SOL    HW1 3491   3.731   6.368   5.324
  864SOL    HW2 3492   3.707   6.209   5.292
  865SOL     OW 3493   2.105   0.237   5.563
  865SOL    HW1 3494   2.200   0.261   5.581
  865SOL    HW2 3495   2.081   0.154   5.615
  866SOL     OW 3496   3.534   0.325   0.722
  866SOL    HW1 3497   3.448   0.346   0.768
  866SOL    HW2 3498   3.611   0.345   0.783
  867SOL     OW 3499   4.912   3.761   1.100
  867SOL    HW1 3500   4.935   3.797   1.010
  867SOL    HW2 3501   4.853   3.681   1.090
  868SOL     OW 3502   0.151   1.429   2.004
  868SOL    HW1 3503   0.226   1.434   2.070
  868SOL    HW2 3504   0.074   1.380   2.045
  869SOL     OW 3505   6.486   4.231   3.613
  869SOL    HW1 3506   6.434   4.263   3.534
  869SOL    HW2 3507   6.547   4.303   3.644
  870SOL     OW 3508   4.610   4.604   1.186
  870SOL    HW1 3509   4.675   4.675   1.159
  870SOL    HW2 3510   4.638   4.564   1.274
  871SOL     OW 3511   5.129   2.986   4.016
  871SOL    HW1 3512   5.116   2.982   3.917
  871SOL    HW2 3513   5.041   3.004   4.060
  872SOL     OW 3514   6.521   2.380   4.645
  872SOL    HW1 3515   6.537   2.477   4.663
  872SOL    HW2 3516   6.592   2.346   4.582
  873SOL     OW 3517   4.608   5.807   5.530
  873SOL    HW1 3518   4.654   5.720   5.514
  873SOL    HW2 3519   4.544   5.825   5.455
  874SOL     OW 3520   6.826   3.956   0.516
  874SOL    HW1 3521   6.838   4.014   0.436
  874SOL    HW2 3522   6.910   3.956   0.570
  875SOL     OW 3523   4.991   5.236   0.932
  875SOL    HW1 3524   4.898   5.207   0.908
  875SOL    HW2 3525   5.012   5.206   1.025
  876SOL     OW 3526   0.797   5.552   1.934
  876SOL    HW1 3527   0.711   5.516   1.898
  876SOL    HW2 3528   0.779   5.636   1.986
  877SOL     OW 3529   3.316   4.552   5.759
  877SOL    HW1 3530   3.343   4.462   5.725
  877SOL    HW2 3531   3.220   4.569   5.737
  878SOL     OW 3532   4.575   6.960   4.102
  878SOL    HW1 3533   4.552   6.958   4.004
  878SOL    HW2 3534   4.566   6.868   4.140
  879SOL     OW 3535   3.891   0.559   1.646
  879SOL    HW1 3536   3.954   0.483   1.629
  879SOL    HW2 3537   3.807   0.523   1.687
  880SOL     OW 3538   3.289   3.413   3.667
  880SOL    HW1 3539   3.263   3.509   3.674
  880SOL    HW2 3540   3.389   3.406   3.669
  881SOL     OW 3541   5.496   3.344   5.107
  881SOL    HW1 3542   5.559   3.291   5.050
  881SOL    HW2 3543   5.407   3.349   5.062
  882SOL     OW 3544   1.056   2.906   3.991
  882SOL    HW1 3545   1.063   2.950   4.080
  882SOL    HW2 3546   0.978   2.844   3.990
  883SOL     OW 3547   2.828   1.009   1.142
  883SOL    HW1 3548   2.919   1.042   1.165
  883SOL    HW2 3549   2.759   1.067   1.184
  884SOL     OW 3550   6.137   4.275   5.437
  884SOL    HW1 3551   6.107   4.231   5.353
  884SOL    HW2 3552   6.155   4.205   5.506
  885SOL     OW 3553   3.426   0.960   4.858
  885SOL    HW1 3554   3.366   0.959   4.937
  885SOL    HW2 3555   3.425   0.869   4.815
  886SOL     OW 3556   3.201   0.236   0.042
  886SOL    HW1 3557   3.238   0.325   0.015
  886SOL    HW2 3558   3.267   0.190   0.101
  887SOL     OW 3559   3.890   6.671   3.522
  887SOL    HW1 3560   3.898   6.638   3.616
  887SOL    HW2 3561   3.846   6.600   3.466
  888SOL     OW 3562   6.905   5.901   3.617
  888SOL    HW1 3563   6.818   5.865   3.582
  888SOL    HW2 3564   6.981   5.860   3.566
  889SOL     OW 3565   6.880   2.304   0.316
  889SOL    HW1 3566   6.969   2.270   0.284
  889SOL    HW2 3567   6.893   2.393   0.360
  890SOL     OW 3568   1.510   5.111   2.638
  890SOL    HW1 3569   1.460   5.163   2.569
  890SOL    HW2 3570   1.547   5.028   2.596
  891SOL     OW 3571   5.970   3.985   1.515
  891SOL    HW1 3572   6.048   3.928   1.537
  891SOL    HW2 3573   5.982   4.076   1.556
  892SOL     OW 3574   2.956   3.970   5.266
  892SOL    HW1 3575   2.960   4.064   5.299
  892SOL    HW2 3576   2.873   3.926   5.301
  893SOL     OW 3577   2.192   6.248   3.444
  893SOL    HW1 3578   2.124   6.177   3.428
  893SOL    HW2 3579   2.237   6.272   3.357
  894SOL     OW 3580   0.970   2.946   1.905
  894SOL    HW1 3581   1.012   2.859   1.932
  894SOL    HW2 3582   0.896   2.929   1.841
  895SOL     OW 3583   1.172   4.817   3.993
  895SOL    HW1 3584   1.251   4.841   3.936
  895SOL    HW2 3585   1.095   4.875   3.967
  896SOL     OW 3586   5.262   4.871   1.389
  896SOL    HW1 3587   5.188   4.878   1.322
  896SOL    HW2 3588   5.295   4.962   1.412
  897SOL     OW 3589   4.021   1.206   6.758
  897SOL    HW1 3590   4.117   1.208   6.784
  897SOL    HW2 3591   3.974   1.135   6.811
  898SOL     OW 3592   3.368   6.357   2.878
  898SOL    HW1 3593   3.360   6.260   2.899
  898SOL    HW2 3594   3.358   6.410   2.962
  899SOL     OW 3595   0.473   6.809   0.321
  899SOL    HW1 3596   0.414   6.736   0.354
  899SOL    HW2 3597   0.436   6.897   0.350
  900SOL     OW 3598   5.812   0.390   0.464
  900SOL    HW1 3599   5.889   0.437   0.507
  900SOL    HW2 3600   5.821   0.395   0.364
  901SOL     OW 3601   2.109   6.978   3.492
  901SOL    HW1 3602   2.024   6.926   3.484
  901SOL    HW2 3603   2.089   0.044   3.529
  902SOL     OW 3604   1.446   2.036   0.948
  902SOL    HW1 3605   1.372   2.021   0.882
  902SOL    HW2 3606   1.427   1.986   1.032
  903SOL     OW 3607   0.377   2.881   6.712
  903SOL    HW1 3608   0.352   2.787   6.690
  903SOL    HW2 3609   0.444   2.914   6.644
  904SOL     OW 3610   1.856   1.549   2.273
  904SOL    HW1 3611   1.871   1.589   2.183
  904SOL    HW2 3612   1.888   1.614   2.343
  905SOL     OW 3613   5.389   2.249   6.535
  905SOL    HW1 3614   5.394   2.285   6.441
  905SOL    HW2 3615   5.349   2.318   6.594
  906SOL     OW 3616   6.809   2.186   6.447
  906SOL    HW1 3617   6.767   2.129   6.376
  906SOL    HW2 3618   6.887   2.235   6.408
  907SOL     OW 3619   5.406   3.095   0.574
  907SOL    HW1 3620   5.385   3.079   0.477
  907SOL    HW2 3621   5.439   3.010   0.615
  908SOL     OW 3622   3.021   5.006   3.066
  908SOL    HW1 3623   2.965   4.931   3.034
  908SOL    HW2 3624   3.071   4.979   3.148
  909SOL     OW 3625   4.292   6.250   1.375
  909SOL    HW1 3626   4.193   6.241   1.389
  909SOL    HW2 3627   4.313   6.234   1.278
  910SOL     OW 3628   3.523   1.862   0.887
  910SOL    HW1 3629   3.437   1.866   0.835
  910SOL    HW2 3630   3.503   1.865   0.985
  911SOL     OW 3631   1.308   6.475   6.489
  911SOL    HW1 3632   1.273   6.383   6.476
  911SOL    HW2 3633   1.405   6.472   6.511
  912SOL     OW 3634   6.357   2.539   3.096
  912SOL    HW1 3635   6.418   2.492   3.032
  912SOL    HW2 3636   6.402   2.545   3.185
  913SOL     OW 3637   3.640   0.493   3.215
  913SOL    HW1 3638   3.587   0.575   3.192
  913SOL    HW2 3639   3.732   0.521   3.246
  914SOL     OW 3640   2.170   0.507   6.111
  914SOL    HW1 3641   2.124   0.421   6.132
  914SOL    HW2 3642   2.267   0.488   6.093
  915SOL     OW 3643   6.004   4.092   6.903
  915SOL    HW1 3644   6.053   4.021   6.853
  915SOL    HW2 3645   6.050   4.180   6.890
  916SOL     OW 3646   1.589   3.058   1.821
  916SOL    HW1 3647   1.614   3.007   1.903
  916SOL    HW2 3648   1.571   2.995   1.746
  917SOL     OW 3649   0.625   6.878   1.367
  917SOL    HW1 3650   0.697   6.816   1.335
  917SOL    HW2 3651   0.541   6.826   1.380
  918SOL     OW 3652   3.530   0.927   0.955
  918SOL    HW1 3653   3.505   1.018   0.986
  918SOL    HW2 3654   3.629   0.915   0.964
  919SOL     OW 3655   6.017   1.292   2.345
  919SOL    HW1 3656   6.113   1.289   2.317
  919SOL    HW2 3657   5.959   1.309   2.266
  920SOL     OW 3658   2.343   4.245   2.101
  920SOL    HW1 3659   2.358   4.173   2.033
  920SOL    HW2 3660   2.264   4.221   2.157
  921SOL     OW 3661   3.678   5.665   4.308
  921SOL    HW1 3662   3.647   5.759   4.292
  921SOL    HW2 3663   3.772   5.655   4.274
  922SOL     OW 3664   3.237   3.370   4.592
  922SOL    HW1 3665   3.302   3.296   4.605
  922SOL    HW2 3666   3.144   3.337   4.607
  923SOL     OW 3667   2.326   3.314   6.656
  923SOL    HW1 3668   2.270   3.370   6.717
  923SOL    HW2 3669   2.307   3.338   6.561
  924SOL     OW 3670   6.650   3.765   1.548
  924SOL    HW1 3671   6.627   3.774   1.451
  924SOL    HW2 3672   6.652   3.669   1.573
  925SOL     OW 3673   7.017   2.027   0.153
  925SOL    HW1 3674   6.920   2.017   0.132
  925SOL    HW2 3675   0.041   1.943   0.129
  926SOL     OW 3676   6.616   1.136   1.212
  926SOL    HW1 3677   6.708   1.128   1.175
  926SOL    HW2 3678   6.569   1.213   1.170
  927SOL     OW 3679   5.503   3.665   3.207
  927SOL    HW1 3680   5.545   3.754   3.225
  927SOL    HW2 3681   5.420   3.656   3.262
  928SOL     OW 3682   2.441   5.891   0.136
  928SOL    HW1 3683   2.513   5.945   0.179
  928SOL    HW2 3684   2.361   5.887   0.196
  929SOL     OW 3685   0.299   1.059   0.006
  929SOL    HW1 3686   0.203   1.067   0.032
  929SOL    HW2 3687   0.355   1.115   0.068
  930SOL     OW 3688   5.492   6.749   6.269
  930SOL    HW1 3689   5.394   6.760   6.287
  930SOL    HW2 3690   5.512   6.772   6.174
  931SOL     OW 3691   6.598   1.057   4.731
  931SOL    HW1 3692   6.605   1.148   4.691
  931SOL    HW2 3693   6.503   1.026   4.726
  932SOL     OW 3694   2.659   0.885   2.953
  932SOL    HW1 3695   2.671   0.938   3.037
  932SOL    HW2 3696   2.583   0.820   2.964
  933SOL     OW 3697   1.281   4.790   3.284
  933SOL    HW1 3698   1.370   4.778   3.239
  933SOL    HW2 3699   1.262   4.711   3.342
  934SOL     OW 3700   2.672   5.728   6.769
  934SOL    HW1 3701   2.727   5.657   6.815
  934SOL    HW2 3702   2.603   5.763   6.833
  935SOL     OW 3703   5.174   4.005   4.194
  935SOL    HW1 3704   5.230   4.010   4.276
  935SOL    HW2 3705   5.132   4.094   4.176
  936SOL     OW 3706   0.859   0.382   6.054
  936SOL    HW1 3707   0.791   0.421   5.991
  936SOL    HW2 3708   0.882   0.289   6.025
  937SOL     OW 3709   5.821   1.658   6.605
  937SOL    HW1 3710   5.837   1.580   6.666
  937SOL    HW2 3711   5.768   1.628   6.526
  938SOL     OW 3712   5.801   5.102   5.258
  938SOL    HW1 3713   5.833   5.177   5.316
  938SOL    HW2 3714   5.863   5.025   5.266
  939SOL     OW 3715   6.930   0.015   3.803
  939SOL    HW1 3716   6.848   0.013   3.745
  939SOL    HW2 3717   6.981   0.099   3.784
  940SOL     OW 3718   0.656   3.789   0.441
  940SOL    HW1 3719   0.656   3.753   0.348
  940SOL    HW2 3720   0.597   3.870   0.445
  941SOL     OW 3721   5.822   0.795   0.379
  941SOL    HW1 3722   5.739   0.829   0.425
  941SOL    HW2 3723   5.888   0.766   0.448
  942SOL     OW 3724   6.027   0.254   2.558
  942SOL    HW1 3725   5.965   0.249   2.637
  942SOL    HW2 3726   6.008   0.179   2.495
  943SOL     OW 3727   1.541   4.838   2.608
  943SOL    HW1 3728   1.606   4.762   2.599
  943SOL    HW2 3729   1.454   4.813   2.565
  944SOL     OW 3730   0.096   5.952   5.449
  944SOL    HW1 3731   0.176   6.012   5.446
  944SOL    HW2 3732   0.124   5.858   5.428
  945SOL     OW 3733   0.600   4.875   6.121
  945SOL    HW1 3734   0.567   4.871   6.026
  945SOL    HW2 3735   0.524   4.855   6.183
  946SOL     OW 3736   5.040   4.120   5.462
  946SOL    HW1 3737   5.053   4.024   5.487
  946SOL    HW2 3738   4.966   4.128   5.396
  947SOL     OW 3739   3.642   3.208   3.471
  947SOL    HW1 3740   3.585   3.177   3.547
  947SOL    HW2 3741   3.684   3.130   3.426
  948SOL     OW 3742   4.651   1.014   2.928
  948SOL    HW1 3743   4.729   0.977   2.978
  948SOL    HW2 3744   4.616   1.095   2.975
  949SOL     OW 3745   3.027   5.749   0.061
  949SOL    HW1 3746   3.030   5.820   7.015
  949SOL    HW2 3747   3.121   5.728   0.090
  950SOL     OW 3748   6.094   5.506   2.346
  950SOL    HW1 3749   6.083   5.408   2.333
  950SOL    HW2 3750   6.104   5.550   2.257
  951SOL     OW 3751   1.067   0.007   3.957
  951SOL    HW1 3752   1.022   0.089   3.991
  951SOL    HW2 3753   1.075   0.011   3.858
  952SOL     OW 3754   4.651   2.503   3.073
  952SOL    HW1 3755   4.560   2.466   3.057
  952SOL    HW2 3756   4.667   2.512   3.172
  953SOL     OW 3757   5.703   5.347   4.466
  953SOL    HW1 3758   5.716   5.250   4.485
  953SOL    HW2 3759   5.764   5.375   4.391
  954SOL     OW 3760   3.601   6.037   2.341
  954SOL    HW1 3761   3.695   6.004   2.343
  954SOL    HW2 3762   3.590   6.104   2.267
  955SOL     OW 3763   1.497   4.518   0.699
  955SOL    HW1 3764   1.503   4.421   0.725
  955SOL    HW2 3765   1.409   4.535   0.654
  956SOL     OW 3766   6.425   0.685   1.629
  956SOL    HW1 3767   6.454   0.642   1.543
  956SOL    HW2 3768   6.345   0.637   1.665
  957SOL     OW 3769   5.413   2.470   1.819
  957SOL    HW1 3770   5.313   2.472   1.814
  957SOL    HW2 3771   5.451   2.490   1.729
  958SOL     OW 3772   3.558   6.724   1.504
  958SOL    HW1 3773   3.597   6.745   1.594
  958SOL    HW2 3774   3.617   6.761   1.433
  959SOL     OW 3775   3.459   6.622   4.853
  959SOL    HW1 3776   3.467   6.705   4.908
  959SOL    HW2 3777   3.394   6.559   4.895
  960SOL     OW 3778   1.435   0.148   1.136
  960SOL    HW1 3779   1.405   0.200   1.057
  960SOL    HW2 3780   1.427   0.050   1.117
  961SOL     OW 3781   4.192   6.732   2.955
  961SOL    HW1 3782   4.200   6.677   2.872
  961SOL    HW2 3783   4.263   6.803   2.955
  962SOL     OW 3784   6.580   0.756   4.878
  962SOL    HW1 3785   6.660   0.815   4.868
  962SOL    HW2 3786   6.562   0.710   4.791
  963SOL     OW 3787   4.621   0.929   0.522
  963SOL    HW1 3788   4.543   0.932   0.584
  963SOL    HW2 3789   4.706   0.927   0.576
  964SOL     OW 3790   4.964   4.785   5.945
  964SOL    HW1 3791   5.029   4.836   5.889
  964SOL    HW2 3792   4.939   4.840   6.025
  965SOL     OW 3793   6.313   1.664   2.625
  965SOL    HW1 3794   6.237   1.600   2.638
  965SOL    HW2 3795   6.380   1.625   2.562
  966SOL     OW 3796   5.887   2.652   3.068
  966SOL    HW1 3797   5.801   2.632   3.022
  966SOL    HW2 3798   5.961   2.601   3.024
  967SOL     OW 3799   3.088   4.455   0.744
  967SOL    HW1 3800   3.021   4.438   0.672
  967SOL    HW2 3801   3.170   4.497   0.705
  968SOL     OW 3802   3.936   6.770   1.697
  968SOL    HW1 3803   3.930   6.671   1.684
  968SOL    HW2 3804   3.988   6.811   1.622
  969SOL     OW 3805   2.833   4.780   5.883
  969SOL    HW1 3806   2.894   4.833   5.825
  969SOL    HW2 3807   2.738   4.798   5.858
  970SOL     OW 3808   5.399   0.632   6.351
  970SOL    HW1 3809   5.446   0.578   6.281
  970SOL    HW2 3810   5.467   0.681   6.406
  971SOL     OW 3811   6.693   3.554   2.582
  971SOL    HW1 3812   6.697   3.653   2.590
  971SOL    HW2 3813   6.691   3.513   2.673
  972SOL     OW 3814   6.063   1.962   1.817
  972SOL    HW1 3815   6.012   2.040   1.851
  972SOL    HW2 3816   6.085   1.900   1.892
  973SOL     OW 3817   0.735   5.664   6.431
  973SOL    HW1 3818   0.687   5.606   6.496
  973SOL    HW2 3819   0.690   5.657   6.341
  974SOL     OW 3820   0.041   5.645   1.933
  974SOL    HW1 3821   7.015   5.690   1.860
  974SOL    HW2 3822   0.129   5.691   1.946
  975SOL     OW 3823   2.258   0.029   6.802
  975SOL    HW1 3824   2.279   0.123   6.829
  975SOL    HW2 3825   2.224   7.003   6.881
  976SOL     OW 3826   0.026   3.081   1.262
  976SOL    HW1 3827   0.052   3.161   1.208
  976SOL    HW2 3828   6.951   3.078   1.270
  977SOL     OW 3829   0.715   0.548   2.320
  977SOL    HW1 3830   0.787   0.606   2.359
  977SOL    HW2 3831   0.660   0.510   2.395
  978SOL     OW 3832   5.512   1.649   1.448
  978SOL    HW1 3833   5.516   1.702   1.532
  978SOL    HW2 3834   5.575   1.687   1.381
  979SOL     OW 3835   0.855   3.128   6.903
  979SOL    HW1 3836   0.764   3.104   6.867
  979SOL    HW2 3837   0.875   3.072   6.983
  980SOL     OW 3838   4.674   1.683   4.278
  980SOL    HW1 3839   4.636   1.759   4.225
  980SOL    HW2 3840   4.769   1.669   4.252
  981SOL     OW 3841   0.172   0.980   4.777
  981SOL    HW1 3842   0.155   1.016   4.869
  981SOL    HW2 3843   0.190   0.882   4.783
  982SOL     OW 3844   0.971   1.567   4.848
  982SOL    HW1 3845   0.939   1.638   4.910
  982SOL    HW2 3846   0.988   1.483   4.899
  983SOL     OW 3847   6.652   3.455   2.841
  983SOL    HW1 3848   6.689   3.362   2.842
  983SOL    HW2 3849   6.583   3.464   2.913
  984SOL     OW 3850   1.775   2.444   3.049
  984SOL    HW1 3851   1.836   2.523   3.052
  984SOL    HW2 3852   1.823   2.364   3.085
  985SOL     OW 3853   6.793   3.872   4.369
  985SOL    HW1 3854   6.753   3.947   4.316
  985SOL    HW2 3855   6.749   3.867   4.459
  986SOL     OW 3856   4.316   4.629   1.444
  986SOL    HW1 3857   4.336   4.535   1.416
  986SOL    HW2 3858   4.288   4.630   1.540
  987SOL     OW 3859   4.830   6.474   2.245
  987SOL    HW1 3860   4.858   6.433   2.331
  987SOL    HW2 3861   4.782   6.560   2.263
  988SOL     OW 3862   3.364   3.793   1.596
  988SOL    HW1 3863   3.376   3.805   1.497
  988SOL    HW2 3864   3.366   3.883   1.640
  989SOL     OW 3865   6.557   1.727   6.907
  989SOL    HW1 3866   6.490   1.770   6.847
  989SOL    HW2 3867   6.631   1.687   6.852
  990SOL     OW 3868   2.964   0.852   2.278
  990SOL    HW1 3869   2.872   0.824   2.251
  990SOL    HW2 3870   2.998   0.791   2.349
  991SOL     OW 3871   0.298   4.067   3.993
  991SOL    HW1 3872   0.292   4.145   3.932
  991SOL    HW2 3873   0.356   3.996   3.952
  992SOL     OW 3874   6.882   2.871   1.037
  992SOL    HW1 3875   6.791   2.911   1.041
  992SOL    HW2 3876   6.946   2.931   1.086
  993SOL     OW 3877   0.383   3.909   0.201
  993SOL    HW1 3878   0.419   3.971   0.270
  993SOL    HW2 3879   0.361   3.821   0.244
  994SOL     OW 3880   3.982   5.175   1.998
  994SOL    HW1 3881   3.933   5.119   1.932
  994SOL    HW2 3882   3.917   5.213   2.064
  995SOL     OW 3883   4.323   3.150   6.372
  995SOL    HW1 3884   4.396   3.209   6.337
  995SOL    HW2 3885   4.234   3.185   6.341
  996SOL     OW 3886   3.560   4.979   4.845
  996SOL    HW1 3887   3.617   4.908   4.885
  996SOL    HW2 3888   3.464   4.959   4.862
  997SOL     OW 3889   0.835   6.899   3.190
  997SOL    HW1 3890   0.853   6.806   3.159
  997SOL    HW2 3891   0.780   6.897   3.274
  998SOL     OW 3892   6.483   0.396   6.028
  998SOL    HW1 3893   6.558   0.417   5.965
  998SOL    HW2 3894   6.486   0.298   6.051
  999SOL     OW 3895   4.960   3.723   1.680
  999SOL    HW1 3896   5.023   3.646   1.674
  999SOL    HW2 3897   4.868   3.689   1.701
 1000SOL     OW 3898   4.177   1.640   1.553
 1000SOL    HW1 3899   4.178   1.718   1.616
 1000SOL    HW2 3900   4.096   1.645   1.495
 1001SOL     OW 3901   3.971   6.243   2.130
 1001SOL    HW1 3902   4.038   6.279   2.065
 1001SOL    HW2 3903   3.884   6.290   2.118
 1002SOL     OW 3904   5.380   2.417   1.335
 1002SOL    HW1 3905   5.304   2.369   1.378
 1002SOL    HW2 3906   5.376   2.405   1.236
 1003SOL     OW 3907   1.938   5.863   3.561
 1003SOL    HW1 3908   1.941   5.954   3.603
 1003SOL    HW2 3909   2.021   5.848   3.507
 1004SOL     OW 3910   0.156   0.894   2.219
 1004SOL    HW1 3911   0.227   0.957   2.186
 1004SOL    HW2 3912   0.189   0.848   2.301
 1005SOL     OW 3913   1.518   3.731   3.559
 1005SOL    HW1 3914   1.518   3.830   3.569
 1005SOL    HW2 3915   1.551   3.689   3.643
 1006SOL     OW 3916   1.319   3.980   0.071
 1006SOL    HW1 3917   1.236   4.022   0.036
 1006SOL    HW2 3918   1.300   3.886   0.100
 1007SOL     OW 3919   5.051   0.687   5.938
 1007SOL    HW1 3920   5.103   0.606   5.911
 1007SOL    HW2 3921   5.007   0.726   5.857
 1008SOL     OW 3922   7.012   2.869   5.212
 1008SOL    HW1 3923   0.083   2.841   5.220
 1008SOL    HW2 3924   7.002   2.934   5.137
 1009SOL     OW 3925   6.316   4.720   5.807
 1009SOL    HW1 3926   6.411   4.746   5.825
 1009SOL    HW2 3927   6.290   4.751   5.716
 1010SOL     OW 3928   3.056   2.807   1.362
 1010SOL    HW1 3929   3.022   2.792   1.454
 1010SOL    HW2 3930   2.993   2.865   1.311
 1011SOL     OW 3931   0.868   5.517   3.448
 1011SOL    HW1 3932   0.800   5.482   3.513
 1011SOL    HW2 3933   0.943   5.451   3.440
 1012SOL     OW 3934   0.021   6.583   2.355
 1012SOL    HW1 3935   0.021   6.484   2.370
 1012SOL    HW2 3936   0.110   6.611   2.317
 1013SOL     OW 3937   0.110   1.029   6.663
 1013SOL    HW1 3938   0.138   1.106   6.721
 1013SOL    HW2 3939   0.190   0.992   6.617
 1014SOL     OW 3940   0.332   3.815   4.973
 1014SOL    HW1 3941   0.416   3.763   4.959
 1014SOL    HW2 3942   0.278   3.814   4.889
 1015SOL     OW 3943   2.396   0.760   6.074
 1015SOL    HW1 3944   2.442   0.710   6.148
 1015SOL    HW2 3945   2.397   0.704   5.991
 1016SOL     OW 3946   4.577   4.987   0.923
 1016SOL    HW1 3947   4.607   4.961   1.015
 1016SOL    HW2 3948   4.478   4.974   0.915
 1017SOL     OW 3949   3.893   2.075   1.123
 1017SOL    HW1 3950   3.846   2.096   1.037
 1017SOL    HW2 3951   3.871   2.145   1.191
 1018SOL     OW 3952   0.920   4.521   3.994
 1018SOL    HW1 3953   0.895   4.426   3.978
 1018SOL    HW2 3954   0.965   4.530   4.083
 1019SOL     OW 3955   0.259   5.579   1.022
 1019SOL    HW1 3956   0.232   5.672   0.999
 1019SOL    HW2 3957   0.284   5.574   1.118
 1020SOL     OW 3958   6.399   1.448   1.328
 1020SOL    HW1 3959   6.315   1.491   1.359
 1020SOL    HW2 3960   6.477   1.488   1.376
 1021SOL     OW 3961   5.948   6.649   2.019
 1021SOL    HW1 3962   5.902   6.720   2.072
 1021SOL    HW2 3963   6.018   6.689   1.961
 1022SOL     OW 3964   2.914   4.907   5.626
 1022SOL    HW1 3965   3.012   4.886   5.617
 1022SOL    HW2 3966   2.860   4.827   5.597
 1023SOL     OW 3967   6.913   0.537   3.018
 1023SOL    HW1 3968   6.912   0.458   2.957
 1023SOL    HW2 3969   6.853   0.520   3.096
 1024SOL     OW 3970   0.629   1.868   4.100
 1024SOL    HW1 3971   0.680   1.911   4.026
 1024SOL    HW2 3972   0.616   1.771   4.080
 1025SOL     OW 3973   4.293   3.382   0.260
 1025SOL    HW1 3974   4.352   3.458   0.233
 1025SOL    HW2 3975   4.273   3.325   0.180
 1026SOL     OW 3976   2.576   3.154   1.719
 1026SOL    HW1 3977   2.653   3.119   1.771
 1026SOL    HW2 3978   2.575   3.254   1.724
 1027SOL     OW 3979   2.455   0.230   1.842
 1027SOL    HW1 3980   2.363   0.268   1.834
 1027SOL    HW2 3981   2.461   0.174   1.925
 1028SOL     OW 3982   1.405   6.950   3.004
 1028SOL    HW1 3983   1.362   6.963   2.915
 1028SOL    HW2 3984   1.337   6.960   3.077
 1029SOL     OW 3985   1.105   2.167   5.575
 1029SOL    HW1 3986   1.146   2.083   5.541
 1029SOL    HW2 3987   1.120   2.176   5.673
 1030SOL     OW 3988   3.294   3.170   1.961
 1030SOL    HW1 3989   3.316   3.163   1.864
 1030SOL    HW2 3990   3.265   3.264   1.982
 1031SOL     OW 3991   4.950   3.426   1.205
 1031SOL    HW1 3992   4.997   3.493   1.263
 1031SOL    HW2 3993   5.002   3.341   1.204
 1032SOL     OW 3994   2.101   1.438   5.453
 1032SOL    HW1 3995   2.126   1.487   5.537
 1032SOL    HW2 3996   2.142   1.483   5.374
 1033SOL     OW 3997   1.629   5.514   1.777
 1033SOL    HW1 3998   1.579   5.566   1.708
 1033SOL    HW2 3999   1.622   5.559   1.866
 1034SOL     OW 4000   1.470   5.691   4.262
 1034SOL    HW1 4001   1.449   5.682   4.165
 1034SOL    HW2 4002   1.482   5.600   4.303
 1035SOL     OW 4003   6.973   2.145   6.775
 1035SOL    HW1 4004   6.927   2.099   6.851
 1035SOL    HW2 4005   0.027   2.196   6.809
 1036SOL     OW 4006   3.999   1.013   1.934
 1036SOL    HW1 4007   3.961   0.921   1.934
 1036SOL    HW2 4008   3.927   1.078   1.958
 1037SOL     OW 4009   1.125   1.362   3.134
 1037SOL    HW1 4010   1.189   1.361   3.057
 1037SOL    HW2 4011   1.090   1.270   3.150
 1038SOL     OW 4012   1.731   1.253   5.335
 1038SOL    HW1 4013   1.758   1.303   5.253
 1038SOL    HW2 4014   1.655   1.193   5.314
 1039SOL     OW 4015   3.162   3.615   4.509
 1039SOL    HW1 4016   3.186   3.526   4.548
 1039SOL    HW2 4017   3.080   3.649   4.554
 1040SOL     OW 4018   5.067   0.975   2.099
 1040SOL    HW1 4019   4.977   0.933   2.116
 1040SOL    HW2 4020   5.125   0.912   2.048
 1041SOL     OW 4021   6.889   6.225   3.740
 1041SOL    HW1 4022   6.888   6.129   3.769
 1041SOL    HW2 4023   6.923   6.230   3.646
 1042SOL     OW 4024   4.655   5.366   2.739
 1042SOL    HW1 4025   4.746   5.338   2.708
 1042SOL    HW2 4026   4.605   5.407   2.662
 1043SOL     OW 4027   3.665   2.079   3.549
 1043SOL    HW1 4028   3.676   2.122   3.460
 1043SOL    HW2 4029   3.734   2.114   3.612
 1044SOL     OW 4030   5.824   5.323   2.006
 1044SOL    HW1 4031   5.879   5.406   1.993
 1044SOL    HW2 4032   5.823   5.298   2.103
 1045SOL     OW 4033   3.934   1.051   3.137
 1045SOL    HW1 4034   3.926   0.996   3.055
 1045SOL    HW2 4035   4.016   1.108   3.132
 1046SOL     OW 4036   1.952   1.886   6.845
 1046SOL    HW1 4037   1.863   1.921   6.819
 1046SOL    HW2 4038   2.021   1.958   6.837
 1047SOL     OW 4039   2.986   0.447   3.942
 1047SOL    HW1 4040   2.958   0.360   3.901
 1047SOL    HW2 4041   3.071   0.433   3.993
 1048SOL     OW 4042   3.095   5.563   2.167
 1048SOL    HW1 4043   3.098   5.630   2.241
 1048SOL    HW2 4044   3.142   5.600   2.087
 1049SOL     OW 4045   5.644   0.034   3.996
 1049SOL    HW1 4046   5.576   7.006   3.945
 1049SOL    HW2 4047   5.734   0.021   3.954
 1050SOL     OW 4048   3.536   5.543   2.259
 1050SOL    HW1 4049   3.487   5.459   2.284
 1050SOL    HW2 4050   3.634   5.531   2.276
 1051SOL     OW 4051   0.161   5.628   0.563
 1051SOL    HW1 4052   0.170   5.614   0.465
 1051SOL    HW2 4053   0.175   5.725   0.585
 1052SOL     OW 4054   4.794   0.684   5.515
 1052SOL    HW1 4055   4.838   0.601   5.549
 1052SOL    HW2 4056   4.694   0.672   5.516
 1053SOL     OW 4057   5.807   3.855   2.517
 1053SOL    HW1 4058   5.891   3.823   2.473
 1053SOL    HW2 4059   5.823   3.864   2.616
 1054SOL     OW 4060   2.473   3.631   0.772
 1054SOL    HW1 4061   2.550   3.685   0.805
 1054SOL    HW2 4062   2.407   3.619   0.847
 1055SOL     OW 4063   4.864   6.330   5.810
 1055SOL    HW1 4064   4.768   6.350   5.825
 1055SOL    HW2 4065   4.891   6.360   5.719
 1056SOL     OW 4066   1.295   3.699   0.093
 1056SOL    HW1 4067   1.280   3.600   0.095
 1056SOL    HW2 4068   1.389   3.719   0.065
 1057SOL     OW 4069   3.741   2.834   1.532
 1057SOL    HW1 4070   3.805   2.767   1.570
 1057SOL    HW2 4071   3.696   2.883   1.607
 1058SOL     OW 4072   5.140   2.559   4.068
 1058SOL    HW1 4073   5.179   2.602   3.986
 1058SOL    HW2 4074   5.074   2.489   4.040
 1059SOL     OW 4075   2.450   6.649   1.878
 1059SOL    HW1 4076   2.401   6.727   1.916
 1059SOL    HW2 4077   2.385   6.587   1.833
 1060SOL     OW 4078   0.401   4.652   4.452
 1060SOL    HW1 4079   0.343   4.614   4.380
 1060SOL    HW2 4080   0.417   4.749   4.435
 1061SOL     OW 4081   6.471   3.686   5.989
 1061SOL    HW1 4082   6.386   3.649   5.953
 1061SOL    HW2 4083   6.482   3.781   5.960
 1062SOL     OW 4084   4.480   5.491   5.622
 1062SOL    HW1 4085   4.536   5.474   5.702
 1062SOL    HW2 4086   4.534   5.537   5.552
 1063SOL     OW 4087   0.000   6.655   0.259
 1063SOL    HW1 4088   7.014   6.617   0.167
 1063SOL    HW2 4089   6.937   6.653   0.306
 1064SOL     OW 4090   1.494   4.476   1.711
 1064SOL    HW1 4091   1.536   4.411   1.775
 1064SOL    HW2 4092   1.395   4.460   1.709
 1065SOL     OW 4093   4.558   0.556   2.909
 1065SOL    HW1 4094   4.630   0.569   2.840
 1065SOL    HW2 4095   4.519   0.464   2.899
 1066SOL     OW 4096   4.471   6.703   2.409
 1066SOL    HW1 4097   4.448   6.796   2.379
 1066SOL    HW2 4098   4.387   6.654   2.432
 1067SOL     OW 4099   1.986   1.704   0.041
 1067SOL    HW1 4100   1.935   1.620   0.023
 1067SOL    HW2 4101   1.962   1.773   6.997
 1068SOL     OW 4102   6.440   3.984   1.426
 1068SOL    HW1 4103   6.516   4.039   1.461
 1068SOL    HW2 4104   6.475   3.904   1.379
 1069SOL     OW 4105   5.166   5.867   0.689
 1069SOL    HW1 4106   5.204   5.958   0.705
 1069SOL    HW2 4107   5.159   5.819   0.777
 1070SOL     OW 4108   1.669   6.852   2.393
 1070SOL    HW1 4109   1.727   6.886   2.467
 1070SOL    HW2 4110   1.663   6.921   2.320
 1071SOL     OW 4111   2.318   2.102   3.978
 1071SOL    HW1 4112   2.402   2.049   3.988
 1071SOL    HW2 4113   2.335   2.197   4.004
 1072SOL     OW 4114   2.631   1.205   1.214
 1072SOL    HW1 4115   2.606   1.293   1.254
 1072SOL    HW2 4116   2.596   1.199   1.121
 1073SOL     OW 4117   4.977   1.025   3.462
 1073SOL    HW1 4118   4.984   1.093   3.535
 1073SOL    HW2 4119   4.925   1.063   3.386
 1074SOL     OW 4120   2.619   5.178   1.869
 1074SOL    HW1 4121   2.584   5.232   1.946
 1074SOL    HW2 4122   2.586   5.218   1.784
 1075SOL     OW 4123   5.892   0.986   3.627
 1075SOL    HW1 4124   5.966   0.961   3.690
 1075SOL    HW2 4125   5.842   0.904   3.600
 1076SOL     OW 4126   0.671   2.490   5.444
 1076SOL    HW1 4127   0.586   2.487   5.392
 1076SOL    HW2 4128   0.710   2.398   5.450
 1077SOL     OW 4129   6.658   6.317   0.847
 1077SOL    HW1 4130   6.584   6.254   0.821
 1077SOL    HW2 4131   6.631   6.368   0.929
 1078SOL     OW 4132   6.439   0.768   2.861
 1078SOL    HW1 4133   6.500   0.722   2.925
 1078SOL    HW2 4134   6.492   0.801   2.783
 1079SOL     OW 4135   1.236   5.014   2.128
 1079SOL    HW1 4136   1.244   4.917   2.151
 1079SOL    HW2 4137   1.193   5.063   2.203
 1080SOL     OW 4138   2.632   5.684   3.751
 1080SOL    HW1 4139   2.671   5.601   3.790
 1080SOL    HW2 4140   2.546   5.705   3.797
 1081SOL     OW 4141   6.725   5.260   5.685
 1081SOL    HW1 4142   6.722   5.228   5.780
 1081SOL    HW2 4143   6.732   5.359   5.684
 1082SOL     OW 4144   5.706   1.986   6.115
 1082SOL    HW1 4145   5.729   1.942   6.028
 1082SOL    HW2 4146   5.790   2.013   6.162
 1083SOL     OW 4147   4.579   3.317   0.059
 1083SOL    HW1 4148   4.578   3.261   0.142
 1083SOL    HW2 4149   4.624   3.267   7.010
 1084SOL     OW 4150   6.703   6.826   5.986
 1084SOL    HW1 4151   6.605   6.820   6.002
 1084SOL    HW2 4152   6.728   6.922   5.969
 1085SOL     OW 4153   2.078   3.254   4.266
 1085SOL    HW1 4154   2.062   3.181   4.331
 1085SOL    HW2 4155   2.036   3.339   4.299
 1086SOL     OW 4156   6.875   4.998   0.059
 1086SOL    HW1 4157   6.927   4.969   0.140
 1086SOL    HW2 4158   6.778   4.986   0.076
 1087SOL     OW 4159   0.375   1.908   4.716
 1087SOL    HW1 4160   0.362   1.860   4.803
 1087SOL    HW2 4161   0.334   1.856   4.642
 1088SOL     OW 4162   0.146   4.709   3.353
 1088SOL    HW1 4163   0.228   4.652   3.345
 1088SOL    HW2 4164   0.162   4.798   3.310
 1089SOL     OW 4165   0.281   5.822   4.553
 1089SOL    HW1 4166   0.257   5.835   4.456
 1089SOL    HW2 4167   0.312   5.910   4.591
 1090SOL     OW 4168   4.001   2.163   2.636
 1090SOL    HW1 4169   4.054   2.082   2.612
 1090SOL    HW2 4170   3.979   2.215   2.553
 1091SOL     OW 4171   2.173   3.329   3.479
 1091SOL    HW1 4172   2.139   3.408   3.531
 1091SOL    HW2 4173   2.167   3.349   3.381
 1092SOL     OW 4174   1.055   5.117   0.633
 1092SOL    HW1 4175   1.017   5.164   0.713
 1092SOL    HW2 4176   0.983   5.105   0.564
 1093SOL     OW 4177   2.891   6.608   1.567
 1093SOL    HW1 4178   2.817   6.645   1.624
 1093SOL    HW2 4179   2.963   6.571   1.626
 1094SOL     OW 4180   0.581   6.590   2.520
 1094SOL    HW1 4181   0.568   6.521   2.450
 1094SOL    HW2 4182   0.637   6.553   2.594
 1095SOL     OW 4183   7.009   3.176   6.640
 1095SOL    HW1 4184   0.040   3.208   6.717
 1095SOL    HW2 4185   0.039   3.118   6.581
 1096SOL     OW 4186   3.558   4.440   1.329
 1096SOL    HW1 4187   3.460   4.430   1.346
 1096SOL    HW2 4188   3.573   4.513   1.262
 1097SOL     OW 4189   1.529   4.747   3.211
 1097SOL    HW1 4190   1.619   4.769   3.249
 1097SOL    HW2 4191   1.539   4.676   3.141
 1098SOL     OW 4192   5.961   3.527   6.347
 1098SOL    HW1 4193   6.059   3.531   6.324
 1098SOL    HW2 4194   5.946   3.461   6.420
 1099SOL     OW 4195   4.534   0.627   6.313
 1099SOL    HW1 4196   4.437   0.606   6.304
 1099SOL    HW2 4197   4.586   0.543   6.329
 1100SOL     OW 4198   4.101   1.134   4.667
 1100SOL    HW1 4199   4.192   1.112   4.632
 1100SOL    HW2 4200   4.034   1.121   4.595
 1101SOL     OW 4201   5.279   3.687   5.860
 1101SOL    HW1 4202   5.337   3.759   5.898
 1101SOL    HW2 4203   5.224   3.725   5.785
 1102SOL     OW 4204   2.075   1.104   4.700
 1102SOL    HW1 4205   2.128   1.143   4.625
 1102SOL    HW2 4206   2.002   1.047   4.663
 1103SOL     OW 4207   3.025   2.135   0.395
 1103SOL    HW1 4208   2.965   2.057   0.376
 1103SOL    HW2 4209   3.121   2.107   0.382
 1104SOL     OW 4210   1.569   4.002   3.579
 1104SOL    HW1 4211   1.631   4.040   3.647
 1104SOL    HW2 4212   1.564   4.064   3.500
 1105SOL     OW 4213   5.335   2.963   4.240
 1105SOL    HW1 4214   5.308   2.967   4.336
 1105SOL    HW2 4215   5.260   2.995   4.183
 1106SOL     OW 4216   1.021   2.128   1.720
 1106SOL    HW1 4217   1.105   2.075   1.733
 1106SOL    HW2 4218   0.942   2.067   1.721
 1107SOL     OW 4219   1.296   0.288   0.020
 1107SOL    HW1 4220   1.282   0.191   7.023
 1107SOL    HW2 4221   1.237   0.315   0.095
 1108SOL     OW 4222   3.415   6.585   5.346
 1108SOL    HW1 4223   3.455   6.548   5.263
 1108SOL    HW2 4224   3.459   6.672   5.368
 1109SOL     OW 4225   5.547   0.981   4.372
 1109SOL    HW1 4226   5.481   0.936   4.314
 1109SOL    HW2 4227   5.585   1.061   4.325
 1110SOL     OW 4228   4.115   1.700   2.872
 1110SOL    HW1 4229   4.147   1.772   2.934
 1110SOL    HW2 4230   4.051   1.641   2.920
 1111SOL     OW 4231   5.736   5.401   6.450
 1111SOL    HW1 4232   5.783   5.380   6.364
 1111SOL    HW2 4233   5.782   5.355   6.525
 1112SOL     OW 4234   6.083   0.685   3.316
 1112SOL    HW1 4235   6.083   0.689   3.415
 1112SOL    HW2 4236   6.143   0.756   3.279
 1113SOL     OW 4237   6.111   4.219   1.190
 1113SOL    HW1 4238   6.023   4.209   1.142
 1113SOL    HW2 4239   6.099   4.275   1.271
 1114SOL     OW 4240   3.118   1.994   6.183
 1114SOL    HW1 4241   3.146   2.062   6.115
 1114SOL    HW2 4242   3.022   2.008   6.207
 1115SOL     OW 4243   3.890   3.538   5.439
 1115SOL    HW1 4244   3.839   3.604   5.384
 1115SOL    HW2 4245   3.862   3.546   5.535
 1116SOL     OW 4246   5.478   0.245   6.802
 1116SOL    HW1 4247   5.537   0.325   6.790
 1116SOL    HW2 4248   5.491   0.208   6.894
 1117SOL     OW 4249   1.325   1.990   1.908
 1117SOL    HW1 4250   1.310   1.937   1.991
 1117SOL    HW2 4251   1.374   1.934   1.841
 1118SOL     OW 4252   2.615   5.152   0.498
 1118SOL    HW1 4253   2.546   5.085   0.473
 1118SOL    HW2 4254   2.704   5.106   0.509
 1119SOL     OW 4255   4.133   4.218   1.340
 1119SOL    HW1 4256   4.065   4.161   1.295
 1119SOL    HW2 4257   4.116   4.219   1.438
 1120SOL     OW 4258   6.584   5.714   1.229
 1120SOL    HW1 4259   6.533   5.632   1.203
 1120SOL    HW2 4260   6.681   5.691   1.238
 1121SOL     OW 4261   0.326   4.639   4.738
 1121SOL    HW1 4262   0.233   4.672   4.753
 1121SOL    HW2 4263   0.357   4.665   4.647
 1122SOL     OW 4264   5.943   2.874   2.137
 1122SOL    HW1 4265   5.867   2.810   2.124
 1122SOL    HW2 4266   5.977   2.866   2.231
 1123SOL     OW 4267   5.255   2.293   3.903
 1123SOL    HW1 4268   5.167   2.341   3.906
 1123SOL    HW2 4269   5.320   2.347   3.850
 1124SOL     OW 4270   6.847   4.700   5.825
 1124SOL    HW1 4271   6.839   4.601   5.840
 1124SOL    HW2 4272   6.943   4.723   5.806
 1125SOL     OW 4273   1.600   2.260   3.552
 1125SOL    HW1 4274   1.571   2.332   3.615
 1125SOL    HW2 4275   1.683   2.217   3.587
 1126SOL     OW 4276   6.121   5.920   5.899
 1126SOL    HW1 4277   6.200   5.867   5.868
 1126SOL    HW2 4278   6.047   5.910   5.832
 1127SOL     OW 4279   5.655   6.041   4.554
 1127SOL    HW1 4280   5.654   5.954   4.604
 1127SOL    HW2 4281   5.601   6.032   4.471
 1128SOL     OW 4282   6.107   1.337   4.701
 1128SOL    HW1 4283   6.181   1.328   4.634
 1128SOL    HW2 4284   6.068   1.429   4.695
 1129SOL     OW 4285   2.153   6.530   0.489
 1129SOL    HW1 4286   2.120   6.569   0.575
 1129SOL    HW2 4287   2.184   6.436   0.506
 1130SOL     OW 4288   2.174   4.744   1.191
 1130SOL    HW1 4289   2.213   4.714   1.104
 1130SOL    HW2 4290   2.079   4.713   1.197
 1131SOL     OW 4291   1.885   0.329   5.394
 1131SOL    HW1 4292   1.901   0.423   5.426
 1131SOL    HW2 4293   1.968   0.275   5.407
 1132SOL     OW 4294   4.097   0.369   3.353
 1132SOL    HW1 4295   4.183   0.327   3.383
 1132SOL    HW2 4296   4.057   0.314   3.280
 1133SOL     OW 4297   1.140   0.611   7.019
 1133SOL    HW1 4298   1.097   0.543   0.055
 1133SOL    HW2 4299   1.181   0.565   6.941
 1134SOL     OW 4300   4.932   0.050   3.171
 1134SOL    HW1 4301   4.892   0.130   3.216
 1134SOL    HW2 4302   4.979   0.078   3.087
 1135SOL     OW 4303   2.371   6.537   3.330
 1135SOL    HW1 4304   2.297   6.580   3.381
 1135SOL    HW2 4305   2.334   6.460   3.277
 1136SOL     OW 4306   4.173   4.703   2.690
 1136SOL    HW1 4307   4.083   4.684   2.650
 1136SOL    HW2 4308   4.177   4.799   2.719
 1137SOL     OW 4309   1.284   6.536   0.163
 1137SOL    HW1 4310   1.321   6.535   0.070
 1137SOL    HW2 4311   1.359   6.540   0.229
 1138SOL     OW 4312   0.310   1.601   5.218
 1138SOL    HW1 4313   0.348   1.512   5.245
 1138SOL    HW2 4314   0.247   1.633   5.289
 1139SOL     OW 4315   2.870   4.871   3.387
 1139SOL    HW1 4316   2.836   4.900   3.476
 1139SOL    HW2 4317   2.822   4.919   3.315
 1140SOL     OW 4318   2.982   0.287   2.352
 1140SOL    HW1 4319   2.945   0.281   2.259
 1140SOL    HW2 4320   3.039   0.369   2.360
 1141SOL     OW 4321   6.833   6.293   0.165
 1141SOL    HW1 4322   6.893   6.261   0.091
 1141SOL    HW2 4323   6.818   6.391   0.155
 1142SOL     OW 4324   3.314   0.607   4.101
 1142SOL    HW1 4325   3.362   0.647   4.179
 1142SOL    HW2 4326   3.289   0.680   4.036
 1143SOL     OW 4327   1.901   3.346   2.666
 1143SOL    HW1 4328   1.986   3.328   2.716
 1143SOL    HW2 4329   1.897   3.443   2.641
 1144SOL     OW 4330   5.893   4.178   3.709
 1144SOL    HW1 4331   5.862   4.272   3.720
 1144SOL    HW2 4332   5.992   4.174   3.720
 1145SOL     OW 4333   0.902   2.864   0.652
 1145SOL    HW1 4334   0.991   2.891   0.614
 1145SOL    HW2 4335   0.906   2.872   0.752
 1146SOL     OW 4336   0.902   1.908   1.942
 1146SOL    HW1 4337   0.928   1.843   1.870
 1146SOL    HW2 4338   0.832   1.970   1.907
 1147SOL     OW 4339   3.284   5.970   1.161
 1147SOL    HW1 4340   3.367   6.024   1.175
 1147SOL    HW2 4341   3.283   5.934   1.068
 1148SOL     OW 4342   4.471   5.984   1.041
 1148SOL    HW1 4343   4.457   6.082   1.029
 1148SOL    HW2 4344   4.468   5.962   1.139
 1149SOL     OW 4345   5.294   2.767   2.272
 1149SOL    HW1 4346   5.268   2.688   2.216
 1149SOL    HW2 4347   5.319   2.736   2.363
 1150SOL     OW 4348   0.641   3.746   0.166
 1150SOL    HW1 4349   0.558   3.799   0.149
 1150SOL    HW2 4350   0.638   3.660   0.115
 1151SOL     OW 4351   5.347   4.937   4.838
 1151SOL    HW1 4352   5.432   4.938   4.891
 1151SOL    HW2 4353   5.342   4.854   4.783
 1152SOL     OW 4354   5.399   6.432   6.673
 1152SOL    HW1 4355   5.463   6.438   6.596
 1152SOL    HW2 4356   5.346   6.516   6.679
 1153SOL     OW 4357   6.924   0.372   2.005
 1153SOL    HW1 4358   7.012   0.374   2.054
 1153SOL    HW2 4359   6.870   0.295   2.038
 1154SOL     OW 4360   0.454   4.334   0.567
 1154SOL    HW1 4361   0.503   4.329   0.653
 1154SOL    HW2 4362   0.516   4.316   0.491
 1155SOL     OW 4363   3.213   4.885   5.792
 1155SOL    HW1 4364   3.309   4.861   5.803
 1155SOL    HW2 4365   3.167   4.880   5.880
 1156SOL     OW 4366   4.685   2.281   5.114
 1156SOL    HW1 4367   4.696   2.371   5.157
 1156SOL    HW2 4368   4.762   2.223   5.139
 1157SOL     OW 4369   5.036   1.181   5.870
 1157SOL    HW1 4370   5.018   1.110   5.938
 1157SOL    HW2 4371   5.005   1.270   5.905
 1158SOL     OW 4372   6.436   5.487   4.674
 1158SOL    HW1 4373   6.376   5.527   4.743
 1158SOL    HW2 4374   6.465   5.558   4.610
 1159SOL     OW 4375   5.921   6.963   3.241
 1159SOL    HW1 4376   5.877   0.017   3.200
 1159SOL    HW2 4377   6.011   6.950   3.200
 1160SOL     OW 4378   4.201   5.250   1.492
 1160SOL    HW1 4379   4.180   5.259   1.590
 1160SOL    HW2 4380   4.155   5.169   1.456
 1161SOL     OW 4381   0.390   5.950   6.485
 1161SOL    HW1 4382   0.488   5.968   6.502
 1161SOL    HW2 4383   0.372   5.953   6.387
 1162SOL     OW 4384   2.490   2.584   6.015
 1162SOL    HW1 4385   2.521   2.661   5.959
 1162SOL    HW2 4386   2.545   2.503   5.992
 1163SOL     OW 4387   6.197   4.590   2.066
 1163SOL    HW1 4388   6.195   4.678   2.114
 1163SOL    HW2 4389   6.172   4.604   1.970
 1164SOL     OW 4390   4.905   2.038   4.944
 1164SOL    HW1 4391   4.977   2.105   4.962
 1164SOL    HW2 4392   4.852   2.022   5.027
 1165SOL     OW 4393   4.153   5.888   3.197
 1165SOL    HW1 4394   4.161   5.948   3.277
 1165SOL    HW2 4395   4.096   5.809   3.220
 1166SOL     OW 4396   2.434   5.878   6.868
 1166SOL    HW1 4397   2.416   5.872   6.966
 1166SOL    HW2 4398   2.487   5.961   6.849
 1167SOL     OW 4399   4.956   5.507   0.638
 1167SOL    HW1 4400   5.042   5.510   0.588
 1167SOL    HW2 4401   4.975   5.492   0.735
 1168SOL     OW 4402   5.851   2.472   1.378
 1168SOL    HW1 4403   5.879   2.566   1.394
 1168SOL    HW2 4404   5.831   2.428   1.466
 1169SOL     OW 4405   4.214   1.812   5.645
 1169SOL    HW1 4406   4.214   1.756   5.729
 1169SOL    HW2 4407   4.127   1.859   5.637
 1170SOL     OW 4408   5.565   0.398   3.526
 1170SOL    HW1 4409   5.639   0.423   3.589
 1170SOL    HW2 4410   5.603   0.363   3.441
 1171SOL     OW 4411   3.013   6.710   0.171
 1171SOL    HW1 4412   3.095   6.767   0.172
 1171SOL    HW2 4413   2.932   6.767   0.188
 1172SOL     OW 4414   5.482   4.151   0.468
 1172SOL    HW1 4415   5.383   4.166   0.469
 1172SOL    HW2 4416   5.522   4.190   0.551
 1173SOL     OW 4417   2.906   1.584   0.755
 1173SOL    HW1 4418   2.812   1.565   0.781
 1173SOL    HW2 4419   2.920   1.561   0.658
 1174SOL     OW 4420   3.693   3.733   2.013
 1174SOL    HW1 4421   3.747   3.790   1.951
 1174SOL    HW2 4422   3.688   3.777   2.103
 1175SOL     OW 4423   5.005   3.446   6.535
 1175SOL    HW1 4424   5.076   3.403   6.479
 1175SOL    HW2 4425   4.957   3.515   6.482
 1176SOL     OW 4426   5.211   3.639   0.394
 1176SOL    HW1 4427   5.130   3.639   0.453
 1176SOL    HW2 4428   5.203   3.564   0.328
 1177SOL     OW 4429   6.781   3.832   4.703
 1177SOL    HW1 4430   6.771   3.931   4.709
 1177SOL    HW2 4431   6.782   3.793   4.795
 1178SOL     OW 4432   2.801   4.185   0.478
 1178SOL    HW1 4433   2.704   4.206   0.467
 1178SOL    HW2 4434   2.833   4.133   0.399
 1179SOL     OW 4435   2.032   5.867   0.485
 1179SOL    HW1 4436   2.101   5.823   0.427
 1179SOL    HW2 4437   1.949   5.883   0.431
 1180SOL     OW 4438   2.576   6.868   3.877
 1180SOL    HW1 4439   2.609   6.773   3.876
 1180SOL    HW2 4440   2.599   6.912   3.790
 1181SOL     OW 4441   0.426   5.757   5.153
 1181SOL    HW1 4442   0.375   5.709   5.083
 1181SOL    HW2 4443   0.408   5.856   5.146
 1182SOL     OW 4444   4.549   5.278   3.748
 1182SOL    HW1 4445   4.543   5.343   3.672
 1182SOL    HW2 4446   4.484   5.305   3.819
 1183SOL     OW 4447   2.300   3.944   6.897
 1183SOL    HW1 4448   2.263   3.869   6.952
 1183SOL    HW2 4449   2.257   3.944   6.807
 1184SOL     OW 4450   6.974   1.069   4.451
 1184SOL    HW1 4451   6.891   1.019   4.475
 1184SOL    HW2 4452   0.022   1.003   4.429
 1185SOL     OW 4453   0.942   0.358   1.194
 1185SOL    HW1 4454   0.956   0.269   1.150
 1185SOL    HW2 4455   1.015   0.421   1.165
 1186SOL     OW 4456   5.600   6.432   5.841
 1186SOL    HW1 4457   5.538   6.389   5.906
 1186SOL    HW2 4458   5.658   6.498   5.889
 1187SOL     OW 4459   5.507   0.445   6.552
 1187SOL    HW1 4460   5.579   0.381   6.527
 1187SOL    HW2 4461   5.486   0.503   6.474
 1188SOL     OW 4462   3.608   5.755   6.080
 1188SOL    HW1 4463   3.592   5.699   5.999
 1188SOL    HW2 4464   3.706   5.758   6.100
 1189SOL     OW 4465   6.462   2.495   1.605
 1189SOL    HW1 4466   6.407   2.456   1.531
 1189SOL    HW2 4467   6.552   2.521   1.570
 1190SOL     OW 4468   3.137   5.421   3.285
 1190SOL    HW1 4469   3.098   5.348   3.229
 1190SOL    HW2 4470   3.218   5.457   3.239
 1191SOL     OW 4471   4.373   5.627   4.069
 1191SOL    HW1 4472   4.311   5.628   4.147
 1191SOL    HW2 4473   4.348   5.701   4.006
 1192SOL     OW 4474   4.758   5.145   2.005
 1192SOL    HW1 4475   4.825   5.219   2.013
 1192SOL    HW2 4476   4.665   5.182   2.011
 1193SOL     OW 4477   6.185   2.551   4.941
 1193SOL    HW1 4478   6.233   2.570   5.026
 1193SOL    HW2 4479   6.086   2.555   4.958
 1194SOL     OW 4480   6.112   0.061   1.910
 1194SOL    HW1 4481   6.169   0.136   1.942
 1194SOL    HW2 4482   6.161   6.999   1.924
 1195SOL     OW 4483   0.032   4.107   0.920
 1195SOL    HW1 4484   7.009   4.103   1.007
 1195SOL    HW2 4485   0.010   4.192   0.873
 1196SOL     OW 4486   6.936   5.764   2.945
 1196SOL    HW1 4487   7.000   5.687   2.940
 1196SOL    HW2 4488   6.902   5.786   2.854
 1197SOL     OW 4489   4.404   0.015   5.093
 1197SOL    HW1 4490   4.463   0.083   5.049
 1197SOL    HW2 4491   4.459   6.958   5.116
 1198SOL     OW 4492   1.229   3.031   2.621
 1198SOL    HW1 4493   1.275   2.990   2.543
 1198SOL    HW2 4494   1.138   3.064   2.594
 1199SOL     OW 4495   3.626   3.859   1.487
 1199SOL    HW1 4496   3.667   3.769   1.474
 1199SOL    HW2 4497   3.623   3.881   1.584
 1200SOL     OW 4498   3.659   3.848   4.044
 1200SOL    HW1 4499   3.699   3.938   4.027
 1200SOL    HW2 4500   3.626   3.844   4.138
 1201SOL     OW 4501   1.174   0.744   4.449
 1201SOL    HW1 4502   1.151   0.760   4.545
 1201SOL    HW2 4503   1.107   0.790   4.391
 1202SOL     OW 4504   0.362   5.631   5.630
 1202SOL    HW1 4505   0.317   5.605   5.716
 1202SOL    HW2 4506   0.381   5.729   5.631
 1203SOL     OW 4507   6.631   6.494   6.753
 1203SOL    HW1 4508   6.720   6.537   6.738
 1203SOL    HW2 4509   6.568   6.519   6.679
 1204SOL     OW 4510   4.138   0.369   1.635
 1204SOL    HW1 4511   4.148   0.276   1.598
 1204SOL    HW2 4512   4.195   0.432   1.583
 1205SOL     OW 4513   4.652   3.626   0.888
 1205SOL    HW1 4514   4.575   3.573   0.852
 1205SOL    HW2 4515   4.696   3.676   0.813
 1206SOL     OW 4516   2.690   2.582   5.690
 1206SOL    HW1 4517   2.622   2.517   5.656
 1206SOL    HW2 4518   2.769   2.532   5.726
 1207SOL     OW 4519   2.267   6.313   0.621
 1207SOL    HW1 4520   2.198   6.248   0.590
 1207SOL    HW2 4521   2.322   6.271   0.693
 1208SOL     OW 4522   3.276   3.585   1.171
 1208SOL    HW1 4523   3.272   3.493   1.209
 1208SOL    HW2 4524   3.202   3.640   1.210
 1209SOL     OW 4525   3.880   1.055   4.488
 1209SOL    HW1 4526   3.918   1.117   4.420
 1209SOL    HW2 4527   3.852   0.970   4.443
 1210SOL     OW 4528   2.697   0.585   3.410
 1210SOL    HW1 4529   2.629   0.565   3.339
 1210SOL    HW2 4530   2.754   0.504   3.424
 1211SOL     OW 4531   0.347   3.652   2.084
 1211SOL    HW1 4532   0.353   3.558   2.117
 1211SOL    HW2 4533   0.252   3.682   2.088
 1212SOL     OW 4534   6.223   0.358   0.533
 1212SOL    HW1 4535   6.211   0.436   0.471
 1212SOL    HW2 4536   6.297   0.300   0.499
 1213SOL     OW 4537   6.388   2.506   0.950
 1213SOL    HW1 4538   6.474   2.523   0.998
 1213SOL    HW2 4539   6.397   2.424   0.893
 1214SOL     OW 4540   0.734   2.737   6.480
 1214SOL    HW1 4541   0.758   2.780   6.392
 1214SOL    HW2 4542   0.791   2.656   6.493
 1215SOL     OW 4543   0.507   4.906   2.925
 1215SOL    HW1 4544   0.451   4.825   2.939
 1215SOL    HW2 4545   0.591   4.881   2.878
 1216SOL     OW 4546   5.055   0.407   1.226
 1216SOL    HW1 4547   5.107   0.481   1.183
 1216SOL    HW2 4548   4.959   0.415   1.199
 1217SOL     OW 4549   2.336   4.533   0.575
 1217SOL    HW1 4550   2.383   4.526   0.663
 1217SOL    HW2 4551   2.346   4.626   0.540
 1218SOL     OW 4552   2.413   4.360   4.553
 1218SOL    HW1 4553   2.450   4.438   4.604
 1218SOL    HW2 4554   2.359   4.303   4.615
 1219SOL     OW 4555   5.307   6.069   1.527
 1219SOL    HW1 4556   5.275   6.015   1.605
 1219SOL    HW2 4557   5.241   6.141   1.506
 1220SOL     OW 4558   0.601   4.426   3.131
 1220SOL    HW1 4559   0.644   4.473   3.054
 1220SOL    HW2 4560   0.636   4.333   3.136
 1221SOL     OW 4561   5.690   3.726   6.399
 1221SOL    HW1 4562   5.722   3.644   6.447
 1221SOL    HW2 4563   5.596   3.747   6.428
 1222SOL     OW 4564   6.546   0.603   6.712
 1222SOL    HW1 4565   6.643   0.622   6.698
 1222SOL    HW2 4566   6.520   0.626   6.805
 1223SOL     OW 4567   4.169   1.271   0.406
 1223SOL    HW1 4568   4.233   1.201   0.437
 1223SOL    HW2 4569   4.084   1.264   0.458
 1224SOL     OW 4570   3.573   5.168   0.286
 1224SOL    HW1 4571   3.613   5.201   0.372
 1224SOL    HW2 4572   3.640   5.110   0.239
 1225SOL     OW 4573   3.182   3.392   6.365
 1225SOL    HW1 4574   3.162   3.302   6.401
 1225SOL    HW2 4575   3.267   3.388   6.312
 1226SOL     OW 4576   2.856   5.039   1.468
 1226SOL    HW1 4577   2.872   4.984   1.550
 1226SOL    HW2 4578   2.761   5.071   1.467
 1227SOL     OW 4579   6.823   3.958   6.699
 1227SOL    HW1 4580   6.922   3.949   6.710
 1227SOL    HW2 4581   6.777   3.888   6.754
 1228SOL     OW 4582   3.605   2.095   6.571
 1228SOL    HW1 4583   3.676   2.028   6.593
 1228SOL    HW2 4584   3.621   2.130   6.479
 1229SOL     OW 4585   3.909   5.029   5.567
 1229SOL    HW1 4586   3.934   4.950   5.512
 1229SOL    HW2 4587   3.943   5.017   5.660
 1230SOL     OW 4588   4.599   0.005   2.999
 1230SOL    HW1 4589   4.660   6.986   3.065
 1230SOL    HW2 4590   4.624   7.002   2.907
 1231SOL     OW 4591   1.873   3.091   4.459
 1231SOL    HW1 4592   1.862   3.187   4.434
 1231SOL    HW2 4593   1.904   3.083   4.553
 1232SOL     OW 4594   0.799   2.031   5.059
 1232SOL    HW1 4595   0.780   1.979   4.976
 1232SOL    HW2 4596   0.850   1.973   5.124
 1233SOL     OW 4597   1.052   3.987   4.427
 1233SOL    HW1 4598   1.051   3.922   4.503
 1233SOL    HW2 4599   1.116   3.954   4.357
 1234SOL     OW 4600   6.720   4.143   4.782
 1234SOL    HW1 4601   6.622   4.156   4.795
 1234SOL    HW2 4602   6.766   4.140   4.870
 1235SOL     OW 4603   6.859   6.143   2.222
 1235SOL    HW1 4604   6.865   6.215   2.154
 1235SOL    HW2 4605   6.860   6.054   2.177
 1236SOL     OW 4606   4.918   1.180   1.036
 1236SOL    HW1 4607   4.850   1.163   0.965
 1236SOL    HW2 4608   4.995   1.117   1.025
 1237SOL     OW 4609   1.547   4.804   5.399
 1237SOL    HW1 4610   1.565   4.737   5.470
 1237SOL    HW2 4611   1.450   4.830   5.401
 1238SOL     OW 4612   2.775   0.468   0.173
 1238SOL    HW1 4613   2.705   0.458   0.102
 1238SOL    HW2 4614   2.812   0.560   0.170
 1239SOL     OW 4615   7.012   0.065   6.170
 1239SOL    HW1 4616   0.006   0.145   6.112
 1239SOL    HW2 4617   6.925   0.079   6.217
 1240SOL     OW 4618   5.145   6.089   1.934
 1240SOL    HW1 4619   5.226   6.039   1.903
 1240SOL    HW2 4620   5.174   6.174   1.977
 1241SOL     OW 4621   6.241   4.108   4.016
 1241SOL    HW1 4622   6.223   4.126   4.112
 1241SOL    HW2 4623   6.339   4.118   3.998
 1242SOL     OW 4624   6.416   3.376   1.667
 1242SOL    HW1 4625   6.355   3.432   1.612
 1242SOL    HW2 4626   6.386   3.280   1.664
 1243SOL     OW 4627   6.617   6.722   5.467
 1243SOL    HW1 4628   6.552   6.765   5.404
 1243SOL    HW2 4629   6.693   6.785   5.484
 1244SOL     OW 4630   6.520   6.933   4.360
 1244SOL    HW1 4631   6.617   6.941   4.341
 1244SOL    HW2 4632   6.467   6.977   4.287
 1245SOL     OW 4633   4.571   4.525   6.793
 1245SOL    HW1 4634   4.588   4.618   6.827
 1245SOL    HW2 4635   4.479   4.522   6.752
 1246SOL     OW 4636   2.331   6.421   1.296
 1246SOL    HW1 4637   2.396   6.477   1.245
 1246SOL    HW2 4638   2.379   6.347   1.342
 1247SOL     OW 4639   2.045   0.890   6.367
 1247SOL    HW1 4640   2.015   0.899   6.272
 1247SOL    HW2 4641   2.045   0.793   6.393
 1248SOL     OW 4642   2.022   6.933   4.771
 1248SOL    HW1 4643   1.984   6.964   4.858
 1248SOL    HW2 4644   1.952   6.939   4.700
 1249SOL     OW 4645   5.424   2.291   2.236
 1249SOL    HW1 4646   5.325   2.295   2.236
 1249SOL    HW2 4647   5.459   2.314   2.326
 1250SOL     OW 4648   6.439   5.224   4.710
 1250SOL    HW1 4649   6.446   5.322   4.692
 1250SOL    HW2 4650   6.376   5.208   4.786
 1251SOL     OW 4651   3.282   0.090   4.282
 1251SOL    HW1 4652   3.272   0.005   4.230
 1251SOL    HW2 4653   3.306   0.164   4.220
 1252SOL     OW 4654   3.821   3.269   5.376
 1252SOL    HW1 4655   3.864   3.358   5.391
 1252SOL    HW2 4656   3.812   3.252   5.278
 1253SOL     OW 4657   3.517   5.006   2.045
 1253SOL    HW1 4658   3.552   4.916   2.021
 1253SOL    HW2 4659   3.446   4.997   2.115
 1254SOL     OW 4660   0.304   2.898   2.451
 1254SOL    HW1 4661   0.321   2.963   2.525
 1254SOL    HW2 4662   0.383   2.838   2.440
 1255SOL     OW 4663   6.527   1.764   4.656
 1255SOL    HW1 4664   6.515   1.855   4.616
 1255SOL    HW2 4665   6.625   1.742   4.657
 1256SOL     OW 4666   6.614   6.347   3.627
 1256SOL    HW1 4667   6.647   6.359   3.721
 1256SOL    HW2 4668   6.646   6.259   3.592
 1257SOL     OW 4669   0.004   6.874   4.485
 1257SOL    HW1 4670   0.088   6.820   4.496
 1257SOL    HW2 4671   6.965   6.851   4.559
 1258SOL     OW 4672   1.685   5.148   3.739
 1258SOL    HW1 4673   1.693   5.163   3.641
 1258SOL    HW2 4674   1.749   5.207   3.788
 1259SOL     OW 4675   3.647   0.924   4.170
 1259SOL    HW1 4676   3.616   1.016   4.193
 1259SOL    HW2 4677   3.643   0.911   4.071
 1260SOL     OW 4678   1.319   1.350   6.432
 1260SOL    HW1 4679   1.230   1.392   6.448
 1260SOL    HW2 4680   1.387   1.391   6.493
 1261SOL     OW 4681   0.294   5.421   6.637
 1261SOL    HW1 4682   0.366   5.479   6.675
 1261SOL    HW2 4683   0.213   5.476   6.617
 1262SOL     OW 4684   4.848   4.752   1.263
 1262SOL    HW1 4685   4.940   4.789   1.255
 1262SOL    HW2 4686   4.853   4.657   1.294
 1263SOL     OW 4687   0.394   1.087   2.510
 1263SOL    HW1 4688   0.298   1.074   2.486
 1263SOL    HW2 4689   0.401   1.113   2.607
 1264SOL     OW 4690   6.893   4.867   6.457
 1264SOL    HW1 4691   6.987   4.872   6.423
 1264SOL    HW2 4692   6.835   4.928   6.403
 1265SOL     OW 4693   6.023   5.543   4.604
 1265SOL    HW1 4694   5.967   5.539   4.687
 1265SOL    HW2 4695   5.964   5.550   4.524
 1266SOL     OW 4696   0.468   0.802   4.571
 1266SOL    HW1 4697   0.459   0.741   4.651
 1266SOL    HW2 4698   0.564   0.826   4.559
 1267SOL     OW 4699   5.555   1.365   1.441
 1267SOL    HW1 4700   5.520   1.458   1.444
 1267SOL    HW2 4701   5.604   1.344   1.525
 1268SOL     OW 4702   3.033   3.035   0.012
 1268SOL    HW1 4703   2.964   2.978   0.058
 1268SOL    HW2 4704   3.059   2.991   6.950
 1269SOL     OW 4705   6.070   3.180   3.951
 1269SOL    HW1 4706   6.001   3.110   3.972
 1269SOL    HW2 4707   6.058   3.212   3.858
 1270SOL     OW 4708   2.037   4.749   2.839
 1270SOL    HW1 4709   2.061   4.661   2.797
 1270SOL    HW2 4710   1.947   4.742   2.882
 1271SOL     OW 4711   3.449   1.179   1.814
 1271SOL    HW1 4712   3.375   1.141   1.869
 1271SOL    HW2 4713   3.532   1.124   1.827
 1272SOL     OW 4714   5.913   4.890   6.871
 1272SOL    HW1 4715   5.928   4.851   6.962
 1272SOL    HW2 4716   5.819   4.869   6.842
 1273SOL     OW 4717   1.182   4.310   5.633
 1273SOL    HW1 4718   1.200   4.229   5.688
 1273SOL    HW2 4719   1.128   4.284   5.552
 1274SOL     OW 4720   0.063   4.555   0.741
 1274SOL    HW1 4721   0.115   4.582   0.660
 1274SOL    HW2 4722   6.992   4.578   0.728
 1275SOL     OW 4723   3.629   1.178   3.473
 1275SOL    HW1 4724   3.669   1.089   3.454
 1275SOL    HW2 4725   3.535   1.167   3.506
 1276SOL     OW 4726   5.349   5.392   4.731
 1276SOL    HW1 4727   5.410   5.408   4.808
 1276SOL    HW2 4728   5.280   5.465   4.728
 1277SOL     OW 4729   1.961   5.350   6.177
 1277SOL    HW1 4730   2.037   5.306   6.224
 1277SOL    HW2 4731   1.889   5.283   6.160
 1278SOL     OW 4732   1.792   0.392   4.765
 1278SOL    HW1 4733   1.726   0.426   4.698
 1278SOL    HW2 4734   1.776   0.295   4.781
 1279SOL     OW 4735   1.981   4.498   6.546
 1279SOL    HW1 4736   1.992   4.499   6.447
 1279SOL    HW2 4737   2.018   4.412   6.583
 1280SOL     OW 4738   4.340   6.861   3.352
 1280SOL    HW1 4739   4.284   6.779   3.341
 1280SOL    HW2 4740   4.436   6.834   3.365
 1281SOL     OW 4741   2.589   6.180   3.466
 1281SOL    HW1 4742   2.508   6.122   3.468
 1281SOL    HW2 4743   2.562   6.276   3.459
 1282SOL     OW 4744   6.715   2.407   6.974
 1282SOL    HW1 4745   6.770   2.372   6.898
 1282SOL    HW2 4746   6.687   2.501   6.954
 1283SOL     OW 4747   6.378   3.013   5.539
 1283SOL    HW1 4748   6.279   3.018   5.527
 1283SOL    HW2 4749   6.405   2.919   5.558
 1284SOL     OW 4750   4.265   0.982   1.873
 1284SOL    HW1 4751   4.261   0.886   1.847
 1284SOL    HW2 4752   4.172   1.018   1.884
 1285SOL     OW 4753   4.343   1.299   5.563
 1285SOL    HW1 4754   4.362   1.299   5.661
 1285SOL    HW2 4755   4.303   1.387   5.537
 1286SOL     OW 4756   4.467   2.548   0.856
 1286SOL    HW1 4757   4.432   2.502   0.938
 1286SOL    HW2 4758   4.431   2.502   0.775
 1287SOL     OW 4759   5.170   4.310   5.303
 1287SOL    HW1 4760   5.139   4.222   5.339
 1287SOL    HW2 4761   5.093   4.373   5.296
 1288SOL     OW 4762   3.762   4.752   5.675
 1288SOL    HW1 4763   3.718   4.815   5.611
 1288SOL    HW2 4764   3.857   4.778   5.689
 1289SOL     OW 4765   0.649   0.152   1.819
 1289SOL    HW1 4766   0.621   0.106   1.735
 1289SOL    HW2 4767   0.639   0.251   1.809
 1290SOL     OW 4768   1.329   0.005   0.536
 1290SOL    HW1 4769   1.390   0.080   0.564
 1290SOL    HW2 4770   1.264   7.011   0.609
 1291SOL     OW 4771   0.022   4.592   4.039
 1291SOL    HW1 4772   0.005   4.687   4.065
 1291SOL    HW2 4773   0.105   4.559   4.083
 1292SOL     OW 4774   0.530   5.854   2.247
 1292SOL    HW1 4775   0.500   5.937   2.200
 1292SOL    HW2 4776   0.604   5.811   2.195
 1293SOL     OW 4777   2.699   2.292   6.644
 1293SOL    HW1 4778   2.757   2.294   6.726
 1293SOL    HW2 4779   2.699   2.382   6.601
 1294SOL     OW 4780   0.857   3.894   5.970
 1294SOL    HW1 4781   0.907   3.808   5.964
 1294SOL    HW2 4782   0.918   3.966   6.003
 1295SOL     OW 4783   0.254   2.714   0.612
 1295SOL    HW1 4784   0.248   2.715   0.512
 1295SOL    HW2 4785   0.191   2.646   0.649
 1296SOL     OW 4786   4.793   6.536   5.397
 1296SOL    HW1 4787   4.734   6.472   5.348
 1296SOL    HW2 4788   4.855   6.580   5.332
 1297SOL     OW 4789   1.125   6.290   1.568
 1297SOL    HW1 4790   1.184   6.243   1.633
 1297SOL    HW2 4791   1.121   6.388   1.590
 1298SOL     OW 4792   5.290   6.335   3.759
 1298SOL    HW1 4793   5.246   6.253   3.797
 1298SOL    HW2 4794   5.222   6.407   3.749
 1299SOL     OW 4795   2.258   2.525   3.429
 1299SOL    HW1 4796   2.296   2.559   3.343
 1299SOL    HW2 4797   2.332   2.495   3.488
 1300SOL     OW 4798   1.942   3.306   1.478
 1300SOL    HW1 4799   1.853   3.348   1.489
 1300SOL    HW2 4800   1.942   3.215   1.520
 1301SOL     OW 4801   0.670   6.541   2.141
 1301SOL    HW1 4802   0.748   6.536   2.204
 1301SOL    HW2 4803   0.616   6.622   2.162
 1302SOL     OW 4804   5.686   0.282   5.330
 1302SOL    HW1 4805   5.666   0.380   5.336
 1302SOL    HW2 4806   5.732   0.252   5.413
 1303SOL     OW 4807   3.795   0.871   1.750
 1303SOL    HW1 4808   3.761   0.845   1.659
 1303SOL    HW2 4809   3.884   0.827   1.765
 1304SOL     OW 4810   1.883   0.602   0.974
 1304SOL    HW1 4811   1.866   0.526   1.037
 1304SOL    HW2 4812   1.976   0.636   0.986
 1305SOL     OW 4813   5.716   4.413   0.044
 1305SOL    HW1 4814   5.715   4.432   0.142
 1305SOL    HW2 4815   5.748   4.319   0.029
 1306SOL     OW 4816   1.544   6.120   4.262
 1306SOL    HW1 4817   1.601   6.175   4.202
 1306SOL    HW2 4818   1.449   6.124   4.231
 1307SOL     OW 4819   2.142   3.610   4.295
 1307SOL    HW1 4820   2.096   3.606   4.207
 1307SOL    HW2 4821   2.169   3.704   4.315
 1308SOL     OW 4822   0.153   6.836   6.191
 1308SOL    HW1 4823   0.093   6.914   6.173
 1308SOL    HW2 4824   0.182   6.796   6.104
 1309SOL     OW 4825   5.447   4.394   5.100
 1309SOL    HW1 4826   5.467   4.326   5.171
 1309SOL    HW2 4827   5.387   4.464   5.137
 1310SOL     OW 4828   0.222   3.840   3.295
 1310SOL    HW1 4829   0.244   3.856   3.199
 1310SOL    HW2 4830   0.284   3.891   3.354
 1311SOL     OW 4831   6.613   6.127   6.446
 1311SOL    HW1 4832   6.639   6.065   6.521
 1311SOL    HW2 4833   6.659   6.215   6.458
 1312SOL     OW 4834   1.492   6.891   6.685
 1312SOL    HW1 4835   1.589   6.869   6.671
 1312SOL    HW2 4836   1.457   6.937   6.603
 1313SOL     OW 4837   6.674   4.978   2.116
 1313SOL    HW1 4838   6.707   4.954   2.207
 1313SOL    HW2 4839   6.581   4.943   2.104
 1314SOL     OW 4840   3.513   1.786   4.421
 1314SOL    HW1 4841   3.511   1.786   4.521
 1314SOL    HW2 4842   3.576   1.856   4.389
 1315SOL     OW 4843   6.780   1.028   3.132
 1315SOL    HW1 4844   6.777   1.128   3.127
 1315SOL    HW2 4845   6.720   0.996   3.205
 1316SOL     OW 4846   3.188   0.313   5.783
 1316SOL    HW1 4847   3.225   0.263   5.862
 1316SOL    HW2 4848   3.197   0.258   5.701
 1317SOL     OW 4849   1.584   4.135   4.796
 1317SOL    HW1 4850   1.650   4.160   4.725
 1317SOL    HW2 4851   1.559   4.038   4.786
 1318SOL     OW 4852   1.493   2.824   6.985
 1318SOL    HW1 4853   1.548   2.908   6.983
 1318SOL    HW2 4854   1.449   2.816   0.050
 1319SOL     OW 4855   0.350   5.061   0.552
 1319SOL    HW1 4856   0.331   5.128   0.623
 1319SOL    HW2 4857   0.385   5.107   0.470
 1320SOL     OW 4858   3.472   3.342   7.000
 1320SOL    HW1 4859   3.430   3.306   6.916
 1320SOL    HW2 4860   3.562   3.380   6.979
 1321SOL     OW 4861   5.025   2.407   6.478
 1321SOL    HW1 4862   5.066   2.398   6.569
 1321SOL    HW2 4863   5.078   2.473   6.425
 1322SOL     OW 4864   4.049   1.637   4.741
 1322SOL    HW1 4865   4.010   1.547   4.724
 1322SOL    HW2 4866   4.129   1.650   4.681
 1323SOL     OW 4867   3.152   6.885   6.901
 1323SOL    HW1 4868   3.165   6.890   7.000
 1323SOL    HW2 4869   3.054   6.873   6.881
 1324SOL     OW 4870   0.368   3.075   0.129
 1324SOL    HW1 4871   0.347   3.171   0.146
 1324SOL    HW2 4872   0.311   3.041   0.054
 1325SOL     OW 4873   4.284   6.161   5.403
 1325SOL    HW1 4874   4.235   6.174   5.489
 1325SOL    HW2 4875   4.219   6.135   5.331
 1326SOL     OW 4876   4.950   3.621   5.278
 1326SOL    HW1 4877   4.934   3.525   5.301
 1326SOL    HW2 4878   4.905   3.643   5.191
 1327SOL     OW 4879   1.452   6.292   0.622
 1327SOL    HW1 4880   1.385   6.364   0.636
 1327SOL    HW2 4881   1.491   6.265   0.710
 1328SOL     OW 4882   2.392   3.453   0.136
 1328SOL    HW1 4883   2.466   3.472   0.072
 1328SOL    HW2 4884   2.357   3.360   0.120
 1329SOL     OW 4885   0.324   2.150   2.387
 1329SOL    HW1 4886   0.304   2.248   2.388
 1329SOL    HW2 4887   0.412   2.134   2.430
 1330SOL     OW 4888   1.325   1.859   1.135
 1330SOL    HW1 4889   1.388   1.916   1.187
 1330SOL    HW2 4890   1.272   1.801   1.197
 1331SOL     OW 4891   4.670   2.591   3.341
 1331SOL    HW1 4892   4.633   2.607   3.433
 1331SOL    HW2 4893   4.711   2.675   3.306
 1332SOL     OW 4894   3.119   7.019   0.984
 1332SOL    HW1 4895   3.144   0.007   0.888
 1332SOL    HW2 4896   3.167   6.939   1.021
 1333SOL     OW 4897   2.918   3.497   3.425
 1333SOL    HW1 4898   2.908   3.587   3.383
 1333SOL    HW2 4899   2.838   3.440   3.402
 1334SOL     OW 4900   6.851   1.463   4.233
 1334SOL    HW1 4901   6.848   1.365   4.212
 1334SOL    HW2 4902   6.787   1.512   4.173
 1335SOL     OW 4903   1.907   1.982   2.358
 1335SOL    HW1 4904   1.945   2.021   2.273
 1335SOL    HW2 4905   1.813   1.952   2.342
 1336SOL     OW 4906   3.577   1.660   4.892
 1336SOL    HW1 4907   3.662   1.713   4.889
 1336SOL    HW2 4908   3.598   1.563   4.880
 1337SOL     OW 4909   0.570   1.259   2.902
 1337SOL    HW1 4910   0.589   1.161   2.895
 1337SOL    HW2 4911   0.566   1.285   2.998
 1338SOL     OW 4912   7.021   2.998   4.252
 1338SOL    HW1 4913   0.078   3.007   4.310
 1338SOL    HW2 4914   6.963   2.925   4.288
 1339SOL     OW 4915   5.872   1.560   0.206
 1339SOL    HW1 4916   5.851   1.645   0.156
 1339SOL    HW2 4917   5.957   1.571   0.257
 1340SOL     OW 4918   5.303   1.330   2.885
 1340SOL    HW1 4919   5.335   1.395   2.817
 1340SOL    HW2 4920   5.264   1.250   2.839
 1341SOL     OW 4921   4.551   6.700   6.991
 1341SOL    HW1 4922   4.494   6.618   7.000
 1341SOL    HW2 4923   4.493   6.778   6.968
 1342SOL     OW 4924   3.018   5.541   6.316
 1342SOL    HW1 4925   2.951   5.517   6.385
 1342SOL    HW2 4926   2.988   5.507   6.226
 1343SOL     OW 4927   5.226   5.693   2.757
 1343SOL    HW1 4928   5.177   5.779   2.776
 1343SOL    HW2 4929   5.324   5.707   2.769
 1344SOL     OW 4930   0.678   6.556   4.285
 1344SOL    HW1 4931   0.758   6.498   4.276
 1344SOL    HW2 4932   0.611   6.532   4.215
 1345SOL     OW 4933   0.693   4.971   2.128
 1345SOL    HW1 4934   0.638   4.888   2.137
 1345SOL    HW2 4935   0.634   5.051   2.126
 1346SOL     OW 4936   1.998   5.319   5.628
 1346SOL    HW1 4937   2.077   5.259   5.638
 1346SOL    HW2 4938   1.967   5.316   5.532
 1347SOL     OW 4939   0.491   6.479   6.704
 1347SOL    HW1 4940   0.403   6.526   6.701
 1347SOL    HW2 4941   0.478   6.382   6.684
 1348SOL     OW 4942   6.779   6.629   5.175
 1348SOL    HW1 4943   6.792   6.546   5.121
 1348SOL    HW2 4944   6.714   6.610   5.249
 1349SOL     OW 4945   5.476   2.900   4.718
 1349SOL    HW1 4946   5.535   2.906   4.799
 1349SOL    HW2 4947   5.530   2.867   4.641
 1350SOL     OW 4948   5.278   5.050   5.186
 1350SOL    HW1 4949   5.374   5.057   5.160
 1350SOL    HW2 4950   5.230   5.135   5.162
 1351SOL     OW 4951   5.257   2.747   3.921
 1351SOL    HW1 4952   5.227   2.813   3.990
 1351SOL    HW2 4953   5.236   2.783   3.830
 1352SOL     OW 4954   6.304   6.267   4.839
 1352SOL    HW1 4955   6.215   6.245   4.799
 1352SOL    HW2 4956   6.375   6.215   4.792
 1353SOL     OW 4957   0.944   2.416   0.269
 1353SOL    HW1 4958   0.870   2.349   0.263
 1353SOL    HW2 4959   0.971   2.428   0.364
 1354SOL     OW 4960   6.857   4.635   1.775
 1354SOL    HW1 4961   6.832   4.683   1.691
 1354SOL    HW2 4962   6.949   4.597   1.764
 1355SOL     OW 4963   6.364   4.213   4.500
 1355SOL    HW1 4964   6.431   4.154   4.454
 1355SOL    HW2 4965   6.397   4.236   4.591
 1356SOL     OW 4966   3.721   3.230   2.018
 1356SOL    HW1 4967   3.820   3.213   2.019
 1356SOL    HW2 4968   3.704   3.325   1.991
 1357SOL     OW 4969   6.958   4.612   6.520
 1357SOL    HW1 4970   6.981   4.573   6.609
 1357SOL    HW2 4971   6.935   4.709   6.531
 1358SOL     OW 4972   6.283   6.503   6.858
 1358SOL    HW1 4973   6.191   6.541   6.854
 1358SOL    HW2 4974   6.303   6.472   6.951
 1359SOL     OW 4975   6.159   4.527   2.645
 1359SOL    HW1 4976   6.151   4.462   2.721
 1359SOL    HW2 4977   6.082   4.515   2.583
 1360SOL     OW 4978   2.284   3.676   0.277
 1360SOL    HW1 4979   2.338   3.601   0.237
 1360SOL    HW2 4980   2.327   3.705   0.363
 1361SOL     OW 4981   6.255   4.539   4.753
 1361SOL    HW1 4982   6.288   4.564   4.844
 1361SOL    HW2 4983   6.158   4.514   4.758
 1362SOL     OW 4984   4.142   3.687   3.049
 1362SOL    HW1 4985   4.071   3.757   3.038
 1362SOL    HW2 4986   4.122   3.609   2.990
 1363SOL     OW 4987   0.540   5.388   4.522
 1363SOL    HW1 4988   0.586   5.374   4.610
 1363SOL    HW2 4989   0.489   5.306   4.497
 1364SOL     OW 4990   5.536   4.474   0.276
 1364SOL    HW1 4991   5.519   4.418   0.357
 1364SOL    HW2 4992   5.466   4.455   0.207
 1365SOL     OW 4993   0.869   4.413   6.272
 1365SOL    HW1 4994   0.806   4.398   6.348
 1365SOL    HW2 4995   0.830   4.482   6.210
 1366SOL     OW 4996   1.448   6.179   5.954
 1366SOL    HW1 4997   1.418   6.138   5.868
 1366SOL    HW2 4998   1.544   6.208   5.945
 1367SOL     OW 4999   2.530   0.293   2.228
 1367SOL    HW1 5000   2.505   0.200   2.202
 1367SOL    HW2 5001   2.629   0.299   2.240
 1368SOL     OW 5002   4.996   6.715   4.506
 1368SOL    HW1 5003   5.093   6.717   4.529
 1368SOL    HW2 5004   4.966   6.620   4.494
 1369SOL     OW 5005   1.642   6.436   3.108
 1369SOL    HW1 5006   1.634   6.428   3.009
 1369SOL    HW2 5007   1.628   6.346   3.150
 1370SOL     OW 5008   3.342   0.868   1.760
 1370SOL    HW1 5009   3.299   0.954   1.734
 1370SOL    HW2 5010   3.437   0.885   1.788
 1371SOL     OW 5011   4.705   1.441   4.576
 1371SOL    HW1 5012   4.679   1.537   4.589
 1371SOL    HW2 5013   4.775   1.435   4.505
 1372SOL     OW 5014   1.739   3.250   0.575
 1372SOL    HW1 5015   1.807   3.304   0.624
 1372SOL    HW2 5016   1.712   3.171   0.630
 1373SOL     OW 5017   6.558   4.230   0.323
 1373SOL    HW1 5018   6.550   4.290   0.402
 1373SOL    HW2 5019   6.562   4.286   0.239
 1374SOL     OW 5020   4.098   2.419   0.679
 1374SOL    HW1 5021   4.046   2.343   0.641
 1374SOL    HW2 5022   4.036   2.488   0.715
 1375SOL     OW 5023   0.093   5.258   5.962
 1375SOL    HW1 5024   0.020   5.324   5.975
 1375SOL    HW2 5025   0.072   5.200   5.882
 1376SOL     OW 5026   4.826   3.011   3.481
 1376SOL    HW1 5027   4.808   3.029   3.384
 1376SOL    HW2 5028   4.870   3.091   3.522
 1377SOL     OW 5029   6.778   4.065   5.798
 1377SOL    HW1 5030   6.723   4.091   5.719
 1377SOL    HW2 5031   6.868   4.108   5.792
 1378SOL     OW 5032   6.594   2.248   4.868
 1378SOL    HW1 5033   6.682   2.205   4.848
 1378SOL    HW2 5034   6.558   2.290   4.785
 1379SOL     OW 5035   3.214   6.528   2.657
 1379SOL    HW1 5036   3.134   6.468   2.649
 1379SOL    HW2 5037   3.285   6.482   2.709
 1380SOL     OW 5038   0.119   6.919   2.546
 1380SOL    HW1 5039   0.023   6.918   2.519
 1380SOL    HW2 5040   0.165   6.838   2.509
 1381SOL     OW 5041   5.413   2.683   0.266
 1381SOL    HW1 5042   5.416   2.588   0.234
 1381SOL    HW2 5043   5.427   2.685   0.365
 1382SOL     OW 5044   6.001   5.142   6.842
 1382SOL    HW1 5045   6.052   5.201   6.904
 1382SOL    HW2 5046   6.012   5.046   6.869
 1383SOL     OW 5047   1.291   1.034   0.399
 1383SOL    HW1 5048   1.267   0.942   0.429
 1383SOL    HW2 5049   1.374   1.030   0.344
 1384SOL     OW 5050   3.400   1.495   3.381
 1384SOL    HW1 5051   3.379   1.435   3.304
 1384SOL    HW2 5052   3.383   1.590   3.355
 1385SOL     OW 5053   0.030   3.061   2.783
 1385SOL    HW1 5054   0.109   3.002   2.763
 1385SOL    HW2 5055   0.061   3.146   2.825
 1386SOL     OW 5056   2.350   2.749   4.033
 1386SOL    HW1 5057   2.385   2.700   3.952
 1386SOL    HW2 5058   2.358   2.690   4.113
 1387SOL     OW 5059   3.342   0.924   4.046
 1387SOL    HW1 5060   3.401   0.946   3.969
 1387SOL    HW2 5061   3.374   0.973   4.128
 1388SOL     OW 5062   6.540   6.497   4.133
 1388SOL    HW1 5063   6.566   6.405   4.163
 1388SOL    HW2 5064   6.618   6.558   4.143
 1389SOL     OW 5065   0.185   0.830   3.818
 1389SOL    HW1 5066   0.142   0.762   3.758
 1389SOL    HW2 5067   0.134   0.835   3.904
 1390SOL     OW 5068   3.879   1.472   0.200
 1390SOL    HW1 5069   3.833   1.395   0.244
 1390SOL    HW2 5070   3.881   1.458   0.101
 1391SOL     OW 5071   6.140   1.473   5.497
 1391SOL    HW1 5072   6.098   1.394   5.453
 1391SOL    HW2 5073   6.069   1.539   5.522
 1392SOL     OW 5074   4.975   5.723   6.071
 1392SOL    HW1 5075   5.028   5.670   6.005
 1392SOL    HW2 5076   4.998   5.820   6.062
 1393SOL     OW 5077   6.273   2.079   6.628
 1393SOL    HW1 5078   6.304   2.111   6.718
 1393SOL    HW2 5079   6.179   2.110   6.612
 1394SOL     OW 5080   4.191   6.498   3.788
 1394SOL    HW1 5081   4.230   6.486   3.880
 1394SOL    HW2 5082   4.174   6.408   3.748
 1395SOL     OW 5083   0.096   3.497   2.561
 1395SOL    HW1 5084   0.083   3.515   2.659
 1395SOL    HW2 5085   0.192   3.511   2.537
 1396SOL     OW 5086   1.522   0.482   4.300
 1396SOL    HW1 5087   1.575   0.487   4.215
 1396SOL    HW2 5088   1.432   0.444   4.281
 1397SOL     OW 5089   0.382   6.020   5.140
 1397SOL    HW1 5090   0.480   5.998   5.143
 1397SOL    HW2 5091   0.369   6.109   5.097
 1398SOL     OW 5092   1.870   1.381   0.562
 1398SOL    HW1 5093   1.871   1.437   0.645
 1398SOL    HW2 5094   1.838   1.437   0.485
 1399SOL     OW 5095   4.147   0.127   0.810
 1399SOL    HW1 5096   4.109   0.164   0.895
 1399SOL    HW2 5097   4.077   0.072   0.764
 1400SOL     OW 5098   6.755   0.623   4.517
 1400SOL    HW1 5099   6.673   0.612   4.572
 1400SOL    HW2 5100   6.807   0.537   4.517
 1401SOL     OW 5101   5.672   0.044   4.267
 1401SOL    HW1 5102   5.644   0.051   4.172
 1401SOL    HW2 5103   5.635   6.985   4.307
 1402SOL     OW 5104   5.819   3.800   0.355
 1402SOL    HW1 5105   5.791   3.740   0.430
 1402SOL    HW2 5106   5.918   3.797   0.345
 1403SOL     OW 5107   3.580   3.236   0.788
 1403SOL    HW1 5108   3.599   3.332   0.766
 1403SOL    HW2 5109   3.563   3.228   0.886
 1404SOL     OW 5110   5.043   0.155   1.602
 1404SOL    HW1 5111   5.116   0.183   1.540
 1404SOL    HW2 5112   5.014   0.233   1.657
 1405SOL     OW 5113   1.509   3.637   0.954
 1405SOL    HW1 5114   1.493   3.610   1.049
 1405SOL    HW2 5115   1.435   3.696   0.923
 1406SOL     OW 5116   2.341   3.479   1.385
 1406SOL    HW1 5117   2.399   3.401   1.409
 1406SOL    HW2 5118   2.250   3.467   1.426
 1407SOL     OW 5119   0.455   3.559   1.635
 1407SOL    HW1 5120   0.385   3.564   1.706
 1407SOL    HW2 5121   0.441   3.633   1.569
 1408SOL     OW 5122   6.216   5.792   6.782
 1408SOL    HW1 5123   6.125   5.752   6.782
 1408SOL    HW2 5124   6.250   5.797   6.876
 1409SOL     OW 5125   6.931   1.865   5.756
 1409SOL    HW1 5126   6.882   1.868   5.669
 1409SOL    HW2 5127   6.905   1.782   5.805
 1410SOL     OW 5128   2.476   3.268   6.207
 1410SOL    HW1 5129   2.417   3.193   6.237
 1410SOL    HW2 5130   2.451   3.295   6.114
 1411SOL     OW 5131   3.367   6.277   0.111
 1411SOL    HW1 5132   3.389   6.255   0.206
 1411SOL    HW2 5133   3.280   6.325   0.107
 1412SOL     OW 5134   0.643   3.076   0.571
 1412SOL    HW1 5135   0.740   3.098   0.568
 1412SOL    HW2 5136   0.626   2.995   0.514
 1413SOL     OW 5137   2.043   2.119   5.285
 1413SOL    HW1 5138   2.037   2.052   5.359
 1413SOL    HW2 5139   2.138   2.130   5.257
 1414SOL     OW 5140   1.330   3.474   1.740
 1414SOL    HW1 5141   1.319   3.380   1.709
 1414SOL    HW2 5142   1.264   3.493   1.813
 1415SOL     OW 5143   2.548   2.269   4.302
 1415SOL    HW1 5144   2.466   2.228   4.343
 1415SOL    HW2 5145   2.625   2.260   4.365
 1416SOL     OW 5146   4.192   0.109   5.209
 1416SOL    HW1 5147   4.137   0.037   5.252
 1416SOL    HW2 5148   4.268   0.067   5.159
 1417SOL     OW 5149   2.986   2.995   5.937
 1417SOL    HW1 5150   3.045   2.915   5.929
 1417SOL    HW2 5151   3.022   3.069   5.882
 1418SOL     OW 5152   3.675   3.774   0.466
 1418SOL    HW1 5153   3.603   3.829   0.507
 1418SOL    HW2 5154   3.641   3.731   0.382
 1419SOL     OW 5155   1.767   4.824   4.250
 1419SOL    HW1 5156   1.775   4.837   4.348
 1419SOL    HW2 5157   1.692   4.880   4.215
 1420SOL     OW 5158   4.021   5.008   2.520
 1420SOL    HW1 5159   4.117   5.011   2.494
 1420SOL    HW2 5160   3.965   5.050   2.448
 1421SOL     OW 5161   1.262   4.799   4.569
 1421SOL    HW1 5162   1.353   4.770   4.540
 1421SOL    HW2 5163   1.247   4.771   4.664
 1422SOL     OW 5164   2.452   4.098   5.625
 1422SOL    HW1 5165   2.496   4.126   5.540
 1422SOL    HW2 5166   2.369   4.046   5.605
 1423SOL     OW 5167   4.588   1.694   4.538
 1423SOL    HW1 5168   4.615   1.677   4.444
 1423SOL    HW2 5169   4.488   1.692   4.546
 1424SOL     OW 5170   6.341   3.074   6.658
 1424SOL    HW1 5171   6.355   3.062   6.560
 1424SOL    HW2 5172   6.372   2.992   6.706
 1425SOL     OW 5173   3.746   6.245   4.549
 1425SOL    HW1 5174   3.661   6.222   4.595
 1425SOL    HW2 5175   3.745   6.341   4.522
 1426SOL     OW 5176   2.107   1.980   6.494
 1426SOL    HW1 5177   2.179   1.944   6.553
 1426SOL    HW2 5178   2.132   2.073   6.465
 1427SOL     OW 5179   1.024   0.610   3.319
 1427SOL    HW1 5180   1.109   0.632   3.271
 1427SOL    HW2 5181   0.978   0.534   3.272
 1428SOL     OW 5182   0.449   2.567   2.362
 1428SOL    HW1 5183   0.485   2.509   2.435
 1428SOL    HW2 5184   0.522   2.624   2.325
 1429SOL     OW 5185   6.378   1.365   0.329
 1429SOL    HW1 5186   6.330   1.431   0.271
 1429SOL    HW2 5187   6.317   1.333   0.401
 1430SOL     OW 5188   2.718   4.686   4.181
 1430SOL    HW1 5189   2.624   4.656   4.163
 1430SOL    HW2 5190   2.728   4.708   4.278
 1431SOL     OW 5191   2.799   1.832   6.011
 1431SOL    HW1 5192   2.740   1.808   5.934
 1431SOL    HW2 5193   2.886   1.784   6.003
 1432SOL     OW 5194   2.508   0.946   0.715
 1432SOL    HW1 5195   2.426   0.962   0.771
 1432SOL    HW2 5196   2.589   0.969   0.769
 1433SOL     OW 5197   3.152   0.795   3.098
 1433SOL    HW1 5198   3.120   0.871   3.155
 1433SOL    HW2 5199   3.234   0.823   3.048
 1434SOL     OW 5200   0.283   2.642   6.682
 1434SOL    HW1 5201   0.335   2.584   6.619
 1434SOL    HW2 5202   0.186   2.637   6.660
 1435SOL     OW 5203   0.968   6.973   3.436
 1435SOL    HW1 5204   0.965   6.950   3.338
 1435SOL    HW2 5205   0.889   0.005   3.459
 1436SOL     OW 5206   5.753   2.899   0.512
 1436SOL    HW1 5207   5.821   2.845   0.462
 1436SOL    HW2 5208   5.686   2.935   0.448
 1437SOL     OW 5209   4.733   1.206   6.135
 1437SOL    HW1 5210   4.828   1.197   6.164
 1437SOL    HW2 5211   4.694   1.290   6.173
 1438SOL     OW 5212   2.431   0.856   1.124
 1438SOL    HW1 5213   2.437   0.940   1.177
 1438SOL    HW2 5214   2.369   0.792   1.171
 1439SOL     OW 5215   0.311   5.773   0.344
 1439SOL    HW1 5216   0.241   5.741   0.280
 1439SOL    HW2 5217   0.371   5.839   0.299
 1440SOL     OW 5218   3.217   3.007   4.187
 1440SOL    HW1 5219   3.166   3.026   4.103
 1440SOL    HW2 5220   3.266   3.090   4.216
 1441SOL     OW 5221   6.398   3.195   3.716
 1441SOL    HW1 5222   6.341   3.134   3.661
 1441SOL    HW2 5223   6.401   3.162   3.810
 1442SOL     OW 5224   5.872   4.285   0.371
 1442SOL    HW1 5225   5.815   4.206   0.396
 1442SOL    HW2 5226   5.938   4.257   0.301
 1443SOL     OW 5227   0.650   0.885   3.844
 1443SOL    HW1 5228   0.642   0.964   3.784
 1443SOL    HW2 5229   0.739   0.842   3.830
 1444SOL     OW 5230   4.509   6.752   2.870
 1444SOL    HW1 5231   4.592   6.805   2.859
 1444SOL    HW2 5232   4.440   6.782   2.804
 1445SOL     OW 5233   0.614   2.527   1.368
 1445SOL    HW1 5234   0.566   2.439   1.360
 1445SOL    HW2 5235   0.597   2.565   1.459
 1446SOL     OW 5236   3.941   2.012   0.765
 1446SOL    HW1 5237   4.009   2.041   0.698
 1446SOL    HW2 5238   3.850   2.018   0.724
 1447SOL     OW 5239   6.693   0.978   5.254
 1447SOL    HW1 5240   6.628   0.979   5.177
 1447SOL    HW2 5241   6.648   1.014   5.336
 1448SOL     OW 5242   6.037   1.664   0.500
 1448SOL    HW1 5243   6.070   1.693   0.589
 1448SOL    HW2 5244   6.093   1.705   0.428
 1449SOL     OW 5245   6.199   6.075   0.565
 1449SOL    HW1 5246   6.247   6.045   0.482
 1449SOL    HW2 5247   6.216   6.009   0.639
 1450SOL     OW 5248   6.093   2.983   2.833
 1450SOL    HW1 5249   6.140   2.896   2.815
 1450SOL    HW2 5250   6.063   2.985   2.929
 1451SOL     OW 5251   2.405   6.691   2.760
 1451SOL    HW1 5252   2.406   6.629   2.839
 1451SOL    HW2 5253   2.382   6.784   2.791
 1452SOL     OW 5254   5.162   0.505   4.934
 1452SOL    HW1 5255   5.174   0.492   5.033
 1452SOL    HW2 5256   5.091   0.442   4.901
 1453SOL     OW 5257   5.165   3.790   4.838
 1453SOL    HW1 5258   5.252   3.749   4.867
 1453SOL    HW2 5259   5.096   3.774   4.909
 1454SOL     OW 5260   5.582   2.900   1.945
 1454SOL    HW1 5261   5.496   2.861   1.913
 1454SOL    HW2 5262   5.592   2.884   2.043
 1455SOL     OW 5263   1.107   0.560   1.876
 1455SOL    HW1 5264   1.182   0.541   1.939
 1455SOL    HW2 5265   1.103   0.489   1.806
 1456SOL     OW 5266   6.777   0.134   5.037
 1456SOL    HW1 5267   6.724   0.159   4.956
 1456SOL    HW2 5268   6.819   0.044   5.023
 1457SOL     OW 5269   1.368   6.969   3.506
 1457SOL    HW1 5270   1.378   6.874   3.477
 1457SOL    HW2 5271   1.439   7.024   3.463
 1458SOL     OW 5272   4.980   0.001   5.312
 1458SOL    HW1 5273   4.914   7.004   5.240
 1458SOL    HW2 5274   5.050   0.063   5.276
 1459SOL     OW 5275   2.799   6.167   6.641
 1459SOL    HW1 5276   2.817   6.106   6.718
 1459SOL    HW2 5277   2.806   6.262   6.671
 1460SOL     OW 5278   0.610   6.421   0.317
 1460SOL    HW1 5279   0.566   6.416   0.227
 1460SOL    HW2 5280   0.549   6.381   0.386
 1461SOL     OW 5281   6.318   4.646   3.467
 1461SOL    HW1 5282   6.256   4.724   3.474
 1461SOL    HW2 5283   6.350   4.637   3.373
 1462SOL     OW 5284   6.481   1.457   0.728
 1462SOL    HW1 5285   6.567   1.465   0.777
 1462SOL    HW2 5286   6.472   1.364   0.692
 1463SOL     OW 5287   0.601   0.160   5.483
 1463SOL    HW1 5288   0.633   0.071   5.451
 1463SOL    HW2 5289   0.534   0.197   5.419
 1464SOL     OW 5290   0.160   0.164   0.215
 1464SOL    HW1 5291   0.096   0.156   0.291
 1464SOL    HW2 5292   0.247   0.202   0.248
 1465SOL     OW 5293   0.355   0.996   3.296
 1465SOL    HW1 5294   0.445   0.956   3.278
 1465SOL    HW2 5295   0.359   1.095   3.283
 1466SOL     OW 5296   6.726   6.138   2.484
 1466SOL    HW1 5297   6.655   6.067   2.489
 1466SOL    HW2 5298   6.773   6.131   2.396
 1467SOL     OW 5299   1.660   0.723   3.194
 1467SOL    HW1 5300   1.601   0.802   3.207
 1467SOL    HW2 5301   1.623   0.665   3.120
 1468SOL     OW 5302   5.550   5.553   3.399
 1468SOL    HW1 5303   5.584   5.644   3.427
 1468SOL    HW2 5304   5.512   5.507   3.479
 1469SOL     OW 5305   0.403   0.444   2.899
 1469SOL    HW1 5306   0.356   0.364   2.862
 1469SOL    HW2 5307   0.352   0.527   2.874
 1470SOL     OW 5308   1.308   0.969   2.683
 1470SOL    HW1 5309   1.319   0.877   2.646
 1470SOL    HW2 5310   1.395   1.001   2.720
 1471SOL     OW 5311   6.868   0.434   0.131
 1471SOL    HW1 5312   6.857   0.348   0.082
 1471SOL    HW2 5313   6.871   0.416   0.229
 1472SOL     OW 5314   4.777   6.608   5.017
 1472SOL    HW1 5315   4.866   6.617   4.972
 1472SOL    HW2 5316   4.707   6.649   4.959
 1473SOL     OW 5317   5.726   5.898   2.937
 1473SOL    HW1 5318   5.800   5.897   2.869
 1473SOL    HW2 5319   5.708   5.805   2.967
 1474SOL     OW 5320   6.327   5.507   3.858
 1474SOL    HW1 5321   6.327   5.549   3.948
 1474SOL    HW2 5322   6.416   5.520   3.815
 1475SOL     OW 5323   0.263   0.453   1.977
 1475SOL    HW1 5324   0.239   0.409   1.891
 1475SOL    HW2 5325   0.295   0.546   1.959
 1476SOL     OW 5326   1.550   0.675   1.816
 1476SOL    HW1 5327   1.569   0.735   1.894
 1476SOL    HW2 5328   1.492   0.724   1.750
 1477SOL     OW 5329   3.300   0.703   5.735
 1477SOL    HW1 5330   3.319   0.788   5.785
 1477SOL    HW2 5331   3.265   0.726   5.644
 1478SOL     OW 5332   6.257   4.673   0.760
 1478SOL    HW1 5333   6.316   4.593   0.775
 1478SOL    HW2 5334   6.217   4.667   0.668
 1479SOL     OW 5335   1.410   4.668   0.410
 1479SOL    HW1 5336   1.359   4.739   0.457
 1479SOL    HW2 5337   1.348   4.594   0.382
 1480SOL     OW 5338   2.271   1.040   6.381
 1480SOL    HW1 5339   2.209   0.964   6.401
 1480SOL    HW2 5340   2.218   1.123   6.364
 1481SOL     OW 5341   5.780   2.026   5.393
 1481SOL    HW1 5342   5.875   2.052   5.407
 1481SOL    HW2 5343   5.766   1.997   5.298
 1482SOL     OW 5344   5.879   1.523   1.260
 1482SOL    HW1 5345   5.798   1.581   1.260
 1482SOL    HW2 5346   5.905   1.501   1.354
 1483SOL     OW 5347   6.409   2.958   7.011
 1483SOL    HW1 5348   6.316   2.995   7.004
 1483SOL    HW2 5349   6.407   2.859   6.998
 1484SOL     OW 5350   6.679   4.581   2.775
 1484SOL    HW1 5351   6.581   4.598   2.790
 1484SOL    HW2 5352   6.697   4.580   2.677
 1485SOL     OW 5353   5.422   2.635   2.792
 1485SOL    HW1 5354   5.370   2.557   2.824
 1485SOL    HW2 5355   5.416   2.709   2.859
 1486SOL     OW 5356   4.428   2.416   3.310
 1486SOL    HW1 5357   4.410   2.402   3.212
 1486SOL    HW2 5358   4.500   2.485   3.320
 1487SOL     OW 5359   6.420   1.461   6.609
 1487SOL    HW1 5360   6.384   1.436   6.699
 1487SOL    HW2 5361   6.384   1.551   6.583
 1488SOL     OW 5362   4.828   1.632   2.968
 1488SOL    HW1 5363   4.770   1.645   2.887
 1488SOL    HW2 5364   4.908   1.577   2.944
 1489SOL     OW 5365   3.574   5.131   4.621
 1489SOL    HW1 5366   3.670   5.153   4.637
 1489SOL    HW2 5367   3.532   5.100   4.706
 1490SOL     OW 5368   1.024   2.114   0.380
 1490SOL    HW1 5369   0.985   2.041   0.435
 1490SOL    HW2 5370   0.980   2.116   0.290
 1491SOL     OW 5371   6.548   3.930   3.481
 1491SOL    HW1 5372   6.548   4.026   3.508
 1491SOL    HW2 5373   6.623   3.913   3.417
 1492SOL     OW 5374   5.015   1.952   1.998
 1492SOL    HW1 5375   5.087   2.019   2.015
 1492SOL    HW2 5376   5.040   1.896   1.919
 1493SOL     OW 5377   4.483   0.013   4.794
 1493SOL    HW1 5378   4.520   6.995   4.712
 1493SOL    HW2 5379   4.472   0.111   4.780
 1494SOL     OW 5380   3.407   2.693   5.393
 1494SOL    HW1 5381   3.450   2.728   5.476
 1494SOL    HW2 5382   3.404   2.766   5.324
 1495SOL     OW 5383   0.232   3.475   3.316
 1495SOL    HW1 5384   0.269   3.388   3.346
 1495SOL    HW2 5385   0.300   3.547   3.332
 1496SOL     OW 5386   6.833   0.643   1.940
 1496SOL    HW1 5387   6.851   0.549   1.968
 1496SOL    HW2 5388   6.918   0.696   1.945
 1497SOL     OW 5389   0.293   5.256   4.270
 1497SOL    HW1 5390   0.310   5.227   4.364
 1497SOL    HW2 5391   0.276   5.355   4.268
 1498SOL     OW 5392   2.616   4.498   6.159
 1498SOL    HW1 5393   2.533   4.469   6.207
 1498SOL    HW2 5394   2.597   4.509   6.062
 1499SOL     OW 5395   1.266   4.101   4.728
 1499SOL    HW1 5396   1.327   4.055   4.791
 1499SOL    HW2 5397   1.177   4.055   4.728
 1500SOL     OW 5398   5.592   0.068   1.088
 1500SOL    HW1 5399   5.527   0.059   1.163
 1500SOL    HW2 5400   5.644   0.153   1.098
 1501SOL     OW 5401   4.057   0.508   6.561
 1501SOL    HW1 5402   4.079   0.504   6.659
 1501SOL    HW2 5403   3.960   0.490   6.548
 1502SOL     OW 5404   6.496   6.714   6.939
 1502SOL    HW1 5405   6.429   6.738   7.010
 1502SOL    HW2 5406   6.452   6.657   6.870
 1503SOL     OW 5407   2.171   2.673   0.720
 1503SOL    HW1 5408   2.248   2.680   0.657
 1503SOL    HW2 5409   2.136   2.764   0.741
 1504SOL     OW 5410   2.863   6.957   4.972
 1504SOL    HW1 5411   2.943   6.931   5.025
 1504SOL    HW2 5412   2.873   0.027   4.941
 1505SOL     OW 5413   5.500   0.302   5.929
 1505SOL    HW1 5414   5.587   0.327   5.973
 1505SOL    HW2 5415   5.516   0.234   5.858
 1506SOL     OW 5416   1.121   4.773   3.629
 1506SOL    HW1 5417   1.061   4.723   3.691
 1506SOL    HW2 5418   1.168   4.845   3.680
 1507SOL     OW 5419   1.597   1.704   4.560
 1507SOL    HW1 5420   1.607   1.775   4.491
 1507SOL    HW2 5421   1.687   1.677   4.593
 1508SOL     OW 5422   4.873   0.212   0.938
 1508SOL    HW1 5423   4.891   0.310   0.932
 1508SOL    HW2 5424   4.867   0.173   0.846
 1509SOL     OW 5425   4.469   2.908   6.348
 1509SOL    HW1 5426   4.506   2.880   6.436
 1509SOL    HW2 5427   4.431   3.000   6.356
 1510SOL     OW 5428   6.592   2.630   4.594
 1510SOL    HW1 5429   6.624   2.695   4.663
 1510SOL    HW2 5430   6.666   2.612   4.529
 1511SOL     OW 5431   2.389   1.641   6.441
 1511SOL    HW1 5432   2.403   1.604   6.533
 1511SOL    HW2 5433   2.293   1.670   6.432
 1512SOL     OW 5434   0.119   0.341   2.191
 1512SOL    HW1 5435   0.148   0.245   2.181
 1512SOL    HW2 5436   0.159   0.395   2.117
 1513SOL     OW 5437   3.776   0.406   3.798
 1513SOL    HW1 5438   3.679   0.426   3.785
 1513SOL    HW2 5439   3.822   0.410   3.709
 1514SOL     OW 5440   4.922   1.427   5.023
 1514SOL    HW1 5441   4.908   1.458   4.929
 1514SOL    HW2 5442   4.917   1.505   5.085
 1515SOL     OW 5443   6.862   4.242   5.526
 1515SOL    HW1 5444   6.845   4.339   5.506
 1515SOL    HW2 5445   6.871   4.192   5.440
 1516SOL     OW 5446   0.922   0.870   1.181
 1516SOL    HW1 5447   0.937   0.912   1.271
 1516SOL    HW2 5448   0.832   0.897   1.147
 1517SOL     OW 5449   4.403   5.594   3.688
 1517SOL    HW1 5450   4.455   5.551   3.613
 1517SOL    HW2 5451   4.329   5.532   3.716
 1518SOL     OW 5452   6.837   4.413   6.942
 1518SOL    HW1 5453   6.766   4.351   6.910
 1518SOL    HW2 5454   6.898   4.436   6.866
 1519SOL     OW 5455   6.736   4.211   1.289
 1519SOL    HW1 5456   6.709   4.235   1.382
 1519SOL    HW2 5457   6.694   4.124   1.264
 1520SOL     OW 5458   2.048   3.570   2.159
 1520SOL    HW1 5459   2.126   3.566   2.096
 1520SOL    HW2 5460   1.965   3.589   2.108
 1521SOL     OW 5461   1.554   3.622   0.314
 1521SOL    HW1 5462   1.637   3.581   0.352
 1521SOL    HW2 5463   1.496   3.550   0.276
 1522SOL     OW 5464   6.641   1.826   6.445
 1522SOL    HW1 5465   6.548   1.853   6.418
 1522SOL    HW2 5466   6.664   1.868   6.532
 1523SOL     OW 5467   5.264   3.348   6.623
 1523SOL    HW1 5468   5.241   3.274   6.686
 1523SOL    HW2 5469   5.222   3.433   6.655
 1524SOL     OW 5470   0.999   1.775   1.668
 1524SOL    HW1 5471   0.925   1.837   1.644
 1524SOL    HW2 5472   0.974   1.681   1.643
 1525SOL     OW 5473   4.311   1.577   5.812
 1525SOL    HW1 5474   4.405   1.598   5.784
 1525SOL    HW2 5475   4.303   1.479   5.830
 1526SOL     OW 5476   0.397   1.412   1.114
 1526SOL    HW1 5477   0.313   1.463   1.130
 1526SOL    HW2 5478   0.443   1.448   1.033
 1527SOL     OW 5479   3.330   1.719   4.977
 1527SOL    HW1 5480   3.293   1.655   5.045
 1527SOL    HW2 5481   3.425   1.694   4.957
 1528SOL     OW 5482   4.926   6.141   2.643
 1528SOL    HW1 5483   4.921   6.047   2.677
 1528SOL    HW2 5484   4.995   6.191   2.695
 1529SOL     OW 5485   5.006   1.136   6.165
 1529SOL    HW1 5486   4.980   1.040   6.168
 1529SOL    HW2 5487   5.037   1.165   6.256
 1530SOL     OW 5488   3.401   6.405   1.674
 1530SOL    HW1 5489   3.358   6.339   1.611
 1530SOL    HW2 5490   3.371   6.497   1.651
 1531SOL     OW 5491   5.696   0.972   5.182
 1531SOL    HW1 5492   5.662   0.920   5.260
 1531SOL    HW2 5493   5.641   0.951   5.101
 1532SOL     OW 5494   3.429   2.085   4.959
 1532SOL    HW1 5495   3.389   2.082   4.867
 1532SOL    HW2 5496   3.369   2.135   5.020
 1533SOL     OW 5497   6.658   3.000   6.234
 1533SOL    HW1 5498   6.564   3.030   6.219
 1533SOL    HW2 5499   6.664   2.951   6.321
 1534SOL     OW 5500   2.054   5.506   0.382
 1534SOL    HW1 5501   1.969   5.456   0.362
 1534SOL    HW2 5502   2.045   5.601   0.351
 1535SOL     OW 5503   5.049   4.939   4.470
 1535SOL    HW1 5504   5.133   4.943   4.416
 1535SOL    HW2 5505   5.066   4.977   4.561
 1536SOL     OW 5506   2.474   4.983   4.282
 1536SOL    HW1 5507   2.390   4.928   4.276
 1536SOL    HW2 5508   2.471   5.057   4.215
 1537SOL     OW 5509   3.373   5.344   3.616
 1537SOL    HW1 5510   3.361   5.425   3.560
 1537SOL    HW2 5511   3.295   5.283   3.604
 1538SOL     OW 5512   3.224   4.247   6.554
 1538SOL    HW1 5513   3.154   4.309   6.518
 1538SOL    HW2 5514   3.281   4.215   6.479
 1539SOL     OW 5515   3.473   4.033   1.711
 1539SOL    HW1 5516   3.457   4.115   1.657
 1539SOL    HW2 5517   3.533   4.055   1.788
 1540SOL     OW 5518   0.915   0.512   4.743
 1540SOL    HW1 5519   0.913   0.563   4.657
 1540SOL    HW2 5520   1.006   0.521   4.785
 1541SOL     OW 5521   3.576   2.993   1.208
 1541SOL    HW1 5522   3.488   2.969   1.167
 1541SOL    HW2 5523   3.639   2.916   1.197
 1542SOL     OW 5524   0.552   5.831   1.747
 1542SOL    HW1 5525   0.637   5.839   1.799
 1542SOL    HW2 5526   0.512   5.921   1.734
 1543SOL     OW 5527   3.633   3.657   3.458
 1543SOL    HW1 5528   3.693   3.730   3.489
 1543SOL    HW2 5529   3.608   3.598   3.536
 1544SOL     OW 5530   2.978   3.765   2.139
 1544SOL    HW1 5531   3.006   3.712   2.219
 1544SOL    HW2 5532   2.890   3.731   2.106
 1545SOL     OW 5533   5.633   0.780   5.354
 1545SOL    HW1 5534   5.657   0.821   5.442
 1545SOL    HW2 5535   5.625   0.681   5.364
 1546SOL     OW 5536   6.300   0.462   6.223
 1546SOL    HW1 5537   6.346   0.430   6.140
 1546SOL    HW2 5538   6.355   0.533   6.266
 1547SOL     OW 5539   2.667   4.675   2.640
 1547SOL    HW1 5540   2.643   4.770   2.617
 1547SOL    HW2 5541   2.626   4.650   2.728
 1548SOL     OW 5542   4.027   4.262   5.904
 1548SOL    HW1 5543   3.958   4.258   5.832
 1548SOL    HW2 5544   4.057   4.170   5.927
 1549SOL     OW 5545   6.295   1.622   1.793
 1549SOL    HW1 5546   6.326   1.633   1.887
 1549SOL    HW2 5547   6.350   1.551   1.748
 1550SOL     OW 5548   2.641   6.889   5.508
 1550SOL    HW1 5549   2.627   6.820   5.580
 1550SOL    HW2 5550   2.564   6.885   5.444
 1551SOL     OW 5551   2.114   3.206   1.251
 1551SOL    HW1 5552   2.047   3.175   1.184
 1551SOL    HW2 5553   2.068   3.254   1.325
 1552SOL     OW 5554   1.217   6.952   1.118
 1552SOL    HW1 5555   1.136   7.010   1.121
 1552SOL    HW2 5556   1.197   6.870   1.063
 1553SOL     OW 5557   5.920   1.440   6.963
 1553SOL    HW1 5558   5.891   1.490   0.020
 1553SOL    HW2 5559   6.007   1.478   6.929
 1554SOL     OW 5560   4.223   2.299   2.789
 1554SOL    HW1 5561   4.148   2.249   2.746
 1554SOL    HW2 5562   4.285   2.335   2.719
 1555SOL     OW 5563   4.711   2.036   5.397
 1555SOL    HW1 5564   4.711   2.003   5.303
 1555SOL    HW2 5565   4.618   2.060   5.424
 1556SOL     OW 5566   3.607   0.328   1.041
 1556SOL    HW1 5567   3.508   0.317   1.042
 1556SOL    HW2 5568   3.638   0.362   1.130
 1557SOL     OW 5569   2.412   2.495   0.822
 1557SOL    HW1 5570   2.405   2.564   0.894
 1557SOL    HW2 5571   2.332   2.435   0.825
 1558SOL     OW 5572   6.333   2.194   5.136
 1558SOL    HW1 5573   6.237   2.190   5.105
 1558SOL    HW2 5574   6.345   2.271   5.198
 1559SOL     OW 5575   0.549   3.785   2.241
 1559SOL    HW1 5576   0.621   3.718   2.259
 1559SOL    HW2 5577   0.464   3.737   2.218
 1560SOL     OW 5578   3.531   1.420   0.295
 1560SOL    HW1 5579   3.630   1.408   0.285
 1560SOL    HW2 5580   3.511   1.517   0.309
 1561SOL     OW 5581   5.500   6.236   2.249
 1561SOL    HW1 5582   5.547   6.263   2.165
 1561SOL    HW2 5583   5.567   6.199   2.314
 1562SOL     OW 5584   2.613   6.364   2.398
 1562SOL    HW1 5585   2.614   6.264   2.402
 1562SOL    HW2 5586   2.706   6.397   2.383
 1563SOL     OW 5587   2.846   2.304   4.671
 1563SOL    HW1 5588   2.751   2.334   4.678
 1563SOL    HW2 5589   2.879   2.276   4.761
 1564SOL     OW 5590   1.330   1.445   2.389
 1564SOL    HW1 5591   1.307   1.366   2.446
 1564SOL    HW2 5592   1.369   1.516   2.446
 1565SOL     OW 5593   3.929   5.620   4.197
 1565SOL    HW1 5594   3.914   5.582   4.106
 1565SOL    HW2 5595   3.995   5.695   4.191
 1566SOL     OW 5596   5.574   4.688   3.662
 1566SOL    HW1 5597   5.551   4.630   3.740
 1566SOL    HW2 5598   5.544   4.782   3.681
 1567SOL     OW 5599   5.926   5.377   6.242
 1567SOL    HW1 5600   5.942   5.343   6.149
 1567SOL    HW2 5601   6.013   5.397   6.286
 1568SOL     OW 5602   2.092   6.112   4.149
 1568SOL    HW1 5603   2.175   6.155   4.185
 1568SOL    HW2 5604   2.035   6.081   4.225
 1569SOL     OW 5605   3.238   0.571   2.926
 1569SOL    HW1 5606   3.173   0.539   2.857
 1569SOL    HW2 5607   3.191   0.629   2.993
 1570SOL     OW 5608   2.865   6.988   6.464
 1570SOL    HW1 5609   2.802   6.916   6.433
 1570SOL    HW2 5610   2.950   6.945   6.496
 1571SOL     OW 5611   1.251   2.203   3.076
 1571SOL    HW1 5612   1.306   2.139   3.128
 1571SOL    HW2 5613   1.154   2.188   3.095
 1572SOL     OW 5614   1.808   5.413   1.347
 1572SOL    HW1 5615   1.727   5.356   1.357
 1572SOL    HW2 5616   1.860   5.413   1.433
 1573SOL     OW 5617   5.502   5.517   1.831
 1573SOL    HW1 5618   5.526   5.425   1.862
 1573SOL    HW2 5619   5.418   5.547   1.877
 1574SOL     OW 5620   6.161   3.291   1.847
 1574SOL    HW1 5621   6.255   3.284   1.882
 1574SOL    HW2 5622   6.105   3.219   1.889
 1575SOL     OW 5623   1.449   0.546   1.508
 1575SOL    HW1 5624   1.360   0.533   1.465
 1575SOL    HW2 5625   1.465   0.644   1.522
 1576SOL     OW 5626   0.750   6.149   2.690
 1576SOL    HW1 5627   0.717   6.155   2.595
 1576SOL    HW2 5628   0.753   6.053   2.717
 1577SOL     OW 5629   2.985   0.546   6.438
 1577SOL    HW1 5630   3.079   0.562   6.408
 1577SOL    HW2 5631   2.978   0.455   6.481
 1578SOL     OW 5632   4.422   1.080   0.420
 1578SOL    HW1 5633   4.515   1.041   0.416
 1578SOL    HW2 5634   4.360   1.025   0.364
 1579SOL     OW 5635   0.804   2.884   1.664
 1579SOL    HW1 5636   0.741   2.815   1.628
 1579SOL    HW2 5637   0.818   2.955   1.595
 1580SOL     OW 5638   3.048   3.862   3.646
 1580SOL    HW1 5639   2.967   3.807   3.666
 1580SOL    HW2 5640   3.043   3.895   3.551
 1581SOL     OW 5641   0.136   5.214   5.424
 1581SOL    HW1 5642   0.120   5.180   5.516
 1581SOL    HW2 5643   0.057   5.268   5.394
 1582SOL     OW 5644   4.214   5.934   5.123
 1582SOL    HW1 5645   4.223   5.839   5.092
 1582SOL    HW2 5646   4.252   5.995   5.054
 1583SOL     OW 5647   0.914   6.523   4.908
 1583SOL    HW1 5648   1.000   6.558   4.873
 1583SOL    HW2 5649   0.932   6.449   4.974
 1584SOL     OW 5650   1.401   4.878   6.745
 1584SOL    HW1 5651   1.379   4.811   6.674
 1584SOL    HW2 5652   1.378   4.841   6.835
 1585SOL     OW 5653   3.853   1.684   3.391
 1585SOL    HW1 5654   3.767   1.727   3.419
 1585SOL    HW2 5655   3.838   1.585   3.381
 1586SOL     OW 5656   3.593   5.052   3.199
 1586SOL    HW1 5657   3.589   5.152   3.209
 1586SOL    HW2 5658   3.672   5.017   3.250
 1587SOL     OW 5659   2.115   5.793   5.647
 1587SOL    HW1 5660   2.190   5.737   5.682
 1587SOL    HW2 5661   2.030   5.741   5.650
 1588SOL     OW 5662   4.540   6.971   2.530
 1588SOL    HW1 5663   4.601   7.019   2.593
 1588SOL    HW2 5664   4.497   0.012   2.468
 1589SOL     OW 5665   6.429   3.756   2.920
 1589SOL    HW1 5666   6.357   3.823   2.906
 1589SOL    HW2 5667   6.515   3.803   2.938
 1590SOL     OW 5668   5.121   1.984   3.583
 1590SOL    HW1 5669   5.026   2.014   3.578
 1590SOL    HW2 5670   5.181   2.064   3.588
 1591SOL     OW 5671   6.813   5.244   1.705
 1591SOL    HW1 5672   6.716   5.269   1.699
 1591SOL    HW2 5673   6.864   5.288   1.631
 1592SOL     OW 5674   1.560   4.731   7.001
 1592SOL    HW1 5675   1.633   4.667   6.976
 1592SOL    HW2 5676   1.592   4.792   0.049
 1593SOL     OW 5677   0.967   0.013   6.266
 1593SOL    HW1 5678   0.990   6.941   6.251
 1593SOL    HW2 5679   0.896   0.041   6.201
 1594SOL     OW 5680   6.715   6.784   1.775
 1594SOL    HW1 5681   6.720   6.686   1.757
 1594SOL    HW2 5682   6.803   6.826   1.754
 1595SOL     OW 5683   1.560   4.086   0.111
 1595SOL    HW1 5684   1.467   4.051   0.120
 1595SOL    HW2 5685   1.601   4.052   0.027
 1596SOL     OW 5686   5.863   3.413   3.211
 1596SOL    HW1 5687   5.790   3.395   3.145
 1596SOL    HW2 5688   5.898   3.326   3.246
 1597SOL     OW 5689   3.176   5.990   0.881
 1597SOL    HW1 5690   3.160   6.008   0.784
 1597SOL    HW2 5691   3.241   5.914   0.890
 1598SOL     OW 5692   1.305   5.452   6.838
 1598SOL    HW1 5693   1.250   5.454   6.754
 1598SOL    HW2 5694   1.325   5.545   6.868
 1599SOL     OW 5695   4.009   4.854   4.708
 1599SOL    HW1 5696   3.941   4.902   4.764
 1599SOL    HW2 5697   4.062   4.792   4.765
 1600SOL     OW 5698   2.859   0.230   2.079
 1600SOL    HW1 5699   2.797   0.289   2.028
 1600SOL    HW2 5700   2.953   0.244   2.047
 1601SOL     OW 5701   6.861   6.262   4.171
 1601SOL    HW1 5702   6.870   6.164   4.186
 1601SOL    HW2 5703   6.947   6.299   4.137
 1602SOL     OW 5704   4.756   5.478   4.054
 1602SOL    HW1 5705   4.677   5.460   4.112
 1602SOL    HW2 5706   4.745   5.567   4.010
 1603SOL     OW 5707   2.832   5.179   4.266
 1603SOL    HW1 5708   2.759   5.235   4.227
 1603SOL    HW2 5709   2.913   5.237   4.281
 1604SOL     OW 5710   4.212   4.867   1.680
 1604SOL    HW1 5711   4.189   4.914   1.765
 1604SOL    HW2 5712   4.288   4.914   1.635
 1605SOL     OW 5713   6.014   5.590   1.393
 1605SOL    HW1 5714   6.088   5.645   1.431
 1605SOL    HW2 5715   6.013   5.500   1.436
 1606SOL     OW 5716   3.866   5.211   5.171
 1606SOL    HW1 5717   3.893   5.229   5.266
 1606SOL    HW2 5718   3.793   5.274   5.145
 1607SOL     OW 5719   4.182   0.007   1.945
 1607SOL    HW1 5720   4.245   6.998   1.876
 1607SOL    HW2 5721   4.160   6.959   2.009
 1608SOL     OW 5722   6.704   0.413   3.352
 1608SOL    HW1 5723   6.754   0.493   3.318
 1608SOL    HW2 5724   6.746   0.382   3.438
 1609SOL     OW 5725   2.945   6.668   0.929
 1609SOL    HW1 5726   2.924   6.739   0.996
 1609SOL    HW2 5727   2.909   6.581   0.961
 1610SOL     OW 5728   4.754   6.432   0.637
 1610SOL    HW1 5729   4.745   6.333   0.638
 1610SOL    HW2 5730   4.845   6.457   0.670
 1611SOL     OW 5731   1.585   3.987   1.153
 1611SOL    HW1 5732   1.534   3.988   1.239
 1611SOL    HW2 5733   1.522   3.974   1.077
 1612SOL     OW 5734   3.111   6.361   1.496
 1612SOL    HW1 5735   3.045   6.334   1.426
 1612SOL    HW2 5736   3.154   6.447   1.469
 1613SOL     OW 5737   0.684   6.124   2.418
 1613SOL    HW1 5738   0.776   6.085   2.412
 1613SOL    HW2 5739   0.619   6.063   2.375
 1614SOL     OW 5740   5.511   1.885   6.298
 1614SOL    HW1 5741   5.523   1.906   6.395
 1614SOL    HW2 5742   5.583   1.931   6.245
 1615SOL     OW 5743   0.254   5.015   6.133
 1615SOL    HW1 5744   0.284   4.947   6.066
 1615SOL    HW2 5745   0.305   5.100   6.119
 1616SOL     OW 5746   3.772   0.427   4.866
 1616SOL    HW1 5747   3.802   0.499   4.804
 1616SOL    HW2 5748   3.851   0.375   4.897
 1617SOL     OW 5749   4.728   0.308   3.489
 1617SOL    HW1 5750   4.808   0.278   3.541
 1617SOL    HW2 5751   4.736   0.278   3.394
 1618SOL     OW 5752   1.439   5.537   2.478
 1618SOL    HW1 5753   1.518   5.597   2.484
 1618SOL    HW2 5754   1.374   5.573   2.410
 1619SOL     OW 5755   0.980   5.058   6.779
 1619SOL    HW1 5756   0.939   5.136   6.734
 1619SOL    HW2 5757   1.033   5.004   6.713
 1620SOL     OW 5758   2.924   5.299   1.267
 1620SOL    HW1 5759   2.866   5.279   1.346
 1620SOL    HW2 5760   2.886   5.376   1.216
 1621SOL     OW 5761   6.266   0.217   1.274
 1621SOL    HW1 5762   6.276   0.303   1.323
 1621SOL    HW2 5763   6.355   0.174   1.263
 1622SOL     OW 5764   0.344   3.850   5.926
 1622SOL    HW1 5765   0.316   3.894   5.841
 1622SOL    HW2 5766   0.427   3.894   5.960
 1623SOL     OW 5767   0.290   2.164   4.637
 1623SOL    HW1 5768   0.330   2.183   4.548
 1623SOL    HW2 5769   0.329   2.080   4.675
 1624SOL     OW 5770   4.173   1.480   0.240
 1624SOL    HW1 5771   4.079   1.489   0.208
 1624SOL    HW2 5772   4.179   1.407   0.308
 1625SOL     OW 5773   1.564   5.092   6.783
 1625SOL    HW1 5774   1.488   5.028   6.797
 1625SOL    HW2 5775   1.546   5.149   6.703
 1626SOL     OW 5776   2.858   1.366   2.090
 1626SOL    HW1 5777   2.905   1.438   2.140
 1626SOL    HW2 5778   2.840   1.288   2.150
 1627SOL     OW 5779   5.586   3.009   4.310
 1627SOL    HW1 5780   5.633   3.056   4.235
 1627SOL    HW2 5781   5.489   3.000   4.288
 1628SOL     OW 5782   5.086   6.209   6.646
 1628SOL    HW1 5783   5.132   6.150   6.713
 1628SOL    HW2 5784   5.004   6.249   6.687
 1629SOL     OW 5785   2.436   1.763   3.203
 1629SOL    HW1 5786   2.420   1.665   3.193
 1629SOL    HW2 5787   2.501   1.779   3.277
 1630SOL     OW 5788   6.685   4.347   6.023
 1630SOL    HW1 5789   6.655   4.381   6.111
 1630SOL    HW2 5790   6.606   4.318   5.969
 1631SOL     OW 5791   6.444   3.252   0.892
 1631SOL    HW1 5792   6.530   3.299   0.907
 1631SOL    HW2 5793   6.460   3.167   0.842
 1632SOL     OW 5794   5.062   4.502   2.697
 1632SOL    HW1 5795   4.994   4.574   2.688
 1632SOL    HW2 5796   5.069   4.451   2.611
 1633SOL     OW 5797   4.788   3.988   4.268
 1633SOL    HW1 5798   4.814   4.037   4.351
 1633SOL    HW2 5799   4.692   3.960   4.274
 1634SOL     OW 5800   3.979   0.614   4.464
 1634SOL    HW1 5801   3.968   0.519   4.433
 1634SOL    HW2 5802   3.918   0.673   4.412
 1635SOL     OW 5803   2.492   5.321   6.231
 1635SOL    HW1 5804   2.399   5.338   6.266
 1635SOL    HW2 5805   2.491   5.237   6.176
 1636SOL     OW 5806   3.911   5.592   0.550
 1636SOL    HW1 5807   3.893   5.636   0.638
 1636SOL    HW2 5808   4.010   5.580   0.539
 1637SOL     OW 5809   6.653   6.435   3.888
 1637SOL    HW1 5810   6.748   6.411   3.907
 1637SOL    HW2 5811   6.613   6.479   3.968
 1638SOL     OW 5812   0.325   3.079   1.448
 1638SOL    HW1 5813   0.313   3.090   1.349
 1638SOL    HW2 5814   0.372   3.159   1.485
 1639SOL     OW 5815   6.871   3.954   2.004
 1639SOL    HW1 5816   6.969   3.934   2.002
 1639SOL    HW2 5817   6.824   3.892   1.942
 1640SOL     OW 5818   6.892   0.267   0.652
 1640SOL    HW1 5819   6.874   0.344   0.713
 1640SOL    HW2 5820   6.832   0.191   0.676
 1641SOL     OW 5821   0.174   2.363   3.323
 1641SOL    HW1 5822   0.095   2.409   3.364
 1641SOL    HW2 5823   0.154   2.341   3.228
 1642SOL     OW 5824   6.980   2.587   6.384
 1642SOL    HW1 5825   0.017   2.604   6.461
 1642SOL    HW2 5826   7.010   2.506   6.335
 1643SOL     OW 5827   3.517   4.923   2.963
 1643SOL    HW1 5828   3.417   4.919   2.967
 1643SOL    HW2 5829   3.552   4.969   3.045
 1644SOL     OW 5830   5.541   3.238   6.755
 1644SOL    HW1 5831   5.548   3.210   6.850
 1644SOL    HW2 5832   5.481   3.317   6.747
 1645SOL     OW 5833   2.625   6.811   6.100
 1645SOL    HW1 5834   2.535   6.784   6.066
 1645SOL    HW2 5835   2.658   6.891   6.051
 1646SOL     OW 5836   1.941   6.415   0.183
 1646SOL    HW1 5837   1.879   6.377   0.114
 1646SOL    HW2 5838   2.024   6.359   0.187
 1647SOL     OW 5839   5.553   2.829   3.939
 1647SOL    HW1 5840   5.462   2.790   3.949
 1647SOL    HW2 5841   5.554   2.922   3.977
 1648SOL     OW 5842   5.516   6.385   0.277
 1648SOL    HW1 5843   5.511   6.415   0.181
 1648SOL    HW2 5844   5.426   6.395   0.320
 1649SOL     OW 5845   3.706   0.913   3.422
 1649SOL    HW1 5846   3.635   0.843   3.425
 1649SOL    HW2 5847   3.771   0.898   3.497
 1650SOL     OW 5848   1.212   5.543   6.285
 1650SOL    HW1 5849   1.311   5.555   6.294
 1650SOL    HW2 5850   1.172   5.523   6.374
 1651SOL     OW 5851   0.262   2.468   2.734
 1651SOL    HW1 5852   0.270   2.410   2.815
 1651SOL    HW2 5853   0.175   2.449   2.689
 1652SOL     OW 5854   0.914   3.391   1.846
 1652SOL    HW1 5855   0.868   3.319   1.897
 1652SOL    HW2 5856   0.847   3.441   1.791
 1653SOL     OW 5857   0.034   5.601   2.199
 1653SOL    HW1 5858   7.022   5.514   2.232
 1653SOL    HW2 5859   0.035   5.601   2.099
 1654SOL     OW 5860   0.262   2.975   1.160
 1654SOL    HW1 5861   0.165   2.979   1.186
 1654SOL    HW2 5862   0.271   2.997   1.063
 1655SOL     OW 5863   6.622   1.299   4.597
 1655SOL    HW1 5864   6.607   1.292   4.499
 1655SOL    HW2 5865   6.707   1.350   4.614
 1656SOL     OW 5866   2.810   5.475   3.819
 1656SOL    HW1 5867   2.830   5.389   3.771
 1656SOL    HW2 5868   2.892   5.532   3.823
 1657SOL     OW 5869   6.242   0.852   5.276
 1657SOL    HW1 5870   6.288   0.804   5.201
 1657SOL    HW2 5871   6.273   0.946   5.280
 1658SOL     OW 5872   0.216   0.269   0.742
 1658SOL    HW1 5873   0.305   0.226   0.761
 1658SOL    HW2 5874   0.144   0.214   0.783
 1659SOL     OW 5875   3.851   0.320   6.835
 1659SOL    HW1 5876   3.853   0.273   6.923
 1659SOL    HW2 5877   3.917   0.396   6.837
 1660SOL     OW 5878   1.446   0.153   2.244
 1660SOL    HW1 5879   1.384   0.104   2.182
 1660SOL    HW2 5880   1.402   0.163   2.333
 1661SOL     OW 5881   2.844   5.548   2.168
 1661SOL    HW1 5882   2.823   5.511   2.258
 1661SOL    HW2 5883   2.942   5.540   2.151
 1662SOL     OW 5884   6.742   0.733   5.432
 1662SOL    HW1 5885   6.653   0.692   5.414
 1662SOL    HW2 5886   6.764   0.799   5.361
 1663SOL     OW 5887   5.266   5.436   2.192
 1663SOL    HW1 5888   5.259   5.350   2.242
 1663SOL    HW2 5889   5.350   5.483   2.219
 1664SOL     OW 5890   1.974   0.465   5.656
 1664SOL    HW1 5891   2.051   0.529   5.656
 1664SOL    HW2 5892   2.004   0.377   5.617
 1665SOL     OW 5893   0.026   3.574   1.915
 1665SOL    HW1 5894   6.951   3.578   1.919
 1665SOL    HW2 5895   0.057   3.483   1.941
 1666SOL     OW 5896   5.719   6.880   6.835
 1666SOL    HW1 5897   5.663   6.960   6.815
 1666SOL    HW2 5898   5.662   6.807   6.873
 1667SOL     OW 5899   6.351   6.554   1.279
 1667SOL    HW1 5900   6.289   6.550   1.201
 1667SOL    HW2 5901   6.405   6.638   1.275
 1668SOL     OW 5902   4.961   4.983   3.232
 1668SOL    HW1 5903   4.933   4.907   3.173
 1668SOL    HW2 5904   5.060   4.982   3.243
 1669SOL     OW 5905   6.544   4.370   5.600
 1669SOL    HW1 5906   6.530   4.288   5.544
 1669SOL    HW2 5907   6.619   4.424   5.561
 1670SOL     OW 5908   0.987   4.586   5.555
 1670SOL    HW1 5909   0.989   4.540   5.644
 1670SOL    HW2 5910   0.970   4.683   5.568
 1671SOL     OW 5911   5.346   1.678   3.228
 1671SOL    HW1 5912   5.392   1.589   3.226
 1671SOL    HW2 5913   5.411   1.750   3.203
 1672SOL     OW 5914   1.306   3.881   6.459
 1672SOL    HW1 5915   1.382   3.829   6.421
 1672SOL    HW2 5916   1.256   3.824   6.524
 1673SOL     OW 5917   1.842   1.632   4.627
 1673SOL    HW1 5918   1.865   1.549   4.676
 1673SOL    HW2 5919   1.926   1.678   4.598
 1674SOL     OW 5920   6.005   2.776   2.404
 1674SOL    HW1 5921   5.945   2.700   2.429
 1674SOL    HW2 5922   6.100   2.752   2.425
 1675SOL     OW 5923   5.078   0.154   1.139
 1675SOL    HW1 5924   5.011   0.154   1.065
 1675SOL    HW2 5925   5.101   0.248   1.163
 1676SOL     OW 5926   2.191   2.275   2.216
 1676SOL    HW1 5927   2.135   2.213   2.162
 1676SOL    HW2 5928   2.281   2.234   2.232
 1677SOL     OW 5929   4.031   3.833   3.295
 1677SOL    HW1 5930   4.028   3.890   3.213
 1677SOL    HW2 5931   4.039   3.737   3.269
 1678SOL     OW 5932   0.418   5.962   1.229
 1678SOL    HW1 5933   0.330   5.914   1.229
 1678SOL    HW2 5934   0.407   6.051   1.273
 1679SOL     OW 5935   1.673   1.178   4.874
 1679SOL    HW1 5936   1.633   1.087   4.879
 1679SOL    HW2 5937   1.758   1.180   4.926
 1680SOL     OW 5938   5.268   3.460   5.417
 1680SOL    HW1 5939   5.230   3.419   5.334
 1680SOL    HW2 5940   5.323   3.392   5.465
 1681SOL     OW 5941   1.961   5.643   5.180
 1681SOL    HW1 5942   1.950   5.564   5.119
 1681SOL    HW2 5943   1.992   5.722   5.126
 1682SOL     OW 5944   2.267   1.043   6.069
 1682SOL    HW1 5945   2.334   0.988   6.119
 1682SOL    HW2 5946   2.176   1.028   6.109
 1683SOL     OW 5947   5.547   6.312   3.105
 1683SOL    HW1 5948   5.630   6.349   3.063
 1683SOL    HW2 5949   5.565   6.288   3.200
 1684SOL     OW 5950   0.891   4.722   1.905
 1684SOL    HW1 5951   0.795   4.708   1.882
 1684SOL    HW2 5952   0.935   4.634   1.922
 1685SOL     OW 5953   1.673   2.110   5.629
 1685SOL    HW1 5954   1.730   2.034   5.660
 1685SOL    HW2 5955   1.609   2.136   5.701
 1686SOL     OW 5956   3.723   5.982   3.939
 1686SOL    HW1 5957   3.770   6.068   3.921
 1686SOL    HW2 5958   3.642   5.998   3.996
 1687SOL     OW 5959   0.680   3.850   2.014
 1687SOL    HW1 5960   0.601   3.853   2.076
 1687SOL    HW2 5961   0.759   3.893   2.058
 1688SOL     OW 5962   1.851   2.368   3.337
 1688SOL    HW1 5963   1.888   2.280   3.308
 1688SOL    HW2 5964   1.762   2.383   3.294
 1689SOL     OW 5965   6.606   1.088   2.819
 1689SOL    HW1 5966   6.669   1.010   2.826
 1689SOL    HW2 5967   6.526   1.071   2.876
 1690SOL     OW 5968   0.984   3.093   4.253
 1690SOL    HW1 5969   0.921   3.168   4.272
 1690SOL    HW2 5970   1.074   3.115   4.291
 1691SOL     OW 5971   5.266   3.292   4.485
 1691SOL    HW1 5972   5.326   3.305   4.406
 1691SOL    HW2 5973   5.310   3.330   4.567
 1692SOL     OW 5974   5.454   5.359   1.077
 1692SOL    HW1 5975   5.444   5.313   0.989
 1692SOL    HW2 5976   5.477   5.292   1.147
 1693SOL     OW 5977   0.179   1.654   4.845
 1693SOL    HW1 5978   0.141   1.716   4.914
 1693SOL    HW2 5979   0.126   1.662   4.761
 1694SOL     OW 5980   6.043   0.577   4.596
 1694SOL    HW1 5981   6.018   0.545   4.504
 1694SOL    HW2 5982   5.983   0.652   4.623
 1695SOL     OW 5983   3.434   0.705   6.873
 1695SOL    HW1 5984   3.483   0.728   6.958
 1695SOL    HW2 5985   3.494   0.721   6.795
 1696SOL     OW 5986   4.090   5.905   0.886
 1696SOL    HW1 5987   4.150   5.843   0.936
 1696SOL    HW2 5988   4.144   5.979   0.847
 1697SOL     OW 5989   5.816   2.591   1.001
 1697SOL    HW1 5990   5.728   2.627   1.031
 1697SOL    HW2 5991   5.806   2.495   0.975
 1698SOL     OW 5992   3.270   0.816   1.464
 1698SOL    HW1 5993   3.237   0.862   1.546
 1698SOL    HW2 5994   3.360   0.777   1.482
 1699SOL     OW 5995   2.703   2.122   5.919
 1699SOL    HW1 5996   2.799   2.105   5.940
 1699SOL    HW2 5997   2.682   2.089   5.828
 1700SOL     OW 5998   5.759   3.221   3.842
 1700SOL    HW1 5999   5.778   3.160   3.765
 1700SOL    HW2 6000   5.793   3.313   3.822
 1701SOL     OW 6001   5.880   5.079   4.908
 1701SOL    HW1 6002   5.780   5.082   4.914
 1701SOL    HW2 6003   5.918   5.170   4.926
 1702SOL     OW 6004   0.942   1.311   6.324
 1702SOL    HW1 6005   0.880   1.382   6.290
 1702SOL    HW2 6006   0.993   1.347   6.402
 1703SOL     OW 6007   4.399   1.358   6.097
 1703SOL    HW1 6008   4.498   1.368   6.110
 1703SOL    HW2 6009   4.359   1.314   6.177
 1704SOL     OW 6010   1.203   1.959   6.852
 1704SOL    HW1 6011   1.264   2.038   6.856
 1704SOL    HW2 6012   1.223   1.897   6.928
 1705SOL     OW 6013   3.839   1.775   2.035
 1705SOL    HW1 6014   3.809   1.836   1.961
 1705SOL    HW2 6015   3.777   1.697   2.042
 1706SOL     OW 6016   4.750   1.728   1.240
 1706SOL    HW1 6017   4.726   1.820   1.270
 1706SOL    HW2 6018   4.719   1.661   1.308
 1707SOL     OW 6019   5.134   2.256   2.791
 1707SOL    HW1 6020   5.086   2.192   2.851
 1707SOL    HW2 6021   5.076   2.335   2.773
 1708SOL     OW 6022   4.350   5.597   1.732
 1708SOL    HW1 6023   4.339   5.688   1.773
 1708SOL    HW2 6024   4.389   5.535   1.800
 1709SOL     OW 6025   4.121   6.671   0.716
 1709SOL    HW1 6026   4.034   6.710   0.686
 1709SOL    HW2 6027   4.109   6.630   0.807
 1710SOL     OW 6028   4.145   4.766   3.347
 1710SOL    HW1 6029   4.096   4.751   3.261
 1710SOL    HW2 6030   4.234   4.721   3.342
 1711SOL     OW 6031   2.462   4.812   5.547
 1711SOL    HW1 6032   2.364   4.832   5.539
 1711SOL    HW2 6033   2.515   4.896   5.535
 1712SOL     OW 6034   0.180   2.256   4.892
 1712SOL    HW1 6035   0.106   2.190   4.902
 1712SOL    HW2 6036   0.244   2.224   4.822
 1713SOL     OW 6037   3.674   1.258   2.976
 1713SOL    HW1 6038   3.588   1.309   2.974
 1713SOL    HW2 6039   3.665   1.182   3.041
 1714SOL     OW 6040   3.386   1.674   0.262
 1714SOL    HW1 6041   3.370   1.748   0.327
 1714SOL    HW2 6042   3.478   1.683   0.224
 1715SOL     OW 6043   2.036   5.891   2.702
 1715SOL    HW1 6044   1.963   5.836   2.742
 1715SOL    HW2 6045   2.040   5.874   2.603
 1716SOL     OW 6046   4.842   7.016   4.186
 1716SOL    HW1 6047   4.755   7.021   4.136
 1716SOL    HW2 6048   4.889   0.079   4.179
 1717SOL     OW 6049   3.911   5.269   5.418
 1717SOL    HW1 6050   3.921   5.187   5.475
 1717SOL    HW2 6051   3.875   5.343   5.474
 1718SOL     OW 6052   2.532   1.586   2.662
 1718SOL    HW1 6053   2.609   1.533   2.624
 1718SOL    HW2 6054   2.447   1.534   2.649
 1719SOL     OW 6055   1.953   4.613   0.878
 1719SOL    HW1 6056   1.870   4.556   0.883
 1719SOL    HW2 6057   1.930   4.708   0.896
 1720SOL     OW 6058   0.145   2.923   5.705
 1720SOL    HW1 6059   0.125   2.892   5.798
 1720SOL    HW2 6060   0.086   3.000   5.681
 1721SOL     OW 6061   1.253   0.269   2.011
 1721SOL    HW1 6062   1.171   0.275   1.954
 1721SOL    HW2 6063   1.308   0.352   2.000
 1722SOL     OW 6064   3.565   1.859   3.149
 1722SOL    HW1 6065   3.582   1.957   3.150
 1722SOL    HW2 6066   3.635   1.813   3.093
 1723SOL     OW 6067   4.340   2.119   6.557
 1723SOL    HW1 6068   4.413   2.070   6.508
 1723SOL    HW2 6069   4.296   2.184   6.495
 1724SOL     OW 6070   6.451   2.069   1.747
 1724SOL    HW1 6071   6.507   2.150   1.733
 1724SOL    HW2 6072   6.489   1.992   1.696
 1725SOL     OW 6073   1.940   5.199   6.674
 1725SOL    HW1 6074   2.035   5.226   6.690
 1725SOL    HW2 6075   1.911   5.133   6.743
 1726SOL     OW 6076   5.586   4.006   3.991
 1726SOL    HW1 6077   5.516   3.940   4.019
 1726SOL    HW2 6078   5.629   3.975   3.906
 1727SOL     OW 6079   3.785   3.645   2.923
 1727SOL    HW1 6080   3.720   3.592   2.869
 1727SOL    HW2 6081   3.836   3.583   2.984
 1728SOL     OW 6082   4.782   4.145   5.370
 1728SOL    HW1 6083   4.786   4.182   5.278
 1728SOL    HW2 6084   4.691   4.108   5.388
 1729SOL     OW 6085   0.903   3.807   2.963
 1729SOL    HW1 6086   0.818   3.783   2.915
 1729SOL    HW2 6087   0.962   3.727   2.967
 1730SOL     OW 6088   3.286   6.131   5.238
 1730SOL    HW1 6089   3.357   6.062   5.252
 1730SOL    HW2 6090   3.275   6.185   5.322
 1731SOL     OW 6091   5.637   5.048   3.969
 1731SOL    HW1 6092   5.726   5.064   3.925
 1731SOL    HW2 6093   5.647   4.981   4.042
 1732SOL     OW 6094   1.710   4.430   6.542
 1732SOL    HW1 6095   1.789   4.490   6.526
 1732SOL    HW2 6096   1.636   4.483   6.582
 1733SOL     OW 6097   2.369   4.280   1.231
 1733SOL    HW1 6098   2.410   4.258   1.319
 1733SOL    HW2 6099   2.310   4.361   1.241
 1734SOL     OW 6100   5.598   2.832   1.011
 1734SOL    HW1 6101   5.589   2.797   1.104
 1734SOL    HW2 6102   5.508   2.835   0.967
 1735SOL     OW 6103   4.479   5.732   6.458
 1735SOL    HW1 6104   4.537   5.795   6.405
 1735SOL    HW2 6105   4.535   5.659   6.495
 1736SOL     OW 6106   4.416   3.886   0.957
 1736SOL    HW1 6107   4.471   3.910   0.877
 1736SOL    HW2 6108   4.381   3.970   0.999
 1737SOL     OW 6109   5.233   0.603   4.386
 1737SOL    HW1 6110   5.190   0.558   4.464
 1737SOL    HW2 6111   5.165   0.661   4.340
 1738SOL     OW 6112   2.037   3.771   4.580
 1738SOL    HW1 6113   2.075   3.679   4.584
 1738SOL    HW2 6114   1.991   3.793   4.666
 1739SOL     OW 6115   6.107   0.445   4.345
 1739SOL    HW1 6116   6.192   0.495   4.357
 1739SOL    HW2 6117   6.123   0.348   4.363
 1740SOL     OW 6118   6.996   2.040   4.908
 1740SOL    HW1 6119   0.034   1.995   4.845
 1740SOL    HW2 6120   6.906   2.050   4.865
 1741SOL     OW 6121   2.192   1.579   3.351
 1741SOL    HW1 6122   2.173   1.500   3.410
 1741SOL    HW2 6123   2.115   1.643   3.355
 1742SOL     OW 6124   5.736   1.221   6.209
 1742SOL    HW1 6125   5.824   1.255   6.174
 1742SOL    HW2 6126   5.744   1.124   6.230
 1743SOL     OW 6127   1.175   1.048   2.993
 1743SOL    HW1 6128   1.086   1.005   3.008
 1743SOL    HW2 6129   1.201   1.037   2.897
 1744SOL     OW 6130   5.215   2.716   3.184
 1744SOL    HW1 6131   5.256   2.640   3.236
 1744SOL    HW2 6132   5.138   2.753   3.235
 1745SOL     OW 6133   6.350   6.341   1.671
 1745SOL    HW1 6134   6.317   6.435   1.671
 1745SOL    HW2 6135   6.361   6.309   1.765
 1746SOL     OW 6136   2.046   3.616   3.996
 1746SOL    HW1 6137   2.087   3.524   3.996
 1746SOL    HW2 6138   2.063   3.660   3.909
 1747SOL     OW 6139   3.926   1.257   2.045
 1747SOL    HW1 6140   3.915   1.328   2.114
 1747SOL    HW2 6141   3.882   1.285   1.960
 1748SOL     OW 6142   6.289   1.276   4.508
 1748SOL    HW1 6143   6.208   1.271   4.449
 1748SOL    HW2 6144   6.355   1.207   4.479
 1749SOL     OW 6145   3.174   6.370   0.356
 1749SOL    HW1 6146   3.234   6.350   0.434
 1749SOL    HW2 6147   3.083   6.393   0.390
 1750SOL     OW 6148   3.868   0.185   4.978
 1750SOL    HW1 6149   3.960   0.219   4.994
 1750SOL    HW2 6150   3.819   0.178   5.065
 1751SOL     OW 6151   5.999   2.383   4.706
 1751SOL    HW1 6152   6.090   2.347   4.727
 1751SOL    HW2 6153   5.951   2.320   4.646
 1752SOL     OW 6154   6.416   1.179   1.406
 1752SOL    HW1 6155   6.491   1.129   1.363
 1752SOL    HW2 6156   6.410   1.271   1.367
 1753SOL     OW 6157   6.813   1.537   1.757
 1753SOL    HW1 6158   6.788   1.560   1.851
 1753SOL    HW2 6159   6.746   1.472   1.720
 1754SOL     OW 6160   2.317   5.799   5.940
 1754SOL    HW1 6161   2.338   5.708   5.904
 1754SOL    HW2 6162   2.300   5.792   6.039
 1755SOL     OW 6163   6.420   6.227   5.510
 1755SOL    HW1 6164   6.452   6.316   5.480
 1755SOL    HW2 6165   6.342   6.238   5.571
 1756SOL     OW 6166   4.451   0.023   6.283
 1756SOL    HW1 6167   4.450   0.093   6.354
 1756SOL    HW2 6168   4.539   7.001   6.284
 1757SOL     OW 6169   2.746   4.940   4.326
 1757SOL    HW1 6170   2.764   5.038   4.330
 1757SOL    HW2 6171   2.649   4.924   4.309
 1758SOL     OW 6172   1.496   0.056   5.094
 1758SOL    HW1 6173   1.487   0.154   5.076
 1758SOL    HW2 6174   1.496   0.006   5.008
 1759SOL     OW 6175   1.317   6.350   5.705
 1759SOL    HW1 6176   1.410   6.343   5.740
 1759SOL    HW2 6177   1.320   6.373   5.607
 1760SOL     OW 6178   6.092   1.139   5.210
 1760SOL    HW1 6179   6.106   1.136   5.111
 1760SOL    HW2 6180   6.180   1.135   5.256
 1761SOL     OW 6181   7.000   1.024   0.810
 1761SOL    HW1 6182   6.936   1.100   0.801
 1761SOL    HW2 6183   0.064   1.058   0.842
 1762SOL     OW 6184   0.558   1.265   5.019
 1762SOL    HW1 6185   0.518   1.237   4.932
 1762SOL    HW2 6186   0.580   1.362   5.015
 1763SOL     OW 6187   0.965   4.445   4.894
 1763SOL    HW1 6188   0.975   4.415   4.799
 1763SOL    HW2 6189   1.015   4.530   4.908
 1764SOL     OW 6190   0.972   3.750   2.268
 1764SOL    HW1 6191   1.044   3.705   2.321
 1764SOL    HW2 6192   0.884   3.705   2.286
 1765SOL     OW 6193   4.491   2.617   1.762
 1765SOL    HW1 6194   4.533   2.528   1.780
 1765SOL    HW2 6195   4.560   2.689   1.773
 1766SOL     OW 6196   5.125   4.260   4.147
 1766SOL    HW1 6197   5.167   4.350   4.141
 1766SOL    HW2 6198   5.103   4.226   4.056
 1767SOL     OW 6199   0.608   5.034   2.588
 1767SOL    HW1 6200   0.580   5.039   2.493
 1767SOL    HW2 6201   0.540   5.079   2.646
 1768SOL     OW 6202   4.449   0.424   1.070
 1768SOL    HW1 6203   4.371   0.438   1.131
 1768SOL    HW2 6204   4.417   0.388   0.982
 1769SOL     OW 6205   6.007   0.878   6.778
 1769SOL    HW1 6206   5.945   0.948   6.813
 1769SOL    HW2 6207   6.075   0.855   6.848
 1770SOL     OW 6208   0.720   4.451   5.653
 1770SOL    HW1 6209   0.747   4.434   5.558
 1770SOL    HW2 6210   0.802   4.453   5.711
 1771SOL     OW 6211   1.053   4.877   0.365
 1771SOL    HW1 6212   1.022   4.783   0.349
 1771SOL    HW2 6213   1.120   4.878   0.439
 1772SOL     OW 6214   3.911   5.143   3.819
 1772SOL    HW1 6215   3.863   5.183   3.896
 1772SOL    HW2 6216   3.997   5.103   3.850
 1773SOL     OW 6217   1.165   1.101   4.894
 1773SOL    HW1 6218   1.218   1.072   4.974
 1773SOL    HW2 6219   1.133   1.195   4.909
 1774SOL     OW 6220   5.826   6.969   2.177
 1774SOL    HW1 6221   5.734   6.974   2.215
 1774SOL    HW2 6222   5.892   6.996   2.247
 1775SOL     OW 6223   2.247   5.345   5.987
 1775SOL    HW1 6224   2.314   5.275   6.013
 1775SOL    HW2 6225   2.163   5.331   6.040
 1776SOL     OW 6226   4.931   0.828   5.700
 1776SOL    HW1 6227   4.986   0.904   5.666
 1776SOL    HW2 6228   4.867   0.799   5.629
 1777SOL     OW 6229   4.013   6.815   6.391
 1777SOL    HW1 6230   3.980   6.769   6.474
 1777SOL    HW2 6231   3.970   6.773   6.311
 1778SOL     OW 6232   5.097   0.981   4.409
 1778SOL    HW1 6233   5.010   1.029   4.424
 1778SOL    HW2 6234   5.157   1.039   4.354
 1779SOL     OW 6235   5.183   6.949   5.071
 1779SOL    HW1 6236   5.129   6.865   5.070
 1779SOL    HW2 6237   5.195   6.982   4.977
 1780SOL     OW 6238   1.706   5.282   4.544
 1780SOL    HW1 6239   1.656   5.206   4.586
 1780SOL    HW2 6240   1.804   5.268   4.557
 1781SOL     OW 6241   4.670   6.816   4.878
 1781SOL    HW1 6242   4.619   6.879   4.937
 1781SOL    HW2 6243   4.626   6.809   4.789
 1782SOL     OW 6244   1.634   1.449   2.843
 1782SOL    HW1 6245   1.653   1.521   2.909
 1782SOL    HW2 6246   1.595   1.370   2.890
 1783SOL     OW 6247   2.386   3.590   6.096
 1783SOL    HW1 6248   2.401   3.501   6.053
 1783SOL    HW2 6249   2.467   3.617   6.147
 1784SOL     OW 6250   2.426   0.605   1.398
 1784SOL    HW1 6251   2.518   0.578   1.371
 1784SOL    HW2 6252   2.416   0.595   1.497
 1785SOL     OW 6253   0.099   6.410   4.205
 1785SOL    HW1 6254   0.075   6.456   4.291
 1785SOL    HW2 6255   0.158   6.470   4.150
 1786SOL     OW 6256   1.688   5.376   0.629
 1786SOL    HW1 6257   1.672   5.411   0.722
 1786SOL    HW2 6258   1.781   5.341   0.623
 1787SOL     OW 6259   1.043   2.222   5.256
 1787SOL    HW1 6260   1.092   2.299   5.297
 1787SOL    HW2 6261   0.989   2.255   5.178
 1788SOL     OW 6262   4.752   3.738   0.642
 1788SOL    HW1 6263   4.679   3.769   0.581
 1788SOL    HW2 6264   4.839   3.740   0.594
 1789SOL     OW 6265   6.455   3.407   1.969
 1789SOL    HW1 6266   6.493   3.345   1.900
 1789SOL    HW2 6267   6.442   3.497   1.929
 1790SOL     OW 6268   3.171   1.763   4.763
 1790SOL    HW1 6269   3.213   1.730   4.848
 1790SOL    HW2 6270   3.108   1.839   4.784
 1791SOL     OW 6271   6.065   0.881   3.961
 1791SOL    HW1 6272   6.024   0.798   3.999
 1791SOL    HW2 6273   6.024   0.961   4.004
 1792SOL     OW 6274   6.866   1.720   5.102
 1792SOL    HW1 6275   6.791   1.675   5.150
 1792SOL    HW2 6276   6.830   1.799   5.051
 1793SOL     OW 6277   6.878   1.141   5.189
 1793SOL    HW1 6278   6.839   1.180   5.105
 1793SOL    HW2 6279   6.824   1.062   5.217
 1794SOL     OW 6280   6.193   0.364   6.749
 1794SOL    HW1 6281   6.285   0.394   6.775
 1794SOL    HW2 6282   6.197   0.321   6.658
 1795SOL     OW 6283   5.652   4.827   6.850
 1795SOL    HW1 6284   5.597   4.899   6.892
 1795SOL    HW2 6285   5.610   4.798   6.764
 1796SOL     OW 6286   1.775   0.865   5.934
 1796SOL    HW1 6287   1.801   0.938   5.870
 1796SOL    HW2 6288   1.787   0.776   5.890
 1797SOL     OW 6289   1.822   6.997   4.945
 1797SOL    HW1 6290   1.750   0.020   4.895
 1797SOL    HW2 6291   1.781   6.932   5.009
 1798SOL     OW 6292   3.779   3.086   4.512
 1798SOL    HW1 6293   3.681   3.070   4.522
 1798SOL    HW2 6294   3.817   3.116   4.599
 1799SOL     OW 6295   3.598   0.769   6.673
 1799SOL    HW1 6296   3.568   0.864   6.668
 1799SOL    HW2 6297   3.692   0.766   6.708
 1800SOL     OW 6298   4.984   4.491   3.902
 1800SOL    HW1 6299   4.889   4.466   3.919
 1800SOL    HW2 6300   4.993   4.591   3.904
 1801SOL     OW 6301   1.287   1.198   1.673
 1801SOL    HW1 6302   1.318   1.267   1.608
 1801SOL    HW2 6303   1.294   1.107   1.630
 1802SOL     OW 6304   6.445   5.231   3.457
 1802SOL    HW1 6305   6.496   5.298   3.512
 1802SOL    HW2 6306   6.401   5.277   3.380
 1803SOL     OW 6307   0.189   6.569   2.661
 1803SOL    HW1 6308   0.129   6.556   2.582
 1803SOL    HW2 6309   0.218   6.480   2.695
 1804SOL     OW 6310   3.060   3.576   6.159
 1804SOL    HW1 6311   3.058   3.511   6.084
 1804SOL    HW2 6312   3.088   3.529   6.243
 1805SOL     OW 6313   0.915   6.624   5.956
 1805SOL    HW1 6314   0.995   6.572   5.927
 1805SOL    HW2 6315   0.867   6.575   6.030
 1806SOL     OW 6316   6.946   2.370   2.355
 1806SOL    HW1 6317   6.879   2.391   2.284
 1806SOL    HW2 6318   6.958   2.271   2.362
 1807SOL     OW 6319   6.484   3.640   0.599
 1807SOL    HW1 6320   6.533   3.596   0.673
 1807SOL    HW2 6321   6.394   3.670   0.631
 1808SOL     OW 6322   5.400   2.523   5.324
 1808SOL    HW1 6323   5.389   2.600   5.387
 1808SOL    HW2 6324   5.339   2.449   5.352
 1809SOL     OW 6325   3.323   1.878   5.420
 1809SOL    HW1 6326   3.260   1.935   5.368
 1809SOL    HW2 6327   3.369   1.934   5.490
 1810SOL     OW 6328   0.368   0.425   4.179
 1810SOL    HW1 6329   0.319   0.472   4.105
 1810SOL    HW2 6330   0.398   0.492   4.247
 1811SOL     OW 6331   4.200   5.049   2.086
 1811SOL    HW1 6332   4.116   5.089   2.051
 1811SOL    HW2 6333   4.190   4.949   2.091
 1812SOL     OW 6334   4.094   0.209   5.966
 1812SOL    HW1 6335   4.157   0.270   6.014
 1812SOL    HW2 6336   4.126   0.193   5.873
 1813SOL     OW 6337   4.831   4.495   2.447
 1813SOL    HW1 6338   4.896   4.419   2.456
 1813SOL    HW2 6339   4.740   4.465   2.476
 1814SOL     OW 6340   0.072   7.007   0.757
 1814SOL    HW1 6341   0.073   0.035   0.842
 1814SOL    HW2 6342   0.155   6.951   0.751
 1815SOL     OW 6343   5.630   5.999   2.001
 1815SOL    HW1 6344   5.567   6.076   2.014
 1815SOL    HW2 6345   5.669   6.003   1.910
 1816SOL     OW 6346   4.615   6.260   5.471
 1816SOL    HW1 6347   4.590   6.277   5.567
 1816SOL    HW2 6348   4.535   6.273   5.413
 1817SOL     OW 6349   3.094   1.495   3.004
 1817SOL    HW1 6350   3.133   1.446   2.926
 1817SOL    HW2 6351   3.035   1.568   2.972
 1818SOL     OW 6352   1.954   6.690   0.104
 1818SOL    HW1 6353   1.973   6.597   0.135
 1818SOL    HW2 6354   1.956   6.752   0.183
 1819SOL     OW 6355   0.686   4.578   2.427
 1819SOL    HW1 6356   0.737   4.656   2.463
 1819SOL    HW2 6357   0.670   4.511   2.499
 1820SOL     OW 6358   3.772   0.313   2.979
 1820SOL    HW1 6359   3.729   0.324   3.069
 1820SOL    HW2 6360   3.856   0.259   2.989
 1821SOL     OW 6361   3.195   0.997   2.253
 1821SOL    HW1 6362   3.225   1.019   2.160
 1821SOL    HW2 6363   3.103   0.957   2.249
 1822SOL     OW 6364   1.546   3.223   2.049
 1822SOL    HW1 6365   1.601   3.176   1.981
 1822SOL    HW2 6366   1.456   3.179   2.056
 1823SOL     OW 6367   3.594   6.675   2.883
 1823SOL    HW1 6368   3.615   6.693   2.979
 1823SOL    HW2 6369   3.601   6.577   2.866
 1824SOL     OW 6370   4.647   4.051   1.063
 1824SOL    HW1 6371   4.608   4.140   1.084
 1824SOL    HW2 6372   4.657   3.999   1.148
 1825SOL     OW 6373   1.250   2.717   5.066
 1825SOL    HW1 6374   1.236   2.676   4.976
 1825SOL    HW2 6375   1.334   2.681   5.106
 1826SOL     OW 6376   3.761   1.401   1.445
 1826SOL    HW1 6377   3.695   1.329   1.465
 1826SOL    HW2 6378   3.767   1.464   1.522
 1827SOL     OW 6379   5.175   5.083   0.763
 1827SOL    HW1 6380   5.149   5.060   0.670
 1827SOL    HW2 6381   5.100   5.133   0.807
 1828SOL     OW 6382   1.405   3.300   5.878
 1828SOL    HW1 6383   1.501   3.322   5.860
 1828SOL    HW2 6384   1.399   3.242   5.960
 1829SOL     OW 6385   4.050   0.604   3.637
 1829SOL    HW1 6386   4.085   0.623   3.729
 1829SOL    HW2 6387   4.022   0.508   3.631
 1830SOL     OW 6388   5.798   0.030   5.209
 1830SOL    HW1 6389   5.783   7.017   5.118
 1830SOL    HW2 6390   5.736   0.106   5.224
 1831SOL     OW 6391   5.044   5.520   2.634
 1831SOL    HW1 6392   5.104   5.584   2.682
 1831SOL    HW2 6393   4.984   5.475   2.700
 1832SOL     OW 6394   2.516   4.203   0.470
 1832SOL    HW1 6395   2.530   4.298   0.443
 1832SOL    HW2 6396   2.490   4.149   0.390
 1833SOL     OW 6397   4.902   0.071   1.366
 1833SOL    HW1 6398   4.937   0.092   1.457
 1833SOL    HW2 6399   4.974   0.089   1.298
 1834SOL     OW 6400   2.875   2.474   0.553
 1834SOL    HW1 6401   2.793   2.452   0.607
 1834SOL    HW2 6402   2.928   2.543   0.601
 1835SOL     OW 6403   0.948   4.916   1.247
 1835SOL    HW1 6404   0.854   4.890   1.271
 1835SOL    HW2 6405   1.012   4.865   1.305
 1836SOL     OW 6406   5.170   1.462   2.253
 1836SOL    HW1 6407   5.099   1.423   2.194
 1836SOL    HW2 6408   5.244   1.396   2.264
 1837SOL     OW 6409   2.320   0.890   5.795
 1837SOL    HW1 6410   2.250   0.820   5.786
 1837SOL    HW2 6411   2.329   0.917   5.891
 1838SOL     OW 6412   6.772   0.836   0.847
 1838SOL    HW1 6413   6.737   0.767   0.784
 1838SOL    HW2 6414   6.865   0.861   0.821
 1839SOL     OW 6415   6.209   1.516   0.178
 1839SOL    HW1 6416   6.214   1.613   0.203
 1839SOL    HW2 6417   6.203   1.507   0.079
 1840SOL     OW 6418   3.318   0.190   3.477
 1840SOL    HW1 6419   3.326   0.105   3.426
 1840SOL    HW2 6420   3.253   0.178   3.552
 1841SOL     OW 6421   2.077   0.016   1.875
 1841SOL    HW1 6422   2.163   0.001   1.924
 1841SOL    HW2 6423   2.079   0.106   1.831
 1842SOL     OW 6424   1.890   4.578   0.592
 1842SOL    HW1 6425   1.943   4.586   0.677
 1842SOL    HW2 6426   1.847   4.488   0.588
 1843SOL     OW 6427   3.974   1.380   4.664
 1843SOL    HW1 6428   3.880   1.362   4.636
 1843SOL    HW2 6429   4.031   1.301   4.640
 1844SOL     OW 6430   4.710   1.338   5.868
 1844SOL    HW1 6431   4.768   1.405   5.914
 1844SOL    HW2 6432   4.699   1.258   5.927
 1845SOL     OW 6433   2.360   0.785   3.268
 1845SOL    HW1 6434   2.428   0.750   3.204
 1845SOL    HW2 6435   2.388   0.763   3.362
 1846SOL     OW 6436   4.539   0.874   3.375
 1846SOL    HW1 6437   4.621   0.832   3.335
 1846SOL    HW2 6438   4.457   0.837   3.331
 1847SOL     OW 6439   2.075   0.550   4.484
 1847SOL    HW1 6440   2.170   0.537   4.456
 1847SOL    HW2 6441   2.071   0.569   4.582
 1848SOL     OW 6442   2.179   5.804   4.176
 1848SOL    HW1 6443   2.149   5.900   4.181
 1848SOL    HW2 6444   2.127   5.758   4.104
 1849SOL     OW 6445   4.801   2.904   2.607
 1849SOL    HW1 6446   4.878   2.858   2.651
 1849SOL    HW2 6447   4.739   2.940   2.678
 1850SOL     OW 6448   4.938   1.850   2.339
 1850SOL    HW1 6449   4.863   1.894   2.289
 1850SOL    HW2 6450   4.900   1.792   2.411
 1851SOL     OW 6451   0.185   2.997   6.525
 1851SOL    HW1 6452   0.267   3.037   6.567
 1851SOL    HW2 6453   0.210   2.951   6.440
 1852SOL     OW 6454   1.138   3.965   1.597
 1852SOL    HW1 6455   1.080   3.955   1.677
 1852SOL    HW2 6456   1.233   3.944   1.621
 1853SOL     OW 6457   0.294   3.223   4.911
 1853SOL    HW1 6458   0.202   3.262   4.923
 1853SOL    HW2 6459   0.342   3.273   4.839
 1854SOL     OW 6460   0.894   5.798   3.373
 1854SOL    HW1 6461   0.795   5.814   3.379
 1854SOL    HW2 6462   0.913   5.702   3.391
 1855SOL     OW 6463   5.012   3.672   4.406
 1855SOL    HW1 6464   5.052   3.736   4.471
 1855SOL    HW2 6465   4.985   3.721   4.323
 1856SOL     OW 6466   3.624   3.019   6.909
 1856SOL    HW1 6467   3.650   3.051   6.818
 1856SOL    HW2 6468   3.697   3.037   6.974
 1857SOL     OW 6469   5.278   0.807   0.387
 1857SOL    HW1 6470   5.278   0.854   0.476
 1857SOL    HW2 6471   5.184   0.787   0.360
 1858SOL     OW 6472   4.537   1.956   4.440
 1858SOL    HW1 6473   4.459   1.929   4.383
 1858SOL    HW2 6474   4.569   1.876   4.492
 1859SOL     OW 6475   5.443   1.528   4.988
 1859SOL    HW1 6476   5.480   1.609   4.941
 1859SOL    HW2 6477   5.518   1.465   5.007
 1860SOL     OW 6478   0.901   1.905   4.594
 1860SOL    HW1 6479   0.916   1.833   4.526
 1860SOL    HW2 6480   0.807   1.940   4.586
 1861SOL     OW 6481   5.715   0.920   2.921
 1861SOL    HW1 6482   5.738   0.827   2.895
 1861SOL    HW2 6483   5.782   0.983   2.882
 1862SOL     OW 6484   1.996   6.426   6.834
 1862SOL    HW1 6485   2.004   6.327   6.821
 1862SOL    HW2 6486   1.902   6.448   6.862
 1863SOL     OW 6487   0.873   2.830   0.918
 1863SOL    HW1 6488   0.802   2.819   0.988
 1863SOL    HW2 6489   0.939   2.754   0.926
 1864SOL     OW 6490   2.641   5.803   4.180
 1864SOL    HW1 6491   2.630   5.705   4.166
 1864SOL    HW2 6492   2.728   5.821   4.226
 1865SOL     OW 6493   4.787   1.781   0.748
 1865SOL    HW1 6494   4.867   1.834   0.775
 1865SOL    HW2 6495   4.773   1.706   0.813
 1866SOL     OW 6496   0.041   4.103   4.470
 1866SOL    HW1 6497   6.974   4.135   4.446
 1866SOL    HW2 6498   0.045   4.085   4.569
 1867SOL     OW 6499   2.596   2.590   1.329
 1867SOL    HW1 6500   2.681   2.544   1.353
 1867SOL    HW2 6501   2.547   2.536   1.260
 1868SOL     OW 6502   4.861   3.960   4.650
 1868SOL    HW1 6503   4.951   3.928   4.620
 1868SOL    HW2 6504   4.803   3.882   4.672
 1869SOL     OW 6505   4.838   1.961   3.993
 1869SOL    HW1 6506   4.845   2.008   4.081
 1869SOL    HW2 6507   4.751   1.912   3.989
 1870SOL     OW 6508   1.368   4.162   3.908
 1870SOL    HW1 6509   1.301   4.231   3.936
 1870SOL    HW2 6510   1.351   4.135   3.814
 1871SOL     OW 6511   0.726   6.992   0.522
 1871SOL    HW1 6512   0.637   0.012   0.524
 1871SOL    HW2 6513   0.747   6.965   0.428
 1872SOL     OW 6514   3.299   2.335   0.121
 1872SOL    HW1 6515   3.299   2.240   0.153
 1872SOL    HW2 6516   3.379   2.383   0.157
 1873SOL     OW 6517   6.443   0.886   0.193
 1873SOL    HW1 6518   6.395   0.935   0.120
 1873SOL    HW2 6519   6.414   0.923   0.282
 1874SOL     OW 6520   0.780   0.028   6.510
 1874SOL    HW1 6521   0.865   0.023   6.563
 1874SOL    HW2 6522   0.775   6.974   6.448
 1875SOL     OW 6523   6.273   5.785   0.054
 1875SOL    HW1 6524   6.268   5.689   0.027
 1875SOL    HW2 6525   6.363   5.821   0.033
 1876SOL     OW 6526   5.547   6.807   6.013
 1876SOL    HW1 6527   5.540   6.900   5.978
 1876SOL    HW2 6528   5.474   6.750   5.975
 1877SOL     OW 6529   0.524   0.661   2.089
 1877SOL    HW1 6530   0.594   0.601   2.048
 1877SOL    HW2 6531   0.553   0.689   2.180
 1878SOL     OW 6532   0.479   4.143   2.945
 1878SOL    HW1 6533   0.397   4.198   2.962
 1878SOL    HW2 6534   0.503   4.149   2.848
 1879SOL     OW 6535   2.301   5.614   4.753
 1879SOL    HW1 6536   2.375   5.650   4.697
 1879SOL    HW2 6537   2.339   5.561   4.829
 1880SOL     OW 6538   0.123   2.713   2.980
 1880SOL    HW1 6539   0.197   2.670   3.032
 1880SOL    HW2 6540   0.045   2.727   3.041
 1881SOL     OW 6541   1.229   1.961   3.185
 1881SOL    HW1 6542   1.266   1.884   3.237
 1881SOL    HW2 6543   1.143   1.935   3.143
 1882SOL     OW 6544   1.261   5.705   0.218
 1882SOL    HW1 6545   1.300   5.649   0.292
 1882SOL    HW2 6546   1.283   5.801   0.233
 1883SOL     OW 6547   1.236   4.056   2.327
 1883SOL    HW1 6548   1.266   4.152   2.327
 1883SOL    HW2 6549   1.177   4.040   2.406
 1884SOL     OW 6550   3.810   0.925   0.225
 1884SOL    HW1 6551   3.888   0.904   0.166
 1884SOL    HW2 6552   3.725   0.903   0.177
 1885SOL     OW 6553   6.955   2.304   0.861
 1885SOL    HW1 6554   6.871   2.253   0.875
 1885SOL    HW2 6555   7.013   2.295   0.942
 1886SOL     OW 6556   2.085   1.666   6.511
 1886SOL    HW1 6557   2.100   1.667   6.610
 1886SOL    HW2 6558   2.004   1.720   6.489
 1887SOL     OW 6559   0.292   4.932   5.665
 1887SOL    HW1 6560   0.248   4.858   5.613
 1887SOL    HW2 6561   0.377   4.958   5.620
 1888SOL     OW 6562   1.962   1.867   5.364
 1888SOL    HW1 6563   1.929   1.793   5.306
 1888SOL    HW2 6564   1.957   1.838   5.460
 1889SOL     OW 6565   4.751   3.479   0.464
 1889SOL    HW1 6566   4.761   3.438   0.554
 1889SOL    HW2 6567   4.783   3.574   0.467
 1890SOL     OW 6568   0.756   6.191   6.090
 1890SOL    HW1 6569   0.819   6.254   6.136
 1890SOL    HW2 6570   0.780   6.184   5.994
 1891SOL     OW 6571   5.945   3.370   5.748
 1891SOL    HW1 6572   5.948   3.290   5.809
 1891SOL    HW2 6573   6.032   3.377   5.699
 1892SOL     OW 6574   3.920   6.043   1.239
 1892SOL    HW1 6575   3.954   5.949   1.242
 1892SOL    HW2 6576   3.894   6.065   1.145
 1893SOL     OW 6577   3.732   1.992   4.380
 1893SOL    HW1 6578   3.697   2.003   4.473
 1893SOL    HW2 6579   3.829   2.018   4.378
 1894SOL     OW 6580   4.389   3.956   1.645
 1894SOL    HW1 6581   4.451   3.946   1.567
 1894SOL    HW2 6582   4.417   4.035   1.700
 1895SOL     OW 6583   6.079   1.528   2.679
 1895SOL    HW1 6584   6.069   1.493   2.772
 1895SOL    HW2 6585   5.993   1.569   2.649
 1896SOL     OW 6586   6.010   1.449   4.365
 1896SOL    HW1 6587   6.090   1.504   4.342
 1896SOL    HW2 6588   6.030   1.352   4.352
 1897SOL     OW 6589   6.159   5.415   3.643
 1897SOL    HW1 6590   6.230   5.438   3.709
 1897SOL    HW2 6591   6.169   5.472   3.561
 1898SOL     OW 6592   5.517   5.679   1.301
 1898SOL    HW1 6593   5.483   5.686   1.207
 1898SOL    HW2 6594   5.478   5.754   1.356
 1899SOL     OW 6595   0.145   3.620   3.043
 1899SOL    HW1 6596   0.222   3.557   3.044
 1899SOL    HW2 6597   0.178   3.713   3.030
 1900SOL     OW 6598   1.562   6.504   6.560
 1900SOL    HW1 6599   1.634   6.565   6.527
 1900SOL    HW2 6600   1.529   6.537   6.649
 1901SOL     OW 6601   1.859   0.803   6.816
 1901SOL    HW1 6602   1.850   0.847   6.726
 1901SOL    HW2 6603   1.954   0.808   6.846
 1902SOL     OW 6604   1.287   2.543   4.142
 1902SOL    HW1 6605   1.294   2.464   4.203
 1902SOL    HW2 6606   1.250   2.621   4.193
 1903SOL     OW 6607   6.228   5.080   3.837
 1903SOL    HW1 6608   6.238   4.982   3.853
 1903SOL    HW2 6609   6.195   5.095   3.744
 1904SOL     OW 6610   0.419   0.225   4.680
 1904SOL    HW1 6611   0.490   0.235   4.749
 1904SOL    HW2 6612   0.461   0.210   4.590
 1905SOL     OW 6613   6.827   2.042   3.841
 1905SOL    HW1 6614   6.841   2.101   3.920
 1905SOL    HW2 6615   6.785   2.095   3.767
 1906SOL     OW 6616   2.605   0.187   5.941
 1906SOL    HW1 6617   2.637   0.092   5.947
 1906SOL    HW2 6618   2.661   0.244   6.001
 1907SOL     OW 6619   2.787   0.294   3.275
 1907SOL    HW1 6620   2.765   0.294   3.373
 1907SOL    HW2 6621   2.879   0.330   3.262
 1908SOL     OW 6622   4.421   1.035   5.763
 1908SOL    HW1 6623   4.510   1.006   5.798
 1908SOL    HW2 6624   4.384   0.963   5.704
 1909SOL     OW 6625   2.760   4.715   4.733
 1909SOL    HW1 6626   2.815   4.676   4.808
 1909SOL    HW2 6627   2.670   4.673   4.733
 1910SOL     OW 6628   5.201   2.395   6.686
 1910SOL    HW1 6629   5.267   2.470   6.691
 1910SOL    HW2 6630   5.161   2.380   6.776
 1911SOL     OW 6631   6.617   2.344   5.169
 1911SOL    HW1 6632   6.545   2.414   5.178
 1911SOL    HW2 6633   6.593   2.281   5.096
 1912SOL     OW 6634   3.308   6.623   2.317
 1912SOL    HW1 6635   3.247   6.686   2.366
 1912SOL    HW2 6636   3.256   6.575   2.246
 1913SOL     OW 6637   2.077   6.238   5.114
 1913SOL    HW1 6638   2.063   6.270   5.020
 1913SOL    HW2 6639   2.174   6.248   5.138
 1914SOL     OW 6640   2.258   2.876   6.366
 1914SOL    HW1 6641   2.331   2.858   6.432
 1914SOL    HW2 6642   2.210   2.790   6.346
 1915SOL     OW 6643   3.778   0.584   6.280
 1915SOL    HW1 6644   3.772   0.565   6.378
 1915SOL    HW2 6645   3.700   0.543   6.233
 1916SOL     OW 6646   4.301   5.783   1.017
 1916SOL    HW1 6647   4.381   5.840   1.032
 1916SOL    HW2 6648   4.328   5.697   0.974
 1917SOL     OW 6649   3.730   4.174   4.694
 1917SOL    HW1 6650   3.728   4.127   4.782
 1917SOL    HW2 6651   3.792   4.252   4.700
 1918SOL     OW 6652   6.017   6.357   6.325
 1918SOL    HW1 6653   6.024   6.328   6.230
 1918SOL    HW2 6654   5.944   6.306   6.371
 1919SOL     OW 6655   0.944   6.055   2.460
 1919SOL    HW1 6656   1.010   6.028   2.390
 1919SOL    HW2 6657   0.991   6.068   2.547
 1920SOL     OW 6658   0.969   4.449   3.455
 1920SOL    HW1 6659   0.965   4.353   3.430
 1920SOL    HW2 6660   0.901   4.500   3.402
 1921SOL     OW 6661   0.836   5.838   6.950
 1921SOL    HW1 6662   0.765   5.886   7.002
 1921SOL    HW2 6663   0.882   5.772   7.009
 1922SOL     OW 6664   4.174   3.484   1.598
 1922SOL    HW1 6665   4.082   3.445   1.598
 1922SOL    HW2 6666   4.203   3.501   1.504
 1923SOL     OW 6667   2.779   1.348   0.600
 1923SOL    HW1 6668   2.715   1.414   0.560
 1923SOL    HW2 6669   2.771   1.350   0.700
 1924SOL     OW 6670   6.649   4.324   2.147
 1924SOL    HW1 6671   6.630   4.244   2.204
 1924SOL    HW2 6672   6.734   4.367   2.177
 1925SOL     OW 6673   3.053   4.005   1.944
 1925SOL    HW1 6674   3.148   3.992   1.915
 1925SOL    HW2 6675   3.036   3.951   2.026
 1926SOL     OW 6676   1.571   0.726   4.462
 1926SOL    HW1 6677   1.519   0.656   4.412
 1926SOL    HW2 6678   1.518   0.810   4.466
 1927SOL     OW 6679   4.027   3.585   6.928
 1927SOL    HW1 6680   3.937   3.551   6.899
 1927SOL    HW2 6681   4.095   3.562   6.859
 1928SOL     OW 6682   6.598   3.398   5.957
 1928SOL    HW1 6683   6.505   3.430   5.973
 1928SOL    HW2 6684   6.647   3.464   5.901
 1929SOL     OW 6685   1.490   5.747   2.149
 1929SOL    HW1 6686   1.557   5.818   2.172
 1929SOL    HW2 6687   1.474   5.746   2.050
 1930SOL     OW 6688   6.069   4.557   6.928
 1930SOL    HW1 6689   5.971   4.565   6.943
 1930SOL    HW2 6690   6.093   4.601   6.841
 1931SOL     OW 6691   6.931   3.717   3.110
 1931SOL    HW1 6692   6.908   3.713   3.207
 1931SOL    HW2 6693   0.002   3.690   3.096
 1932SOL     OW 6694   5.034   3.827   2.472
 1932SOL    HW1 6695   5.008   3.857   2.380
 1932SOL    HW2 6696   5.107   3.759   2.465
 1933SOL     OW 6697   2.897   4.875   0.832
 1933SOL    HW1 6698   2.868   4.789   0.874
 1933SOL    HW2 6699   2.939   4.934   0.901
 1934SOL     OW 6700   1.470   6.845   5.674
 1934SOL    HW1 6701   1.465   6.941   5.647
 1934SOL    HW2 6702   1.384   6.817   5.716
 1935SOL     OW 6703   2.757   0.207   4.700
 1935SOL    HW1 6704   2.825   0.220   4.773
 1935SOL    HW2 6705   2.723   0.113   4.702
 1936SOL     OW 6706   5.433   5.786   4.919
 1936SOL    HW1 6707   5.383   5.848   4.978
 1936SOL    HW2 6708   5.380   5.769   4.835
 1937SOL     OW 6709   3.831   6.519   1.616
 1937SOL    HW1 6710   3.814   6.483   1.524
 1937SOL    HW2 6711   3.842   6.443   1.680
 1938SOL     OW 6712   3.687   1.434   3.450
 1938SOL    HW1 6713   3.608   1.494   3.443
 1938SOL    HW2 6714   3.657   1.339   3.448
 1939SOL     OW 6715   0.922   0.796   3.791
 1939SOL    HW1 6716   1.010   0.842   3.804
 1939SOL    HW2 6717   0.936   0.697   3.793
 1940SOL     OW 6718   5.011   5.620   6.644
 1940SOL    HW1 6719   5.096   5.671   6.630
 1940SOL    HW2 6720   4.944   5.679   6.689
 1941SOL     OW 6721   6.724   4.741   3.460
 1941SOL    HW1 6722   6.649   4.705   3.515
 1941SOL    HW2 6723   6.731   4.840   3.474
 1942SOL     OW 6724   5.631   5.620   2.085
 1942SOL    HW1 6725   5.713   5.664   2.051
 1942SOL    HW2 6726   5.588   5.566   2.013
 1943SOL     OW 6727   3.023   5.306   2.461
 1943SOL    HW1 6728   3.013   5.261   2.372
 1943SOL    HW2 6729   3.117   5.340   2.470
 1944SOL     OW 6730   4.974   1.712   6.858
 1944SOL    HW1 6731   4.908   1.637   6.856
 1944SOL    HW2 6732   4.928   1.798   6.833
 1945SOL     OW 6733   4.776   5.653   3.008
 1945SOL    HW1 6734   4.724   5.567   3.010
 1945SOL    HW2 6735   4.789   5.682   2.914
 1946SOL     OW 6736   1.023   1.020   0.777
 1946SOL    HW1 6737   1.110   1.044   0.734
 1946SOL    HW2 6738   1.029   1.039   0.875
 1947SOL     OW 6739   4.970   6.455   4.709
 1947SOL    HW1 6740   4.992   6.428   4.803
 1947SOL    HW2 6741   5.054   6.466   4.657
 1948SOL     OW 6742   6.952   5.766   4.674
 1948SOL    HW1 6743   7.021   5.702   4.708
 1948SOL    HW2 6744   6.863   5.742   4.711
 1949SOL     OW 6745   4.252   4.038   5.873
 1949SOL    HW1 6746   4.333   4.013   5.925
 1949SOL    HW2 6747   4.170   4.008   5.921
 1950SOL     OW 6748   3.736   3.462   0.357
 1950SOL    HW1 6749   3.813   3.522   0.378
 1950SOL    HW2 6750   3.753   3.371   0.396
 1951SOL     OW 6751   6.394   2.744   0.431
 1951SOL    HW1 6752   6.307   2.708   0.397
 1951SOL    HW2 6753   6.394   2.741   0.531
 1952SOL     OW 6754   3.588   2.510   0.465
 1952SOL    HW1 6755   3.578   2.421   0.420
 1952SOL    HW2 6756   3.572   2.582   0.397
 1953SOL     OW 6757   6.609   2.152   0.014
 1953SOL    HW1 6758   6.557   2.098   0.080
 1953SOL    HW2 6759   6.614   2.247   0.045
 1954SOL     OW 6760   5.326   2.005   3.930
 1954SOL    HW1 6761   5.302   1.974   4.022
 1954SOL    HW2 6762   5.318   2.105   3.925
 1955SOL     OW 6763   1.541   0.032   1.958
 1955SOL    HW1 6764   1.593   0.117   1.949
 1955SOL    HW2 6765   1.568   6.994   1.885
 1956SOL     OW 6766   5.435   6.293   2.859
 1956SOL    HW1 6767   5.465   6.313   2.952
 1956SOL    HW2 6768   5.394   6.375   2.819
 1957SOL     OW 6769   6.804   5.579   5.015
 1957SOL    HW1 6770   6.796   5.650   5.085
 1957SOL    HW2 6771   6.757   5.608   4.932
 1958SOL     OW 6772   6.398   3.313   4.357
 1958SOL    HW1 6773   6.349   3.330   4.272
 1958SOL    HW2 6774   6.362   3.373   4.429
 1959SOL     OW 6775   0.698   2.892   5.605
 1959SOL    HW1 6776   0.610   2.850   5.625
 1959SOL    HW2 6777   0.689   2.950   5.524
 1960SOL     OW 6778   6.802   4.625   1.266
 1960SOL    HW1 6779   6.824   4.553   1.200
 1960SOL    HW2 6780   6.772   4.707   1.217
 1961SOL     OW 6781   5.463   4.397   4.729
 1961SOL    HW1 6782   5.370   4.429   4.742
 1961SOL    HW2 6783   5.525   4.452   4.785
 1962SOL     OW 6784   1.343   6.142   3.823
 1962SOL    HW1 6785   1.440   6.124   3.837
 1962SOL    HW2 6786   1.290   6.097   3.894
 1963SOL     OW 6787   1.005   0.378   2.085
 1963SOL    HW1 6788   1.057   0.411   2.163
 1963SOL    HW2 6789   0.979   0.455   2.026
 1964SOL     OW 6790   4.450   2.359   1.553
 1964SOL    HW1 6791   4.517   2.379   1.625
 1964SOL    HW2 6792   4.455   2.430   1.482
 1965SOL     OW 6793   0.779   2.755   2.898
 1965SOL    HW1 6794   0.871   2.777   2.865
 1965SOL    HW2 6795   0.747   2.672   2.854
 1966SOL     OW 6796   0.762   5.208   5.279
 1966SOL    HW1 6797   0.852   5.205   5.322
 1966SOL    HW2 6798   0.707   5.281   5.320
 1967SOL     OW 6799   4.746   1.930   6.155
 1967SOL    HW1 6800   4.752   1.858   6.085
 1967SOL    HW2 6801   4.697   2.009   6.117
 1968SOL     OW 6802   3.015   6.251   0.143
 1968SOL    HW1 6803   2.970   6.318   0.083
 1968SOL    HW2 6804   3.072   6.300   0.209
 1969SOL     OW 6805   7.016   1.672   1.997
 1969SOL    HW1 6806   0.061   1.603   2.017
 1969SOL    HW2 6807   6.927   1.637   2.024
 1970SOL     OW 6808   2.698   1.052   6.069
 1970SOL    HW1 6809   2.619   1.067   6.129
 1970SOL    HW2 6810   2.667   1.050   5.974
 1971SOL     OW 6811   6.694   6.998   6.272
 1971SOL    HW1 6812   6.691   6.978   6.174
 1971SOL    HW2 6813   6.713   0.071   6.285
 1972SOL     OW 6814   0.451   3.200   3.118
 1972SOL    HW1 6815   0.423   3.105   3.107
 1972SOL    HW2 6816   0.500   3.211   3.204
 1973SOL     OW 6817   3.343   3.100   1.680
 1973SOL    HW1 6818   3.434   3.079   1.716
 1973SOL    HW2 6819   3.320   3.035   1.608
 1974SOL     OW 6820   6.127   6.180   3.942
 1974SOL    HW1 6821   6.096   6.191   4.037
 1974SOL    HW2 6822   6.083   6.249   3.885
 1975SOL     OW 6823   2.197   0.997   3.419
 1975SOL    HW1 6824   2.246   0.919   3.380
 1975SOL    HW2 6825   2.099   0.977   3.420
 1976SOL     OW 6826   0.479   5.968   0.259
 1976SOL    HW1 6827   0.514   5.952   0.166
 1976SOL    HW2 6828   0.397   6.025   0.254
 1977SOL     OW 6829   1.061   2.992   3.516
 1977SOL    HW1 6830   1.045   3.089   3.533
 1977SOL    HW2 6831   1.097   2.949   3.598
 1978SOL     OW 6832   1.746   0.826   4.263
 1978SOL    HW1 6833   1.669   0.866   4.214
 1978SOL    HW2 6834   1.713   0.783   4.347
 1979SOL     OW 6835   6.999   4.302   5.105
 1979SOL    HW1 6836   6.991   4.401   5.095
 1979SOL    HW2 6837   0.064   4.272   5.071
 1980SOL     OW 6838   3.244   6.956   0.352
 1980SOL    HW1 6839   3.275   6.888   0.418
 1980SOL    HW2 6840   3.286   0.020   0.373
 1981SOL     OW 6841   5.291   2.112   2.622
 1981SOL    HW1 6842   5.213   2.163   2.660
 1981SOL    HW2 6843   5.265   2.075   2.532
 1982SOL     OW 6844   5.964   4.655   5.017
 1982SOL    HW1 6845   5.900   4.587   5.053
 1982SOL    HW2 6846   6.054   4.642   5.058
 1983SOL     OW 6847   1.273   2.493   2.300
 1983SOL    HW1 6848   1.191   2.507   2.355
 1983SOL    HW2 6849   1.267   2.548   2.217
 1984SOL     OW 6850   4.810   1.181   5.580
 1984SOL    HW1 6851   4.781   1.272   5.610
 1984SOL    HW2 6852   4.729   1.129   5.552
 1985SOL     OW 6853   1.250   1.231   2.553
 1985SOL    HW1 6854   1.174   1.166   2.546
 1985SOL    HW2 6855   1.288   1.227   2.646
 1986SOL     OW 6856   1.291   1.558   6.975
 1986SOL    HW1 6857   1.337   1.481   7.018
 1986SOL    HW2 6858   1.359   1.624   6.944
 1987SOL     OW 6859   2.629   3.186   1.453
 1987SOL    HW1 6860   2.678   3.272   1.439
 1987SOL    HW2 6861   2.610   3.175   1.550
 1988SOL     OW 6862   5.168   4.296   0.799
 1988SOL    HW1 6863   5.167   4.261   0.705
 1988SOL    HW2 6864   5.138   4.224   0.861
 1989SOL     OW 6865   2.276   0.738   5.165
 1989SOL    HW1 6866   2.295   0.716   5.069
 1989SOL    HW2 6867   2.230   0.660   5.209
 1990SOL     OW 6868   3.091   0.159   1.531
 1990SOL    HW1 6869   3.028   0.224   1.573
 1990SOL    HW2 6870   3.076   0.156   1.432
 1991SOL     OW 6871   3.511   5.595   5.875
 1991SOL    HW1 6872   3.412   5.581   5.869
 1991SOL    HW2 6873   3.551   5.588   5.783
 1992SOL     OW 6874   2.221   6.569   6.292
 1992SOL    HW1 6875   2.291   6.631   6.326
 1992SOL    HW2 6876   2.249   6.474   6.310
 1993SOL     OW 6877   4.122   3.118   5.390
 1993SOL    HW1 6878   4.032   3.081   5.365
 1993SOL    HW2 6879   4.189   3.045   5.392
 1994SOL     OW 6880   1.667   2.211   1.583
 1994SOL    HW1 6881   1.705   2.186   1.494
 1994SOL    HW2 6882   1.568   2.220   1.576
 1995SOL     OW 6883   6.114   2.417   1.936
 1995SOL    HW1 6884   6.202   2.420   1.889
 1995SOL    HW2 6885   6.095   2.506   1.978
 1996SOL     OW 6886   2.961   3.415   0.904
 1996SOL    HW1 6887   2.950   3.329   0.854
 1996SOL    HW2 6888   2.875   3.465   0.903
 1997SOL     OW 6889   4.929   0.456   5.555
 1997SOL    HW1 6890   5.026   0.457   5.532
 1997SOL    HW2 6891   4.887   0.372   5.521
 1998SOL     OW 6892   3.201   3.772   6.023
 1998SOL    HW1 6893   3.285   3.809   6.062
 1998SOL    HW2 6894   3.161   3.706   6.086
 1999SOL     OW 6895   2.863   0.258   1.388
 1999SOL    HW1 6896   2.828   0.315   1.463
 1999SOL    HW2 6897   2.834   0.296   1.301
 2000SOL     OW 6898   4.067   1.656   5.317
 2000SOL    HW1 6899   4.006   1.619   5.387
 2000SOL    HW2 6900   4.037   1.622   5.227
 2001SOL     OW 6901   3.421   2.265   1.665
 2001SOL    HW1 6902   3.501   2.291   1.719
 2001SOL    HW2 6903   3.344   2.324   1.689
 2002SOL     OW 6904   1.203   6.113   6.197
 2002SOL    HW1 6905   1.283   6.171   6.180
 2002SOL    HW2 6906   1.233   6.021   6.223
 2003SOL     OW 6907   4.690   7.022   3.562
 2003SOL    HW1 6908   4.625   0.055   3.613
 2003SOL    HW2 6909   4.639   6.952   3.512
 2004SOL     OW 6910   4.773   1.136   4.679
 2004SOL    HW1 6911   4.730   1.053   4.716
 2004SOL    HW2 6912   4.715   1.215   4.699
 2005SOL     OW 6913   1.610   5.701   6.923
 2005SOL    HW1 6914   1.574   5.609   6.910
 2005SOL    HW2 6915   1.705   5.705   6.892
 2006SOL     OW 6916   5.129   4.115   3.241
 2006SOL    HW1 6917   5.104   4.019   3.228
 2006SOL    HW2 6918   5.046   4.170   3.252
 2007SOL     OW 6919   4.501   5.662   0.581
 2007SOL    HW1 6920   4.413   5.657   0.627
 2007SOL    HW2 6921   4.521   5.574   0.538
 2008SOL     OW 6922   0.257   5.648   3.466
 2008SOL    HW1 6923   0.197   5.582   3.421
 2008SOL    HW2 6924   0.231   5.658   3.562
 2009SOL     OW 6925   6.788   0.349   1.517
 2009SOL    HW1 6926   6.796   0.345   1.617
 2009SOL    HW2 6927   6.796   0.257   1.479
 2010SOL     OW 6928   1.543   1.275   0.859
 2010SOL    HW1 6929   1.540   1.285   0.959
 2010SOL    HW2 6930   1.524   1.363   0.816
 2011SOL     OW 6931   6.153   2.000   4.701
 2011SOL    HW1 6932   6.054   2.016   4.708
 2011SOL    HW2 6933   6.202   2.074   4.747
 2012SOL     OW 6934   0.770   3.561   0.992
 2012SOL    HW1 6935   0.689   3.541   0.938
 2012SOL    HW2 6936   0.821   3.476   1.008
 2013SOL     OW 6937   5.574   1.045   3.204
 2013SOL    HW1 6938   5.493   1.101   3.187
 2013SOL    HW2 6939   5.610   1.064   3.295
 2014SOL     OW 6940   1.225   5.306   3.017
 2014SOL    HW1 6941   1.163   5.274   2.946
 2014SOL    HW2 6942   1.215   5.405   3.028
 2015SOL     OW 6943   2.560   1.349   6.625
 2015SOL    HW1 6944   2.467   1.322   6.600
 2015SOL    HW2 6945   2.626   1.299   6.569
 2016SOL     OW 6946   0.657   6.032   5.146
 2016SOL    HW1 6947   0.701   6.057   5.233
 2016SOL    HW2 6948   0.726   5.998   5.083
 2017SOL     OW 6949   3.541   6.902   3.378
 2017SOL    HW1 6950   3.456   6.937   3.340
 2017SOL    HW2 6951   3.521   6.831   3.446
 2018SOL     OW 6952   6.393   5.872   5.776
 2018SOL    HW1 6953   6.434   5.781   5.772
 2018SOL    HW2 6954   6.362   5.899   5.685
 2019SOL     OW 6955   5.171   3.019   2.034
 2019SOL    HW1 6956   5.171   2.995   2.131
 2019SOL    HW2 6957   5.177   3.119   2.024
 2020SOL     OW 6958   1.352   5.019   4.875
 2020SOL    HW1 6959   1.349   5.073   4.791
 2020SOL    HW2 6960   1.275   5.045   4.934
 2021SOL     OW 6961   2.144   7.021   3.043
 2021SOL    HW1 6962   2.129   6.982   2.952
 2021SOL    HW2 6963   2.188   0.085   3.035
 2022SOL     OW 6964   1.799   3.710   2.044
 2022SOL    HW1 6965   1.744   3.677   1.967
 2022SOL    HW2 6966   1.829   3.803   2.027
 2023SOL     OW 6967   0.067   1.955   0.422
 2023SOL    HW1 6968   0.133   2.028   0.440
 2023SOL    HW2 6969   0.022   1.972   0.335
 2024SOL     OW 6970   6.797   0.877   2.912
 2024SOL    HW1 6971   6.892   0.846   2.915
 2024SOL    HW2 6972   6.782   0.943   2.985
 2025SOL     OW 6973   1.503   2.616   1.707
 2025SOL    HW1 6974   1.496   2.631   1.806
 2025SOL    HW2 6975   1.579   2.552   1.689
 2026SOL     OW 6976   1.358   2.407   5.942
 2026SOL    HW1 6977   1.326   2.358   6.023
 2026SOL    HW2 6978   1.293   2.481   5.920
 2027SOL     OW 6979   1.156   1.196   1.295
 2027SOL    HW1 6980   1.249   1.201   1.333
 2027SOL    HW2 6981   1.126   1.287   1.269
 2028SOL     OW 6982   3.396   1.349   6.873
 2028SOL    HW1 6983   3.370   1.320   6.965
 2028SOL    HW2 6984   3.372   1.445   6.860
 2029SOL     OW 6985   0.416   0.657   6.876
 2029SOL    HW1 6986   0.440   0.710   6.794
 2029SOL    HW2 6987   0.347   0.707   6.928
 2030SOL     OW 6988   1.798   1.734   3.725
 2030SOL    HW1 6989   1.800   1.822   3.772
 2030SOL    HW2 6990   1.725   1.733   3.657
 2031SOL     OW 6991   4.935   6.155   2.191
 2031SOL    HW1 6992   4.867   6.121   2.256
 2031SOL    HW2 6993   4.932   6.254   2.187
 2032SOL     OW 6994   5.621   5.865   1.016
 2032SOL    HW1 6995   5.593   5.852   1.111
 2032SOL    HW2 6996   5.654   5.958   1.003
 2033SOL     OW 6997   3.468   4.378   6.987
 2033SOL    HW1 6998   3.461   4.302   6.923
 2033SOL    HW2 6999   3.413   4.455   6.953
 2034SOL     OW 7000   2.459   6.531   3.745
 2034SOL    HW1 7001   2.397   6.501   3.818
 2034SOL    HW2 7002   2.422   6.612   3.700
 2035SOL     OW 7003   0.160   0.784   2.466
 2035SOL    HW1 7004   0.168   0.850   2.540
 2035SOL    HW2 7005   0.172   0.691   2.501
 2036SOL     OW 7006   0.135   5.989   2.197
 2036SOL    HW1 7007   0.043   5.959   2.169
 2036SOL    HW2 7008   0.201   5.961   2.128
 2037SOL     OW 7009   6.279   2.080   5.806
 2037SOL    HW1 7010   6.326   2.050   5.889
 2037SOL    HW2 7011   6.268   2.003   5.744
 2038SOL     OW 7012   0.680   1.551   6.996
 2038SOL    HW1 7013   0.652   1.581   6.905
 2038SOL    HW2 7014   0.709   1.630   0.025
 2039SOL     OW 7015   0.398   5.827   3.283
 2039SOL    HW1 7016   0.334   5.815   3.207
 2039SOL    HW2 7017   0.376   5.762   3.356
 2040SOL     OW 7018   3.138   2.945   5.005
 2040SOL    HW1 7019   3.197   3.013   4.960
 2040SOL    HW2 7020   3.086   2.895   4.935
 2041SOL     OW 7021   6.814   6.304   6.673
 2041SOL    HW1 7022   6.748   6.370   6.710
 2041SOL    HW2 7023   6.820   6.315   6.574
 2042SOL     OW 7024   5.941   5.431   6.934
 2042SOL    HW1 7025   5.916   5.354   6.875
 2042SOL    HW2 7026   5.866   5.497   6.936
 2043SOL     OW 7027   6.712   4.511   2.517
 2043SOL    HW1 7028   6.654   4.440   2.558
 2043SOL    HW2 7029   6.657   4.568   2.456
 2044SOL     OW 7030   5.070   0.336   2.254
 2044SOL    HW1 7031   5.086   0.434   2.247
 2044SOL    HW2 7032   5.144   0.293   2.306
 2045SOL     OW 7033   2.056   4.388   5.337
 2045SOL    HW1 7034   2.127   4.359   5.273
 2045SOL    HW2 7035   2.081   4.358   5.429
 2046SOL     OW 7036   0.117   0.620   4.571
 2046SOL    HW1 7037   0.071   0.532   4.562
 2046SOL    HW2 7038   0.131   0.640   4.668
 2047SOL     OW 7039   4.251   2.333   6.999
 2047SOL    HW1 7040   4.351   2.333   7.010
 2047SOL    HW2 7041   4.228   2.303   6.907
 2048SOL     OW 7042   3.900   6.444   0.034
 2048SOL    HW1 7043   3.893   6.345   0.023
 2048SOL    HW2 7044   3.830   6.475   0.099
 2049SOL     OW 7045   4.374   1.810   6.361
 2049SOL    HW1 7046   4.399   1.733   6.302
 2049SOL    HW2 7047   4.275   1.810   6.375
 2050SOL     OW 7048   5.999   2.812   3.668
 2050SOL    HW1 7049   5.996   2.718   3.636
 2050SOL    HW2 7050   5.906   2.845   3.686
 2051SOL     OW 7051   6.684   4.693   6.722
 2051SOL    HW1 7052   6.689   4.648   6.633
 2051SOL    HW2 7053   6.695   4.792   6.711
 2052SOL     OW 7054   0.737   3.939   6.926
 2052SOL    HW1 7055   0.755   3.951   7.023
 2052SOL    HW2 7056   0.683   3.855   6.912
 2053SOL     OW 7057   6.411   0.551   0.938
 2053SOL    HW1 7058   6.377   0.595   0.854
 2053SOL    HW2 7059   6.511   0.554   0.939
 2054SOL     OW 7060   5.315   3.028   1.687
 2054SOL    HW1 7061   5.344   2.980   1.605
 2054SOL    HW2 7062   5.317   2.965   1.765
 2055SOL     OW 7063   6.116   3.168   2.646
 2055SOL    HW1 7064   6.059   3.137   2.571
 2055SOL    HW2 7065   6.096   3.113   2.728
 2056SOL     OW 7066   2.111   1.242   2.638
 2056SOL    HW1 7067   2.064   1.251   2.551
 2056SOL    HW2 7068   2.044   1.234   2.712
 2057SOL     OW 7069   5.389   2.661   3.625
 2057SOL    HW1 7070   5.464   2.701   3.573
 2057SOL    HW2 7071   5.319   2.731   3.643
 2058SOL     OW 7072   1.359   1.769   3.345
 2058SOL    HW1 7073   1.458   1.765   3.329
 2058SOL    HW2 7074   1.330   1.685   3.391
 2059SOL     OW 7075   2.675   6.390   5.821
 2059SOL    HW1 7076   2.649   6.358   5.912
 2059SOL    HW2 7077   2.716   6.315   5.769
 2060SOL     OW 7078   6.695   3.905   0.773
 2060SOL    HW1 7079   6.632   3.979   0.752
 2060SOL    HW2 7080   6.757   3.891   0.696
 2061SOL     OW 7081   0.801   1.873   3.190
 2061SOL    HW1 7082   0.845   1.962   3.182
 2061SOL    HW2 7083   0.853   1.816   3.253
 2062SOL     OW 7084   5.579   0.575   3.007
 2062SOL    HW1 7085   5.674   0.573   2.976
 2062SOL    HW2 7086   5.575   0.608   3.101
 2063SOL     OW 7087   0.476   1.651   6.039
 2063SOL    HW1 7088   0.454   1.580   6.107
 2063SOL    HW2 7089   0.521   1.609   5.961
 2064SOL     OW 7090   0.635   1.652   5.385
 2064SOL    HW1 7091   0.620   1.675   5.289
 2064SOL    HW2 7092   0.725   1.611   5.396
 2065SOL     OW 7093   6.570   4.087   2.319
 2065SOL    HW1 7094   6.656   4.053   2.357
 2065SOL    HW2 7095   6.530   4.018   2.259
 2066SOL     OW 7096   0.805   6.082   4.138
 2066SOL    HW1 7097   0.846   6.086   4.229
 2066SOL    HW2 7098   0.715   6.040   4.143
 2067SOL     OW 7099   0.626   6.613   0.554
 2067SOL    HW1 7100   0.587   6.696   0.515
 2067SOL    HW2 7101   0.659   6.554   0.480
 2068SOL     OW 7102   0.918   1.556   5.341
 2068SOL    HW1 7103   1.016   1.564   5.353
 2068SOL    HW2 7104   0.897   1.469   5.296
 2069SOL     OW 7105   0.677   2.736   3.620
 2069SOL    HW1 7106   0.751   2.680   3.658
 2069SOL    HW2 7107   0.676   2.824   3.667
 2070SOL     OW 7108   1.936   6.954   2.095
 2070SOL    HW1 7109   1.851   6.989   2.134
 2070SOL    HW2 7110   1.963   7.010   2.017
 2071SOL     OW 7111   6.640   6.106   5.427
 2071SOL    HW1 7112   6.554   6.156   5.432
 2071SOL    HW2 7113   6.634   6.035   5.357
 2072SOL     OW 7114   4.651   6.335   1.874
 2072SOL    HW1 7115   4.618   6.363   1.784
 2072SOL    HW2 7116   4.721   6.264   1.864
 2073SOL     OW 7117   3.564   6.992   4.701
 2073SOL    HW1 7118   3.651   0.015   4.704
 2073SOL    HW2 7119   3.496   0.024   4.655
 2074SOL     OW 7120   0.680   2.793   6.735
 2074SOL    HW1 7121   0.678   2.783   6.636
 2074SOL    HW2 7122   0.774   2.781   6.768
 2075SOL     OW 7123   5.110   2.323   1.408
 2075SOL    HW1 7124   5.063   2.405   1.373
 2075SOL    HW2 7125   5.073   2.299   1.497
 2076SOL     OW 7126   5.160   6.741   0.454
 2076SOL    HW1 7127   5.106   6.762   0.373
 2076SOL    HW2 7128   5.105   6.684   0.516
 2077SOL     OW 7129   4.549   2.619   2.079
 2077SOL    HW1 7130   4.540   2.714   2.049
 2077SOL    HW2 7131   4.484   2.561   2.031
 2078SOL     OW 7132   1.773   6.261   6.765
 2078SOL    HW1 7133   1.820   6.296   6.684
 2078SOL    HW2 7134   1.778   6.161   6.766
 2079SOL     OW 7135   5.818   1.287   3.870
 2079SOL    HW1 7136   5.784   1.324   3.783
 2079SOL    HW2 7137   5.776   1.197   3.886
 2080SOL     OW 7138   1.746   1.094   4.480
 2080SOL    HW1 7139   1.754   1.023   4.409
 2080SOL    HW2 7140   1.743   1.051   4.570
 2081SOL     OW 7141   1.674   5.897   5.275
 2081SOL    HW1 7142   1.609   5.913   5.349
 2081SOL    HW2 7143   1.754   5.956   5.287
 2082SOL     OW 7144   6.882   0.341   2.783
 2082SOL    HW1 7145   6.885   0.408   2.709
 2082SOL    HW2 7146   6.911   0.251   2.748
 2083SOL     OW 7147   4.407   4.234   6.676
 2083SOL    HW1 7148   4.458   4.243   6.591
 2083SOL    HW2 7149   4.323   4.181   6.660
 2084SOL     OW 7150   6.942   4.394   3.892
 2084SOL    HW1 7151   6.865   4.364   3.949
 2084SOL    HW2 7152   6.983   4.475   3.933
 2085SOL     OW 7153   5.054   1.109   0.664
 2085SOL    HW1 7154   4.961   1.138   0.642
 2085SOL    HW2 7155   5.110   1.188   0.686
 2086SOL     OW 7156   2.991   6.357   5.469
 2086SOL    HW1 7157   2.970   6.384   5.562
 2086SOL    HW2 7158   2.908   6.326   5.423
 2087SOL     OW 7159   4.608   0.390   2.288
 2087SOL    HW1 7160   4.580   0.450   2.213
 2087SOL    HW2 7161   4.632   0.446   2.367
 2088SOL     OW 7162   2.649   5.595   1.105
 2088SOL    HW1 7163   2.666   5.650   1.023
 2088SOL    HW2 7164   2.737   5.570   1.147
 2089SOL     OW 7165   4.574   1.561   6.992
 2089SOL    HW1 7166   4.647   1.529   6.932
 2089SOL    HW2 7167   4.545   1.485   0.026
 2090SOL     OW 7168   4.054   3.504   5.014
 2090SOL    HW1 7169   4.084   3.410   4.994
 2090SOL    HW2 7170   4.094   3.534   5.100
 2091SOL     OW 7171   6.964   5.800   0.139
 2091SOL    HW1 7172   6.897   5.794   0.065
 2091SOL    HW2 7173   7.004   5.710   0.155
 2092SOL     OW 7174   4.796   6.029   0.377
 2092SOL    HW1 7175   4.825   5.936   0.395
 2092SOL    HW2 7176   4.739   6.062   0.453
 2093SOL     OW 7177   1.773   2.453   1.698
 2093SOL    HW1 7178   1.726   2.365   1.688
 2093SOL    HW2 7179   1.782   2.476   1.795
 2094SOL     OW 7180   5.319   1.815   1.769
 2094SOL    HW1 7181   5.247   1.793   1.835
 2094SOL    HW2 7182   5.353   1.907   1.787
 2095SOL     OW 7183   5.321   0.117   4.590
 2095SOL    HW1 7184   5.415   0.149   4.601
 2095SOL    HW2 7185   5.292   0.070   4.674
 2096SOL     OW 7186   4.844   4.328   2.833
 2096SOL    HW1 7187   4.778   4.335   2.758
 2096SOL    HW2 7188   4.929   4.374   2.808
 2097SOL     OW 7189   1.346   3.198   0.094
 2097SOL    HW1 7190   1.433   3.160   0.065
 2097SOL    HW2 7191   1.278   3.125   0.101
 2098SOL     OW 7192   4.019   5.376   3.215
 2098SOL    HW1 7193   4.108   5.346   3.250
 2098SOL    HW2 7194   4.021   5.375   3.115
 2099SOL     OW 7195   2.700   2.540   5.241
 2099SOL    HW1 7196   2.608   2.574   5.263
 2099SOL    HW2 7197   2.768   2.611   5.262
 2100SOL     OW 7198   3.781   3.216   5.647
 2100SOL    HW1 7199   3.762   3.309   5.678
 2100SOL    HW2 7200   3.814   3.218   5.553
 2101SOL     OW 7201   1.638   6.389   2.827
 2101SOL    HW1 7202   1.579   6.467   2.806
 2101SOL    HW2 7203   1.598   6.305   2.789
 2102SOL     OW 7204   6.702   5.248   1.959
 2102SOL    HW1 7205   6.720   5.180   2.030
 2102SOL    HW2 7206   6.740   5.217   1.872
 2103SOL     OW 7207   2.889   3.081   6.375
 2103SOL    HW1 7208   2.867   3.058   6.280
 2103SOL    HW2 7209   2.859   3.174   6.395
 2104SOL     OW 7210   1.263   3.448   6.389
 2104SOL    HW1 7211   1.299   3.355   6.383
 2104SOL    HW2 7212   1.191   3.460   6.320
 2105SOL     OW 7213   4.561   5.475   4.227
 2105SOL    HW1 7214   4.537   5.391   4.276
 2105SOL    HW2 7215   4.478   5.520   4.195
 2106SOL     OW 7216   4.936   4.741   0.246
 2106SOL    HW1 7217   5.020   4.794   0.259
 2106SOL    HW2 7218   4.939   4.694   0.158
 2107SOL     OW 7219   4.523   2.862   5.611
 2107SOL    HW1 7220   4.505   2.954   5.575
 2107SOL    HW2 7221   4.443   2.830   5.662
 2108SOL     OW 7222   6.945   6.284   5.580
 2108SOL    HW1 7223   6.945   6.221   5.501
 2108SOL    HW2 7224   6.857   6.279   5.627
 2109SOL     OW 7225   4.716   6.611   3.090
 2109SOL    HW1 7226   4.645   6.560   3.139
 2109SOL    HW2 7227   4.699   6.604   2.992
 2110SOL     OW 7228   2.654   2.759   5.896
 2110SOL    HW1 7229   2.656   2.698   5.816
 2110SOL    HW2 7230   2.655   2.854   5.865
 2111SOL     OW 7231   0.797   1.947   6.540
 2111SOL    HW1 7232   0.817   1.886   6.464
 2111SOL    HW2 7233   0.800   1.896   6.626
 2112SOL     OW 7234   4.603   2.334   1.238
 2112SOL    HW1 7235   4.533   2.272   1.273
 2112SOL    HW2 7236   4.593   2.424   1.281
 2113SOL     OW 7237   1.475   0.541   4.944
 2113SOL    HW1 7238   1.436   0.632   4.955
 2113SOL    HW2 7239   1.523   0.536   4.857
 2114SOL     OW 7240   1.393   2.995   0.669
 2114SOL    HW1 7241   1.357   2.918   0.722
 2114SOL    HW2 7242   1.418   2.964   0.577
 2115SOL     OW 7243   2.250   4.090   2.841
 2115SOL    HW1 7244   2.310   4.169   2.829
 2115SOL    HW2 7245   2.241   4.042   2.754
 2116SOL     OW 7246   6.929   4.614   3.311
 2116SOL    HW1 7247   6.864   4.648   3.379
 2116SOL    HW2 7248   7.021   4.647   3.333
 2117SOL     OW 7249   6.856   4.385   1.093
 2117SOL    HW1 7250   6.880   4.362   0.998
 2117SOL    HW2 7251   6.816   4.305   1.137
 2118SOL     OW 7252   6.790   3.528   1.914
 2118SOL    HW1 7253   6.758   3.506   2.006
 2118SOL    HW2 7254   6.769   3.453   1.852
 2119SOL     OW 7255   2.461   5.238   1.099
 2119SOL    HW1 7256   2.558   5.225   1.078
 2119SOL    HW2 7257   2.433   5.174   1.170
 2120SOL     OW 7258   0.310   4.887   4.130
 2120SOL    HW1 7259   0.288   4.795   4.098
 2120SOL    HW2 7260   0.249   4.912   4.204
 2121SOL     OW 7261   0.386   4.620   5.862
 2121SOL    HW1 7262   0.361   4.571   5.946
 2121SOL    HW2 7263   0.398   4.555   5.787
 2122SOL     OW 7264   5.914   4.362   5.584
 2122SOL    HW1 7265   6.002   4.341   5.542
 2122SOL    HW2 7266   5.865   4.276   5.603
 2123SOL     OW 7267   6.546   4.683   1.883
 2123SOL    HW1 7268   6.616   4.745   1.918
 2123SOL    HW2 7269   6.587   4.621   1.816
 2124SOL     OW 7270   2.600   1.468   2.144
 2124SOL    HW1 7271   2.595   1.566   2.165
 2124SOL    HW2 7272   2.668   1.453   2.073
 2125SOL     OW 7273   1.849   0.303   0.417
 2125SOL    HW1 7274   1.823   0.285   0.322
 2125SOL    HW2 7275   1.829   0.223   0.474
 2126SOL     OW 7276   3.181   1.065   0.949
 2126SOL    HW1 7277   3.091   1.104   0.967
 2126SOL    HW2 7278   3.219   1.104   0.865
 2127SOL     OW 7279   6.603   3.628   4.193
 2127SOL    HW1 7280   6.672   3.616   4.264
 2127SOL    HW2 7281   6.590   3.542   4.144
 2128SOL     OW 7282   6.509   4.029   4.379
 2128SOL    HW1 7283   6.486   3.931   4.379
 2128SOL    HW2 7284   6.588   4.044   4.319
 2129SOL     OW 7285   4.517   3.040   5.368
 2129SOL    HW1 7286   4.431   2.989   5.365
 2129SOL    HW2 7287   4.585   2.994   5.310
 2130SOL     OW 7288   3.883   0.250   2.627
 2130SOL    HW1 7289   3.932   0.296   2.701
 2130SOL    HW2 7290   3.785   0.252   2.646
 2131SOL     OW 7291   6.793   0.935   1.351
 2131SOL    HW1 7292   6.733   0.877   1.406
 2131SOL    HW2 7293   6.877   0.885   1.330
 2132SOL     OW 7294   3.900   1.949   1.593
 2132SOL    HW1 7295   3.833   1.940   1.519
 2132SOL    HW2 7296   3.858   1.993   1.672
 2133SOL     OW 7297   2.402   2.969   6.146
 2133SOL    HW1 7298   2.339   2.942   6.219
 2133SOL    HW2 7299   2.367   2.939   6.058
 2134SOL     OW 7300   0.496   2.179   0.459
 2134SOL    HW1 7301   0.536   2.129   0.536
 2134SOL    HW2 7302   0.405   2.212   0.485
 2135SOL     OW 7303   1.066   3.926   4.815
 2135SOL    HW1 7304   1.025   3.879   4.737
 2135SOL    HW2 7305   0.995   3.965   4.873
 2136SOL     OW 7306   2.047   4.345   2.894
 2136SOL    HW1 7307   2.062   4.419   2.829
 2136SOL    HW2 7308   2.037   4.258   2.845
 2137SOL     OW 7309   2.396   5.369   5.617
 2137SOL    HW1 7310   2.450   5.285   5.609
 2137SOL    HW2 7311   2.301   5.346   5.638
 2138SOL     OW 7312   6.279   6.590   3.130
 2138SOL    HW1 7313   6.353   6.575   3.064
 2138SOL    HW2 7314   6.250   6.503   3.168
 2139SOL     OW 7315   4.375   0.619   4.039
 2139SOL    HW1 7316   4.452   0.679   4.016
 2139SOL    HW2 7317   4.396   0.568   4.123
 2140SOL     OW 7318   2.693   6.765   4.325
 2140SOL    HW1 7319   2.614   6.703   4.315
 2140SOL    HW2 7320   2.681   6.842   4.263
 2141SOL     OW 7321   6.717   2.804   2.274
 2141SOL    HW1 7322   6.625   2.835   2.297
 2141SOL    HW2 7323   6.783   2.849   2.334
 2142SOL     OW 7324   1.282   1.516   3.376
 2142SOL    HW1 7325   1.268   1.481   3.468
 2142SOL    HW2 7326   1.197   1.508   3.324
 2143SOL     OW 7327   3.134   5.009   1.413
 2143SOL    HW1 7328   3.229   4.978   1.401
 2143SOL    HW2 7329   3.093   4.960   1.490
 2144SOL     OW 7330   0.657   5.688   4.836
 2144SOL    HW1 7331   0.720   5.674   4.759
 2144SOL    HW2 7332   0.566   5.657   4.810
 2145SOL     OW 7333   4.013   6.349   4.474
 2145SOL    HW1 7334   3.947   6.274   4.482
 2145SOL    HW2 7335   3.996   6.416   4.547
 2146SOL     OW 7336   2.598   2.780   1.104
 2146SOL    HW1 7337   2.506   2.793   1.067
 2146SOL    HW2 7338   2.594   2.718   1.182
 2147SOL     OW 7339   5.492   1.164   0.000
 2147SOL    HW1 7340   5.488   1.137   0.097
 2147SOL    HW2 7341   5.419   1.117   6.974
 2148SOL     OW 7342   6.128   3.582   5.984
 2148SOL    HW1 7343   6.160   3.644   6.055
 2148SOL    HW2 7344   6.115   3.491   6.022
 2149SOL     OW 7345   2.393   1.534   1.075
 2149SOL    HW1 7346   2.447   1.613   1.046
 2149SOL    HW2 7347   2.296   1.560   1.083
 2150SOL     OW 7348   2.265   2.519   1.687
 2150SOL    HW1 7349   2.359   2.519   1.652
 2150SOL    HW2 7350   2.260   2.575   1.769
 2151SOL     OW 7351   1.481   6.243   6.512
 2151SOL    HW1 7352   1.518   6.326   6.553
 2151SOL    HW2 7353   1.483   6.251   6.412
 2152SOL     OW 7354   4.538   4.491   2.477
 2152SOL    HW1 7355   4.556   4.507   2.380
 2152SOL    HW2 7356   4.494   4.572   2.516
 2153SOL     OW 7357   4.136   1.915   2.250
 2153SOL    HW1 7358   4.042   1.941   2.227
 2153SOL    HW2 7359   4.159   1.830   2.203
 2154SOL     OW 7360   3.396   6.857   4.186
 2154SOL    HW1 7361   3.464   6.899   4.125
 2154SOL    HW2 7362   3.438   6.779   4.234
 2155SOL     OW 7363   4.205   0.019   1.195
 2155SOL    HW1 7364   4.144   6.965   1.187
 2155SOL    HW2 7365   4.295   7.020   1.159
 2156SOL     OW 7366   0.268   0.287   5.039
 2156SOL    HW1 7367   0.360   0.272   5.003
 2156SOL    HW2 7368   0.246   0.213   5.103
 2157SOL     OW 7369   5.197   6.189   3.463
 2157SOL    HW1 7370   5.284   6.220   3.424
 2157SOL    HW2 7371   5.198   6.202   3.563
 2158SOL     OW 7372   3.753   6.111   0.446
 2158SOL    HW1 7373   3.784   6.069   0.361
 2158SOL    HW2 7374   3.833   6.144   0.498
 2159SOL     OW 7375   1.379   0.781   5.028
 2159SOL    HW1 7376   1.285   0.765   5.058
 2159SOL    HW2 7377   1.440   0.781   5.107
 2160SOL     OW 7378   4.989   4.614   6.737
 2160SOL    HW1 7379   5.031   4.645   6.652
 2160SOL    HW2 7380   4.925   4.540   6.717
 2161SOL     OW 7381   6.423   4.296   1.940
 2161SOL    HW1 7382   6.488   4.329   2.009
 2161SOL    HW2 7383   6.369   4.222   1.979
 2162SOL     OW 7384   2.977   0.064   2.525
 2162SOL    HW1 7385   2.993   0.136   2.456
 2162SOL    HW2 7386   2.902   0.006   2.494
 2163SOL     OW 7387   1.773   4.833   0.517
 2163SOL    HW1 7388   1.710   4.854   0.591
 2163SOL    HW2 7389   1.802   4.738   0.523
 2164SOL     OW 7390   1.931   2.267   6.333
 2164SOL    HW1 7391   1.937   2.364   6.356
 2164SOL    HW2 7392   1.840   2.248   6.294
 2165SOL     OW 7393   0.486   2.294   3.324
 2165SOL    HW1 7394   0.431   2.251   3.252
 2165SOL    HW2 7395   0.437   2.375   3.359
 2166SOL     OW 7396   0.411   3.780   4.367
 2166SOL    HW1 7397   0.456   3.804   4.280
 2166SOL    HW2 7398   0.322   3.740   4.348
 2167SOL     OW 7399   0.657   3.055   3.679
 2167SOL    HW1 7400   0.743   3.045   3.730
 2167SOL    HW2 7401   0.676   3.051   3.581
 2168SOL     OW 7402   1.030   1.674   3.053
 2168SOL    HW1 7403   1.125   1.654   3.028
 2168SOL    HW2 7404   0.997   1.604   3.115
 2169SOL     OW 7405   6.098   0.806   1.334
 2169SOL    HW1 7406   6.160   0.860   1.391
 2169SOL    HW2 7407   6.071   0.859   1.254
 2170SOL     OW 7408   6.942   4.110   5.303
 2170SOL    HW1 7409   6.982   4.019   5.290
 2170SOL    HW2 7410   6.961   4.166   5.223
 2171SOL     OW 7411   0.564   5.736   1.273
 2171SOL    HW1 7412   0.508   5.815   1.249
 2171SOL    HW2 7413   0.654   5.744   1.230
 2172SOL     OW 7414   2.165   2.099   5.934
 2172SOL    HW1 7415   2.158   2.151   6.019
 2172SOL    HW2 7416   2.228   2.146   5.871
 2173SOL     OW 7417   4.534   0.662   5.453
 2173SOL    HW1 7418   4.484   0.584   5.415
 2173SOL    HW2 7419   4.469   0.733   5.480
 2174SOL     OW 7420   6.815   5.901   5.073
 2174SOL    HW1 7421   6.912   5.902   5.100
 2174SOL    HW2 7422   6.797   5.978   5.012
 2175SOL     OW 7423   1.846   3.557   4.190
 2175SOL    HW1 7424   1.901   3.583   4.111
 2175SOL    HW2 7425   1.825   3.639   4.244
 2176SOL     OW 7426   5.151   1.826   1.548
 2176SOL    HW1 7427   5.214   1.799   1.621
 2176SOL    HW2 7428   5.061   1.845   1.586
 2177SOL     OW 7429   0.166   0.536   2.616
 2177SOL    HW1 7430   0.199   0.449   2.581
 2177SOL    HW2 7431   0.068   0.544   2.598
 2178SOL     OW 7432   1.753   1.330   1.877
 2178SOL    HW1 7433   1.793   1.239   1.866
 2178SOL    HW2 7434   1.822   1.391   1.916
 2179SOL     OW 7435   2.103   4.170   5.893
 2179SOL    HW1 7436   2.026   4.231   5.916
 2179SOL    HW2 7437   2.067   4.089   5.847
 2180SOL     OW 7438   1.295   3.088   2.075
 2180SOL    HW1 7439   1.230   3.103   2.150
 2180SOL    HW2 7440   1.246   3.055   1.994
 2181SOL     OW 7441   4.307   5.083   3.997
 2181SOL    HW1 7442   4.279   5.070   3.902
 2181SOL    HW2 7443   4.401   5.050   4.009
 2182SOL     OW 7444   1.568   4.844   3.597
 2182SOL    HW1 7445   1.496   4.902   3.557
 2182SOL    HW2 7446   1.611   4.892   3.673
 2183SOL     OW 7447   1.995   4.486   0.018
 2183SOL    HW1 7448   1.983   4.387   0.012
 2183SOL    HW2 7449   2.078   4.513   6.995
 2184SOL     OW 7450   3.975   7.010   6.071
 2184SOL    HW1 7451   3.889   0.001   6.120
 2184SOL    HW2 7452   4.017   0.074   6.049
 2185SOL     OW 7453   1.034   1.038   0.126
 2185SOL    HW1 7454   1.028   0.940   0.147
 2185SOL    HW2 7455   0.963   1.063   0.062
 2186SOL     OW 7456   6.713   5.504   0.300
 2186SOL    HW1 7457   6.651   5.579   0.322
 2186SOL    HW2 7458   6.765   5.478   0.382
 2187SOL     OW 7459   0.339   5.314   1.830
 2187SOL    HW1 7460   0.410   5.314   1.901
 2187SOL    HW2 7461   0.252   5.343   1.869
 2188SOL     OW 7462   1.492   5.519   5.360
 2188SOL    HW1 7463   1.571   5.562   5.316
 2188SOL    HW2 7464   1.521   5.436   5.408
 2189SOL     OW 7465   1.506   6.704   1.388
 2189SOL    HW1 7466   1.413   6.741   1.397
 2189SOL    HW2 7467   1.541   6.724   1.296
 2190SOL     OW 7468   6.572   2.709   1.295
 2190SOL    HW1 7469   6.598   2.670   1.206
 2190SOL    HW2 7470   6.618   2.658   1.368
 2191SOL     OW 7471   2.415   1.986   5.743
 2191SOL    HW1 7472   2.512   1.970   5.762
 2191SOL    HW2 7473   2.396   1.964   5.647
 2192SOL     OW 7474   5.592   1.085   2.682
 2192SOL    HW1 7475   5.530   1.021   2.728
 2192SOL    HW2 7476   5.687   1.060   2.703
 2193SOL     OW 7477   6.779   0.241   6.613
 2193SOL    HW1 7478   6.711   0.298   6.568
 2193SOL    HW2 7479   6.805   0.166   6.553
 2194SOL     OW 7480   1.612   4.043   6.540
 2194SOL    HW1 7481   1.531   4.078   6.587
 2194SOL    HW2 7482   1.629   4.097   6.458
 2195SOL     OW 7483   6.783   6.448   5.861
 2195SOL    HW1 7484   6.747   6.431   5.953
 2195SOL    HW2 7485   6.839   6.531   5.862
 2196SOL     OW 7486   3.113   6.852   4.626
 2196SOL    HW1 7487   3.166   6.899   4.697
 2196SOL    HW2 7488   3.016   6.873   4.638
 2197SOL     OW 7489   2.758   3.627   6.144
 2197SOL    HW1 7490   2.722   3.645   6.052
 2197SOL    HW2 7491   2.856   3.607   6.138
 2198SOL     OW 7492   6.233   0.267   2.043
 2198SOL    HW1 7493   6.185   0.354   2.034
 2198SOL    HW2 7494   6.255   0.250   2.139
 2199SOL     OW 7495   5.330   6.770   4.034
 2199SOL    HW1 7496   5.365   6.816   3.952
 2199SOL    HW2 7497   5.246   6.813   4.064
 2200SOL     OW 7498   1.785   2.166   4.404
 2200SOL    HW1 7499   1.713   2.213   4.353
 2200SOL    HW2 7500   1.838   2.108   4.341
 2201SOL     OW 7501   6.454   2.985   3.071
 2201SOL    HW1 7502   6.466   3.035   3.157
 2201SOL    HW2 7503   6.423   3.048   3.000
 2202SOL     OW 7504   3.830   5.998   1.804
 2202SOL    HW1 7505   3.884   5.920   1.834
 2202SOL    HW2 7506   3.854   6.022   1.710
 2203SOL     OW 7507   2.228   3.647   1.204
 2203SOL    HW1 7508   2.139   3.682   1.233
 2203SOL    HW2 7509   2.270   3.596   1.279
 2204SOL     OW 7510   4.337   2.367   1.033
 2204SOL    HW1 7511   4.347   2.399   1.127
 2204SOL    HW2 7512   4.245   2.331   1.020
 2205SOL     OW 7513   1.304   0.196   6.561
 2205SOL    HW1 7514   1.328   0.256   6.637
 2205SOL    HW2 7515   1.239   0.127   6.591
 2206SOL     OW 7516   3.042   4.183   5.804
 2206SOL    HW1 7517   3.124   4.194   5.748
 2206SOL    HW2 7518   3.005   4.091   5.791
 2207SOL     OW 7519   3.264   4.629   6.636
 2207SOL    HW1 7520   3.280   4.728   6.635
 2207SOL    HW2 7521   3.296   4.590   6.549
 2208SOL     OW 7522   1.373   5.005   3.465
 2208SOL    HW1 7523   1.340   4.947   3.391
 2208SOL    HW2 7524   1.419   5.085   3.427
 2209SOL     OW 7525   2.394   0.167   4.933
 2209SOL    HW1 7526   2.432   0.098   4.995
 2209SOL    HW2 7527   2.344   0.236   4.987
 2210SOL     OW 7528   0.580   4.455   3.814
 2210SOL    HW1 7529   0.662   4.408   3.847
 2210SOL    HW2 7530   0.597   4.490   3.721
 2211SOL     OW 7531   6.912   0.611   1.428
 2211SOL    HW1 7532   6.919   0.523   1.476
 2211SOL    HW2 7533   6.999   0.660   1.436
 2212SOL     OW 7534   2.193   5.762   0.272
 2212SOL    HW1 7535   2.276   5.708   0.269
 2212SOL    HW2 7536   2.132   5.734   0.198
 2213SOL     OW 7537   3.563   1.923   5.180
 2213SOL    HW1 7538   3.482   1.944   5.126
 2213SOL    HW2 7539   3.621   2.004   5.186
 2214SOL     OW 7540   2.908   3.686   4.911
 2214SOL    HW1 7541   2.977   3.758   4.923
 2214SOL    HW2 7542   2.862   3.670   4.999
 2215SOL     OW 7543   5.620   0.545   0.175
 2215SOL    HW1 7544   5.634   0.602   0.256
 2215SOL    HW2 7545   5.600   0.603   0.096
 2216SOL     OW 7546   0.920   0.994   6.664
 2216SOL    HW1 7547   0.870   0.988   6.577
 2216SOL    HW2 7548   0.911   0.908   6.714
 2217SOL     OW 7549   4.023   6.874   2.239
 2217SOL    HW1 7550   3.997   6.781   2.213
 2217SOL    HW2 7551   3.945   6.919   2.283
 2218SOL     OW 7552   0.220   5.208   0.092
 2218SOL    HW1 7553   0.278   5.289   0.086
 2218SOL    HW2 7554   0.191   5.195   0.187
 2219SOL     OW 7555   6.140   1.795   0.769
 2219SOL    HW1 7556   6.076   1.771   0.843
 2219SOL    HW2 7557   6.135   1.894   0.752
 2220SOL     OW 7558   2.204   6.029   5.344
 2220SOL    HW1 7559   2.236   5.966   5.274
 2220SOL    HW2 7560   2.188   6.119   5.303
 2221SOL     OW 7561   5.917   1.647   5.538
 2221SOL    HW1 7562   5.956   1.664   5.448
 2221SOL    HW2 7563   5.862   1.726   5.566
 2222SOL     OW 7564   6.086   0.537   1.446
 2222SOL    HW1 7565   6.089   0.624   1.397
 2222SOL    HW2 7566   6.030   0.471   1.395
 2223SOL     OW 7567   5.980   1.008   5.897
 2223SOL    HW1 7568   6.014   0.916   5.882
 2223SOL    HW2 7569   6.047   1.075   5.864
 2224SOL     OW 7570   6.554   3.871   0.515
 2224SOL    HW1 7571   6.530   3.782   0.554
 2224SOL    HW2 7572   6.654   3.878   0.508
 2225SOL     OW 7573   5.973   6.551   4.013
 2225SOL    HW1 7574   6.071   6.554   4.035
 2225SOL    HW2 7575   5.921   6.585   4.091
 2226SOL     OW 7576   3.753   5.025   1.125
 2226SOL    HW1 7577   3.778   4.963   1.051
 2226SOL    HW2 7578   3.653   5.026   1.135
 2227SOL     OW 7579   5.758   2.609   0.319
 2227SOL    HW1 7580   5.794   2.515   0.315
 2227SOL    HW2 7581   5.714   2.631   0.232
 2228SOL     OW 7582   4.233   5.167   1.039
 2228SOL    HW1 7583   4.134   5.161   1.050
 2228SOL    HW2 7584   4.256   5.246   0.981
 2229SOL     OW 7585   3.925   2.921   5.249
 2229SOL    HW1 7586   3.874   2.909   5.163
 2229SOL    HW2 7587   3.960   2.833   5.279
 2230SOL     OW 7588   6.518   6.625   1.023
 2230SOL    HW1 7589   6.571   6.657   0.945
 2230SOL    HW2 7590   6.481   6.703   1.073
 2231SOL     OW 7591   0.301   1.031   1.471
 2231SOL    HW1 7592   0.323   1.032   1.373
 2231SOL    HW2 7593   0.274   1.122   1.500
 2232SOL     OW 7594   1.256   1.707   4.491
 2232SOL    HW1 7595   1.241   1.752   4.579
 2232SOL    HW2 7596   1.270   1.609   4.505
 2233SOL     OW 7597   2.721   3.055   0.721
 2233SOL    HW1 7598   2.645   3.034   0.783
 2233SOL    HW2 7599   2.717   2.996   0.641
 2234SOL     OW 7600   3.659   1.455   0.942
 2234SOL    HW1 7601   3.630   1.383   1.004
 2234SOL    HW2 7602   3.757   1.474   0.957
 2235SOL     OW 7603   2.926   0.332   1.692
 2235SOL    HW1 7604   2.826   0.343   1.694
 2235SOL    HW2 7605   2.968   0.405   1.746
 2236SOL     OW 7606   2.063   3.852   5.776
 2236SOL    HW1 7607   2.149   3.806   5.800
 2236SOL    HW2 7608   2.000   3.847   5.853
 2237SOL     OW 7609   5.390   4.753   3.954
 2237SOL    HW1 7610   5.476   4.762   4.005
 2237SOL    HW2 7611   5.318   4.805   4.001
 2238SOL     OW 7612   4.837   5.627   1.631
 2238SOL    HW1 7613   4.801   5.599   1.720
 2238SOL    HW2 7614   4.763   5.667   1.577
 2239SOL     OW 7615   3.758   5.284   3.985
 2239SOL    HW1 7616   3.666   5.277   3.945
 2239SOL    HW2 7617   3.754   5.259   4.082
 2240SOL     OW 7618   3.394   5.473   2.779
 2240SOL    HW1 7619   3.489   5.505   2.779
 2240SOL    HW2 7620   3.337   5.539   2.828
 2241SOL     OW 7621   6.975   6.091   2.850
 2241SOL    HW1 7622   0.019   6.073   2.920
 2241SOL    HW2 7623   6.950   6.005   2.805
 2242SOL     OW 7624   5.042   2.798   2.728
 2242SOL    HW1 7625   5.106   2.870   2.704
 2242SOL    HW2 7626   5.078   2.746   2.806
 2243SOL     OW 7627   1.558   6.787   5.940
 2243SOL    HW1 7628   1.507   6.783   5.854
 2243SOL    HW2 7629   1.615   6.706   5.949
 2244SOL     OW 7630   2.365   6.860   0.670
 2244SOL    HW1 7631   2.451   6.911   0.675
 2244SOL    HW2 7632   2.289   6.924   0.666
 2245SOL     OW 7633   0.823   1.319   1.943
 2245SOL    HW1 7634   0.733   1.276   1.935
 2245SOL    HW2 7635   0.887   1.274   1.881
 2246SOL     OW 7636   2.000   0.828   4.186
 2246SOL    HW1 7637   2.011   0.887   4.106
 2246SOL    HW2 7638   1.904   0.822   4.211
 2247SOL     OW 7639   3.378   2.985   3.525
 2247SOL    HW1 7640   3.441   3.008   3.598
 2247SOL    HW2 7641   3.410   2.904   3.477
 2248SOL     OW 7642   6.357   4.153   4.994
 2248SOL    HW1 7643   6.401   4.231   5.040
 2248SOL    HW2 7644   6.373   4.070   5.047
 2249SOL     OW 7645   5.622   6.743   3.377
 2249SOL    HW1 7646   5.714   6.725   3.343
 2249SOL    HW2 7647   5.564   6.773   3.301
 2250SOL     OW 7648   3.508   4.030   4.959
 2250SOL    HW1 7649   3.472   4.045   4.867
 2250SOL    HW2 7650   3.608   4.042   4.959
 2251SOL     OW 7651   5.194   0.521   6.872
 2251SOL    HW1 7652   5.231   0.430   6.890
 2251SOL    HW2 7653   5.224   0.584   6.944
 2252SOL     OW 7654   4.714   1.991   2.953
 2252SOL    HW1 7655   4.652   1.913   2.951
 2252SOL    HW2 7656   4.755   1.999   3.044
 2253SOL     OW 7657   0.054   3.725   0.026
 2253SOL    HW1 7658   0.066   3.824   0.019
 2253SOL    HW2 7659   0.082   3.683   6.965
 2254SOL     OW 7660   3.394   3.160   4.659
 2254SOL    HW1 7661   3.421   3.096   4.587
 2254SOL    HW2 7662   3.353   3.109   4.735
 2255SOL     OW 7663   3.943   3.050   6.048
 2255SOL    HW1 7664   3.994   2.969   6.018
 2255SOL    HW2 7665   3.909   3.034   6.141
 2256SOL     OW 7666   4.956   6.272   1.832
 2256SOL    HW1 7667   5.012   6.194   1.860
 2256SOL    HW2 7668   4.943   6.333   1.910
 2257SOL     OW 7669   0.326   1.757   4.488
 2257SOL    HW1 7670   0.227   1.745   4.495
 2257SOL    HW2 7671   0.366   1.676   4.444
 2258SOL     OW 7672   1.505   5.275   4.325
 2258SOL    HW1 7673   1.411   5.296   4.355
 2258SOL    HW2 7674   1.569   5.333   4.375
 2259SOL     OW 7675   5.304   2.706   5.532
 2259SOL    HW1 7676   5.301   2.799   5.569
 2259SOL    HW2 7677   5.243   2.647   5.585
 2260SOL     OW 7678   0.194   4.716   1.280
 2260SOL    HW1 7679   0.247   4.767   1.213
 2260SOL    HW2 7680   0.155   4.634   1.237
 2261SOL     OW 7681   5.878   4.769   0.130
 2261SOL    HW1 7682   5.878   4.867   0.149
 2261SOL    HW2 7683   5.941   4.723   0.193
 2262SOL     OW 7684   6.008   0.396   3.629
 2262SOL    HW1 7685   5.999   0.314   3.573
 2262SOL    HW2 7686   6.102   0.431   3.623
 2263SOL     OW 7687   3.488   5.743   0.417
 2263SOL    HW1 7688   3.478   5.790   0.329
 2263SOL    HW2 7689   3.398   5.715   0.450
 2264SOL     OW 7690   3.192   5.190   6.283
 2264SOL    HW1 7691   3.204   5.104   6.333
 2264SOL    HW2 7692   3.097   5.199   6.255
 2265SOL     OW 7693   2.553   0.901   3.697
 2265SOL    HW1 7694   2.551   0.912   3.796
 2265SOL    HW2 7695   2.624   0.835   3.672
 2266SOL     OW 7696   5.176   1.346   0.766
 2266SOL    HW1 7697   5.135   1.405   0.835
 2266SOL    HW2 7698   5.227   1.403   0.700
 2267SOL     OW 7699   4.899   3.290   4.823
 2267SOL    HW1 7700   4.990   3.253   4.802
 2267SOL    HW2 7701   4.867   3.345   4.746
 2268SOL     OW 7702   5.944   4.043   6.624
 2268SOL    HW1 7703   5.911   3.998   6.541
 2268SOL    HW2 7704   5.927   3.984   6.703
 2269SOL     OW 7705   6.794   4.498   5.530
 2269SOL    HW1 7706   6.824   4.542   5.446
 2269SOL    HW2 7707   6.815   4.558   5.608
 2270SOL     OW 7708   3.671   2.388   5.834
 2270SOL    HW1 7709   3.635   2.477   5.803
 2270SOL    HW2 7710   3.606   2.346   5.896
 2271SOL     OW 7711   5.599   4.746   0.300
 2271SOL    HW1 7712   5.585   4.649   0.282
 2271SOL    HW2 7713   5.680   4.778   0.250
 2272SOL     OW 7714   5.942   2.074   6.678
 2272SOL    HW1 7715   5.892   2.115   6.602
 2272SOL    HW2 7716   5.899   2.100   6.764
 2273SOL     OW 7717   1.702   1.314   2.232
 2273SOL    HW1 7718   1.674   1.326   2.137
 2273SOL    HW2 7719   1.753   1.395   2.262
 2274SOL     OW 7720   0.823   2.112   5.794
 2274SOL    HW1 7721   0.915   2.133   5.826
 2274SOL    HW2 7722   0.778   2.197   5.765
 2275SOL     OW 7723   6.433   6.355   4.494
 2275SOL    HW1 7724   6.518   6.384   4.450
 2275SOL    HW2 7725   6.404   6.423   4.560
 2276SOL     OW 7726   2.501   5.701   1.776
 2276SOL    HW1 7727   2.470   5.762   1.849
 2276SOL    HW2 7728   2.432   5.631   1.760
 2277SOL     OW 7729   3.770   4.141   4.039
 2277SOL    HW1 7730   3.675   4.164   4.013
 2277SOL    HW2 7731   3.833   4.181   3.972
 2278SOL     OW 7732   6.099   3.940   4.539
 2278SOL    HW1 7733   6.098   3.923   4.440
 2278SOL    HW2 7734   6.008   3.970   4.569
 2279SOL     OW 7735   5.762   6.687   5.903
 2279SOL    HW1 7736   5.680   6.731   5.940
 2279SOL    HW2 7737   5.843   6.736   5.934
 2280SOL     OW 7738   6.961   0.354   4.869
 2280SOL    HW1 7739   6.919   0.439   4.901
 2280SOL    HW2 7740   6.934   0.278   4.928
 2281SOL     OW 7741   3.247   0.648   1.908
 2281SOL    HW1 7742   3.280   0.674   1.998
 2281SOL    HW2 7743   3.269   0.720   1.842
 2282SOL     OW 7744   5.433   0.012   5.438
 2282SOL    HW1 7745   5.445   0.105   5.405
 2282SOL    HW2 7746   5.348   0.006   5.490
 2283SOL     OW 7747   1.477   6.073   1.856
 2283SOL    HW1 7748   1.390   6.094   1.901
 2283SOL    HW2 7749   1.516   6.157   1.817
 2284SOL     OW 7750   1.607   3.083   0.022
 2284SOL    HW1 7751   1.651   3.165   7.011
 2284SOL    HW2 7752   1.667   3.039   0.089
 2285SOL     OW 7753   1.853   2.666   1.239
 2285SOL    HW1 7754   1.931   2.710   1.284
 2285SOL    HW2 7755   1.791   2.629   1.309
 2286SOL     OW 7756   5.714   6.735   3.676
 2286SOL    HW1 7757   5.650   6.759   3.603
 2286SOL    HW2 7758   5.694   6.791   3.757
 2287SOL     OW 7759   2.336   6.954   3.368
 2287SOL    HW1 7760   2.240   6.942   3.393
 2287SOL    HW2 7761   2.348   6.930   3.272
 2288SOL     OW 7762   6.042   4.827   4.118
 2288SOL    HW1 7763   6.036   4.735   4.157
 2288SOL    HW2 7764   5.954   4.851   4.076
 2289SOL     OW 7765   0.751   5.021   0.835
 2289SOL    HW1 7766   0.828   5.081   0.816
 2289SOL    HW2 7767   0.707   4.995   0.749
 2290SOL     OW 7768   0.320   3.663   0.996
 2290SOL    HW1 7769   0.352   3.748   1.038
 2290SOL    HW2 7770   0.389   3.630   0.932
 2291SOL     OW 7771   1.668   2.264   5.216
 2291SOL    HW1 7772   1.618   2.323   5.281
 2291SOL    HW2 7773   1.683   2.174   5.257
 2292SOL     OW 7774   0.437   2.073   4.119
 2292SOL    HW1 7775   0.451   2.156   4.065
 2292SOL    HW2 7776   0.509   2.006   4.097
 2293SOL     OW 7777   5.027   6.198   1.475
 2293SOL    HW1 7778   5.004   6.283   1.522
 2293SOL    HW2 7779   4.984   6.197   1.385
 2294SOL     OW 7780   3.388   0.439   6.896
 2294SOL    HW1 7781   3.411   0.536   6.898
 2294SOL    HW2 7782   3.328   0.420   6.819
 2295SOL     OW 7783   0.641   1.805   2.917
 2295SOL    HW1 7784   0.697   1.761   2.847
 2295SOL    HW2 7785   0.695   1.817   3.001
 2296SOL     OW 7786   4.467   5.122   0.489
 2296SOL    HW1 7787   4.472   5.167   0.400
 2296SOL    HW2 7788   4.523   5.039   0.487
 2297SOL     OW 7789   4.498   4.044   5.383
 2297SOL    HW1 7790   4.478   4.076   5.475
 2297SOL    HW2 7791   4.483   3.945   5.378
 2298SOL     OW 7792   4.231   3.200   1.854
 2298SOL    HW1 7793   4.159   3.197   1.784
 2298SOL    HW2 7794   4.312   3.152   1.820
 2299SOL     OW 7795   4.874   6.158   5.485
 2299SOL    HW1 7796   4.915   6.249   5.498
 2299SOL    HW2 7797   4.776   6.168   5.469
 2300SOL     OW 7798   2.095   5.385   2.320
 2300SOL    HW1 7799   2.173   5.353   2.374
 2300SOL    HW2 7800   2.094   5.339   2.231
 2301SOL     OW 7801   3.217   2.955   2.762
 2301SOL    HW1 7802   3.151   2.908   2.704
 2301SOL    HW2 7803   3.225   2.908   2.850
 2302SOL     OW 7804   3.883   0.282   0.705
 2302SOL    HW1 7805   3.880   0.182   0.700
 2302SOL    HW2 7806   3.911   0.310   0.796
 2303SOL     OW 7807   1.964   3.229   6.304
 2303SOL    HW1 7808   2.010   3.187   6.381
 2303SOL    HW2 7809   1.989   3.181   6.219
 2304SOL     OW 7810   4.291   6.974   3.955
 2304SOL    HW1 7811   4.301   6.889   3.904
 2304SOL    HW2 7812   4.370   0.008   3.939
 2305SOL     OW 7813   2.566   6.950   2.750
 2305SOL    HW1 7814   2.601   6.876   2.807
 2305SOL    HW2 7815   2.546   6.915   2.658
 2306SOL     OW 7816   2.690   4.934   2.072
 2306SOL    HW1 7817   2.620   4.895   2.132
 2306SOL    HW2 7818   2.760   4.977   2.128
 2307SOL     OW 7819   0.453   4.174   2.607
 2307SOL    HW1 7820   0.404   4.255   2.574
 2307SOL    HW2 7821   0.464   4.109   2.532
 2308SOL     OW 7822   1.566   6.399   0.240
 2308SOL    HW1 7823   1.578   6.320   0.299
 2308SOL    HW2 7824   1.593   6.376   0.147
 2309SOL     OW 7825   2.176   6.612   6.759
 2309SOL    HW1 7826   2.097   6.551   6.756
 2309SOL    HW2 7827   2.188   6.649   6.852
 2310SOL     OW 7828   5.479   6.343   1.310
 2310SOL    HW1 7829   5.473   6.412   1.237
 2310SOL    HW2 7830   5.461   6.252   1.272
 2311SOL     OW 7831   2.322   5.924   1.846
 2311SOL    HW1 7832   2.367   5.971   1.922
 2311SOL    HW2 7833   2.313   5.986   1.769
 2312SOL     OW 7834   3.182   6.458   4.082
 2312SOL    HW1 7835   3.169   6.476   4.180
 2312SOL    HW2 7836   3.144   6.534   4.029
 2313SOL     OW 7837   5.243   5.564   1.448
 2313SOL    HW1 7838   5.226   5.562   1.350
 2313SOL    HW2 7839   5.313   5.632   1.469
 2314SOL     OW 7840   5.612   0.481   5.106
 2314SOL    HW1 7841   5.544   0.460   5.176
 2314SOL    HW2 7842   5.582   0.442   5.018
 2315SOL     OW 7843   4.937   3.384   5.551
 2315SOL    HW1 7844   4.908   3.359   5.459
 2315SOL    HW2 7845   5.028   3.346   5.569
 2316SOL     OW 7846   3.097   0.730   4.374
 2316SOL    HW1 7847   3.101   0.827   4.350
 2316SOL    HW2 7848   3.164   0.710   4.445
 2317SOL     OW 7849   6.566   5.795   3.252
 2317SOL    HW1 7850   6.523   5.713   3.290
 2317SOL    HW2 7851   6.505   5.836   3.184
 2318SOL     OW 7852   2.163   2.950   4.030
 2318SOL    HW1 7853   2.216   2.865   4.028
 2318SOL    HW2 7854   2.201   3.014   3.964
 2319SOL     OW 7855   2.800   5.660   4.681
 2319SOL    HW1 7856   2.874   5.727   4.682
 2319SOL    HW2 7857   2.812   5.598   4.604
 2320SOL     OW 7858   0.683   2.966   4.797
 2320SOL    HW1 7859   0.706   3.037   4.730
 2320SOL    HW2 7860   0.765   2.913   4.819
 2321SOL     OW 7861   2.156   5.736   6.811
 2321SOL    HW1 7862   2.255   5.727   6.797
 2321SOL    HW2 7863   2.138   5.739   6.910
 2322SOL     OW 7864   1.492   4.070   3.257
 2322SOL    HW1 7865   1.476   3.972   3.270
 2322SOL    HW2 7866   1.587   4.091   3.276
 2323SOL     OW 7867   3.483   4.894   1.701
 2323SOL    HW1 7868   3.487   4.803   1.743
 2323SOL    HW2 7869   3.556   4.951   1.739
 2324SOL     OW 7870   6.892   5.957   0.678
 2324SOL    HW1 7871   6.844   5.980   0.593
 2324SOL    HW2 7872   6.840   5.889   0.729
 2325SOL     OW 7873   0.947   4.341   1.360
 2325SOL    HW1 7874   1.024   4.355   1.298
 2325SOL    HW2 7875   0.933   4.424   1.415
 2326SOL     OW 7876   3.405   5.758   6.668
 2326SOL    HW1 7877   3.479   5.825   6.673
 2326SOL    HW2 7878   3.441   5.672   6.630
 2327SOL     OW 7879   6.560   1.427   4.035
 2327SOL    HW1 7880   6.491   1.390   4.098
 2327SOL    HW2 7881   6.557   1.377   3.949
 2328SOL     OW 7882   1.420   1.710   2.984
 2328SOL    HW1 7883   1.397   1.616   3.010
 2328SOL    HW2 7884   1.416   1.719   2.885
 2329SOL     OW 7885   2.092   4.544   4.450
 2329SOL    HW1 7886   2.175   4.591   4.480
 2329SOL    HW2 7887   2.083   4.457   4.497
 2330SOL     OW 7888   0.499   3.864   1.073
 2330SOL    HW1 7889   0.542   3.857   0.983
 2330SOL    HW2 7890   0.570   3.870   1.144
 2331SOL     OW 7891   3.770   5.981   6.547
 2331SOL    HW1 7892   3.869   5.970   6.551
 2331SOL    HW2 7893   3.734   5.935   6.465
 2332SOL     OW 7894   5.344   1.461   5.450
 2332SOL    HW1 7895   5.289   1.486   5.530
 2332SOL    HW2 7896   5.331   1.529   5.378
 2333SOL     OW 7897   0.337   4.370   2.850
 2333SOL    HW1 7898   0.252   4.403   2.810
 2333SOL    HW2 7899   0.407   4.442   2.843
 2334SOL     OW 7900   2.151   0.747   6.807
 2334SOL    HW1 7901   2.211   0.733   6.886
 2334SOL    HW2 7902   2.124   0.844   6.803
 2335SOL     OW 7903   6.499   1.292   3.537
 2335SOL    HW1 7904   6.407   1.307   3.501
 2335SOL    HW2 7905   6.499   1.302   3.636
 2336SOL     OW 7906   4.458   2.519   5.044
 2336SOL    HW1 7907   4.378   2.460   5.051
 2336SOL    HW2 7908   4.523   2.497   5.117
 2337SOL     OW 7909   4.542   0.987   1.975
 2337SOL    HW1 7910   4.557   1.073   2.024
 2337SOL    HW2 7911   4.450   0.987   1.935
 2338SOL     OW 7912   1.206   3.112   5.400
 2338SOL    HW1 7913   1.251   3.086   5.485
 2338SOL    HW2 7914   1.257   3.075   5.322
 2339SOL     OW 7915   3.325   3.524   4.294
 2339SOL    HW1 7916   3.268   3.489   4.369
 2339SOL    HW2 7917   3.292   3.614   4.266
 2340SOL     OW 7918   6.267   4.463   0.034
 2340SOL    HW1 7919   6.346   4.455   6.997
 2340SOL    HW2 7920   6.194   4.513   7.013
 2341SOL     OW 7921   3.844   4.942   1.856
 2341SOL    HW1 7922   3.791   5.000   1.794
 2341SOL    HW2 7923   3.785   4.869   1.891
 2342SOL     OW 7924   0.703   0.103   5.185
 2342SOL    HW1 7925   0.615   0.101   5.137
 2342SOL    HW2 7926   0.698   0.046   5.267
 2343SOL     OW 7927   1.769   5.713   3.425
 2343SOL    HW1 7928   1.840   5.772   3.464
 2343SOL    HW2 7929   1.706   5.769   3.371
 2344SOL     OW 7930   1.915   5.995   7.009
 2344SOL    HW1 7931   1.844   6.033   0.043
 2344SOL    HW2 7932   1.881   5.988   6.915
 2345SOL     OW 7933   3.358   5.542   4.850
 2345SOL    HW1 7934   3.314   5.592   4.924
 2345SOL    HW2 7935   3.320   5.449   4.845
 2346SOL     OW 7936   4.047   2.834   5.529
 2346SOL    HW1 7937   4.007   2.780   5.455
 2346SOL    HW2 7938   3.985   2.835   5.607
 2347SOL     OW 7939   2.952   2.836   1.613
 2347SOL    HW1 7940   2.862   2.864   1.580
 2347SOL    HW2 7941   2.979   2.895   1.689
 2348SOL     OW 7942   2.431   0.175   3.379
 2348SOL    HW1 7943   2.461   0.202   3.471
 2348SOL    HW2 7944   2.404   0.079   3.380
 2349SOL     OW 7945   1.117   4.381   6.201
 2349SOL    HW1 7946   1.024   4.416   6.211
 2349SOL    HW2 7947   1.154   4.361   6.292
 2350SOL     OW 7948   4.686   6.925   6.355
 2350SOL    HW1 7949   4.740   7.008   6.339
 2350SOL    HW2 7950   4.730   6.847   6.311
 2351SOL     OW 7951   3.154   5.197   3.911
 2351SOL    HW1 7952   3.173   5.099   3.922
 2351SOL    HW2 7953   3.092   5.227   3.983
 2352SOL     OW 7954   0.772   4.375   2.239
 2352SOL    HW1 7955   0.743   4.451   2.297
 2352SOL    HW2 7956   0.824   4.410   2.161
 2353SOL     OW 7957   3.173   4.443   6.052
 2353SOL    HW1 7958   3.083   4.477   6.024
 2353SOL    HW2 7959   3.231   4.521   6.077
 2354SOL     OW 7960   3.322   1.459   5.923
 2354SOL    HW1 7961   3.412   1.473   5.881
 2354SOL    HW2 7962   3.299   1.361   5.919
 2355SOL     OW 7963   2.453   6.013   0.543
 2355SOL    HW1 7964   2.421   6.030   0.450
 2355SOL    HW2 7965   2.515   5.934   0.544
 2356SOL     OW 7966   1.380   3.198   6.430
 2356SOL    HW1 7967   1.457   3.168   6.374
 2356SOL    HW2 7968   1.413   3.254   6.506
 2357SOL     OW 7969   4.124   6.727   2.583
 2357SOL    HW1 7970   4.192   6.800   2.590
 2357SOL    HW2 7971   4.040   6.755   2.628
 2358SOL     OW 7972   4.039   4.813   5.050
 2358SOL    HW1 7973   4.088   4.877   4.991
 2358SOL    HW2 7974   3.944   4.844   5.063
 2359SOL     OW 7975   6.280   0.656   5.895
 2359SOL    HW1 7976   6.278   0.556   5.901
 2359SOL    HW2 7977   6.188   0.693   5.904
 2360SOL     OW 7978   5.377   4.621   6.847
 2360SOL    HW1 7979   5.357   4.556   6.774
 2360SOL    HW2 7980   5.465   4.665   6.829
 2361SOL     OW 7981   2.366   1.327   4.961
 2361SOL    HW1 7982   2.424   1.405   4.937
 2361SOL    HW2 7983   2.279   1.334   4.912
 2362SOL     OW 7984   2.314   6.969   4.743
 2362SOL    HW1 7985   2.332   0.021   4.804
 2362SOL    HW2 7986   2.215   6.962   4.727
 2363SOL     OW 7987   4.434   2.183   5.187
 2363SOL    HW1 7988   4.520   2.220   5.152
 2363SOL    HW2 7989   4.415   2.095   5.144
 2364SOL     OW 7990   1.167   1.684   2.572
 2364SOL    HW1 7991   1.258   1.647   2.552
 2364SOL    HW2 7992   1.097   1.625   2.532
 2365SOL     OW 7993   6.544   2.686   6.397
 2365SOL    HW1 7994   6.572   2.590   6.389
 2365SOL    HW2 7995   6.625   2.744   6.400
 2366SOL     OW 7996   1.814   5.484   6.402
 2366SOL    HW1 7997   1.753   5.561   6.382
 2366SOL    HW2 7998   1.864   5.459   6.319
 2367SOL     OW 7999   2.714   4.431   0.797
 2367SOL    HW1 8000   2.625   4.399   0.829
 2367SOL    HW2 8001   2.772   4.353   0.775
 2368SOL     OW 8002   4.481   0.133   3.695
 2368SOL    HW1 8003   4.394   0.086   3.682
 2368SOL    HW2 8004   4.499   0.145   3.793
 2369SOL     OW 8005   1.128   2.647   5.481
 2369SOL    HW1 8006   1.042   2.630   5.530
 2369SOL    HW2 8007   1.108   2.675   5.387
 2370SOL     OW 8008   5.015   3.687   6.924
 2370SOL    HW1 8009   4.971   3.771   6.955
 2370SOL    HW2 8010   5.108   3.707   6.893
 2371SOL     OW 8011   0.700   0.295   2.192
 2371SOL    HW1 8012   0.716   0.381   2.239
 2371SOL    HW2 8013   0.786   0.243   2.188
 2372SOL     OW 8014   0.099   2.363   2.007
 2372SOL    HW1 8015   0.102   2.287   2.072
 2372SOL    HW2 8016   0.180   2.420   2.019
 2373SOL     OW 8017   0.467   1.241   0.481
 2373SOL    HW1 8018   0.526   1.312   0.520
 2373SOL    HW2 8019   0.379   1.241   0.528
 2374SOL     OW 8020   6.092   1.198   3.607
 2374SOL    HW1 8021   6.159   1.130   3.636
 2374SOL    HW2 8022   6.006   1.151   3.584
 2375SOL     OW 8023   2.789   6.747   4.788
 2375SOL    HW1 8024   2.777   6.829   4.844
 2375SOL    HW2 8025   2.861   6.690   4.828
 2376SOL     OW 8026   6.726   2.539   4.033
 2376SOL    HW1 8027   6.719   2.635   4.058
 2376SOL    HW2 8028   6.743   2.530   3.935
 2377SOL     OW 8029   3.362   4.013   3.347
 2377SOL    HW1 8030   3.449   4.038   3.305
 2377SOL    HW2 8031   3.347   3.914   3.336
 2378SOL     OW 8032   4.811   1.997   0.407
 2378SOL    HW1 8033   4.715   1.984   0.431
 2378SOL    HW2 8034   4.852   2.063   0.470
 2379SOL     OW 8035   5.822   2.201   6.894
 2379SOL    HW1 8036   5.753   2.269   6.869
 2379SOL    HW2 8037   5.787   2.142   6.966
 2380SOL     OW 8038   0.577   0.720   6.618
 2380SOL    HW1 8039   0.589   0.658   6.541
 2380SOL    HW2 8040   0.613   0.810   6.594
 2381SOL     OW 8041   2.135   3.901   4.337
 2381SOL    HW1 8042   2.144   4.000   4.340
 2381SOL    HW2 8043   2.105   3.867   4.427
 2382SOL     OW 8044   2.421   4.419   3.604
 2382SOL    HW1 8045   2.414   4.338   3.662
 2382SOL    HW2 8046   2.330   4.449   3.577
 2383SOL     OW 8047   5.497   6.539   1.114
 2383SOL    HW1 8048   5.454   6.628   1.133
 2383SOL    HW2 8049   5.576   6.552   1.055
 2384SOL     OW 8050   5.960   0.195   3.070
 2384SOL    HW1 8051   5.918   0.258   3.136
 2384SOL    HW2 8052   6.011   0.248   3.002
 2385SOL     OW 8053   1.176   6.584   1.299
 2385SOL    HW1 8054   1.162   6.531   1.383
 2385SOL    HW2 8055   1.208   6.676   1.323
 2386SOL     OW 8056   5.281   4.948   4.330
 2386SOL    HW1 8057   5.345   5.025   4.323
 2386SOL    HW2 8058   5.331   4.866   4.360
 2387SOL     OW 8059   1.263   1.117   3.889
 2387SOL    HW1 8060   1.338   1.142   3.828
 2387SOL    HW2 8061   1.257   1.184   3.963
 2388SOL     OW 8062   0.980   2.165   3.489
 2388SOL    HW1 8063   1.072   2.173   3.527
 2388SOL    HW2 8064   0.915   2.146   3.563
 2389SOL     OW 8065   5.044   3.679   2.863
 2389SOL    HW1 8066   5.144   3.667   2.861
 2389SOL    HW2 8067   5.010   3.691   2.770
 2390SOL     OW 8068   4.108   3.441   2.837
 2390SOL    HW1 8069   4.124   3.344   2.856
 2390SOL    HW2 8070   4.195   3.490   2.842
 2391SOL     OW 8071   4.566   4.395   5.558
 2391SOL    HW1 8072   4.510   4.378   5.476
 2391SOL    HW2 8073   4.662   4.380   5.535
 2392SOL     OW 8074   3.598   6.650   5.731
 2392SOL    HW1 8075   3.554   6.562   5.749
 2392SOL    HW2 8076   3.694   6.645   5.761
 2393SOL     OW 8077   5.103   3.526   6.137
 2393SOL    HW1 8078   5.111   3.444   6.193
 2393SOL    HW2 8079   5.117   3.502   6.041
 2394SOL     OW 8080   1.628   3.267   4.414
 2394SOL    HW1 8081   1.710   3.317   4.441
 2394SOL    HW2 8082   1.550   3.330   4.408
 2395SOL     OW 8083   5.966   2.642   6.682
 2395SOL    HW1 8084   5.985   2.692   6.597
 2395SOL    HW2 8085   5.883   2.588   6.670
 2396SOL     OW 8086   4.077   5.008   1.433
 2396SOL    HW1 8087   4.113   4.957   1.511
 2396SOL    HW2 8088   3.981   4.985   1.419
 2397SOL     OW 8089   0.499   3.982   6.522
 2397SOL    HW1 8090   0.566   3.912   6.547
 2397SOL    HW2 8091   0.428   3.943   6.464
 2398SOL     OW 8092   2.810   3.590   6.671
 2398SOL    HW1 8093   2.718   3.604   6.636
 2398SOL    HW2 8094   2.850   3.679   6.696
 2399SOL     OW 8095   4.271   1.682   2.143
 2399SOL    HW1 8096   4.367   1.708   2.133
 2399SOL    HW2 8097   4.244   1.624   2.066
 2400SOL     OW 8098   3.165   4.519   0.371
 2400SOL    HW1 8099   3.076   4.494   0.407
 2400SOL    HW2 8100   3.154   4.571   0.286
 2401SOL     OW 8101   3.315   6.587   6.433
 2401SOL    HW1 8102   3.276   6.505   6.475
 2401SOL    HW2 8103   3.324   6.573   6.335
 2402SOL     OW 8104   6.726   1.203   3.835
 2402SOL    HW1 8105   6.792   1.276   3.853
 2402SOL    HW2 8106   6.757   1.119   3.880
 2403SOL     OW 8107   2.078   2.661   0.201
 2403SOL    HW1 8108   1.999   2.659   0.262
 2403SOL    HW2 8109   2.072   2.584   0.137
 2404SOL     OW 8110   3.997   0.764   1.497
 2404SOL    HW1 8111   4.089   0.776   1.536
 2404SOL    HW2 8112   3.973   0.667   1.498
 2405SOL     OW 8113   3.813   3.370   2.800
 2405SOL    HW1 8114   3.894   3.427   2.815
 2405SOL    HW2 8115   3.750   3.419   2.740
 2406SOL     OW 8116   2.764   6.825   3.186
 2406SOL    HW1 8117   2.729   6.804   3.095
 2406SOL    HW2 8118   2.840   6.765   3.208
 2407SOL     OW 8119   4.819   1.794   2.657
 2407SOL    HW1 8120   4.814   1.887   2.620
 2407SOL    HW2 8121   4.755   1.785   2.733
 2408SOL     OW 8122   4.206   5.053   3.304
 2408SOL    HW1 8123   4.131   5.100   3.349
 2408SOL    HW2 8124   4.201   4.955   3.324
 2409SOL     OW 8125   1.270   3.959   2.069
 2409SOL    HW1 8126   1.299   3.865   2.052
 2409SOL    HW2 8127   1.259   3.974   2.167
 2410SOL     OW 8128   4.828   2.285   6.064
 2410SOL    HW1 8129   4.903   2.218   6.065
 2410SOL    HW2 8130   4.861   2.372   6.028
 2411SOL     OW 8131   4.168   5.078   5.179
 2411SOL    HW1 8132   4.110   5.019   5.234
 2411SOL    HW2 8133   4.139   5.173   5.191
 2412SOL     OW 8134   4.437   4.983   1.528
 2412SOL    HW1 8135   4.535   4.983   1.509
 2412SOL    HW2 8136   4.387   4.970   1.442
 2413SOL     OW 8137   6.116   2.184   1.125
 2413SOL    HW1 8138   6.077   2.250   1.188
 2413SOL    HW2 8139   6.046   2.118   1.098
 2414SOL     OW 8140   4.943   4.439   2.182
 2414SOL    HW1 8141   4.885   4.381   2.124
 2414SOL    HW2 8142   4.896   4.457   2.268
 2415SOL     OW 8143   6.998   6.588   2.056
 2415SOL    HW1 8144   6.975   6.683   2.074
 2415SOL    HW2 8145   7.024   6.542   2.141
 2416SOL     OW 8146   4.139   2.102   5.297
 2416SOL    HW1 8147   4.047   2.073   5.273
 2416SOL    HW2 8148   4.201   2.024   5.294
 2417SOL     OW 8149   3.999   3.282   5.916
 2417SOL    HW1 8150   3.979   3.185   5.930
 2417SOL    HW2 8151   4.024   3.297   5.820
 2418SOL     OW 8152   3.005   3.897   4.257
 2418SOL    HW1 8153   3.046   3.806   4.254
 2418SOL    HW2 8154   3.033   3.943   4.341
 2419SOL     OW 8155   0.855   6.198   4.834
 2419SOL    HW1 8156   0.818   6.238   4.750
 2419SOL    HW2 8157   0.796   6.222   4.911
 2420SOL     OW 8158   2.864   1.226   1.850
 2420SOL    HW1 8159   2.937   1.159   1.848
 2420SOL    HW2 8160   2.867   1.276   1.937
 2421SOL     OW 8161   3.004   1.974   4.808
 2421SOL    HW1 8162   2.941   2.050   4.824
 2421SOL    HW2 8163   3.096   2.011   4.793
 2422SOL     OW 8164   5.498   1.039   1.851
 2422SOL    HW1 8165   5.512   1.048   1.949
 2422SOL    HW2 8166   5.586   1.031   1.804
 2423SOL     OW 8167   0.543   6.394   3.067
 2423SOL    HW1 8168   0.521   6.436   3.155
 2423SOL    HW2 8169   0.502   6.447   2.993
 2424SOL     OW 8170   6.200   6.795   6.501
 2424SOL    HW1 8171   6.146   6.854   6.562
 2424SOL    HW2 8172   6.297   6.802   6.524
 2425SOL     OW 8173   5.933   0.041   4.346
 2425SOL    HW1 8174   5.931   0.081   4.437
 2425SOL    HW2 8175   5.842   0.049   4.304
 2426SOL     OW 8176   1.075   5.414   4.594
 2426SOL    HW1 8177   1.001   5.372   4.542
 2426SOL    HW2 8178   1.039   5.487   4.652
 2427SOL     OW 8179   5.966   5.299   5.403
 2427SOL    HW1 8180   5.950   5.355   5.484
 2427SOL    HW2 8181   6.058   5.316   5.368
 2428SOL     OW 8182   6.296   0.188   3.390
 2428SOL    HW1 8183   6.245   0.106   3.414
 2428SOL    HW2 8184   6.372   0.163   3.329
 2429SOL     OW 8185   5.243   5.240   3.622
 2429SOL    HW1 8186   5.340   5.218   3.632
 2429SOL    HW2 8187   5.217   5.311   3.688
 2430SOL     OW 8188   6.176   1.826   1.182
 2430SOL    HW1 8189   6.109   1.813   1.254
 2430SOL    HW2 8190   6.209   1.921   1.184
 2431SOL     OW 8191   4.509   0.795   2.515
 2431SOL    HW1 8192   4.457   0.719   2.476
 2431SOL    HW2 8193   4.489   0.803   2.613
 2432SOL     OW 8194   3.241   6.959   3.024
 2432SOL    HW1 8195   3.176   0.006   3.000
 2432SOL    HW2 8196   3.334   6.987   3.000
 2433SOL     OW 8197   3.525   0.710   1.459
 2433SOL    HW1 8198   3.496   0.690   1.365
 2433SOL    HW2 8199   3.602   0.651   1.483
 2434SOL     OW 8200   4.418   0.325   4.774
 2434SOL    HW1 8201   4.321   0.333   4.751
 2434SOL    HW2 8202   4.473   0.348   4.694
 2435SOL     OW 8203   4.417   4.665   6.497
 2435SOL    HW1 8204   4.328   4.621   6.513
 2435SOL    HW2 8205   4.421   4.751   6.547
 2436SOL     OW 8206   1.816   5.801   1.297
 2436SOL    HW1 8207   1.743   5.804   1.229
 2436SOL    HW2 8208   1.904   5.786   1.251
 2437SOL     OW 8209   5.115   6.449   6.500
 2437SOL    HW1 8210   5.139   6.379   6.567
 2437SOL    HW2 8211   5.197   6.477   6.450
 2438SOL     OW 8212   3.623   1.084   6.447
 2438SOL    HW1 8213   3.582   1.068   6.537
 2438SOL    HW2 8214   3.723   1.083   6.456
 2439SOL     OW 8215   1.035   4.647   6.618
 2439SOL    HW1 8216   1.114   4.593   6.591
 2439SOL    HW2 8217   0.966   4.588   6.660
 2440SOL     OW 8218   4.683   5.570   5.834
 2440SOL    HW1 8219   4.676   5.544   5.930
 2440SOL    HW2 8220   4.749   5.643   5.823
 2441SOL     OW 8221   1.034   0.765   0.224
 2441SOL    HW1 8222   1.090   0.734   0.147
 2441SOL    HW2 8223   1.018   0.689   0.287
 2442SOL     OW 8224   0.365   4.780   5.011
 2442SOL    HW1 8225   0.336   4.708   5.074
 2442SOL    HW2 8226   0.345   4.752   4.917
 2443SOL     OW 8227   4.020   5.386   5.752
 2443SOL    HW1 8228   4.102   5.340   5.719
 2443SOL    HW2 8229   4.027   5.485   5.735
 2444SOL     OW 8230   3.343   4.228   5.940
 2444SOL    HW1 8231   3.410   4.215   6.012
 2444SOL    HW2 8232   3.279   4.300   5.966
 2445SOL     OW 8233   0.724   0.514   1.980
 2445SOL    HW1 8234   0.737   0.462   2.064
 2445SOL    HW2 8235   0.722   0.450   1.902
 2446SOL     OW 8236   6.924   5.290   3.966
 2446SOL    HW1 8237   6.832   5.325   3.985
 2446SOL    HW2 8238   6.990   5.332   4.028
 2447SOL     OW 8239   1.960   2.576   0.840
 2447SOL    HW1 8240   1.970   2.537   0.931
 2447SOL    HW2 8241   2.050   2.584   0.797
 2448SOL     OW 8242   0.565   0.469   4.538
 2448SOL    HW1 8243   0.581   0.385   4.486
 2448SOL    HW2 8244   0.518   0.536   4.480
 2449SOL     OW 8245   0.075   4.903   0.946
 2449SOL    HW1 8246   0.153   4.855   0.986
 2449SOL    HW2 8247   0.040   4.971   1.011
 2450SOL     OW 8248   2.685   5.003   3.217
 2450SOL    HW1 8249   2.625   5.019   3.140
 2450SOL    HW2 8250   2.739   5.085   3.236
 2451SOL     OW 8251   0.839   0.393   3.163
 2451SOL    HW1 8252   0.859   0.303   3.125
 2451SOL    HW2 8253   0.767   0.386   3.231
 2452SOL     OW 8254   1.560   3.400   2.912
 2452SOL    HW1 8255   1.638   3.461   2.893
 2452SOL    HW2 8256   1.582   3.308   2.880
 2453SOL     OW 8257   6.364   4.078   1.178
 2453SOL    HW1 8258   6.271   4.114   1.174
 2453SOL    HW2 8259   6.393   4.074   1.274
 2454SOL     OW 8260   2.688   0.769   1.120
 2454SOL    HW1 8261   2.593   0.792   1.099
 2454SOL    HW2 8262   2.737   0.852   1.145
 2455SOL     OW 8263   5.715   5.907   0.149
 2455SOL    HW1 8264   5.648   5.918   0.221
 2455SOL    HW2 8265   5.732   5.809   0.134
 2456SOL     OW 8266   5.186   6.935   1.196
 2456SOL    HW1 8267   5.140   7.021   1.172
 2456SOL    HW2 8268   5.133   6.859   1.158
 2457SOL     OW 8269   6.514   6.167   0.343
 2457SOL    HW1 8270   6.418   6.184   0.321
 2457SOL    HW2 8271   6.557   6.251   0.373
 2458SOL     OW 8272   2.274   5.717   3.266
 2458SOL    HW1 8273   2.319   5.741   3.180
 2458SOL    HW2 8274   2.176   5.734   3.259
 2459SOL     OW 8275   2.327   6.728   0.443
 2459SOL    HW1 8276   2.257   6.658   0.455
 2459SOL    HW2 8277   2.353   6.765   0.532
 2460SOL     OW 8278   1.902   0.902   1.105
 2460SOL    HW1 8279   1.856   0.814   1.090
 2460SOL    HW2 8280   1.852   0.954   1.173
 2461SOL     OW 8281   5.159   0.950   3.271
 2461SOL    HW1 8282   5.103   1.009   3.328
 2461SOL    HW2 8283   5.204   1.004   3.200
 2462SOL     OW 8284   2.759   5.239   0.040
 2462SOL    HW1 8285   2.690   5.300   0.001
 2462SOL    HW2 8286   2.768   5.257   0.138
 2463SOL     OW 8287   5.772   2.744   4.053
 2463SOL    HW1 8288   5.684   2.774   4.016
 2463SOL    HW2 8289   5.757   2.675   4.123
 2464SOL     OW 8290   1.130   5.063   1.693
 2464SOL    HW1 8291   1.217   5.014   1.698
 2464SOL    HW2 8292   1.101   5.089   1.785
 2465SOL     OW 8293   0.202   5.099   1.396
 2465SOL    HW1 8294   0.280   5.043   1.367
 2465SOL    HW2 8295   0.211   5.121   1.493
 2466SOL     OW 8296   3.301   0.701   2.213
 2466SOL    HW1 8297   3.286   0.649   2.298
 2466SOL    HW2 8298   3.288   0.798   2.232
 2467SOL     OW 8299   5.696   1.065   5.849
 2467SOL    HW1 8300   5.624   0.997   5.838
 2467SOL    HW2 8301   5.784   1.018   5.864
 2468SOL     OW 8302   6.969   6.265   1.992
 2468SOL    HW1 8303   0.020   6.329   2.005
 2468SOL    HW2 8304   7.000   6.186   1.941
 2469SOL     OW 8305   3.260   4.231   5.670
 2469SOL    HW1 8306   3.299   4.163   5.608
 2469SOL    HW2 8307   3.302   4.221   5.760
 2470SOL     OW 8308   2.685   3.955   6.049
 2470SOL    HW1 8309   2.779   3.940   6.019
 2470SOL    HW2 8310   2.669   4.053   6.059
 2471SOL     OW 8311   1.422   6.734   1.030
 2471SOL    HW1 8312   1.419   6.642   0.990
 2471SOL    HW2 8313   1.512   6.749   1.071
 2472SOL     OW 8314   5.225   1.475   4.824
 2472SOL    HW1 8315   5.304   1.472   4.885
 2472SOL    HW2 8316   5.255   1.477   4.729
 2473SOL     OW 8317   2.287   4.412   4.891
 2473SOL    HW1 8318   2.314   4.439   4.983
 2473SOL    HW2 8319   2.338   4.331   4.863
 2474SOL     OW 8320   0.348   4.613   6.858
 2474SOL    HW1 8321   0.302   4.580   6.941
 2474SOL    HW2 8322   0.407   4.540   6.822
 2475SOL     OW 8323   4.053   2.293   0.952
 2475SOL    HW1 8324   4.073   2.316   0.857
 2475SOL    HW2 8325   3.977   2.228   0.955
 2476SOL     OW 8326   0.753   2.361   3.238
 2476SOL    HW1 8327   0.774   2.456   3.215
 2476SOL    HW2 8328   0.713   2.358   3.330
 2477SOL     OW 8329   6.366   6.616   1.812
 2477SOL    HW1 8330   6.419   6.698   1.834
 2477SOL    HW2 8331   6.283   6.643   1.764
 2478SOL     OW 8332   5.559   6.914   2.628
 2478SOL    HW1 8333   5.471   6.961   2.630
 2478SOL    HW2 8334   5.550   6.825   2.673
 2479SOL     OW 8335   0.383   3.678   1.356
 2479SOL    HW1 8336   0.329   3.762   1.365
 2479SOL    HW2 8337   0.472   3.700   1.315
 2480SOL     OW 8338   6.900   2.596   1.063
 2480SOL    HW1 8339   6.992   2.576   1.097
 2480SOL    HW2 8340   6.892   2.694   1.045
 2481SOL     OW 8341   3.510   6.233   0.368
 2481SOL    HW1 8342   3.523   6.332   0.367
 2481SOL    HW2 8343   3.591   6.190   0.407
 2482SOL     OW 8344   4.651   3.578   6.030
 2482SOL    HW1 8345   4.583   3.599   6.101
 2482SOL    HW2 8346   4.630   3.629   5.947
 2483SOL     OW 8347   2.136   1.265   0.584
 2483SOL    HW1 8348   2.103   1.176   0.550
 2483SOL    HW2 8349   2.058   1.316   0.621
 2484SOL     OW 8350   2.169   0.633   0.957
 2484SOL    HW1 8351   2.145   0.675   1.045
 2484SOL    HW2 8352   2.267   0.618   0.952
 2485SOL     OW 8353   5.451   4.960   2.388
 2485SOL    HW1 8354   5.429   4.987   2.481
 2485SOL    HW2 8355   5.396   4.880   2.362
 2486SOL     OW 8356   1.499   5.594   3.268
 2486SOL    HW1 8357   1.478   5.669   3.330
 2486SOL    HW2 8358   1.437   5.518   3.286
 2487SOL     OW 8359   4.422   6.475   0.098
 2487SOL    HW1 8360   4.486   6.411   0.140
 2487SOL    HW2 8361   4.361   6.426   0.036
 2488SOL     OW 8362   2.731   4.394   1.638
 2488SOL    HW1 8363   2.741   4.294   1.629
 2488SOL    HW2 8364   2.796   4.428   1.705
 2489SOL     OW 8365   2.486   5.553   4.445
 2489SOL    HW1 8366   2.498   5.613   4.524
 2489SOL    HW2 8367   2.403   5.579   4.396
 2490SOL     OW 8368   6.631   5.116   1.057
 2490SOL    HW1 8369   6.628   5.016   1.064
 2490SOL    HW2 8370   6.686   5.142   0.978
 2491SOL     OW 8371   2.726   5.820   2.978
 2491SOL    HW1 8372   2.794   5.772   3.034
 2491SOL    HW2 8373   2.737   5.919   2.990
 2492SOL     OW 8374   4.727   3.028   6.303
 2492SOL    HW1 8375   4.745   3.020   6.401
 2492SOL    HW2 8376   4.664   3.105   6.287
 2493SOL     OW 8377   5.782   0.367   2.755
 2493SOL    HW1 8378   5.849   0.381   2.828
 2493SOL    HW2 8379   5.775   0.270   2.734
 2494SOL     OW 8380   4.859   3.001   2.929
 2494SOL    HW1 8381   4.813   2.917   2.957
 2494SOL    HW2 8382   4.956   2.995   2.955
 2495SOL     OW 8383   4.705   1.118   4.979
 2495SOL    HW1 8384   4.758   1.166   5.049
 2495SOL    HW2 8385   4.675   1.183   4.910
 2496SOL     OW 8386   1.174   5.204   0.280
 2496SOL    HW1 8387   1.216   5.250   0.202
 2496SOL    HW2 8388   1.161   5.108   0.259
 2497SOL     OW 8389   6.856   1.752   0.806
 2497SOL    HW1 8390   6.857   1.728   0.709
 2497SOL    HW2 8391   6.942   1.724   0.849
 2498SOL     OW 8392   1.886   3.438   3.303
 2498SOL    HW1 8393   1.981   3.458   3.327
 2498SOL    HW2 8394   1.882   3.404   3.209
 2499SOL     OW 8395   5.519   0.716   4.977
 2499SOL    HW1 8396   5.562   0.642   5.028
 2499SOL    HW2 8397   5.453   0.764   5.035
 2500SOL     OW 8398   4.907   3.691   6.043
 2500SOL    HW1 8399   4.972   3.623   6.079
 2500SOL    HW2 8400   4.820   3.646   6.023
 2501SOL     OW 8401   5.739   4.141   6.933
 2501SOL    HW1 8402   5.835   4.133   6.906
 2501SOL    HW2 8403   5.699   4.050   6.944
 2502SOL     OW 8404   2.371   6.767   3.611
 2502SOL    HW1 8405   2.327   6.767   3.521
 2502SOL    HW2 8406   2.360   6.857   3.653
 2503SOL     OW 8407   3.935   6.018   5.605
 2503SOL    HW1 8408   3.896   5.995   5.516
 2503SOL    HW2 8409   3.871   6.077   5.655
 2504SOL     OW 8410   2.246   5.086   4.690
 2504SOL    HW1 8411   2.301   5.017   4.645
 2504SOL    HW2 8412   2.285   5.177   4.674
 2505SOL     OW 8413   3.479   5.639   4.624
 2505SOL    HW1 8414   3.430   5.610   4.707
 2505SOL    HW2 8415   3.509   5.558   4.573
 2506SOL     OW 8416   6.398   3.120   6.352
 2506SOL    HW1 8417   6.401   3.220   6.356
 2506SOL    HW2 8418   6.362   3.091   6.264
 2507SOL     OW 8419   6.467   5.091   0.349
 2507SOL    HW1 8420   6.409   5.104   0.430
 2507SOL    HW2 8421   6.545   5.034   0.374
 2508SOL     OW 8422   2.940   2.121   1.803
 2508SOL    HW1 8423   2.863   2.061   1.823
 2508SOL    HW2 8424   2.925   2.210   1.846
 2509SOL     OW 8425   5.979   2.005   2.441
 2509SOL    HW1 8426   6.016   1.912   2.435
 2509SOL    HW2 8427   6.050   2.071   2.416
 2510SOL     OW 8428   3.156   4.691   0.978
 2510SOL    HW1 8429   3.134   4.627   0.904
 2510SOL    HW2 8430   3.103   4.667   1.060
 2511SOL     OW 8431   1.343   1.092   4.690
 2511SOL    HW1 8432   1.268   1.122   4.749
 2511SOL    HW2 8433   1.392   1.171   4.655
 2512SOL     OW 8434   5.342   3.838   4.040
 2512SOL    HW1 8435   5.281   3.897   4.094
 2512SOL    HW2 8436   5.326   3.853   3.943
 2513SOL     OW 8437   1.002   2.485   6.313
 2513SOL    HW1 8438   1.028   2.580   6.295
 2513SOL    HW2 8439   0.946   2.482   6.396
 2514SOL     OW 8440   0.668   1.698   4.496
 2514SOL    HW1 8441   0.746   1.703   4.434
 2514SOL    HW2 8442   0.643   1.790   4.526
 2515SOL     OW 8443   1.847   6.441   0.698
 2515SOL    HW1 8444   1.771   6.505   0.688
 2515SOL    HW2 8445   1.866   6.398   0.610
 2516SOL     OW 8446   5.841   5.500   3.558
 2516SOL    HW1 8447   5.911   5.480   3.626
 2516SOL    HW2 8448   5.796   5.415   3.530
 2517SOL     OW 8449   2.283   4.339   6.001
 2517SOL    HW1 8450   2.364   4.294   5.963
 2517SOL    HW2 8451   2.202   4.284   5.982
 2518SOL     OW 8452   2.403   2.821   6.598
 2518SOL    HW1 8453   2.421   2.892   6.666
 2518SOL    HW2 8454   2.401   2.732   6.642
 2519SOL     OW 8455   4.892   5.464   4.603
 2519SOL    HW1 8456   4.835   5.403   4.548
 2519SOL    HW2 8457   4.877   5.559   4.574
 2520SOL     OW 8458   2.253   3.627   0.926
 2520SOL    HW1 8459   2.227   3.704   0.869
 2520SOL    HW2 8460   2.235   3.648   1.022
 2521SOL     OW 8461   0.795   0.227   5.676
 2521SOL    HW1 8462   0.830   0.147   5.724
 2521SOL    HW2 8463   0.730   0.197   5.605
 2522SOL     OW 8464   1.464   3.567   4.225
 2522SOL    HW1 8465   1.410   3.503   4.281
 2522SOL    HW2 8466   1.533   3.611   4.283
 2523SOL     OW 8467   6.539   2.961   0.766
 2523SOL    HW1 8468   6.530   3.016   0.682
 2523SOL    HW2 8469   6.486   2.877   0.756
 2524SOL     OW 8470   0.755   6.347   4.598
 2524SOL    HW1 8471   0.782   6.307   4.510
 2524SOL    HW2 8472   0.827   6.407   4.631
 2525SOL     OW 8473   1.116   4.231   4.362
 2525SOL    HW1 8474   1.096   4.144   4.407
 2525SOL    HW2 8475   1.204   4.266   4.394
 2526SOL     OW 8476   0.263   2.819   4.059
 2526SOL    HW1 8477   0.352   2.864   4.057
 2526SOL    HW2 8478   0.236   2.804   4.155
 2527SOL     OW 8479   5.886   6.353   5.486
 2527SOL    HW1 8480   5.846   6.328   5.574
 2527SOL    HW2 8481   5.819   6.404   5.432
 2528SOL     OW 8482   5.880   5.030   0.201
 2528SOL    HW1 8483   5.976   5.043   0.226
 2528SOL    HW2 8484   5.838   5.119   0.182
 2529SOL     OW 8485   4.594   5.130   5.425
 2529SOL    HW1 8486   4.617   5.189   5.347
 2529SOL    HW2 8487   4.678   5.097   5.468
 2530SOL     OW 8488   1.204   6.081   4.052
 2530SOL    HW1 8489   1.154   6.002   4.088
 2530SOL    HW2 8490   1.140   6.154   4.030
 2531SOL     OW 8491   5.201   6.997   4.804
 2531SOL    HW1 8492   5.267   6.924   4.815
 2531SOL    HW2 8493   5.114   6.959   4.772
 2532SOL     OW 8494   1.017   5.676   0.615
 2532SOL    HW1 8495   1.055   5.762   0.582
 2532SOL    HW2 8496   0.938   5.694   0.673
 2533SOL     OW 8497   5.395   6.825   4.823
 2533SOL    HW1 8498   5.479   6.851   4.776
 2533SOL    HW2 8499   5.418   6.776   4.907
 2534SOL     OW 8500   2.278   0.450   3.590
 2534SOL    HW1 8501   2.199   0.470   3.531
 2534SOL    HW2 8502   2.276   0.354   3.616
 2535SOL     OW 8503   1.493   2.107   4.524
 2535SOL    HW1 8504   1.589   2.107   4.553
 2535SOL    HW2 8505   1.438   2.154   4.591
 2536SOL     OW 8506   5.990   1.131   4.059
 2536SOL    HW1 8507   6.034   1.208   4.012
 2536SOL    HW2 8508   5.894   1.153   4.075
 2537SOL     OW 8509   4.725   6.546   0.904
 2537SOL    HW1 8510   4.693   6.503   0.819
 2537SOL    HW2 8511   4.785   6.622   0.883
 2538SOL     OW 8512   2.035   5.012   4.878
 2538SOL    HW1 8513   2.135   5.015   4.868
 2538SOL    HW2 8514   2.012   4.993   4.974
 2539SOL     OW 8515   4.628   0.023   5.350
 2539SOL    HW1 8516   4.610   0.093   5.281
 2539SOL    HW2 8517   4.629   6.958   5.307
 2540SOL     OW 8518   5.552   0.618   1.955
 2540SOL    HW1 8519   5.623   0.630   2.025
 2540SOL    HW2 8520   5.471   0.576   1.997
 2541SOL     OW 8521   1.671   0.446   5.315
 2541SOL    HW1 8522   1.732   0.375   5.351
 2541SOL    HW2 8523   1.719   0.497   5.244
 2542SOL     OW 8524   4.291   1.883   4.309
 2542SOL    HW1 8525   4.227   1.814   4.274
 2542SOL    HW2 8526   4.240   1.963   4.340
 2543SOL     OW 8527   0.766   0.575   3.608
 2543SOL    HW1 8528   0.812   0.564   3.696
 2543SOL    HW2 8529   0.799   0.658   3.563
 2544SOL     OW 8530   6.660   4.811   1.565
 2544SOL    HW1 8531   6.597   4.735   1.549
 2544SOL    HW2 8532   6.645   4.882   1.496
 2545SOL     OW 8533   2.205   2.127   1.029
 2545SOL    HW1 8534   2.142   2.142   0.953
 2545SOL    HW2 8535   2.282   2.071   0.998
 2546SOL     OW 8536   6.670   3.513   1.651
 2546SOL    HW1 8537   6.732   3.498   1.574
 2546SOL    HW2 8538   6.593   3.450   1.645
 2547SOL     OW 8539   6.104   5.169   0.735
 2547SOL    HW1 8540   6.132   5.181   0.830
 2547SOL    HW2 8541   6.033   5.236   0.712
 2548SOL     OW 8542   1.665   0.107   4.383
 2548SOL    HW1 8543   1.585   0.075   4.332
 2548SOL    HW2 8544   1.637   0.133   4.476
 2549SOL     OW 8545   1.750   2.842   1.923
 2549SOL    HW1 8546   1.796   2.882   2.002
 2549SOL    HW2 8547   1.818   2.820   1.853
 2550SOL     OW 8548   5.648   7.019   0.442
 2550SOL    HW1 8549   5.638   6.946   0.510
 2550SOL    HW2 8550   5.744   0.000   0.414
 2551SOL     OW 8551   3.556   4.880   6.831
 2551SOL    HW1 8552   3.581   4.833   6.916
 2551SOL    HW2 8553   3.638   4.915   6.787
 2552SOL     OW 8554   2.134   4.829   6.842
 2552SOL    HW1 8555   2.218   4.882   6.835
 2552SOL    HW2 8556   2.079   4.864   6.918
 2553SOL     OW 8557   3.738   2.009   5.831
 2553SOL    HW1 8558   3.782   2.097   5.846
 2553SOL    HW2 8559   3.698   2.006   5.740
 2554SOL     OW 8560   2.432   5.115   0.062
 2554SOL    HW1 8561   2.493   5.110   0.141
 2554SOL    HW2 8562   2.432   5.208   0.026
 2555SOL     OW 8563   6.626   6.019   6.205
 2555SOL    HW1 8564   6.602   6.060   6.293
 2555SOL    HW2 8565   6.544   5.977   6.165
 2556SOL     OW 8566   3.710   0.075   1.082
 2556SOL    HW1 8567   3.643   0.035   1.145
 2556SOL    HW2 8568   3.674   0.160   1.044
 2557SOL     OW 8569   3.051   0.514   6.858
 2557SOL    HW1 8570   3.018   0.563   6.777
 2557SOL    HW2 8571   3.029   0.417   6.850
 2558SOL     OW 8572   5.800   4.143   5.722
 2558SOL    HW1 8573   5.706   4.174   5.706
 2558SOL    HW2 8574   5.811   4.117   5.818
 2559SOL     OW 8575   6.744   3.435   3.182
 2559SOL    HW1 8576   6.840   3.452   3.158
 2559SOL    HW2 8577   6.713   3.351   3.139
 2560SOL     OW 8578   5.336   3.355   3.534
 2560SOL    HW1 8579   5.327   3.272   3.589
 2560SOL    HW2 8580   5.370   3.331   3.443
 2561SOL     OW 8581   3.620   0.896   3.914
 2561SOL    HW1 8582   3.677   0.927   3.838
 2561SOL    HW2 8583   3.583   0.806   3.893
 2562SOL     OW 8584   3.159   6.671   3.134
 2562SOL    HW1 8585   3.203   6.761   3.128
 2562SOL    HW2 8586   3.088   6.674   3.203
 2563SOL     OW 8587   3.186   1.377   6.654
 2563SOL    HW1 8588   3.236   1.316   6.714
 2563SOL    HW2 8589   3.240   1.459   6.637
 2564SOL     OW 8590   2.378   0.476   0.197
 2564SOL    HW1 8591   2.372   0.548   0.266
 2564SOL    HW2 8592   2.319   0.399   0.223
 2565SOL     OW 8593   0.129   1.281   6.801
 2565SOL    HW1 8594   0.071   1.232   6.866
 2565SOL    HW2 8595   0.072   1.339   6.743
 2566SOL     OW 8596   2.888   6.938   1.094
 2566SOL    HW1 8597   2.899   6.968   1.188
 2566SOL    HW2 8598   2.933   7.003   1.032
 2567SOL     OW 8599   1.402   1.454   0.315
 2567SOL    HW1 8600   1.304   1.454   0.293
 2567SOL    HW2 8601   1.419   1.387   0.388
 2568SOL     OW 8602   3.003   0.198   1.111
 2568SOL    HW1 8603   3.039   0.125   1.053
 2568SOL    HW2 8604   3.070   0.220   1.182
 2569SOL     OW 8605   2.469   1.128   0.476
 2569SOL    HW1 8606   2.452   1.101   0.570
 2569SOL    HW2 8607   2.568   1.129   0.459
 2570SOL     OW 8608   5.498   5.845   6.364
 2570SOL    HW1 8609   5.455   5.760   6.334
 2570SOL    HW2 8610   5.598   5.833   6.365
 2571SOL     OW 8611   3.896   3.137   4.757
 2571SOL    HW1 8612   3.881   3.179   4.846
 2571SOL    HW2 8613   3.967   3.188   4.708
 2572SOL     OW 8614   2.941   5.446   1.571
 2572SOL    HW1 8615   2.973   5.353   1.586
 2572SOL    HW2 8616   2.877   5.472   1.643
 2573SOL     OW 8617   6.400   2.609   3.734
 2573SOL    HW1 8618   6.372   2.598   3.639
 2573SOL    HW2 8619   6.413   2.706   3.755
 2574SOL     OW 8620   6.007   2.699   1.143
 2574SOL    HW1 8621   5.970   2.717   1.234
 2574SOL    HW2 8622   5.936   2.659   1.085
 2575SOL     OW 8623   5.045   3.966   0.625
 2575SOL    HW1 8624   5.129   3.951   0.572
 2575SOL    HW2 8625   5.049   3.911   0.709
 2576SOL     OW 8626   3.101   0.160   3.651
 2576SOL    HW1 8627   3.028   0.223   3.678
 2576SOL    HW2 8628   3.062   0.080   3.607
 2577SOL     OW 8629   3.771   0.498   4.256
 2577SOL    HW1 8630   3.679   0.529   4.280
 2577SOL    HW2 8631   3.818   0.570   4.205
 2578SOL     OW 8632   5.306   3.000   4.934
 2578SOL    HW1 8633   5.306   2.937   5.012
 2578SOL    HW2 8634   5.324   2.948   4.850
 2579SOL     OW 8635   0.554   1.531   5.799
 2579SOL    HW1 8636   0.597   1.459   5.745
 2579SOL    HW2 8637   0.570   1.620   5.755
 2580SOL     OW 8638   1.620   2.521   5.834
 2580SOL    HW1 8639   1.680   2.445   5.806
 2580SOL    HW2 8640   1.536   2.484   5.872
 2581SOL     OW 8641   5.346   5.217   1.717
 2581SOL    HW1 8642   5.429   5.247   1.765
 2581SOL    HW2 8643   5.339   5.117   1.721
 2582SOL     OW 8644   1.820   5.346   2.978
 2582SOL    HW1 8645   1.891   5.332   3.048
 2582SOL    HW2 8646   1.793   5.442   2.976
 2583SOL     OW 8647   1.265   0.930   1.443
 2583SOL    HW1 8648   1.327   0.940   1.365
 2583SOL    HW2 8649   1.176   0.898   1.411
 2584SOL     OW 8650   3.471   6.440   0.981
 2584SOL    HW1 8651   3.377   6.430   1.015
 2584SOL    HW2 8652   3.531   6.464   1.058
 2585SOL     OW 8653   3.394   0.661   1.217
 2585SOL    HW1 8654   3.362   0.754   1.201
 2585SOL    HW2 8655   3.316   0.602   1.238
 2586SOL     OW 8656   5.627   1.677   5.184
 2586SOL    HW1 8657   5.527   1.678   5.180
 2586SOL    HW2 8658   5.657   1.601   5.241
 2587SOL     OW 8659   6.947   0.396   4.572
 2587SOL    HW1 8660   6.957   0.409   4.671
 2587SOL    HW2 8661   6.949   0.298   4.551
 2588SOL     OW 8662   5.399   0.034   1.297
 2588SOL    HW1 8663   5.314   7.022   1.260
 2588SOL    HW2 8664   5.440   6.993   1.360
 2589SOL     OW 8665   6.758   0.204   5.758
 2589SOL    HW1 8666   6.820   0.282   5.759
 2589SOL    HW2 8667   6.734   0.182   5.663
 2590SOL     OW 8668   3.297   0.121   2.463
 2590SOL    HW1 8669   3.359   0.061   2.412
 2590SOL    HW2 8670   3.211   0.073   2.481
 2591SOL     OW 8671   5.361   6.065   0.796
 2591SOL    HW1 8672   5.396   6.137   0.736
 2591SOL    HW2 8673   5.411   5.980   0.778
 2592SOL     OW 8674   2.946   6.000   1.531
 2592SOL    HW1 8675   2.869   5.938   1.548
 2592SOL    HW2 8676   3.009   5.957   1.467
 2593SOL     OW 8677   3.011   6.640   2.491
 2593SOL    HW1 8678   3.093   6.594   2.526
 2593SOL    HW2 8679   2.964   6.686   2.566
 2594SOL     OW 8680   0.298   0.220   6.332
 2594SOL    HW1 8681   0.334   0.150   6.393
 2594SOL    HW2 8682   0.209   0.251   6.365
 2595SOL     OW 8683   6.888   2.602   5.116
 2595SOL    HW1 8684   6.906   2.604   5.018
 2595SOL    HW2 8685   6.921   2.687   5.158
 2596SOL     OW 8686   3.723   2.488   1.707
 2596SOL    HW1 8687   3.707   2.407   1.765
 2596SOL    HW2 8688   3.639   2.510   1.657
 2597SOL     OW 8689   2.020   3.705   0.369
 2597SOL    HW1 8690   1.983   3.613   0.356
 2597SOL    HW2 8691   2.117   3.706   0.344
 2598SOL     OW 8692   6.246   2.999   4.316
 2598SOL    HW1 8693   6.147   3.013   4.317
 2598SOL    HW2 8694   6.273   2.961   4.228
 2599SOL     OW 8695   3.298   5.773   6.075
 2599SOL    HW1 8696   3.397   5.762   6.071
 2599SOL    HW2 8697   3.256   5.727   5.996
 2600SOL     OW 8698   4.856   3.414   4.079
 2600SOL    HW1 8699   4.924   3.429   4.152
 2600SOL    HW2 8700   4.795   3.493   4.074
 2601SOL     OW 8701   2.973   2.461   6.539
 2601SOL    HW1 8702   2.876   2.483   6.538
 2601SOL    HW2 8703   2.996   2.414   6.624
 2602SOL     OW 8704   6.700   4.812   4.325
 2602SOL    HW1 8705   6.758   4.868   4.385
 2602SOL    HW2 8706   6.608   4.850   4.322
 2603SOL     OW 8707   2.557   2.542   1.688
 2603SOL    HW1 8708   2.591   2.492   1.608
 2603SOL    HW2 8709   2.606   2.511   1.769
 2604SOL     OW 8710   5.456   0.523   0.974
 2604SOL    HW1 8711   5.369   0.482   0.947
 2604SOL    HW2 8712   5.440   0.599   1.037
 2605SOL     OW 8713   4.941   4.757   3.067
 2605SOL    HW1 8714   4.846   4.739   3.093
 2605SOL    HW2 8715   4.964   4.704   2.986
 2606SOL     OW 8716   0.005   4.380   6.736
 2606SOL    HW1 8717   0.010   4.390   6.636
 2606SOL    HW2 8718   0.074   4.314   6.766
 2607SOL     OW 8719   1.466   1.771   4.781
 2607SOL    HW1 8720   1.371   1.779   4.750
 2607SOL    HW2 8721   1.522   1.734   4.708
 2608SOL     OW 8722   5.008   0.143   2.669
 2608SOL    HW1 8723   5.026   0.219   2.607
 2608SOL    HW2 8724   4.972   0.066   2.617
 2609SOL     OW 8725   1.083   2.088   2.067
 2609SOL    HW1 8726   1.158   2.045   2.017
 2609SOL    HW2 8727   0.999   2.038   2.050
 2610SOL     OW 8728   6.805   5.292   4.725
 2610SOL    HW1 8729   6.841   5.362   4.662
 2610SOL    HW2 8730   6.830   5.316   4.819
 2611SOL     OW 8731   6.156   6.897   1.299
 2611SOL    HW1 8732   6.057   6.906   1.293
 2611SOL    HW2 8733   6.184   6.895   1.395
 2612SOL     OW 8734   5.788   6.269   4.728
 2612SOL    HW1 8735   5.823   6.177   4.707
 2612SOL    HW2 8736   5.698   6.280   4.687
 2613SOL     OW 8737   2.881   6.404   2.363
 2613SOL    HW1 8738   2.907   6.495   2.393
 2613SOL    HW2 8739   2.896   6.395   2.264
 2614SOL     OW 8740   6.285   6.208   5.816
 2614SOL    HW1 8741   6.243   6.275   5.755
 2614SOL    HW2 8742   6.217   6.141   5.844
 2615SOL     OW 8743   5.904   5.745   3.369
 2615SOL    HW1 8744   5.871   5.658   3.406
 2615SOL    HW2 8745   5.989   5.770   3.415
 2616SOL     OW 8746   4.136   3.341   3.989
 2616SOL    HW1 8747   4.178   3.409   3.929
 2616SOL    HW2 8748   4.164   3.358   4.083
 2617SOL     OW 8749   3.004   5.458   0.912
 2617SOL    HW1 8750   3.090   5.447   0.862
 2617SOL    HW2 8751   2.932   5.405   0.867
 2618SOL     OW 8752   6.852   6.122   3.257
 2618SOL    HW1 8753   6.782   6.112   3.327
 2618SOL    HW2 8754   6.853   6.217   3.224
 2619SOL     OW 8755   4.448   1.769   2.615
 2619SOL    HW1 8756   4.377   1.700   2.624
 2619SOL    HW2 8757   4.431   1.825   2.535
 2620SOL     OW 8758   1.947   5.404   3.578
 2620SOL    HW1 8759   1.925   5.495   3.614
 2620SOL    HW2 8760   2.027   5.410   3.518
 2621SOL     OW 8761   1.180   5.739   3.622
 2621SOL    HW1 8762   1.212   5.753   3.529
 2621SOL    HW2 8763   1.250   5.690   3.675
 2622SOL     OW 8764   1.761   3.088   6.024
 2622SOL    HW1 8765   1.857   3.059   6.031
 2622SOL    HW2 8766   1.715   3.035   5.953
 2623SOL     OW 8767   3.886   1.083   4.838
 2623SOL    HW1 8768   3.971   1.108   4.792
 2623SOL    HW2 8769   3.907   1.037   4.925
 2624SOL     OW 8770   6.477   3.075   3.325
 2624SOL    HW1 8771   6.421   3.123   3.393
 2624SOL    HW2 8772   6.561   3.043   3.368
 2625SOL     OW 8773   1.630   2.803   4.799
 2625SOL    HW1 8774   1.636   2.857   4.715
 2625SOL    HW2 8775   1.671   2.854   4.875
 2626SOL     OW 8776   0.473   6.476   3.821
 2626SOL    HW1 8777   0.466   6.382   3.788
 2626SOL    HW2 8778   0.548   6.483   3.887
 2627SOL     OW 8779   0.295   0.948   5.180
 2627SOL    HW1 8780   0.376   0.923   5.128
 2627SOL    HW2 8781   0.219   0.964   5.118
 2628SOL     OW 8782   3.450   6.235   6.712
 2628SOL    HW1 8783   3.367   6.286   6.732
 2628SOL    HW2 8784   3.426   6.140   6.692
 2629SOL     OW 8785   3.865   3.901   1.905
 2629SOL    HW1 8786   3.889   3.958   1.826
 2629SOL    HW2 8787   3.948   3.859   1.942
 2630SOL     OW 8788   3.449   2.130   2.446
 2630SOL    HW1 8789   3.452   2.187   2.364
 2630SOL    HW2 8790   3.540   2.126   2.487
 2631SOL     OW 8791   4.031   6.953   3.844
 2631SOL    HW1 8792   4.121   6.968   3.885
 2631SOL    HW2 8793   4.026   6.860   3.807
 2632SOL     OW 8794   3.472   2.335   6.011
 2632SOL    HW1 8795   3.407   2.410   6.025
 2632SOL    HW2 8796   3.543   2.340   6.081
 2633SOL     OW 8797   5.977   2.432   6.263
 2633SOL    HW1 8798   6.051   2.480   6.310
 2633SOL    HW2 8799   6.014   2.356   6.210
 2634SOL     OW 8800   1.888   4.136   2.718
 2634SOL    HW1 8801   1.817   4.126   2.787
 2634SOL    HW2 8802   1.873   4.069   2.644
 2635SOL     OW 8803   5.201   5.724   4.094
 2635SOL    HW1 8804   5.118   5.675   4.121
 2635SOL    HW2 8805   5.183   5.823   4.098
 2636SOL     OW 8806   5.618   0.479   6.801
 2636SOL    HW1 8807   5.718   0.482   6.805
 2636SOL    HW2 8808   5.589   0.485   6.706
 2637SOL     OW 8809   6.379   0.868   3.958
 2637SOL    HW1 8810   6.414   0.957   3.927
 2637SOL    HW2 8811   6.299   0.844   3.904
 2638SOL     OW 8812   6.320   7.015   2.219
 2638SOL    HW1 8813   6.324   0.048   2.301
 2638SOL    HW2 8814   6.303   6.920   2.246
 2639SOL     OW 8815   6.796   6.610   2.596
 2639SOL    HW1 8816   6.874   6.614   2.658
 2639SOL    HW2 8817   6.798   6.689   2.535
 2640SOL     OW 8818   0.089   6.277   5.803
 2640SOL    HW1 8819   0.043   6.195   5.838
 2640SOL    HW2 8820   0.056   6.297   5.711
 2641SOL     OW 8821   5.786   3.082   0.714
 2641SOL    HW1 8822   5.764   3.018   0.642
 2641SOL    HW2 8823   5.801   3.173   0.675
 2642SOL     OW 8824   5.449   0.732   4.469
 2642SOL    HW1 8825   5.373   0.690   4.419
 2642SOL    HW2 8826   5.457   0.828   4.441
 2643SOL     OW 8827   0.041   5.052   3.154
 2643SOL    HW1 8828   0.118   5.115   3.161
 2643SOL    HW2 8829   6.996   5.076   3.221
 2644SOL     OW 8830   0.439   4.438   5.676
 2644SOL    HW1 8831   0.401   4.361   5.624
 2644SOL    HW2 8832   0.538   4.429   5.682
 2645SOL     OW 8833   4.542   6.543   5.184
 2645SOL    HW1 8834   4.618   6.500   5.136
 2645SOL    HW2 8835   4.455   6.513   5.144
 2646SOL     OW 8836   6.459   0.166   6.616
 2646SOL    HW1 8837   6.408   0.203   6.539
 2646SOL    HW2 8838   6.475   0.068   6.602
 2647SOL     OW 8839   5.180   0.638   1.159
 2647SOL    HW1 8840   5.118   0.698   1.210
 2647SOL    HW2 8841   5.273   0.651   1.191
 2648SOL     OW 8842   6.239   6.923   3.489
 2648SOL    HW1 8843   6.189   6.869   3.556
 2648SOL    HW2 8844   6.217   6.892   3.396
 2649SOL     OW 8845   4.044   1.212   5.853
 2649SOL    HW1 8846   4.135   1.251   5.839
 2649SOL    HW2 8847   4.051   1.112   5.859
 2650SOL     OW 8848   1.277   4.648   4.213
 2650SOL    HW1 8849   1.250   4.704   4.134
 2650SOL    HW2 8850   1.195   4.613   4.258
 2651SOL     OW 8851   1.297   1.859   0.798
 2651SOL    HW1 8852   1.290   1.888   0.702
 2651SOL    HW2 8853   1.240   1.778   0.812
 2652SOL     OW 8854   3.049   3.299   3.566
 2652SOL    HW1 8855   2.998   3.379   3.537
 2652SOL    HW2 8856   3.144   3.324   3.583
 2653SOL     OW 8857   4.987   6.674   5.233
 2653SOL    HW1 8858   5.058   6.686   5.302
 2653SOL    HW2 8859   5.029   6.654   5.145
 2654SOL     OW 8860   4.922   3.180   0.150
 2654SOL    HW1 8861   4.838   3.161   0.100
 2654SOL    HW2 8862   4.950   3.275   0.132
 2655SOL     OW 8863   4.499   4.576   4.156
 2655SOL    HW1 8864   4.426   4.640   4.182
 2655SOL    HW2 8865   4.572   4.580   4.225
 2656SOL     OW 8866   4.643   4.681   3.849
 2656SOL    HW1 8867   4.720   4.741   3.828
 2656SOL    HW2 8868   4.678   4.589   3.869
 2657SOL     OW 8869   2.768   4.272   6.256
 2657SOL    HW1 8870   2.705   4.336   6.212
 2657SOL    HW2 8871   2.821   4.223   6.186
 2658SOL     OW 8872   5.520   4.848   6.605
 2658SOL    HW1 8873   5.441   4.880   6.657
 2658SOL    HW2 8874   5.500   4.854   6.507
 2659SOL     OW 8875   6.668   2.260   4.417
 2659SOL    HW1 8876   6.743   2.312   4.377
 2659SOL    HW2 8877   6.606   2.230   4.344
 2660SOL     OW 8878   0.491   2.282   1.308
 2660SOL    HW1 8879   0.552   2.314   1.235
 2660SOL    HW2 8880   0.508   2.185   1.325
 2661SOL     OW 8881   2.092   6.290   1.811
 2661SOL    HW1 8882   2.076   6.340   1.896
 2661SOL    HW2 8883   2.073   6.350   1.733
 2662SOL     OW 8884   4.571   6.821   5.215
 2662SOL    HW1 8885   4.619   6.742   5.253
 2662SOL    HW2 8886   4.479   6.794   5.187
 2663SOL     OW 8887   2.145   4.536   1.523
 2663SOL    HW1 8888   2.172   4.596   1.599
 2663SOL    HW2 8889   2.205   4.553   1.445
 2664SOL     OW 8890   3.593   4.050   3.205
 2664SOL    HW1 8891   3.670   4.052   3.269
 2664SOL    HW2 8892   3.627   4.057   3.111
 2665SOL     OW 8893   3.719   2.127   4.954
 2665SOL    HW1 8894   3.621   2.139   4.935
 2665SOL    HW2 8895   3.764   2.091   4.873
 2666SOL     OW 8896   4.956   3.836   1.368
 2666SOL    HW1 8897   4.931   3.792   1.282
 2666SOL    HW2 8898   4.905   3.794   1.443
 2667SOL     OW 8899   1.755   6.372   4.916
 2667SOL    HW1 8900   1.749   6.281   4.874
 2667SOL    HW2 8901   1.742   6.364   5.015
 2668SOL     OW 8902   6.668   3.119   3.741
 2668SOL    HW1 8903   6.570   3.140   3.735
 2668SOL    HW2 8904   6.720   3.202   3.721
 2669SOL     OW 8905   3.164   4.888   5.514
 2669SOL    HW1 8906   3.240   4.881   5.449
 2669SOL    HW2 8907   3.199   4.875   5.607
 2670SOL     OW 8908   6.379   1.354   6.845
 2670SOL    HW1 8909   6.441   1.318   6.916
 2670SOL    HW2 8910   6.316   1.282   6.817
 2671SOL     OW 8911   2.632   4.012   0.162
 2671SOL    HW1 8912   2.578   4.095   0.173
 2671SOL    HW2 8913   2.590   3.955   0.091
 2672SOL     OW 8914   1.047   5.476   7.005
 2672SOL    HW1 8915   1.067   5.477   6.908
 2672SOL    HW2 8916   1.131   5.458   0.032
 2673SOL     OW 8917   5.536   2.755   3.393
 2673SOL    HW1 8918   5.625   2.799   3.392
 2673SOL    HW2 8919   5.537   2.675   3.332
 2674SOL     OW 8920   1.782   4.524   3.936
 2674SOL    HW1 8921   1.686   4.499   3.920
 2674SOL    HW2 8922   1.838   4.488   3.862
 2675SOL     OW 8923   0.979   4.365   5.146
 2675SOL    HW1 8924   0.960   4.394   5.053
 2675SOL    HW2 8925   1.043   4.429   5.189
 2676SOL     OW 8926   4.457   0.843   2.814
 2676SOL    HW1 8927   4.537   0.890   2.852
 2676SOL    HW2 8928   4.456   0.748   2.846
 2677SOL     OW 8929   3.771   5.028   1.563
 2677SOL    HW1 8930   3.736   4.949   1.512
 2677SOL    HW2 8931   3.696   5.071   1.613
 2678SOL     OW 8932   0.289   4.814   0.686
 2678SOL    HW1 8933   0.231   4.831   0.765
 2678SOL    HW2 8934   0.303   4.900   0.635
 2679SOL     OW 8935   4.217   5.485   1.319
 2679SOL    HW1 8936   4.238   5.405   1.375
 2679SOL    HW2 8937   4.292   5.551   1.327
 2680SOL     OW 8938   1.765   1.761   0.667
 2680SOL    HW1 8939   1.721   1.819   0.598
 2680SOL    HW2 8940   1.699   1.742   0.741
 2681SOL     OW 8941   1.596   2.874   4.225
 2681SOL    HW1 8942   1.625   2.969   4.236
 2681SOL    HW2 8943   1.514   2.871   4.168
 2682SOL     OW 8944   5.427   3.022   2.595
 2682SOL    HW1 8945   5.462   3.040   2.503
 2682SOL    HW2 8946   5.500   3.040   2.661
 2683SOL     OW 8947   1.213   4.340   1.230
 2683SOL    HW1 8948   1.299   4.387   1.251
 2683SOL    HW2 8949   1.214   4.248   1.270
 2684SOL     OW 8950   3.953   5.466   2.493
 2684SOL    HW1 8951   3.965   5.494   2.398
 2684SOL    HW2 8952   3.857   5.447   2.511
 2685SOL     OW 8953   6.228   6.856   5.018
 2685SOL    HW1 8954   6.289   6.929   4.986
 2685SOL    HW2 8955   6.268   6.813   5.099
 2686SOL     OW 8956   1.766   2.213   4.052
 2686SOL    HW1 8957   1.690   2.267   4.088
 2686SOL    HW2 8958   1.808   2.260   3.975
 2687SOL     OW 8959   4.462   4.719   2.644
 2687SOL    HW1 8960   4.486   4.816   2.637
 2687SOL    HW2 8961   4.363   4.710   2.639
 2688SOL     OW 8962   4.340   6.086   6.129
 2688SOL    HW1 8963   4.344   6.070   6.031
 2688SOL    HW2 8964   4.249   6.116   6.155
 2689SOL     OW 8965   2.236   1.791   3.571
 2689SOL    HW1 8966   2.294   1.872   3.561
 2689SOL    HW2 8967   2.248   1.730   3.492
 2690SOL     OW 8968   3.306   3.291   3.902
 2690SOL    HW1 8969   3.249   3.210   3.913
 2690SOL    HW2 8970   3.300   3.323   3.807
 2691SOL     OW 8971   1.433   5.340   2.117
 2691SOL    HW1 8972   1.435   5.258   2.060
 2691SOL    HW2 8973   1.339   5.368   2.132
 2692SOL     OW 8974   5.586   6.007   4.241
 2692SOL    HW1 8975   5.648   6.009   4.163
 2692SOL    HW2 8976   5.574   6.100   4.277
 2693SOL     OW 8977   2.335   4.360   2.781
 2693SOL    HW1 8978   2.414   4.412   2.815
 2693SOL    HW2 8979   2.251   4.404   2.811
 2694SOL     OW 8980   3.314   0.960   2.889
 2694SOL    HW1 8981   3.227   0.937   2.845
 2694SOL    HW2 8982   3.390   0.930   2.830
 2695SOL     OW 8983   5.246   1.753   2.540
 2695SOL    HW1 8984   5.278   1.805   2.461
 2695SOL    HW2 8985   5.212   1.816   2.610
 2696SOL     OW 8986   3.140   2.598   5.345
 2696SOL    HW1 8987   3.229   2.640   5.363
 2696SOL    HW2 8988   3.151   2.518   5.286
 2697SOL     OW 8989   4.355   2.014   4.034
 2697SOL    HW1 8990   4.260   1.984   4.023
 2697SOL    HW2 8991   4.359   2.087   4.102
 2698SOL     OW 8992   2.004   4.883   0.326
 2698SOL    HW1 8993   1.985   4.807   0.264
 2698SOL    HW2 8994   1.984   4.855   0.420
 2699SOL     OW 8995   3.613   5.540   6.268
 2699SOL    HW1 8996   3.625   5.450   6.226
 2699SOL    HW2 8997   3.595   5.608   6.197
 2700SOL     OW 8998   1.721   3.555   2.268
 2700SOL    HW1 8999   1.693   3.493   2.195
 2700SOL    HW2 9000   1.754   3.641   2.228
 2701SOL     OW 9001   3.920   6.966   6.866
 2701SOL    HW1 9002   3.945   6.880   6.910
 2701SOL    HW2 9003   3.836   6.954   6.813
 2702SOL     OW 9004   0.077   1.524   2.768
 2702SOL    HW1 9005   0.131   1.572   2.699
 2702SOL    HW2 9006   0.074   1.578   2.852
 2703SOL     OW 9007   2.477   1.078   3.172
 2703SOL    HW1 9008   2.462   1.076   3.271
 2703SOL    HW2 9009   2.575   1.080   3.153
 2704SOL     OW 9010   1.400   5.462   1.105
 2704SOL    HW1 9011   1.398   5.363   1.117
 2704SOL    HW2 9012   1.488   5.498   1.137
 2705SOL     OW 9013   0.609   5.396   4.141
 2705SOL    HW1 9014   0.704   5.395   4.112
 2705SOL    HW2 9015   0.558   5.464   4.089
 2706SOL     OW 9016   0.324   0.743   1.864
 2706SOL    HW1 9017   0.385   0.726   1.941
 2706SOL    HW2 9018   0.352   0.827   1.817
 2707SOL     OW 9019   2.112   0.884   5.487
 2707SOL    HW1 9020   2.060   0.823   5.427
 2707SOL    HW2 9021   2.140   0.965   5.436
 2708SOL     OW 9022   2.218   3.030   1.425
 2708SOL    HW1 9023   2.242   3.086   1.505
 2708SOL    HW2 9024   2.182   3.089   1.353
 2709SOL     OW 9025   5.067   6.805   0.881
 2709SOL    HW1 9026   5.145   6.766   0.832
 2709SOL    HW2 9027   5.070   6.775   0.977
 2710SOL     OW 9028   6.373   4.123   2.500
 2710SOL    HW1 9029   6.433   4.105   2.423
 2710SOL    HW2 9030   6.281   4.090   2.480
 2711SOL     OW 9031   2.191   0.317   2.622
 2711SOL    HW1 9032   2.132   0.395   2.642
 2711SOL    HW2 9033   2.282   0.350   2.596
 2712SOL     OW 9034   3.993   4.871   0.023
 2712SOL    HW1 9035   3.933   4.943   7.013
 2712SOL    HW2 9036   4.069   4.912   0.074
 2713SOL     OW 9037   1.362   2.592   4.550
 2713SOL    HW1 9038   1.451   2.585   4.505
 2713SOL    HW2 9039   1.353   2.520   4.618
 2714SOL     OW 9040   4.856   1.892   0.145
 2714SOL    HW1 9041   4.843   1.910   0.243
 2714SOL    HW2 9042   4.948   1.855   0.130
 2715SOL     OW 9043   6.585   0.493   0.089
 2715SOL    HW1 9044   6.547   0.555   0.021
 2715SOL    HW2 9045   6.682   0.515   0.104
 2716SOL     OW 9046   6.180   5.179   1.849
 2716SOL    HW1 9047   6.226   5.234   1.779
 2716SOL    HW2 9048   6.082   5.173   1.828
 2717SOL     OW 9049   0.902   5.477   2.221
 2717SOL    HW1 9050   0.846   5.476   2.304
 2717SOL    HW2 9051   0.842   5.477   2.141
 2718SOL     OW 9052   1.677   3.758   3.935
 2718SOL    HW1 9053   1.654   3.667   3.899
 2718SOL    HW2 9054   1.595   3.800   3.974
 2719SOL     OW 9055   4.849   4.813   1.673
 2719SOL    HW1 9056   4.945   4.789   1.661
 2719SOL    HW2 9057   4.792   4.732   1.661
 2720SOL     OW 9058   2.122   5.997   3.905
 2720SOL    HW1 9059   2.137   6.033   3.997
 2720SOL    HW2 9060   2.209   5.996   3.854
 2721SOL     OW 9061   2.836   0.353   5.090
 2721SOL    HW1 9062   2.756   0.414   5.081
 2721SOL    HW2 9063   2.902   0.396   5.152
 2722SOL     OW 9064   6.137   5.555   2.638
 2722SOL    HW1 9065   6.190   5.477   2.673
 2722SOL    HW2 9066   6.117   5.540   2.541
 2723SOL     OW 9067   1.526   1.181   6.122
 2723SOL    HW1 9068   1.566   1.138   6.204
 2723SOL    HW2 9069   1.493   1.272   6.145
 2724SOL     OW 9070   3.131   6.386   5.189
 2724SOL    HW1 9071   3.054   6.371   5.251
 2724SOL    HW2 9072   3.200   6.316   5.204
 2725SOL     OW 9073   6.265   5.294   3.274
 2725SOL    HW1 9074   6.276   5.366   3.206
 2725SOL    HW2 9075   6.178   5.248   3.260
 2726SOL     OW 9076   6.009   4.442   2.184
 2726SOL    HW1 9077   6.087   4.504   2.173
 2726SOL    HW2 9078   6.035   4.368   2.247
 2727SOL     OW 9079   0.667   4.624   2.864
 2727SOL    HW1 9080   0.636   4.558   2.795
 2727SOL    HW2 9081   0.759   4.655   2.842
 2728SOL     OW 9082   3.104   0.591   4.976
 2728SOL    HW1 9083   3.035   0.661   4.996
 2728SOL    HW2 9084   3.086   0.552   4.885
 2729SOL     OW 9085   6.746   5.479   2.077
 2729SOL    HW1 9086   6.783   5.519   1.992
 2729SOL    HW2 9087   6.724   5.383   2.062
 2730SOL     OW 9088   1.789   6.804   0.841
 2730SOL    HW1 9089   1.791   6.887   0.896
 2730SOL    HW2 9090   1.841   6.732   0.888
 2731SOL     OW 9091   3.097   3.454   1.413
 2731SOL    HW1 9092   3.090   3.368   1.464
 2731SOL    HW2 9093   3.034   3.452   1.335
 2732SOL     OW 9094   5.937   3.024   2.513
 2732SOL    HW1 9095   5.966   2.929   2.507
 2732SOL    HW2 9096   5.916   3.059   2.422
 2733SOL     OW 9097   0.479   6.716   5.905
 2733SOL    HW1 9098   0.545   6.646   5.878
 2733SOL    HW2 9099   0.480   6.727   6.004
 2734SOL     OW 9100   1.925   5.473   2.672
 2734SOL    HW1 9101   1.844   5.503   2.723
 2734SOL    HW2 9102   1.905   5.388   2.624
 2735SOL     OW 9103   0.468   3.006   2.133
 2735SOL    HW1 9104   0.376   2.979   2.104
 2735SOL    HW2 9105   0.508   3.067   2.064
 2736SOL     OW 9106   4.958   0.748   4.819
 2736SOL    HW1 9107   4.997   0.746   4.726
 2736SOL    HW2 9108   4.984   0.665   4.867
 2737SOL     OW 9109   3.353   3.290   6.076
 2737SOL    HW1 9110   3.417   3.219   6.046
 2737SOL    HW2 9111   3.263   3.271   6.038
 2738SOL     OW 9112   4.913   5.678   5.025
 2738SOL    HW1 9113   4.850   5.727   5.084
 2738SOL    HW2 9114   4.908   5.580   5.045
 2739SOL     OW 9115   6.089   3.857   0.331
 2739SOL    HW1 9116   6.134   3.783   0.282
 2739SOL    HW2 9117   6.158   3.922   0.365
 2740SOL     OW 9118   5.114   2.340   2.297
 2740SOL    HW1 9119   5.069   2.253   2.318
 2740SOL    HW2 9120   5.100   2.403   2.373
 2741SOL     OW 9121   0.016   1.988   6.272
 2741SOL    HW1 9122   6.942   1.980   6.284
 2741SOL    HW2 9123   0.060   1.983   6.362
 2742SOL     OW 9124   1.903   5.995   6.287
 2742SOL    HW1 9125   1.861   5.928   6.227
 2742SOL    HW2 9126   1.959   5.948   6.356
 2743SOL     OW 9127   5.983   5.649   1.818
 2743SOL    HW1 9128   6.057   5.663   1.752
 2743SOL    HW2 9129   5.902   5.614   1.769
 2744SOL     OW 9130   4.402   2.254   0.441
 2744SOL    HW1 9131   4.474   2.193   0.408
 2744SOL    HW2 9132   4.331   2.263   0.371
 2745SOL     OW 9133   2.263   6.336   0.016
 2745SOL    HW1 9134   2.258   6.436   0.005
 2745SOL    HW2 9135   2.202   6.293   6.974
 2746SOL     OW 9136   2.286   3.016   4.505
 2746SOL    HW1 9137   2.218   2.974   4.445
 2746SOL    HW2 9138   2.376   3.010   4.463
 2747SOL     OW 9139   5.232   4.527   4.860
 2747SOL    HW1 9140   5.135   4.501   4.859
 2747SOL    HW2 9141   5.280   4.476   4.931
 2748SOL     OW 9142   3.458   0.957   2.336
 2748SOL    HW1 9143   3.360   0.969   2.320
 2748SOL    HW2 9144   3.499   1.045   2.359
 2749SOL     OW 9145   5.062   5.156   4.024
 2749SOL    HW1 9146   5.006   5.219   4.079
 2749SOL    HW2 9147   5.020   5.146   3.934
 2750SOL     OW 9148   0.950   5.270   1.356
 2750SOL    HW1 9149   0.892   5.284   1.436
 2750SOL    HW2 9150   1.006   5.189   1.369
 2751SOL     OW 9151   1.447   0.059   6.875
 2751SOL    HW1 9152   1.495   0.142   6.845
 2751SOL    HW2 9153   1.464   7.010   6.809
 2752SOL     OW 9154   4.986   5.705   5.659
 2752SOL    HW1 9155   4.921   5.781   5.655
 2752SOL    HW2 9156   5.009   5.676   5.566
 2753SOL     OW 9157   2.316   5.878   6.216
 2753SOL    HW1 9158   2.336   5.901   6.312
 2753SOL    HW2 9159   2.380   5.927   6.157
 2754SOL     OW 9160   6.612   0.187   4.813
 2754SOL    HW1 9161   6.534   0.249   4.810
 2754SOL    HW2 9162   6.635   0.156   4.721
 2755SOL     OW 9163   2.971   7.021   3.208
 2755SOL    HW1 9164   3.006   0.039   3.124
 2755SOL    HW2 9165   2.891   6.965   3.185
 2756SOL     OW 9166   6.279   4.515   3.941
 2756SOL    HW1 9167   6.369   4.499   3.981
 2756SOL    HW2 9168   6.276   4.478   3.849
 2757SOL     OW 9169   2.932   1.435   6.458
 2757SOL    HW1 9170   2.972   1.382   6.533
 2757SOL    HW2 9171   2.835   1.412   6.450
 2758SOL     OW 9172   4.913   6.211   3.298
 2758SOL    HW1 9173   4.856   6.131   3.317
 2758SOL    HW2 9174   4.987   6.216   3.365
 2759SOL     OW 9175   3.466   4.709   5.586
 2759SOL    HW1 9176   3.499   4.788   5.637
 2759SOL    HW2 9177   3.428   4.642   5.651
 2760SOL     OW 9178   6.277   5.797   2.708
 2760SOL    HW1 9179   6.253   5.845   2.623
 2760SOL    HW2 9180   6.210   5.725   2.725
 2761SOL     OW 9181   1.234   3.850   3.070
 2761SOL    HW1 9182   1.284   3.914   3.127
 2761SOL    HW2 9183   1.281   3.837   2.983
 2762SOL     OW 9184   1.437   2.274   6.798
 2762SOL    HW1 9185   1.511   2.301   6.735
 2762SOL    HW2 9186   1.372   2.349   6.806
 2763SOL     OW 9187   5.340   1.898   5.919
 2763SOL    HW1 9188   5.358   1.861   5.828
 2763SOL    HW2 9189   5.327   1.823   5.984
 2764SOL     OW 9190   0.149   4.919   2.760
 2764SOL    HW1 9191   0.079   4.957   2.820
 2764SOL    HW2 9192   0.156   4.975   2.677
 2765SOL     OW 9193   0.051   0.120   0.971
 2765SOL    HW1 9194   0.049   0.212   1.010
 2765SOL    HW2 9195   0.047   0.053   1.045
 2766SOL     OW 9196   4.136   0.924   6.766
 2766SOL    HW1 9197   4.221   0.874   6.781
 2766SOL    HW2 9198   4.150   1.021   6.787
 2767SOL     OW 9199   6.016   5.884   6.434
 2767SOL    HW1 9200   6.040   5.870   6.530
 2767SOL    HW2 9201   6.060   5.967   6.400
 2768SOL     OW 9202   3.880   0.622   0.756
 2768SOL    HW1 9203   3.902   0.547   0.818
 2768SOL    HW2 9204   3.921   0.604   0.666
 2769SOL     OW 9205   1.205   4.035   6.204
 2769SOL    HW1 9206   1.235   4.028   6.109
 2769SOL    HW2 9207   1.274   3.997   6.265
 2770SOL     OW 9208   3.756   6.194   5.709
 2770SOL    HW1 9209   3.661   6.189   5.678
 2770SOL    HW2 9210   3.775   6.287   5.741
 2771SOL     OW 9211   5.715   6.671   4.629
 2771SOL    HW1 9212   5.749   6.620   4.709
 2771SOL    HW2 9213   5.768   6.756   4.619
 2772SOL     OW 9214   3.510   0.685   2.454
 2772SOL    HW1 9215   3.488   0.693   2.551
 2772SOL    HW2 9216   3.500   0.774   2.410
 2773SOL     OW 9217   0.325   2.578   3.350
 2773SOL    HW1 9218   0.342   2.612   3.443
 2773SOL    HW2 9219   0.266   2.497   3.354
 2774SOL     OW 9220   5.108   2.651   2.949
 2774SOL    HW1 9221   5.161   2.566   2.948
 2774SOL    HW2 9222   5.140   2.710   3.022
 2775SOL     OW 9223   6.633   3.945   3.974
 2775SOL    HW1 9224   6.542   3.908   3.993
 2775SOL    HW2 9225   6.682   3.885   3.911
 2776SOL     OW 9226   5.162   5.386   6.944
 2776SOL    HW1 9227   5.240   5.445   6.925
 2776SOL    HW2 9228   5.181   5.294   6.910
 2777SOL     OW 9229   2.500   1.960   6.020
 2777SOL    HW1 9230   2.579   2.021   6.018
 2777SOL    HW2 9231   2.448   1.971   5.936
 2778SOL     OW 9232   2.159   5.689   6.325
 2778SOL    HW1 9233   2.083   5.728   6.377
 2778SOL    HW2 9234   2.223   5.761   6.300
 2779SOL     OW 9235   5.847   6.433   1.902
 2779SOL    HW1 9236   5.877   6.520   1.942
 2779SOL    HW2 9237   5.841   6.364   1.974
 2780SOL     OW 9238   0.225   0.658   6.491
 2780SOL    HW1 9239   0.302   0.606   6.530
 2780SOL    HW2 9240   0.244   0.756   6.497
 2781SOL     OW 9241   6.180   0.654   2.639
 2781SOL    HW1 9242   6.111   0.723   2.621
 2781SOL    HW2 9243   6.187   0.637   2.738
 2782SOL     OW 9244   4.241   0.737   5.726
 2782SOL    HW1 9245   4.237   0.791   5.810
 2782SOL    HW2 9246   4.328   0.687   5.723
 2783SOL     OW 9247   6.172   3.177   0.720
 2783SOL    HW1 9248   6.270   3.192   0.713
 2783SOL    HW2 9249   6.155   3.086   0.758
 2784SOL     OW 9250   3.198   1.754   2.208
 2784SOL    HW1 9251   3.228   1.824   2.143
 2784SOL    HW2 9252   3.224   1.782   2.301
 2785SOL     OW 9253   4.875   2.513   1.764
 2785SOL    HW1 9254   4.871   2.537   1.667
 2785SOL    HW2 9255   4.852   2.593   1.820
 2786SOL     OW 9256   6.573   6.119   1.395
 2786SOL    HW1 9257   6.582   6.211   1.356
 2786SOL    HW2 9258   6.477   6.093   1.396
 2787SOL     OW 9259   6.391   5.943   5.518
 2787SOL    HW1 9260   6.470   5.882   5.521
 2787SOL    HW2 9261   6.422   6.037   5.509
 2788SOL     OW 9262   3.326   6.349   6.124
 2788SOL    HW1 9263   3.276   6.299   6.194
 2788SOL    HW2 9264   3.270   6.355   6.041
 2789SOL     OW 9265   0.910   2.376   3.837
 2789SOL    HW1 9266   1.007   2.380   3.862
 2789SOL    HW2 9267   0.855   2.378   3.920
 2790SOL     OW 9268   2.853   4.930   0.573
 2790SOL    HW1 9269   2.810   4.843   0.550
 2790SOL    HW2 9270   2.893   4.924   0.665
 2791SOL     OW 9271   0.469   4.334   2.013
 2791SOL    HW1 9272   0.379   4.319   1.973
 2791SOL    HW2 9273   0.479   4.278   2.095
 2792SOL     OW 9274   3.367   0.679   4.853
 2792SOL    HW1 9275   3.308   0.648   4.927
 2792SOL    HW2 9276   3.319   0.667   4.765
 2793SOL     OW 9277   4.665   4.073   1.423
 2793SOL    HW1 9278   4.583   4.034   1.381
 2793SOL    HW2 9279   4.687   4.023   1.507
 2794SOL     OW 9280   6.949   0.914   6.837
 2794SOL    HW1 9281   6.870   0.886   6.783
 2794SOL    HW2 9282   7.016   0.959   6.779
 2795SOL     OW 9283   0.997   4.990   0.993
 2795SOL    HW1 9284   0.925   4.938   0.946
 2795SOL    HW2 9285   1.011   4.952   1.084
 2796SOL     OW 9286   0.668   5.723   5.568
 2796SOL    HW1 9287   0.573   5.753   5.560
 2796SOL    HW2 9288   0.704   5.702   5.477
 2797SOL     OW 9289   5.458   5.185   5.606
 2797SOL    HW1 9290   5.524   5.111   5.598
 2797SOL    HW2 9291   5.481   5.259   5.543
 2798SOL     OW 9292   6.550   6.089   1.982
 2798SOL    HW1 9293   6.575   5.992   1.979
 2798SOL    HW2 9294   6.523   6.114   2.075
 2799SOL     OW 9295   4.809   5.299   5.618
 2799SOL    HW1 9296   4.823   5.201   5.631
 2799SOL    HW2 9297   4.788   5.342   5.706
 2800SOL     OW 9298   5.906   0.703   0.132
 2800SOL    HW1 9299   5.834   0.713   0.063
 2800SOL    HW2 9300   5.868   0.723   0.223
 2801SOL     OW 9301   0.727   5.543   5.813
 2801SOL    HW1 9302   0.808   5.596   5.839
 2801SOL    HW2 9303   0.679   5.589   5.739
 2802SOL     OW 9304   6.595   6.521   5.659
 2802SOL    HW1 9305   6.653   6.492   5.735
 2802SOL    HW2 9306   6.652   6.565   5.589
 2803SOL     OW 9307   3.552   3.666   5.860
 2803SOL    HW1 9308   3.492   3.608   5.805
 2803SOL    HW2 9309   3.502   3.746   5.891
 2804SOL     OW 9310   0.821   2.736   3.960
 2804SOL    HW1 9311   0.849   2.675   3.886
 2804SOL    HW2 9312   0.738   2.785   3.932
 2805SOL     OW 9313   4.973   3.588   2.085
 2805SOL    HW1 9314   4.966   3.512   2.021
 2805SOL    HW2 9315   4.969   3.553   2.179
 2806SOL     OW 9316   2.322   3.971   6.389
 2806SOL    HW1 9317   2.266   3.944   6.311
 2806SOL    HW2 9318   2.395   4.032   6.358
 2807SOL     OW 9319   2.884   0.566   2.931
 2807SOL    HW1 9320   2.856   0.655   2.894
 2807SOL    HW2 9321   2.828   0.543   3.010
 2808SOL     OW 9322   5.723   5.311   0.499
 2808SOL    HW1 9323   5.713   5.368   0.581
 2808SOL    HW2 9324   5.725   5.370   0.418
 2809SOL     OW 9325   5.739   3.693   2.059
 2809SOL    HW1 9326   5.667   3.688   1.990
 2809SOL    HW2 9327   5.737   3.783   2.103
 2810SOL     OW 9328   2.444   5.957   3.282
 2810SOL    HW1 9329   2.345   5.969   3.289
 2810SOL    HW2 9330   2.481   6.023   3.216
 2811SOL     OW 9331   1.087   0.521   2.670
 2811SOL    HW1 9332   1.048   0.578   2.598
 2811SOL    HW2 9333   1.014   0.489   2.731
 2812SOL     OW 9334   0.661   2.967   0.207
 2812SOL    HW1 9335   0.634   3.063   0.218
 2812SOL    HW2 9336   0.680   2.928   0.297
 2813SOL     OW 9337   1.143   1.780   1.334
 2813SOL    HW1 9338   1.090   1.699   1.360
 2813SOL    HW2 9339   1.081   1.858   1.322
 2814SOL     OW 9340   2.932   3.831   6.736
 2814SOL    HW1 9341   2.979   3.893   6.673
 2814SOL    HW2 9342   2.943   3.865   6.830
 2815SOL     OW 9343   6.897   5.913   5.623
 2815SOL    HW1 9344   6.883   5.990   5.686
 2815SOL    HW2 9345   6.990   5.916   5.586
 2816SOL     OW 9346   6.583   5.957   5.218
 2816SOL    HW1 9347   6.528   6.027   5.172
 2816SOL    HW2 9348   6.650   5.920   5.153
 2817SOL     OW 9349   3.919   0.473   2.181
 2817SOL    HW1 9350   3.862   0.470   2.263
 2817SOL    HW2 9351   3.943   0.568   2.161
 2818SOL     OW 9352   0.722   1.011   1.077
 2818SOL    HW1 9353   0.695   1.073   1.151
 2818SOL    HW2 9354   0.730   1.063   0.992
 2819SOL     OW 9355   0.582   0.518   0.914
 2819SOL    HW1 9356   0.611   0.469   0.832
 2819SOL    HW2 9357   0.581   0.455   0.992
 2820SOL     OW 9358   1.429   2.299   2.431
 2820SOL    HW1 9359   1.369   2.363   2.383
 2820SOL    HW2 9360   1.506   2.348   2.471
 2821SOL     OW 9361   3.853   5.344   5.989
 2821SOL    HW1 9362   3.905   5.376   5.910
 2821SOL    HW2 9363   3.876   5.248   6.008
 2822SOL     OW 9364   3.831   3.248   0.911
 2822SOL    HW1 9365   3.782   3.193   0.843
 2822SOL    HW2 9366   3.832   3.199   0.998
 2823SOL     OW 9367   4.850   0.687   1.176
 2823SOL    HW1 9368   4.920   0.756   1.159
 2823SOL    HW2 9369   4.760   0.726   1.161
 2824SOL     OW 9370   1.758   3.956   5.312
 2824SOL    HW1 9371   1.692   4.030   5.325
 2824SOL    HW2 9372   1.842   3.992   5.272
 2825SOL     OW 9373   5.514   0.989   6.565
 2825SOL    HW1 9374   5.481   0.991   6.660
 2825SOL    HW2 9375   5.437   0.998   6.503
 2826SOL     OW 9376   1.676   3.363   5.904
 2826SOL    HW1 9377   1.688   3.290   5.972
 2826SOL    HW2 9378   1.750   3.430   5.915
 2827SOL     OW 9379   0.394   0.941   6.740
 2827SOL    HW1 9380   0.493   0.951   6.735
 2827SOL    HW2 9381   0.361   0.977   6.827
 2828SOL     OW 9382   1.722   3.364   1.177
 2828SOL    HW1 9383   1.686   3.399   1.263
 2828SOL    HW2 9384   1.815   3.329   1.191
 2829SOL     OW 9385   3.363   3.643   3.007
 2829SOL    HW1 9386   3.407   3.630   3.096
 2829SOL    HW2 9387   3.279   3.589   3.004
 2830SOL     OW 9388   3.602   4.566   5.431
 2830SOL    HW1 9389   3.661   4.515   5.494
 2830SOL    HW2 9390   3.544   4.628   5.484
 2831SOL     OW 9391   6.859   2.118   2.177
 2831SOL    HW1 9392   6.955   2.132   2.200
 2831SOL    HW2 9393   6.827   2.193   2.119
 2832SOL     OW 9394   0.699   3.556   1.398
 2832SOL    HW1 9395   0.682   3.490   1.471
 2832SOL    HW2 9396   0.709   3.648   1.438
 2833SOL     OW 9397   2.421   0.490   2.042
 2833SOL    HW1 9398   2.422   0.413   2.104
 2833SOL    HW2 9399   2.504   0.490   1.986
 2834SOL     OW 9400   4.511   6.068   4.444
 2834SOL    HW1 9401   4.444   6.069   4.518
 2834SOL    HW2 9402   4.532   6.162   4.417
 2835SOL     OW 9403   1.636   6.208   0.439
 2835SOL    HW1 9404   1.722   6.250   0.466
 2835SOL    HW2 9405   1.569   6.219   0.512
 2836SOL     OW 9406   3.809   6.907   3.455
 2836SOL    HW1 9407   3.713   6.887   3.438
 2836SOL    HW2 9408   3.857   6.821   3.475
 2837SOL     OW 9409   5.756   3.953   2.121
 2837SOL    HW1 9410   5.693   3.993   2.054
 2837SOL    HW2 9411   5.754   4.006   2.205
 2838SOL     OW 9412   5.131   4.068   6.151
 2838SOL    HW1 9413   5.127   4.079   6.052
 2838SOL    HW2 9414   5.217   4.107   6.185
 2839SOL     OW 9415   6.465   3.043   3.971
 2839SOL    HW1 9416   6.530   3.072   4.042
 2839SOL    HW2 9417   6.409   2.968   4.007
 2840SOL     OW 9418   0.833   5.598   3.155
 2840SOL    HW1 9419   0.750   5.654   3.165
 2840SOL    HW2 9420   0.846   5.543   3.238
 2841SOL     OW 9421   6.026   2.527   0.711
 2841SOL    HW1 9422   6.055   2.494   0.800
 2841SOL    HW2 9423   5.987   2.618   0.720
 2842SOL     OW 9424   1.051   5.857   4.562
 2842SOL    HW1 9425   1.147   5.843   4.537
 2842SOL    HW2 9426   1.043   5.937   4.621
 2843SOL     OW 9427   2.168   3.202   3.053
 2843SOL    HW1 9428   2.076   3.168   3.030
 2843SOL    HW2 9429   2.228   3.124   3.072
 2844SOL     OW 9430   4.851   4.288   1.293
 2844SOL    HW1 9431   4.815   4.251   1.378
 2844SOL    HW2 9432   4.776   4.313   1.232
 2845SOL     OW 9433   5.101   3.097   3.750
 2845SOL    HW1 9434   5.093   3.159   3.672
 2845SOL    HW2 9435   5.033   3.122   3.820
 2846SOL     OW 9436   4.529   0.487   7.016
 2846SOL    HW1 9437   4.583   0.556   6.968
 2846SOL    HW2 9438   4.470   0.438   6.951
 2847SOL     OW 9439   4.735   4.303   2.065
 2847SOL    HW1 9440   4.638   4.308   2.041
 2847SOL    HW2 9441   4.757   4.210   2.095
 2848SOL     OW 9442   0.504   2.680   4.857
 2848SOL    HW1 9443   0.539   2.621   4.929
 2848SOL    HW2 9444   0.574   2.693   4.787
 2849SOL     OW 9445   3.551   0.636   2.129
 2849SOL    HW1 9446   3.614   0.711   2.149
 2849SOL    HW2 9447   3.457   0.668   2.138
 2850SOL     OW 9448   2.172   6.680   3.441
 2850SOL    HW1 9449   2.119   6.720   3.366
 2850SOL    HW2 9450   2.118   6.683   3.525
 2851SOL     OW 9451   4.723   3.563   0.030
 2851SOL    HW1 9452   4.652   3.492   0.037
 2851SOL    HW2 9453   4.779   3.546   6.974
 2852SOL     OW 9454   6.126   4.305   6.824
 2852SOL    HW1 9455   6.103   4.292   6.728
 2852SOL    HW2 9456   6.083   4.389   6.858
 2853SOL     OW 9457   0.094   3.367   0.057
 2853SOL    HW1 9458   0.156   3.349   0.133
 2853SOL    HW2 9459   0.117   3.307   7.005
 2854SOL     OW 9460   3.233   1.053   6.705
 2854SOL    HW1 9461   3.215   0.981   6.772
 2854SOL    HW2 9462   3.146   1.094   6.676
 2855SOL     OW 9463   0.842   2.195   4.392
 2855SOL    HW1 9464   0.831   2.095   4.388
 2855SOL    HW2 9465   0.793   2.230   4.472
 2856SOL     OW 9466   1.474   3.798   3.280
 2856SOL    HW1 9467   1.474   3.726   3.211
 2856SOL    HW2 9468   1.475   3.756   3.371
 2857SOL     OW 9469   0.024   3.295   0.366
 2857SOL    HW1 9470   0.007   3.393   0.353
 2857SOL    HW2 9471   6.996   3.243   0.299
 2858SOL     OW 9472   5.381   6.058   2.988
 2858SOL    HW1 9473   5.449   6.058   3.061
 2858SOL    HW2 9474   5.387   6.143   2.936
 2859SOL     OW 9475   5.487   5.866   0.632
 2859SOL    HW1 9476   5.557   5.795   0.626
 2859SOL    HW2 9477   5.414   5.846   0.566
 2860SOL     OW 9478   1.937   6.037   1.530
 2860SOL    HW1 9479   1.964   5.996   1.443
 2860SOL    HW2 9480   1.961   6.134   1.530
 2861SOL     OW 9481   3.603   5.201   5.881
 2861SOL    HW1 9482   3.531   5.177   5.946
 2861SOL    HW2 9483   3.691   5.168   5.914
 2862SOL     OW 9484   4.592   3.143   1.294
 2862SOL    HW1 9485   4.530   3.222   1.298
 2862SOL    HW2 9486   4.538   3.058   1.298
 2863SOL     OW 9487   5.183   0.791   6.315
 2863SOL    HW1 9488   5.220   0.872   6.361
 2863SOL    HW2 9489   5.250   0.718   6.317
 2864SOL     OW 9490   4.386   3.314   1.590
 2864SOL    HW1 9491   4.408   3.223   1.626
 2864SOL    HW2 9492   4.298   3.344   1.626
 2865SOL     OW 9493   4.789   6.101   4.081
 2865SOL    HW1 9494   4.708   6.047   4.058
 2865SOL    HW2 9495   4.805   6.098   4.180
 2866SOL     OW 9496   5.362   4.436   6.650
 2866SOL    HW1 9497   5.391   4.345   6.620
 2866SOL    HW2 9498   5.391   4.504   6.583
 2867SOL     OW 9499   6.705   6.696   2.258
 2867SOL    HW1 9500   6.711   6.601   2.287
 2867SOL    HW2 9501   6.629   6.707   2.194
 2868SOL     OW 9502   0.983   1.621   5.858
 2868SOL    HW1 9503   0.952   1.527   5.845
 2868SOL    HW2 9504   1.027   1.630   5.947
 2869SOL     OW 9505   5.778   6.794   3.957
 2869SOL    HW1 9506   5.762   6.698   3.980
 2869SOL    HW2 9507   5.738   6.853   4.027
 2870SOL     OW 9508   1.308   1.847   0.493
 2870SOL    HW1 9509   1.370   1.849   0.414
 2870SOL    HW2 9510   1.253   1.763   0.491
 2871SOL     OW 9511   6.777   1.182   1.492
 2871SOL    HW1 9512   6.755   1.096   1.447
 2871SOL    HW2 9513   6.829   1.241   1.430
 2872SOL     OW 9514   2.960   1.597   2.224
 2872SOL    HW1 9515   3.037   1.662   2.221
 2872SOL    HW2 9516   2.878   1.645   2.255
 2873SOL     OW 9517   0.871   5.909   1.276
 2873SOL    HW1 9518   0.829   5.935   1.189
 2873SOL    HW2 9519   0.870   5.988   1.338
 2874SOL     OW 9520   3.320   0.331   2.600
 2874SOL    HW1 9521   3.244   0.341   2.663
 2874SOL    HW2 9522   3.312   0.243   2.552
 2875SOL     OW 9523   2.812   6.738   2.656
 2875SOL    HW1 9524   2.803   6.787   2.743
 2875SOL    HW2 9525   2.744   6.665   2.652
 2876SOL     OW 9526   1.455   6.200   2.207
 2876SOL    HW1 9527   1.496   6.284   2.171
 2876SOL    HW2 9528   1.518   6.124   2.195
 2877SOL     OW 9529   1.966   1.877   5.899
 2877SOL    HW1 9530   2.003   1.810   5.964
 2877SOL    HW2 9531   2.001   1.968   5.923
 2878SOL     OW 9532   3.172   2.980   4.733
 2878SOL    HW1 9533   3.107   3.051   4.760
 2878SOL    HW2 9534   3.179   2.977   4.634
 2879SOL     OW 9535   4.643   4.658   5.940
 2879SOL    HW1 9536   4.671   4.753   5.926
 2879SOL    HW2 9537   4.609   4.647   6.034
 2880SOL     OW 9538   0.526   2.083   3.493
 2880SOL    HW1 9539   0.521   2.151   3.421
 2880SOL    HW2 9540   0.554   1.995   3.455
 2881SOL     OW 9541   3.277   5.335   6.849
 2881SOL    HW1 9542   3.224   5.412   6.812
 2881SOL    HW2 9543   3.327   5.365   6.931
 2882SOL     OW 9544   5.952   6.163   0.740
 2882SOL    HW1 9545   6.037   6.113   0.723
 2882SOL    HW2 9546   5.922   6.146   0.834
 2883SOL     OW 9547   6.541   6.559   3.293
 2883SOL    HW1 9548   6.470   6.623   3.263
 2883SOL    HW2 9549   6.498   6.480   3.338
 2884SOL     OW 9550   6.872   5.204   2.672
 2884SOL    HW1 9551   6.880   5.137   2.746
 2884SOL    HW2 9552   6.902   5.163   2.586
 2885SOL     OW 9553   1.385   2.857   3.823
 2885SOL    HW1 9554   1.384   2.934   3.759
 2885SOL    HW2 9555   1.476   2.850   3.865
 2886SOL     OW 9556   2.463   4.453   0.354
 2886SOL    HW1 9557   2.406   4.439   0.436
 2886SOL    HW2 9558   2.412   4.508   0.287
 2887SOL     OW 9559   0.378   6.100   4.047
 2887SOL    HW1 9560   0.285   6.135   4.056
 2887SOL    HW2 9561   0.427   6.113   4.133
 2888SOL     OW 9562   0.247   6.111   0.206
 2888SOL    HW1 9563   0.235   6.207   0.180
 2888SOL    HW2 9564   0.203   6.053   0.137
 2889SOL     OW 9565   2.721   6.751   2.906
 2889SOL    HW1 9566   2.645   6.723   2.965
 2889SOL    HW2 9567   2.801   6.693   2.925
 2890SOL     OW 9568   2.453   6.154   1.029
 2890SOL    HW1 9569   2.420   6.122   0.940
 2890SOL    HW2 9570   2.410   6.242   1.050
 2891SOL     OW 9571   0.694   3.054   2.507
 2891SOL    HW1 9572   0.636   2.980   2.543
 2891SOL    HW2 9573   0.640   3.109   2.444
 2892SOL     OW 9574   6.319   3.635   1.016
 2892SOL    HW1 9575   6.256   3.559   1.001
 2892SOL    HW2 9576   6.411   3.599   1.032
 2893SOL     OW 9577   1.098   5.829   5.070
 2893SOL    HW1 9578   1.169   5.776   5.118
 2893SOL    HW2 9579   1.141   5.905   5.021
 2894SOL     OW 9580   1.979   4.347   1.848
 2894SOL    HW1 9581   2.075   4.334   1.824
 2894SOL    HW2 9582   1.924   4.275   1.806
 2895SOL     OW 9583   3.604   0.439   6.134
 2895SOL    HW1 9584   3.545   0.449   6.053
 2895SOL    HW2 9585   3.676   0.373   6.115
 2896SOL     OW 9586   5.956   6.894   5.951
 2896SOL    HW1 9587   5.954   6.992   5.930
 2896SOL    HW2 9588   6.046   6.869   5.986
 2897SOL     OW 9589   3.660   5.352   2.471
 2897SOL    HW1 9590   3.577   5.312   2.433
 2897SOL    HW2 9591   3.654   5.353   2.571
 2898SOL     OW 9592   6.341   3.991   3.651
 2898SOL    HW1 9593   6.415   3.925   3.665
 2898SOL    HW2 9594   6.365   4.052   3.575
 2899SOL     OW 9595   0.196   2.258   1.335
 2899SOL    HW1 9596   0.166   2.196   1.407
 2899SOL    HW2 9597   0.294   2.274   1.342
 2900SOL     OW 9598   3.445   3.829   0.100
 2900SOL    HW1 9599   3.381   3.859   0.170
 2900SOL    HW2 9600   3.508   3.761   0.139
 2901SOL     OW 9601   1.993   4.803   4.114
 2901SOL    HW1 9602   1.921   4.802   4.184
 2901SOL    HW2 9603   1.964   4.861   4.038
 2902SOL     OW 9604   0.250   5.657   3.754
 2902SOL    HW1 9605   0.291   5.611   3.833
 2902SOL    HW2 9606   0.212   5.745   3.783
 2903SOL     OW 9607   4.454   6.246   0.712
 2903SOL    HW1 9608   4.399   6.316   0.666
 2903SOL    HW2 9609   4.468   6.272   0.807
 2904SOL     OW 9610   3.053   4.858   5.034
 2904SOL    HW1 9611   2.993   4.782   5.007
 2904SOL    HW2 9612   3.071   4.853   5.132
 2905SOL     OW 9613   0.936   4.739   2.785
 2905SOL    HW1 9614   0.998   4.662   2.774
 2905SOL    HW2 9615   0.952   4.784   2.873
 2906SOL     OW 9616   5.117   6.241   3.098
 2906SOL    HW1 9617   5.037   6.213   3.151
 2906SOL    HW2 9618   5.189   6.173   3.107
 2907SOL     OW 9619   0.991   0.844   4.287
 2907SOL    HW1 9620   1.023   0.881   4.200
 2907SOL    HW2 9621   0.902   0.885   4.310
 2908SOL     OW 9622   5.018   0.260   3.599
 2908SOL    HW1 9623   5.078   0.324   3.551
 2908SOL    HW2 9624   4.968   0.309   3.670
 2909SOL     OW 9625   1.343   6.454   3.196
 2909SOL    HW1 9626   1.323   6.445   3.294
 2909SOL    HW2 9627   1.428   6.505   3.184
 2910SOL     OW 9628   6.713   0.686   4.178
 2910SOL    HW1 9629   6.749   0.621   4.111
 2910SOL    HW2 9630   6.762   0.674   4.265
 2911SOL     OW 9631   0.918   5.090   3.719
 2911SOL    HW1 9632   0.819   5.078   3.712
 2911SOL    HW2 9633   0.944   5.098   3.816
 2912SOL     OW 9634   0.123   6.618   0.762
 2912SOL    HW1 9635   0.219   6.600   0.743
 2912SOL    HW2 9636   0.073   6.531   0.764
 2913SOL     OW 9637   2.248   4.438   1.939
 2913SOL    HW1 9638   2.259   4.351   1.987
 2913SOL    HW2 9639   2.213   4.507   2.003
 2914SOL     OW 9640   5.455   5.182   0.847
 2914SOL    HW1 9641   5.479   5.095   0.889
 2914SOL    HW2 9642   5.362   5.176   0.809
 2915SOL     OW 9643   2.995   2.172   3.049
 2915SOL    HW1 9644   3.048   2.220   2.979
 2915SOL    HW2 9645   2.898   2.177   3.027
 2916SOL     OW 9646   2.939   5.189   6.876
 2916SOL    HW1 9647   2.976   5.280   6.860
 2916SOL    HW2 9648   2.862   5.196   6.940
 2917SOL     OW 9649   2.622   0.171   4.042
 2917SOL    HW1 9650   2.668   0.260   4.051
 2917SOL    HW2 9651   2.525   0.181   4.065
 2918SOL     OW 9652   6.253   3.719   0.761
 2918SOL    HW1 9653   6.218   3.813   0.762
 2918SOL    HW2 9654   6.284   3.694   0.852
 2919SOL     OW 9655   0.051   5.724   4.407
 2919SOL    HW1 9656   0.016   5.742   4.499
 2919SOL    HW2 9657   0.045   5.807   4.352
 2920SOL     OW 9658   2.030   0.493   2.140
 2920SOL    HW1 9659   2.035   0.544   2.226
 2920SOL    HW2 9660   1.963   0.537   2.079
 2921SOL     OW 9661   6.967   6.972   5.704
 2921SOL    HW1 9662   0.032   6.997   5.742
 2921SOL    HW2 9663   6.898   0.013   5.735
 2922SOL     OW 9664   4.088   0.017   2.908
 2922SOL    HW1 9665   4.183   0.044   2.924
 2922SOL    HW2 9666   4.078   7.009   2.814
 2923SOL     OW 9667   6.445   4.913   4.347
 2923SOL    HW1 9668   6.412   4.837   4.403
 2923SOL    HW2 9669   6.410   4.999   4.384
 2924SOL     OW 9670   6.919   1.512   4.897
 2924SOL    HW1 9671   6.884   1.580   4.962
 2924SOL    HW2 9672   6.889   1.421   4.926
 2925SOL     OW 9673   5.231   1.028   6.736
 2925SOL    HW1 9674   5.190   0.940   6.711
 2925SOL    HW2 9675   5.207   1.050   6.830
 2926SOL     OW 9676   6.982   1.929   5.400
 2926SOL    HW1 9677   6.976   1.942   5.302
 2926SOL    HW2 9678   7.020   2.010   5.443
 2927SOL     OW 9679   1.917   3.141   1.061
 2927SOL    HW1 9680   1.904   3.042   1.055
 2927SOL    HW2 9681   1.868   3.185   0.986
 2928SOL     OW 9682   6.522   1.614   0.368
 2928SOL    HW1 9683   6.479   1.684   0.425
 2928SOL    HW2 9684   6.493   1.523   0.400
 2929SOL     OW 9685   1.043   2.669   4.686
 2929SOL    HW1 9686   1.024   2.626   4.597
 2929SOL    HW2 9687   1.141   2.680   4.697
 2930SOL     OW 9688   6.294   5.117   5.646
 2930SOL    HW1 9689   6.237   5.037   5.626
 2930SOL    HW2 9690   6.268   5.192   5.585
 2931SOL     OW 9691   3.936   4.663   0.229
 2931SOL    HW1 9692   3.964   4.716   0.149
 2931SOL    HW2 9693   3.890   4.723   0.294
 2932SOL     OW 9694   6.954   6.029   1.843
 2932SOL    HW1 9695   7.016   5.963   1.801
 2932SOL    HW2 9696   6.880   6.050   1.779
 2933SOL     OW 9697   0.524   0.085   2.066
 2933SOL    HW1 9698   0.556   0.161   2.123
 2933SOL    HW2 9699   0.568   0.090   1.977
 2934SOL     OW 9700   4.134   3.223   1.195
 2934SOL    HW1 9701   4.149   3.317   1.228
 2934SOL    HW2 9702   4.213   3.194   1.141
 2935SOL     OW 9703   0.675   2.346   6.067
 2935SOL    HW1 9704   0.665   2.326   5.969
 2935SOL    HW2 9705   0.671   2.260   6.119
 2936SOL     OW 9706   4.637   0.354   0.752
 2936SOL    HW1 9707   4.587   0.271   0.728
 2936SOL    HW2 9708   4.615   0.427   0.688
 2937SOL     OW 9709   4.612   4.894   1.171
 2937SOL    HW1 9710   4.532   4.850   1.211
 2937SOL    HW2 9711   4.695   4.856   1.213
 2938SOL     OW 9712   5.992   5.646   0.148
 2938SOL    HW1 9713   6.039   5.583   0.210
 2938SOL    HW2 9714   6.060   5.699   0.097
 2939SOL     OW 9715   0.435   6.127   1.714
 2939SOL    HW1 9716   0.434   6.210   1.770
 2939SOL    HW2 9717   0.344   6.085   1.714
 2940SOL     OW 9718   5.923   6.036   4.632
 2940SOL    HW1 9719   5.861   6.077   4.565
 2940SOL    HW2 9720   6.005   6.093   4.640
 2941SOL     OW 9721   1.948   2.935   3.126
 2941SOL    HW1 9722   1.886   2.944   3.204
 2941SOL    HW2 9723   1.951   2.839   3.097
 2942SOL     OW 9724   2.766   1.989   0.255
 2942SOL    HW1 9725   2.705   2.043   0.198
 2942SOL    HW2 9726   2.841   1.954   0.199
 2943SOL     OW 9727   6.020   4.541   3.988
 2943SOL    HW1 9728   6.115   4.511   3.988
 2943SOL    HW2 9729   5.982   4.534   4.080
 2944SOL     OW 9730   2.643   6.176   3.926
 2944SOL    HW1 9731   2.568   6.235   3.954
 2944SOL    HW2 9732   2.730   6.220   3.948
 2945SOL     OW 9733   5.350   4.020   1.716
 2945SOL    HW1 9734   5.266   3.981   1.753
 2945SOL    HW2 9735   5.399   3.950   1.663
 2946SOL     OW 9736   2.771   4.222   5.941
 2946SOL    HW1 9737   2.824   4.303   5.918
 2946SOL    HW2 9738   2.832   4.144   5.952
 2947SOL     OW 9739   0.013   6.335   0.501
 2947SOL    HW1 9740   0.003   6.307   0.596
 2947SOL    HW2 9741   6.975   6.410   0.481
 2948SOL     OW 9742   5.974   4.834   3.390
 2948SOL    HW1 9743   6.033   4.836   3.471
 2948SOL    HW2 9744   5.887   4.790   3.414
 2949SOL     OW 9745   1.011   6.304   0.183
 2949SOL    HW1 9746   1.098   6.354   0.175
 2949SOL    HW2 9747   0.945   6.343   0.119
 2950SOL     OW 9748   5.618   4.598   2.684
 2950SOL    HW1 9749   5.593   4.691   2.710
 2950SOL    HW2 9750   5.536   4.548   2.657
 2951SOL     OW 9751   5.863   0.507   1.826
 2951SOL    HW1 9752   5.840   0.416   1.792
 2951SOL    HW2 9753   5.898   0.563   1.751
 2952SOL     OW 9754   5.945   0.887   5.227
 2952SOL    HW1 9755   5.848   0.885   5.205
 2952SOL    HW2 9756   5.983   0.976   5.200
 2953SOL     OW 9757   6.620   5.217   3.192
 2953SOL    HW1 9758   6.528   5.183   3.175
 2953SOL    HW2 9759   6.683   5.140   3.202
 2954SOL     OW 9760   0.712   4.564   6.628
 2954SOL    HW1 9761   0.652   4.643   6.617
 2954SOL    HW2 9762   0.709   4.508   6.545
 2955SOL     OW 9763   1.120   4.388   0.016
 2955SOL    HW1 9764   1.131   4.373   6.943
 2955SOL    HW2 9765   1.200   4.436   0.052
 2956SOL     OW 9766   6.935   4.843   4.112
 2956SOL    HW1 9767   7.010   4.872   4.173
 2956SOL    HW2 9768   6.849   4.844   4.162
 2957SOL     OW 9769   3.864   5.302   1.590
 2957SOL    HW1 9770   3.838   5.209   1.566
 2957SOL    HW2 9771   3.964   5.311   1.586
 2958SOL     OW 9772   1.977   5.331   3.215
 2958SOL    HW1 9773   1.891   5.344   3.263
 2958SOL    HW2 9774   2.053   5.357   3.274
 2959SOL     OW 9775   5.637   2.599   2.947
 2959SOL    HW1 9776   5.594   2.618   3.035
 2959SOL    HW2 9777   5.571   2.613   2.873
 2960SOL     OW 9778   3.614   0.727   0.084
 2960SOL    HW1 9779   3.695   0.671   0.068
 2960SOL    HW2 9780   3.563   0.690   0.161
 2961SOL     OW 9781   5.907   4.902   3.040
 2961SOL    HW1 9782   5.925   4.809   3.072
 2961SOL    HW2 9783   5.829   4.940   3.090
 2962SOL     OW 9784   5.186   6.788   3.407
 2962SOL    HW1 9785   5.134   6.722   3.354
 2962SOL    HW2 9786   5.148   6.795   3.499
 2963SOL     OW 9787   1.494   1.463   6.077
 2963SOL    HW1 9788   1.488   1.438   5.980
 2963SOL    HW2 9789   1.444   1.549   6.092
 2964SOL     OW 9790   0.253   2.966   6.937
 2964SOL    HW1 9791   0.156   2.942   6.935
 2964SOL    HW2 9792   0.298   2.931   6.855
 2965SOL     OW 9793   0.729   0.920   4.943
 2965SOL    HW1 9794   0.719   0.995   4.878
 2965SOL    HW2 9795   0.803   0.941   5.008
 2966SOL     OW 9796   4.273   5.779   3.869
 2966SOL    HW1 9797   4.176   5.800   3.861
 2966SOL    HW2 9798   4.310   5.751   3.781
 2967SOL     OW 9799   6.936   1.208   6.068
 2967SOL    HW1 9800   6.997   1.266   6.123
 2967SOL    HW2 9801   6.841   1.236   6.085
 2968SOL     OW 9802   2.481   2.993   0.850
 2968SOL    HW1 9803   2.414   2.995   0.776
 2968SOL    HW2 9804   2.434   2.979   0.937
 2969SOL     OW 9805   4.902   3.445   4.544
 2969SOL    HW1 9806   4.897   3.369   4.481
 2969SOL    HW2 9807   4.896   3.531   4.493
 2970SOL     OW 9808   2.857   2.765   5.570
 2970SOL    HW1 9809   2.776   2.720   5.608
 2970SOL    HW2 9810   2.856   2.755   5.471
 2971SOL     OW 9811   5.879   3.786   0.043
 2971SOL    HW1 9812   5.878   3.698   0.089
 2971SOL    HW2 9813   5.868   3.859   0.110
 2972SOL     OW 9814   6.155   5.100   0.207
 2972SOL    HW1 9815   6.193   5.148   0.286
 2972SOL    HW2 9816   6.206   5.126   0.125
 2973SOL     OW 9817   4.811   6.953   2.293
 2973SOL    HW1 9818   4.786   0.018   2.329
 2973SOL    HW2 9819   4.867   6.965   2.211
 2974SOL     OW 9820   6.356   4.600   3.201
 2974SOL    HW1 9821   6.351   4.690   3.158
 2974SOL    HW2 9822   6.427   4.546   3.157
 2975SOL     OW 9823   5.190   4.883   3.702
 2975SOL    HW1 9824   5.152   4.969   3.735
 2975SOL    HW2 9825   5.132   4.807   3.731
 2976SOL     OW 9826   4.399   2.010   3.094
 2976SOL    HW1 9827   4.447   2.039   3.011
 2976SOL    HW2 9828   4.443   2.053   3.173
 2977SOL     OW 9829   1.224   0.419   2.269
 2977SOL    HW1 9830   1.278   0.370   2.201
 2977SOL    HW2 9831   1.266   0.508   2.288
 2978SOL     OW 9832   4.193   4.035   6.661
 2978SOL    HW1 9833   4.203   4.018   6.759
 2978SOL    HW2 9834   4.144   3.958   6.619
 2979SOL     OW 9835   3.228   1.552   4.550
 2979SOL    HW1 9836   3.207   1.611   4.627
 2979SOL    HW2 9837   3.318   1.575   4.513
 2980SOL     OW 9838   3.418   4.751   6.408
 2980SOL    HW1 9839   3.318   4.758   6.403
 2980SOL    HW2 9840   3.456   4.838   6.440
 2981SOL     OW 9841   2.181   2.048   6.783
 2981SOL    HW1 9842   2.235   1.969   6.756
 2981SOL    HW2 9843   2.202   2.126   6.724
 2982SOL     OW 9844   2.007   6.838   2.331
 2982SOL    HW1 9845   1.949   6.761   2.356
 2982SOL    HW2 9846   1.989   6.864   2.236
 2983SOL     OW 9847   0.049   2.545   6.826
 2983SOL    HW1 9848   6.991   2.506   6.784
 2983SOL    HW2 9849   0.023   2.621   6.886
 2984SOL     OW 9850   6.345   4.817   6.869
 2984SOL    HW1 9851   6.286   4.747   6.827
 2984SOL    HW2 9852   6.316   4.832   6.963
 2985SOL     OW 9853   0.638   0.188   4.845
 2985SOL    HW1 9854   0.659   0.272   4.895
 2985SOL    HW2 9855   0.710   0.171   4.777
 2986SOL     OW 9856   3.322   4.056   2.448
 2986SOL    HW1 9857   3.362   4.053   2.539
 2986SOL    HW2 9858   3.248   3.988   2.442
 2987SOL     OW 9859   1.096   2.006   3.978
 2987SOL    HW1 9860   1.160   1.991   3.903
 2987SOL    HW2 9861   1.100   2.101   4.008
 2988SOL     OW 9862   1.193   0.520   1.384
 2988SOL    HW1 9863   1.197   0.594   1.317
 2988SOL    HW2 9864   1.216   0.434   1.340
 2989SOL     OW 9865   5.176   3.370   5.164
 2989SOL    HW1 9866   5.135   3.299   5.106
 2989SOL    HW2 9867   5.140   3.459   5.137
 2990SOL     OW 9868   5.466   2.373   4.358
 2990SOL    HW1 9869   5.484   2.366   4.456
 2990SOL    HW2 9870   5.398   2.444   4.342
 2991SOL     OW 9871   6.054   3.592   0.616
 2991SOL    HW1 9872   6.092   3.547   0.535
 2991SOL    HW2 9873   6.128   3.612   0.680
 2992SOL     OW 9874   0.533   3.975   4.610
 2992SOL    HW1 9875   0.450   3.976   4.554
 2992SOL    HW2 9876   0.513   4.014   4.699
 2993SOL     OW 9877   0.473   4.766   0.359
 2993SOL    HW1 9878   0.526   4.834   0.308
 2993SOL    HW2 9879   0.375   4.784   0.344
 2994SOL     OW 9880   4.861   6.352   6.748
 2994SOL    HW1 9881   4.862   6.347   6.848
 2994SOL    HW2 9882   4.871   6.447   6.719
 2995SOL     OW 9883   4.558   0.567   0.552
 2995SOL    HW1 9884   4.509   0.553   0.466
 2995SOL    HW2 9885   4.600   0.658   0.552
 2996SOL     OW 9886   1.451   2.080   4.840
 2996SOL    HW1 9887   1.367   2.116   4.881
 2996SOL    HW2 9888   1.439   1.983   4.819
 2997SOL     OW 9889   4.265   0.789   3.328
 2997SOL    HW1 9890   4.173   0.811   3.359
 2997SOL    HW2 9891   4.262   0.707   3.270
 2998SOL     OW 9892   2.738   0.423   4.094
 2998SOL    HW1 9893   2.832   0.441   4.064
 2998SOL    HW2 9894   2.709   0.494   4.158
 2999SOL     OW 9895   3.054   4.521   6.754
 2999SOL    HW1 9896   3.014   4.610   6.776
 2999SOL    HW2 9897   3.141   4.534   6.706
 3000SOL     OW 9898   2.722   3.430   5.764
 3000SOL    HW1 9899   2.673   3.343   5.754
 3000SOL    HW2 9900   2.735   3.472   5.675
 3001SOL     OW 9901   5.647   1.081   0.432
 3001SOL    HW1 9902   5.606   0.990   0.440
 3001SOL    HW2 9903   5.745   1.076   0.452
 3002SOL     OW 9904   2.789   1.292   0.906
 3002SOL    HW1 9905   2.803   1.196   0.883
 3002SOL    HW2 9906   2.868   1.325   0.959
 3003SOL     OW 9907   1.155   6.220   1.164
 3003SOL    HW1 9908   1.108   6.198   1.078
 3003SOL    HW2 9909   1.229   6.155   1.179
 3004SOL     OW 9910   2.082   4.301   4.029
 3004SOL    HW1 9911   2.062   4.385   4.080
 3004SOL    HW2 9912   2.172   4.266   4.057
 3005SOL     OW 9913   0.841   3.342   5.580
 3005SOL    HW1 9914   0.895   3.271   5.627
 3005SOL    HW2 9915   0.831   3.317   5.484
 3006SOL     OW 9916   5.357   1.797   5.677
 3006SOL    HW1 9917   5.367   1.836   5.586
 3006SOL    HW2 9918   5.438   1.743   5.700
 3007SOL     OW 9919   4.895   5.517   6.964
 3007SOL    HW1 9920   4.966   5.460   6.923
 3007SOL    HW2 9921   4.913   5.526   0.038
 3008SOL     OW 9922   4.101   2.029   6.226
 3008SOL    HW1 9923   4.018   1.998   6.180
 3008SOL    HW2 9924   4.113   2.127   6.210
 3009SOL     OW 9925   6.522   2.379   2.944
 3009SOL    HW1 9926   6.612   2.416   2.969
 3009SOL    HW2 9927   6.527   2.279   2.941
 3010SOL     OW 9928   3.972   5.765   5.923
 3010SOL    HW1 9929   3.921   5.725   5.998
 3010SOL    HW2 9930   3.921   5.840   5.883
 3011SOL     OW 9931   6.665   0.305   2.214
 3011SOL    HW1 9932   6.652   0.213   2.176
 3011SOL    HW2 9933   6.603   0.369   2.168
 3012SOL     OW 9934   2.739   3.200   6.644
 3012SOL    HW1 9935   2.701   3.140   6.715
 3012SOL    HW2 9936   2.690   3.184   6.558
 3013SOL     OW 9937   6.761   5.387   3.362
 3013SOL    HW1 9938   6.760   5.480   3.326
 3013SOL    HW2 9939   6.697   5.330   3.309
 3014SOL     OW 9940   5.281   1.031   6.389
 3014SOL    HW1 9941   5.350   1.091   6.349
 3014SOL    HW2 9942   5.198   1.083   6.409
 3015SOL     OW 9943   2.702   0.858   0.363
 3015SOL    HW1 9944   2.720   0.954   0.385
 3015SOL    HW2 9945   2.652   0.815   0.439
 3016SOL     OW 9946   3.069   6.810   4.347
 3016SOL    HW1 9947   3.152   6.856   4.376
 3016SOL    HW2 9948   3.006   6.803   4.424
 3017SOL     OW 9949   6.171   4.866   2.173
 3017SOL    HW1 9950   6.192   4.899   2.265
 3017SOL    HW2 9951   6.072   4.858   2.163
 3018SOL     OW 9952   4.016   6.876   0.154
 3018SOL    HW1 9953   3.924   6.909   0.176
 3018SOL    HW2 9954   4.012   6.818   0.073
 3019SOL     OW 9955   1.173   6.899   0.151
 3019SOL    HW1 9956   1.154   6.816   0.203
 3019SOL    HW2 9957   1.272   6.913   0.145
 3020SOL     OW 9958   4.843   3.506   6.805
 3020SOL    HW1 9959   4.901   3.573   6.852
 3020SOL    HW2 9960   4.887   3.478   6.720
 3021SOL     OW 9961   2.870   6.522   4.556
 3021SOL    HW1 9962   2.830   6.586   4.621
 3021SOL    HW2 9963   2.796   6.476   4.506
 3022SOL     OW 9964   3.971   6.335   3.623
 3022SOL    HW1 9965   3.939   6.382   3.706
 3022SOL    HW2 9966   3.911   6.257   3.604
 3023SOL     OW 9967   4.040   0.348   2.823
 3023SOL    HW1 9968   4.100   0.268   2.825
 3023SOL    HW2 9969   4.093   0.428   2.793
 3024SOL     OW 9970   6.377   6.079   5.047
 3024SOL    HW1 9971   6.428   6.075   4.961
 3024SOL    HW2 9972   6.283   6.047   5.031
 3025SOL     OW 9973   4.036   5.863   0.381
 3025SOL    HW1 9974   4.008   5.953   0.414
 3025SOL    HW2 9975   4.131   5.846   0.406
 3026SOL     OW 9976   6.531   1.068   0.414
 3026SOL    HW1 9977   6.624   1.104   0.423
 3026SOL    HW2 9978   6.465   1.141   0.432
 3027SOL     OW 9979   4.260   1.363   2.292
 3027SOL    HW1 9980   4.206   1.334   2.371
 3027SOL    HW2 9981   4.245   1.300   2.216
 3028SOL     OW 9982   1.733   4.034   6.257
 3028SOL    HW1 9983   1.739   4.134   6.265
 3028SOL    HW2 9984   1.640   4.008   6.230
 3029SOL     OW 9985   0.491   2.007   3.767
 3029SOL    HW1 9986   0.512   2.092   3.815
 3029SOL    HW2 9987   0.504   2.020   3.668
 3030SOL     OW 9988   1.349   4.089   0.736
 3030SOL    HW1 9989   1.398   4.065   0.652
 3030SOL    HW2 9990   1.251   4.078   0.722
 3031SOL     OW 9991   1.542   5.309   1.360
 3031SOL    HW1 9992   1.480   5.257   1.301
 3031SOL    HW2 9993   1.492   5.346   1.438
 3032SOL     OW 9994   1.711   6.796   3.530
 3032SOL    HW1 9995   1.703   6.865   3.458
 3032SOL    HW2 9996   1.722   6.841   3.618
 3033SOL     OW 9997   6.121   2.525   3.733
 3033SOL    HW1 9998   6.080   2.512   3.824
 3033SOL    HW2 9999   6.221   2.523   3.742
 3034SOL     OW10000   0.683   5.861   3.701
 3034SOL    HW110001   0.779   5.864   3.674
 3034SOL    HW210002   0.646   5.954   3.703
 3035SOL     OW10003   1.494   2.867   5.994
 3035SOL    HW110004   1.457   2.949   6.038
 3035SOL    HW210005   1.421   2.820   5.945
 3036SOL     OW10006   1.274   2.751   5.695
 3036SOL    HW110007   1.224   2.694   5.761
 3036SOL    HW210008   1.249   2.724   5.602
 3037SOL     OW10009   0.476   5.241   5.650
 3037SOL    HW110010   0.523   5.179   5.587
 3037SOL    HW210011   0.489   5.335   5.619
 3038SOL     OW10012   4.705   5.201   5.894
 3038SOL    HW110013   4.655   5.174   5.812
 3038SOL    HW210014   4.642   5.245   5.958
 3039SOL     OW10015   6.510   3.393   0.034
 3039SOL    HW110016   6.423   3.396   7.009
 3039SOL    HW210017   6.567   3.470   0.007
 3040SOL     OW10018   3.798   4.058   6.141
 3040SOL    HW110019   3.719   4.055   6.079
 3040SOL    HW210020   3.792   3.981   6.205
 3041SOL     OW10021   1.315   4.357   4.821
 3041SOL    HW110022   1.255   4.323   4.893
 3041SOL    HW210023   1.350   4.280   4.767
 3042SOL     OW10024   6.667   5.259   2.400
 3042SOL    HW110025   6.647   5.345   2.446
 3042SOL    HW210026   6.615   5.185   2.444
 3043SOL     OW10027   2.676   3.637   0.601
 3043SOL    HW110028   2.716   3.729   0.605
 3043SOL    HW210029   2.622   3.621   0.683
 3044SOL     OW10030   3.083   3.631   5.807
 3044SOL    HW110031   3.118   3.703   5.867
 3044SOL    HW210032   3.048   3.556   5.862
 3045SOL     OW10033   4.741   0.606   3.634
 3045SOL    HW110034   4.699   0.694   3.658
 3045SOL    HW210035   4.675   0.532   3.650
 3046SOL     OW10036   5.181   5.706   0.273
 3046SOL    HW110037   5.230   5.756   0.200
 3046SOL    HW210038   5.204   5.609   0.267
 3047SOL     OW10039   6.308   6.526   0.837
 3047SOL    HW110040   6.215   6.510   0.871
 3047SOL    HW210041   6.361   6.572   0.907
 3048SOL     OW10042   4.771   2.956   0.901
 3048SOL    HW110043   4.707   3.032   0.916
 3048SOL    HW210044   4.860   2.993   0.874
 3049SOL     OW10045   0.788   0.644   4.943
 3049SOL    HW110046   0.831   0.596   4.867
 3049SOL    HW210047   0.779   0.741   4.921
 3050SOL     OW10048   2.018   2.605   1.569
 3050SOL    HW110049   2.104   2.590   1.617
 3050SOL    HW210050   1.979   2.517   1.541
 3051SOL     OW10051   3.045   7.006   6.053
 3051SOL    HW110052   3.108   0.058   6.063
 3051SOL    HW210053   3.056   6.943   6.130
 3052SOL     OW10054   5.494   6.022   2.698
 3052SOL    HW110055   5.434   6.016   2.778
 3052SOL    HW210056   5.567   6.088   2.715
 3053SOL     OW10057   1.649   4.576   0.336
 3053SOL    HW110058   1.573   4.616   0.387
 3053SOL    HW210059   1.617   4.497   0.284
 3054SOL     OW10060   5.508   0.774   3.607
 3054SOL    HW110061   5.425   0.808   3.651
 3054SOL    HW210062   5.486   0.742   3.515
 3055SOL     OW10063   6.463   6.773   6.146
 3055SOL    HW110064   6.458   6.794   6.244
 3055SOL    HW210065   6.453   6.674   6.133
 3056SOL     OW10066   5.366   1.461   5.856
 3056SOL    HW110067   5.429   1.518   5.803
 3056SOL    HW210068   5.416   1.384   5.896
 3057SOL     OW10069   5.781   6.115   3.683
 3057SOL    HW110070   5.757   6.170   3.763
 3057SOL    HW210071   5.848   6.046   3.709
 3058SOL     OW10072   6.476   4.245   1.011
 3058SOL    HW110073   6.436   4.173   1.068
 3058SOL    HW210074   6.525   4.310   1.070
 3059SOL     OW10075   2.469   2.618   4.285
 3059SOL    HW110076   2.518   2.705   4.280
 3059SOL    HW210077   2.393   2.625   4.350
 3060SOL     OW10078   2.891   4.725   6.523
 3060SOL    HW110079   2.844   4.813   6.517
 3060SOL    HW210080   2.872   4.683   6.612
 3061SOL     OW10081   5.813   4.871   5.994
 3061SOL    HW110082   5.857   4.808   6.059
 3061SOL    HW210083   5.737   4.917   6.038
 3062SOL     OW10084   3.963   4.773   1.222
 3062SOL    HW110085   4.030   4.717   1.271
 3062SOL    HW210086   3.976   4.760   1.123
 3063SOL     OW10087   0.294   4.580   0.530
 3063SOL    HW110088   0.356   4.502   0.519
 3063SOL    HW210089   0.333   4.645   0.596
 3064SOL     OW10090   4.452   2.825   0.213
 3064SOL    HW110091   4.385   2.751   0.221
 3064SOL    HW210092   4.467   2.847   0.116
 3065SOL     OW10093   0.613   1.515   6.437
 3065SOL    HW110094   0.518   1.520   6.407
 3065SOL    HW210095   0.674   1.509   6.357
 3066SOL     OW10096   4.927   5.053   5.733
 3066SOL    HW110097   5.021   5.047   5.702
 3066SOL    HW210098   4.923   5.107   5.817
 3067SOL     OW10099   2.228   1.672   0.166
 3067SOL    HW110100   2.146   1.684   0.109
 3067SOL    HW210101   2.273   1.586   0.140
 3068SOL     OW10102   0.533   0.819   1.568
 3068SOL    HW110103   0.474   0.875   1.627
 3068SOL    HW210104   0.582   0.879   1.504
 3069SOL     OW10105   5.671   7.016   3.424
 3069SOL    HW110106   5.584   0.005   3.471
 3069SOL    HW210107   5.704   6.924   3.441
 3070SOL     OW10108   2.757   1.226   6.753
 3070SOL    HW110109   2.677   1.270   6.713
 3070SOL    HW210110   2.790   1.281   6.830
 3071SOL     OW10111   6.695   4.402   3.728
 3071SOL    HW110112   6.635   4.474   3.693
 3071SOL    HW210113   6.779   4.443   3.764
 3072SOL     OW10114   1.876   5.728   6.785
 3072SOL    HW110115   1.958   5.730   6.842
 3072SOL    HW210116   1.861   5.635   6.751
 3073SOL     OW10117   6.909   4.707   0.955
 3073SOL    HW110118   6.962   4.623   0.969
 3073SOL    HW210119   6.970   4.782   0.929
 3074SOL     OW10120   0.681   4.217   1.272
 3074SOL    HW110121   0.636   4.194   1.358
 3074SOL    HW210122   0.761   4.273   1.290
 3075SOL     OW10123   2.769   4.931   3.632
 3075SOL    HW110124   2.681   4.900   3.594
 3075SOL    HW210125   2.807   4.859   3.690
 3076SOL     OW10126   0.107   1.098   5.022
 3076SOL    HW110127   0.135   1.193   5.004
 3076SOL    HW210128   0.010   1.087   4.998
 3077SOL     OW10129   6.218   3.870   1.564
 3077SOL    HW110130   6.299   3.905   1.516
 3077SOL    HW210131   6.217   3.903   1.658
 3078SOL     OW10132   6.405   3.050   2.129
 3078SOL    HW110133   6.353   3.135   2.122
 3078SOL    HW210134   6.415   3.025   2.225
 3079SOL     OW10135   2.598   2.449   4.598
 3079SOL    HW110136   2.629   2.459   4.503
 3079SOL    HW210137   2.498   2.451   4.600
 3080SOL     OW10138   4.463   4.365   1.629
 3080SOL    HW110139   4.455   4.440   1.696
 3080SOL    HW210140   4.470   4.278   1.678
 3081SOL     OW10141   1.046   4.074   0.072
 3081SOL    HW110142   0.999   4.130   0.005
 3081SOL    HW210143   0.978   4.030   0.132
 3082SOL     OW10144   2.911   5.360   4.801
 3082SOL    HW110145   2.854   5.281   4.778
 3082SOL    HW210146   2.983   5.370   4.732
 3083SOL     OW10147   2.663   5.248   2.523
 3083SOL    HW110148   2.696   5.161   2.485
 3083SOL    HW210149   2.720   5.323   2.489
 3084SOL     OW10150   0.646   3.340   2.644
 3084SOL    HW110151   0.647   3.273   2.718
 3084SOL    HW210152   0.579   3.313   2.575
 3085SOL     OW10153   4.898   4.985   0.581
 3085SOL    HW110154   4.894   4.891   0.615
 3085SOL    HW210155   4.978   4.994   0.521
 3086SOL     OW10156   4.966   0.904   0.513
 3086SOL    HW110157   4.908   0.854   0.576
 3086SOL    HW210158   5.019   0.972   0.563
 3087SOL     OW10159   2.386   6.148   2.362
 3087SOL    HW110160   2.466   6.123   2.417
 3087SOL    HW210161   2.399   6.240   2.325
 3088SOL     OW10162   0.615   3.290   5.697
 3088SOL    HW110163   0.638   3.261   5.790
 3088SOL    HW210164   0.696   3.329   5.654
 3089SOL     OW10165   4.518   1.226   4.462
 3089SOL    HW110166   4.558   1.295   4.521
 3089SOL    HW210167   4.546   1.242   4.367
 3090SOL     OW10168   1.104   1.578   2.281
 3090SOL    HW110169   1.187   1.536   2.316
 3090SOL    HW210170   1.044   1.507   2.243
 3091SOL     OW10171   1.141   1.634   0.792
 3091SOL    HW110172   1.185   1.544   0.794
 3091SOL    HW210173   1.090   1.649   0.876
 3092SOL     OW10174   5.358   0.073   2.176
 3092SOL    HW110175   5.333   0.142   2.244
 3092SOL    HW210176   5.363   0.116   2.086
 3093SOL     OW10177   5.788   6.097   6.255
 3093SOL    HW110178   5.843   6.032   6.203
 3093SOL    HW210179   5.841   6.131   6.333
 3094SOL     OW10180   2.271   0.892   4.715
 3094SOL    HW110181   2.336   0.939   4.774
 3094SOL    HW210182   2.184   0.941   4.714
 3095SOL     OW10183   2.723   3.049   5.305
 3095SOL    HW110184   2.804   3.008   5.262
 3095SOL    HW210185   2.642   3.021   5.255
 3096SOL     OW10186   0.579   3.270   5.154
 3096SOL    HW110187   0.517   3.194   5.136
 3096SOL    HW210188   0.534   3.357   5.133
 3097SOL     OW10189   5.632   2.839   6.797
 3097SOL    HW110190   5.562   2.776   6.830
 3097SOL    HW210191   5.716   2.826   6.851
 3098SOL     OW10192   2.106   2.524   2.148
 3098SOL    HW110193   2.147   2.439   2.181
 3098SOL    HW210194   2.077   2.580   2.225
 3099SOL     OW10195   0.716   6.219   3.393
 3099SOL    HW110196   0.650   6.160   3.346
 3099SOL    HW210197   0.808   6.194   3.363
 3100SOL     OW10198   6.487   6.343   2.774
 3100SOL    HW110199   6.439   6.344   2.687
 3100SOL    HW210200   6.582   6.315   2.760
 3101SOL     OW10201   5.035   6.892   5.546
 3101SOL    HW110202   5.058   6.971   5.604
 3101SOL    HW210203   4.995   6.924   5.461
 3102SOL     OW10204   0.549   5.599   0.388
 3102SOL    HW110205   0.551   5.532   0.462
 3102SOL    HW210206   0.464   5.651   0.393
 3103SOL     OW10207   3.964   0.446   0.950
 3103SOL    HW110208   4.053   0.488   0.970
 3103SOL    HW210209   3.910   0.442   1.034
 3104SOL     OW10210   4.631   6.877   6.618
 3104SOL    HW110211   4.536   6.899   6.639
 3104SOL    HW210212   4.648   6.889   6.520
 3105SOL     OW10213   5.323   3.185   0.868
 3105SOL    HW110214   5.273   3.235   0.797
 3105SOL    HW210215   5.388   3.247   0.913
 3106SOL     OW10216   5.181   1.216   5.391
 3106SOL    HW110217   5.140   1.244   5.305
 3106SOL    HW210218   5.248   1.285   5.420
 3107SOL     OW10219   4.188   1.519   4.365
 3107SOL    HW110220   4.229   1.564   4.444
 3107SOL    HW210221   4.123   1.582   4.321
 3108SOL     OW10222   2.422   4.381   4.287
 3108SOL    HW110223   2.518   4.359   4.272
 3108SOL    HW210224   2.396   4.355   4.380
 3109SOL     OW10225   6.148   0.420   4.807
 3109SOL    HW110226   6.105   0.331   4.817
 3109SOL    HW210227   6.104   0.470   4.732
 3110SOL     OW10228   2.572   4.649   3.535
 3110SOL    HW110229   2.567   4.679   3.440
 3110SOL    HW210230   2.522   4.564   3.547
 3111SOL     OW10231   6.468   5.126   4.121
 3111SOL    HW110232   6.464   5.138   4.220
 3111SOL    HW210233   6.393   5.066   4.091
 3112SOL     OW10234   3.717   3.055   6.649
 3112SOL    HW110235   3.744   3.145   6.616
 3112SOL    HW210236   3.783   2.987   6.617
 3113SOL     OW10237   3.167   5.551   2.537
 3113SOL    HW110238   3.208   5.485   2.599
 3113SOL    HW210239   3.158   5.639   2.583
 3114SOL     OW10240   3.510   1.079   0.417
 3114SOL    HW110241   3.411   1.081   0.426
 3114SOL    HW210242   3.535   1.081   0.320
 3115SOL     OW10243   3.960   4.462   5.369
 3115SOL    HW110244   3.894   4.453   5.443
 3115SOL    HW210245   4.053   4.452   5.405
 3116SOL     OW10246   0.976   2.455   0.537
 3116SOL    HW110247   0.994   2.359   0.559
 3116SOL    HW210248   0.907   2.491   0.600
 3117SOL     OW10249   5.111   2.434   6.078
 3117SOL    HW110250   5.108   2.367   6.152
 3117SOL    HW210251   5.199   2.481   6.079
 3118SOL     OW10252   1.325   0.370   3.215
 3118SOL    HW110253   1.243   0.320   3.243
 3118SOL    HW210254   1.355   0.338   3.125
 3119SOL     OW10255   3.059   2.418   5.525
 3119SOL    HW110256   3.117   2.337   5.515
 3119SOL    HW210257   3.080   2.483   5.452
 3120SOL     OW10258   3.237   0.456   5.175
 3120SOL    HW110259   3.311   0.401   5.135
 3120SOL    HW210260   3.172   0.480   5.104
 3121SOL     OW10261   5.324   2.121   4.388
 3121SOL    HW110262   5.276   2.102   4.473
 3121SOL    HW210263   5.358   2.215   4.389
 3122SOL     OW10264   4.335   4.692   4.559
 3122SOL    HW110265   4.269   4.731   4.494
 3122SOL    HW210266   4.294   4.692   4.650
 3123SOL     OW10267   1.987   0.663   3.681
 3123SOL    HW110268   2.009   0.661   3.583
 3123SOL    HW210269   2.048   0.727   3.727
 3124SOL     OW10270   5.481   6.557   4.556
 3124SOL    HW110271   5.567   6.603   4.582
 3124SOL    HW210272   5.486   6.461   4.582
 3125SOL     OW10273   0.937   2.931   5.336
 3125SOL    HW110274   0.970   2.845   5.296
 3125SOL    HW210275   1.014   2.979   5.379
 3126SOL     OW10276   5.617   4.841   4.949
 3126SOL    HW110277   5.702   4.851   4.896
 3126SOL    HW210278   5.580   4.749   4.935
 3127SOL     OW10279   0.794   2.565   4.913
 3127SOL    HW110280   0.755   2.587   5.003
 3127SOL    HW210281   0.833   2.648   4.872
 3128SOL     OW10282   3.273   0.752   0.429
 3128SOL    HW110283   3.242   0.770   0.523
 3128SOL    HW210284   3.340   0.678   0.430
 3129SOL     OW10285   5.317   3.000   1.200
 3129SOL    HW110286   5.280   2.994   1.107
 3129SOL    HW210287   5.414   3.023   1.196
 3130SOL     OW10288   1.333   4.344   0.859
 3130SOL    HW110289   1.352   4.248   0.838
 3130SOL    HW210290   1.244   4.370   0.820
 3131SOL     OW10291   7.018   3.211   2.292
 3131SOL    HW110292   0.049   3.129   2.306
 3131SOL    HW210293   6.971   3.234   2.378
 3132SOL     OW10294   4.621   4.743   6.985
 3132SOL    HW110295   4.654   4.722   0.052
 3132SOL    HW210296   4.691   4.796   6.936
 3133SOL     OW10297   3.355   0.834   3.384
 3133SOL    HW110298   3.276   0.858   3.328
 3133SOL    HW210299   3.329   0.837   3.481
 3134SOL     OW10300   3.790   4.872   2.237
 3134SOL    HW110301   3.872   4.828   2.274
 3134SOL    HW210302   3.781   4.849   2.140
 3135SOL     OW10303   5.883   6.936   6.221
 3135SOL    HW110304   5.938   6.904   6.144
 3135SOL    HW210305   5.853   6.857   6.275
 3136SOL     OW10306   6.054   0.897   2.566
 3136SOL    HW110307   6.003   0.918   2.482
 3136SOL    HW210308   6.108   0.977   2.593
 3137SOL     OW10309   6.580   0.515   1.822
 3137SOL    HW110310   6.677   0.527   1.801
 3137SOL    HW210311   6.525   0.571   1.760
 3138SOL     OW10312   5.438   5.460   3.639
 3138SOL    HW110313   5.377   5.537   3.660
 3138SOL    HW210314   5.450   5.404   3.720
 3139SOL     OW10315   3.403   4.962   1.450
 3139SOL    HW110316   3.413   4.943   1.548
 3139SOL    HW210317   3.452   5.045   1.426
 3140SOL     OW10318   6.726   6.152   5.687
 3140SOL    HW110319   6.666   6.150   5.767
 3140SOL    HW210320   6.670   6.153   5.604
 3141SOL     OW10321   0.227   2.142   0.511
 3141SOL    HW110322   0.168   2.208   0.463
 3141SOL    HW210323   0.233   2.167   0.607
 3142SOL     OW10324   4.184   0.551   2.720
 3142SOL    HW110325   4.207   0.614   2.795
 3142SOL    HW210326   4.168   0.603   2.636
 3143SOL     OW10327   6.318   2.034   0.137
 3143SOL    HW110328   6.378   1.954   0.132
 3143SOL    HW210329   6.223   2.006   0.125
 3144SOL     OW10330   4.192   3.987   6.960
 3144SOL    HW110331   4.098   4.022   6.958
 3144SOL    HW210332   4.192   3.896   7.001
 3145SOL     OW10333   2.025   6.460   2.042
 3145SOL    HW110334   2.014   6.546   1.991
 3145SOL    HW210335   2.055   6.480   2.135
 3146SOL     OW10336   0.930   0.956   5.126
 3146SOL    HW110337   0.914   1.045   5.083
 3146SOL    HW210338   1.007   0.963   5.190
 3147SOL     OW10339   3.818   5.175   6.334
 3147SOL    HW110340   3.742   5.218   6.287
 3147SOL    HW210341   3.890   5.243   6.352
 3148SOL     OW10342   0.130   0.031   3.102
 3148SOL    HW110343   0.215   0.077   3.126
 3148SOL    HW210344   0.144   6.957   3.102
 3149SOL     OW10345   2.979   1.137   6.640
 3149SOL    HW110346   2.953   1.050   6.599
 3149SOL    HW210347   2.902   1.173   6.694
 3150SOL     OW10348   6.741   5.559   5.622
 3150SOL    HW110349   6.781   5.593   5.538
 3150SOL    HW210350   6.691   5.633   5.668
 3151SOL     OW10351   6.719   2.010   6.265
 3151SOL    HW110352   6.716   1.997   6.165
 3151SOL    HW210353   6.652   1.949   6.308
 3152SOL     OW10354   1.342   4.203   6.481
 3152SOL    HW110355   1.376   4.205   6.575
 3152SOL    HW210356   1.288   4.120   6.467
 3153SOL     OW10357   6.322   4.457   0.386
 3153SOL    HW110358   6.270   4.516   0.447
 3153SOL    HW210359   6.260   4.389   0.345
 3154SOL     OW10360   5.813   1.024   1.776
 3154SOL    HW110361   5.862   1.038   1.690
 3154SOL    HW210362   5.870   1.057   1.852
 3155SOL     OW10363   6.593   4.374   0.580
 3155SOL    HW110364   6.597   4.451   0.517
 3155SOL    HW210365   6.509   4.379   0.634
 3156SOL     OW10366   3.593   4.158   2.385
 3156SOL    HW110367   3.511   4.125   2.432
 3156SOL    HW210368   3.674   4.127   2.433
 3157SOL     OW10369   0.908   2.291   5.002
 3157SOL    HW110370   0.838   2.219   5.002
 3157SOL    HW210371   0.869   2.376   4.969
 3158SOL     OW10372   2.695   1.994   5.682
 3158SOL    HW110373   2.784   2.029   5.654
 3158SOL    HW210374   2.676   1.908   5.634
 3159SOL     OW10375   5.263   0.125   0.623
 3159SOL    HW110376   5.309   0.178   0.551
 3159SOL    HW210377   5.323   0.118   0.702
 3160SOL     OW10378   1.896   6.973   5.438
 3160SOL    HW110379   1.877   6.884   5.397
 3160SOL    HW210380   1.932   0.010   5.369
 3161SOL     OW10381   1.942   2.715   2.759
 3161SOL    HW110382   1.852   2.671   2.762
 3161SOL    HW210383   1.939   2.791   2.694
 3162SOL     OW10384   2.486   5.330   6.946
 3162SOL    HW110385   2.517   5.416   6.986
 3162SOL    HW210386   2.432   5.348   6.864
 3163SOL     OW10387   3.945   3.486   0.149
 3163SOL    HW110388   3.995   3.530   0.074
 3163SOL    HW210389   4.005   3.479   0.229
 3164SOL     OW10390   3.497   5.665   2.013
 3164SOL    HW110391   3.524   5.637   2.105
 3164SOL    HW210392   3.400   5.643   1.998
 3165SOL     OW10393   1.290   5.057   0.996
 3165SOL    HW110394   1.330   4.975   1.036
 3165SOL    HW210395   1.194   5.039   0.974
 3166SOL     OW10396   4.074   0.888   4.203
 3166SOL    HW110397   4.173   0.884   4.217
 3166SOL    HW210398   4.054   0.887   4.105
 3167SOL     OW10399   6.053   4.312   0.575
 3167SOL    HW110400   6.007   4.317   0.486
 3167SOL    HW210401   6.152   4.311   0.561
 3168SOL     OW10402   5.597   2.048   1.405
 3168SOL    HW110403   5.672   2.037   1.471
 3168SOL    HW210404   5.510   2.055   1.454
 3169SOL     OW10405   1.820   4.687   2.967
 3169SOL    HW110406   1.852   4.689   3.062
 3169SOL    HW210407   1.802   4.593   2.940
 3170SOL     OW10408   4.223   6.054   2.436
 3170SOL    HW110409   4.139   6.062   2.490
 3170SOL    HW210410   4.239   6.140   2.388
 3171SOL     OW10411   5.203   2.150   2.036
 3171SOL    HW110412   5.139   2.190   1.970
 3171SOL    HW210413   5.178   2.177   2.128
 3172SOL     OW10414   0.542   5.311   0.053
 3172SOL    HW110415   0.639   5.328   0.071
 3172SOL    HW210416   0.532   5.223   0.007
 3173SOL     OW10417   2.742   2.649   0.027
 3173SOL    HW110418   2.645   2.673   0.021
 3173SOL    HW210419   2.772   2.610   6.964
 3174SOL     OW10420   2.210   2.598   6.025
 3174SOL    HW110421   2.309   2.583   6.024
 3174SOL    HW210422   2.178   2.602   6.119
 3175SOL     OW10423   5.854   1.524   2.487
 3175SOL    HW110424   5.781   1.466   2.524
 3175SOL    HW210425   5.922   1.466   2.441
 3176SOL     OW10426   0.253   3.136   5.265
 3176SOL    HW110427   0.286   3.068   5.330
 3176SOL    HW210428   0.283   3.112   5.172
 3177SOL     OW10429   5.359   4.328   3.893
 3177SOL    HW110430   5.423   4.272   3.841
 3177SOL    HW210431   5.384   4.325   3.990
 3178SOL     OW10432   6.055   1.956   0.122
 3178SOL    HW110433   5.984   2.003   0.175
 3178SOL    HW210434   6.015   1.917   0.039
 3179SOL     OW10435   1.643   1.730   2.117
 3179SOL    HW110436   1.722   1.687   2.073
 3179SOL    HW210437   1.583   1.659   2.154
 3180SOL     OW10438   5.784   6.341   0.223
 3180SOL    HW110439   5.855   6.299   0.279
 3180SOL    HW210440   5.694   6.318   0.259
 3181SOL     OW10441   6.660   0.999   4.165
 3181SOL    HW110442   6.645   1.007   4.066
 3181SOL    HW210443   6.691   0.906   4.186
 3182SOL     OW10444   2.781   0.706   6.307
 3182SOL    HW110445   2.838   0.645   6.363
 3182SOL    HW210446   2.684   0.686   6.325
 3183SOL     OW10447   4.817   4.780   2.384
 3183SOL    HW110448   4.726   4.774   2.344
 3183SOL    HW210449   4.845   4.690   2.419
 3184SOL     OW10450   0.342   1.964   3.148
 3184SOL    HW110451   0.247   1.961   3.178
 3184SOL    HW210452   0.371   2.059   3.138
 3185SOL     OW10453   6.280   6.530   6.112
 3185SOL    HW110454   6.243   6.552   6.202
 3185SOL    HW210455   6.312   6.435   6.112
 3186SOL     OW10456   2.321   1.295   0.328
 3186SOL    HW110457   2.370   1.233   0.389
 3186SOL    HW210458   2.227   1.263   0.315
 3187SOL     OW10459   3.298   5.155   2.189
 3187SOL    HW110460   3.271   5.136   2.095
 3187SOL    HW210461   3.309   5.068   2.238
 3188SOL     OW10462   2.094   5.722   4.895
 3188SOL    HW110463   2.159   5.684   4.831
 3188SOL    HW210464   2.001   5.715   4.858
 3189SOL     OW10465   1.895   1.415   7.019
 3189SOL    HW110466   1.809   1.435   6.971
 3189SOL    HW210467   1.880   1.341   0.060
 3190SOL     OW10468   6.654   5.633   6.307
 3190SOL    HW110469   6.691   5.549   6.267
 3190SOL    HW210470   6.726   5.702   6.313
 3191SOL     OW10471   4.747   5.554   1.872
 3191SOL    HW110472   4.809   5.487   1.911
 3191SOL    HW210473   4.693   5.596   1.945
 3192SOL     OW10474   0.009   2.539   0.713
 3192SOL    HW110475   6.984   2.473   0.768
 3192SOL    HW210476   0.006   2.629   0.757
 3193SOL     OW10477   4.314   1.244   4.968
 3193SOL    HW110478   4.352   1.275   4.881
 3193SOL    HW210479   4.339   1.148   4.983
 3194SOL     OW10480   0.965   1.147   5.575
 3194SOL    HW110481   1.044   1.088   5.556
 3194SOL    HW210482   0.990   1.213   5.647
 3195SOL     OW10483   0.688   1.172   1.700
 3195SOL    HW110484   0.605   1.195   1.750
 3195SOL    HW210485   0.687   1.216   1.611
 3196SOL     OW10486   0.031   0.952   6.409
 3196SOL    HW110487   0.033   0.990   6.501
 3196SOL    HW210488   0.112   0.896   6.393
 3197SOL     OW10489   2.449   6.848   5.335
 3197SOL    HW110490   2.424   6.757   5.369
 3197SOL    HW210491   2.482   6.841   5.241
 3198SOL     OW10492   5.955   2.186   3.581
 3198SOL    HW110493   6.004   2.257   3.529
 3198SOL    HW210494   5.996   2.177   3.672
 3199SOL     OW10495   5.748   5.030   3.233
 3199SOL    HW110496   5.665   5.085   3.239
 3199SOL    HW210497   5.734   4.944   3.282
 3200SOL     OW10498   5.997   3.340   2.821
 3200SOL    HW110499   6.019   3.283   2.900
 3200SOL    HW210500   6.008   3.288   2.737
 3201SOL     OW10501   5.842   5.136   3.778
 3201SOL    HW110502   5.931   5.165   3.814
 3201SOL    HW210503   5.838   5.155   3.680
 3202SOL     OW10504   1.049   5.596   1.003
 3202SOL    HW110505   1.102   5.600   1.087
 3202SOL    HW210506   1.102   5.548   0.933
 3203SOL     OW10507   5.228   1.192   1.511
 3203SOL    HW110508   5.315   1.226   1.546
 3203SOL    HW210509   5.160   1.192   1.583
 3204SOL     OW10510   3.004   1.411   3.238
 3204SOL    HW110511   2.942   1.475   3.285
 3204SOL    HW210512   3.044   1.456   3.158
 3205SOL     OW10513   4.842   2.577   5.568
 3205SOL    HW110514   4.928   2.594   5.616
 3205SOL    HW210515   4.810   2.661   5.525
 3206SOL     OW10516   2.705   3.499   1.164
 3206SOL    HW110517   2.703   3.477   1.261
 3206SOL    HW210518   2.614   3.484   1.125
 3207SOL     OW10519   1.457   1.115   6.383
 3207SOL    HW110520   1.450   1.052   6.461
 3207SOL    HW210521   1.408   1.199   6.403
 3208SOL     OW10522   5.760   5.641   6.198
 3208SOL    HW110523   5.770   5.719   6.260
 3208SOL    HW210524   5.819   5.567   6.228
 3209SOL     OW10525   3.208   5.289   4.896
 3209SOL    HW110526   3.143   5.270   4.970
 3209SOL    HW210527   3.158   5.309   4.812
 3210SOL     OW10528   0.709   5.149   1.807
 3210SOL    HW110529   0.689   5.053   1.792
 3210SOL    HW210530   0.791   5.158   1.865
 3211SOL     OW10531   1.830   5.098   0.298
 3211SOL    HW110532   1.749   5.056   0.257
 3211SOL    HW210533   1.895   5.027   0.322
 3212SOL     OW10534   3.172   6.903   2.174
 3212SOL    HW110535   3.257   6.954   2.191
 3212SOL    HW210536   3.157   6.895   2.076
 3213SOL     OW10537   1.574   0.294   6.351
 3213SOL    HW110538   1.503   0.364   6.348
 3213SOL    HW210539   1.565   0.233   6.272
 3214SOL     OW10540   4.803   6.556   2.535
 3214SOL    HW110541   4.804   6.568   2.634
 3214SOL    HW210542   4.767   6.639   2.492
 3215SOL     OW10543   0.916   3.290   0.729
 3215SOL    HW110544   0.862   3.269   0.811
 3215SOL    HW210545   0.955   3.382   0.738
 3216SOL     OW10546   5.695   5.015   0.971
 3216SOL    HW110547   5.650   4.934   1.008
 3216SOL    HW210548   5.776   4.988   0.919
 3217SOL     OW10549   0.338   5.611   2.280
 3217SOL    HW110550   0.360   5.693   2.332
 3217SOL    HW210551   0.242   5.615   2.252
 3218SOL     OW10552   5.732   2.259   3.433
 3218SOL    HW110553   5.647   2.206   3.437
 3218SOL    HW210554   5.797   2.225   3.500
 3219SOL     OW10555   6.837   0.857   4.875
 3219SOL    HW110556   6.824   0.768   4.919
 3219SOL    HW210557   6.893   0.846   4.793
 3220SOL     OW10558   0.642   5.798   6.751
 3220SOL    HW110559   0.723   5.822   6.804
 3220SOL    HW210560   0.572   5.761   6.812
 3221SOL     OW10561   3.556   6.643   2.269
 3221SOL    HW110562   3.591   6.674   2.181
 3221SOL    HW210563   3.457   6.628   2.262
 3222SOL     OW10564   3.005   0.993   1.800
 3222SOL    HW110565   2.953   0.908   1.814
 3222SOL    HW210566   3.026   1.004   1.703
 3223SOL     OW10567   2.587   6.069   0.246
 3223SOL    HW110568   2.673   6.055   0.296
 3223SOL    HW210569   2.529   6.133   0.296
 3224SOL     OW10570   5.104   2.572   5.067
 3224SOL    HW110571   5.069   2.560   5.159
 3224SOL    HW210572   5.159   2.655   5.063
 3225SOL     OW10573   4.266   1.685   4.947
 3225SOL    HW110574   4.289   1.601   4.997
 3225SOL    HW210575   4.185   1.668   4.890
 3226SOL     OW10576   1.912   0.172   1.525
 3226SOL    HW110577   1.878   0.121   1.605
 3226SOL    HW210578   1.838   0.230   1.490
 3227SOL     OW10579   3.404   3.196   6.500
 3227SOL    HW110580   3.477   3.134   6.471
 3227SOL    HW210581   3.315   3.155   6.480
 3228SOL     OW10582   0.147   4.147   0.272
 3228SOL    HW110583   0.102   4.127   0.359
 3228SOL    HW210584   0.178   4.062   0.230
 3229SOL     OW10585   3.575   0.537   5.306
 3229SOL    HW110586   3.550   0.501   5.216
 3229SOL    HW210587   3.497   0.530   5.368
 3230SOL     OW10588   1.698   5.548   5.725
 3230SOL    HW110589   1.757   5.480   5.769
 3230SOL    HW210590   1.603   5.514   5.725
 3231SOL     OW10591   2.353   0.860   2.643
 3231SOL    HW110592   2.415   0.807   2.700
 3231SOL    HW210593   2.327   0.944   2.691
 3232SOL     OW10594   4.014   5.853   3.888
 3232SOL    HW110595   4.033   5.924   3.821
 3232SOL    HW210596   3.925   5.810   3.868
 3233SOL     OW10597   6.919   2.822   0.511
 3233SOL    HW110598   6.939   2.820   0.609
 3233SOL    HW210599   6.917   2.916   0.479
 3234SOL     OW10600   1.740   2.931   0.217
 3234SOL    HW110601   1.769   2.840   0.246
 3234SOL    HW210602   1.789   3.001   0.270
 3235SOL     OW10603   6.460   6.696   2.117
 3235SOL    HW110604   6.468   6.773   2.053
 3235SOL    HW210605   6.415   6.619   2.071
 3236SOL     OW10606   1.196   4.528   0.558
 3236SOL    HW110607   1.147   4.452   0.601
 3236SOL    HW210608   1.201   4.513   0.460
 3237SOL     OW10609   6.275   1.659   3.139
 3237SOL    HW110610   6.253   1.562   3.154
 3237SOL    HW210611   6.263   1.681   3.043
 3238SOL     OW10612   6.204   5.547   6.958
 3238SOL    HW110613   6.110   5.512   6.952
 3238SOL    HW210614   6.267   5.481   6.919
 3239SOL     OW10615   6.736   0.068   3.636
 3239SOL    HW110616   6.759   0.160   3.602
 3239SOL    HW210617   6.764   7.024   3.568
 3240SOL     OW10618   0.179   0.313   5.834
 3240SOL    HW110619   0.106   0.366   5.790
 3240SOL    HW210620   0.259   0.310   5.774
 3241SOL     OW10621   4.927   1.544   5.967
 3241SOL    HW110622   4.971   1.585   6.047
 3241SOL    HW210623   4.951   1.597   5.886
 3242SOL     OW10624   4.880   3.469   5.806
 3242SOL    HW110625   4.867   3.427   5.716
 3242SOL    HW210626   4.810   3.538   5.821
 3243SOL     OW10627   4.586   5.439   0.440
 3243SOL    HW110628   4.629   5.401   0.522
 3243SOL    HW210629   4.657   5.459   0.371
 3244SOL     OW10630   5.972   6.339   0.011
 3244SOL    HW110631   5.913   6.331   0.092
 3244SOL    HW210632   6.002   6.248   7.007
 3245SOL     OW10633   4.895   2.106   4.249
 3245SOL    HW110634   4.974   2.162   4.224
 3245SOL    HW210635   4.927   2.020   4.289
 3246SOL     OW10636   6.288   0.005   3.035
 3246SOL    HW110637   6.251   0.097   3.044
 3246SOL    HW210638   6.387   0.007   3.049
 3247SOL     OW10639   6.424   4.862   2.089
 3247SOL    HW110640   6.430   4.822   1.997
 3247SOL    HW210641   6.331   4.894   2.105
 3248SOL     OW10642   5.429   2.350   2.518
 3248SOL    HW110643   5.522   2.341   2.555
 3248SOL    HW210644   5.367   2.290   2.568
 3249SOL     OW10645   3.231   3.758   4.143
 3249SOL    HW110646   3.155   3.820   4.121
 3249SOL    HW210647   3.317   3.810   4.145
 3250SOL     OW10648   5.061   0.096   2.930
 3250SOL    HW110649   5.153   0.058   2.917
 3250SOL    HW210650   5.021   0.118   2.841
 3251SOL     OW10651   2.663   1.019   4.520
 3251SOL    HW110652   2.698   0.937   4.564
 3251SOL    HW210653   2.698   1.025   4.427
 3252SOL     OW10654   2.832   0.476   2.566
 3252SOL    HW110655   2.766   0.511   2.632
 3252SOL    HW210656   2.867   0.388   2.598
 3253SOL     OW10657   4.550   3.772   0.466
 3253SOL    HW110658   4.499   3.813   0.390
 3253SOL    HW210659   4.506   3.687   0.494
 3254SOL     OW10660   5.462   0.069   6.233
 3254SOL    HW110661   5.397   0.142   6.254
 3254SOL    HW210662   5.471   0.009   6.313
 3255SOL     OW10663   5.422   6.140   1.143
 3255SOL    HW110664   5.488   6.145   1.068
 3255SOL    HW210665   5.329   6.130   1.106
 3256SOL     OW10666   3.903   1.796   1.172
 3256SOL    HW110667   3.830   1.790   1.241
 3256SOL    HW210668   3.904   1.887   1.133
 3257SOL     OW10669   2.471   1.993   1.745
 3257SOL    HW110670   2.501   2.013   1.838
 3257SOL    HW210671   2.397   1.926   1.748
 3258SOL     OW10672   3.628   5.243   3.545
 3258SOL    HW110673   3.607   5.146   3.549
 3258SOL    HW210674   3.547   5.296   3.568
 3259SOL     OW10675   5.371   5.192   3.975
 3259SOL    HW110676   5.430   5.127   3.926
 3259SOL    HW210677   5.276   5.163   3.969
 3260SOL     OW10678   1.358   3.713   1.407
 3260SOL    HW110679   1.416   3.678   1.481
 3260SOL    HW210680   1.380   3.809   1.390
 3261SOL     OW10681   4.964   0.637   2.075
 3261SOL    HW110682   5.057   0.655   2.042
 3261SOL    HW210683   4.963   0.641   2.175
 3262SOL     OW10684   3.885   2.039   2.128
 3262SOL    HW110685   3.817   2.104   2.094
 3262SOL    HW210686   3.868   1.949   2.089
 3263SOL     OW10687   3.286   1.340   3.191
 3263SOL    HW110688   3.268   1.255   3.141
 3263SOL    HW210689   3.201   1.388   3.207
 3264SOL     OW10690   2.098   5.235   1.200
 3264SOL    HW110691   2.077   5.173   1.275
 3264SOL    HW210692   2.133   5.322   1.237
 3265SOL     OW10693   5.746   6.753   6.352
 3265SOL    HW110694   5.780   6.777   6.443
 3265SOL    HW210695   5.646   6.754   6.353
 3266SOL     OW10696   2.850   4.185   6.928
 3266SOL    HW110697   2.780   4.195   6.857
 3266SOL    HW210698   2.867   4.088   6.945
 3267SOL     OW10699   2.710   7.009   1.834
 3267SOL    HW110700   2.787   0.003   1.895
 3267SOL    HW210701   2.740   7.014   1.739
 3268SOL     OW10702   1.604   4.630   1.180
 3268SOL    HW110703   1.587   4.631   1.279
 3268SOL    HW210704   1.578   4.541   1.143
 3269SOL     OW10705   0.138   5.514   1.586
 3269SOL    HW110706   0.225   5.520   1.537
 3269SOL    HW210707   0.136   5.430   1.641
 3270SOL     OW10708   1.723   3.320   6.706
 3270SOL    HW110709   1.717   3.399   6.646
 3270SOL    HW210710   1.759   3.242   6.655
 3271SOL     OW10711   6.780   3.113   1.234
 3271SOL    HW110712   6.721   3.157   1.302
 3271SOL    HW210713   6.723   3.079   1.158
 3272SOL     OW10714   2.817   4.458   6.978
 3272SOL    HW110715   2.861   4.485   6.892
 3272SOL    HW210716   2.835   4.361   6.995
 3273SOL     OW10717   6.096   4.940   6.339
 3273SOL    HW110718   6.114   4.994   6.421
 3273SOL    HW210719   6.102   5.000   6.259
 3274SOL     OW10720   5.973   0.403   1.246
 3274SOL    HW110721   6.054   0.423   1.190
 3274SOL    HW210722   5.972   0.305   1.268
 3275SOL     OW10723   4.664   1.101   0.923
 3275SOL    HW110724   4.601   1.168   0.962
 3275SOL    HW210725   4.612   1.024   0.885
 3276SOL     OW10726   4.491   6.173   6.986
 3276SOL    HW110727   4.589   6.184   6.969
 3276SOL    HW210728   4.440   6.204   6.906
 3277SOL     OW10729   3.541   1.311   0.555
 3277SOL    HW110730   3.548   1.222   0.510
 3277SOL    HW210731   3.554   1.384   0.488
 3278SOL     OW10732   0.593   0.468   5.510
 3278SOL    HW110733   0.659   0.543   5.505
 3278SOL    HW210734   0.641   0.383   5.530
 3279SOL     OW10735   5.240   0.392   0.900
 3279SOL    HW110736   5.290   0.343   0.828
 3279SOL    HW210737   5.166   0.444   0.860
 3280SOL     OW10738   5.111   4.285   4.415
 3280SOL    HW110739   5.106   4.383   4.434
 3280SOL    HW210740   5.100   4.269   4.317
 3281SOL     OW10741   0.671   4.764   1.487
 3281SOL    HW110742   0.610   4.701   1.535
 3281SOL    HW210743   0.724   4.817   1.554
 3282SOL     OW10744   6.528   4.565   4.917
 3282SOL    HW110745   6.564   4.473   4.928
 3282SOL    HW210746   6.570   4.626   4.985
 3283SOL     OW10747   3.825   1.161   1.690
 3283SOL    HW110748   3.849   1.069   1.722
 3283SOL    HW210749   3.886   1.187   1.615
 3284SOL     OW10750   1.317   6.111   5.251
 3284SOL    HW110751   1.220   6.120   5.228
 3284SOL    HW210752   1.326   6.072   5.342
 3285SOL     OW10753   5.511   1.788   4.807
 3285SOL    HW110754   5.421   1.778   4.764
 3285SOL    HW210755   5.534   1.886   4.812
 3286SOL     OW10756   3.498   2.535   1.561
 3286SOL    HW110757   3.467   2.463   1.498
 3286SOL    HW210758   3.426   2.557   1.626
 3287SOL     OW10759   0.628   0.444   0.252
 3287SOL    HW110760   0.634   0.542   0.271
 3287SOL    HW210761   0.681   0.423   0.170
 3288SOL     OW10762   1.881   0.061   0.055
 3288SOL    HW110763   1.905   0.079   6.985
 3288SOL    HW210764   1.861   0.147   0.101
 3289SOL     OW10765   2.856   2.017   6.218
 3289SOL    HW110766   2.829   1.973   6.133
 3289SOL    HW210767   2.775   2.043   6.270
 3290SOL     OW10768   6.999   5.391   1.208
 3290SOL    HW110769   7.018   5.392   1.110
 3290SOL    HW210770   0.057   5.414   1.259
 3291SOL     OW10771   2.855   0.993   5.645
 3291SOL    HW110772   2.937   1.004   5.701
 3291SOL    HW210773   2.880   0.958   5.555
 3292SOL     OW10774   0.492   1.430   0.843
 3292SOL    HW110775   0.575   1.421   0.789
 3292SOL    HW210776   0.416   1.456   0.784
 3293SOL     OW10777   6.414   5.104   1.368
 3293SOL    HW110778   6.355   5.026   1.383
 3293SOL    HW210779   6.510   5.075   1.370
 3294SOL     OW10780   5.008   2.054   6.113
 3294SOL    HW110781   5.051   2.104   6.189
 3294SOL    HW210782   4.934   1.997   6.149
 3295SOL     OW10783   1.066   3.703   1.710
 3295SOL    HW110784   1.054   3.635   1.638
 3295SOL    HW210785   1.116   3.782   1.674
 3296SOL     OW10786   0.320   0.743   4.043
 3296SOL    HW110787   0.271   0.656   4.053
 3296SOL    HW210788   0.286   0.792   3.964
 3297SOL     OW10789   3.228   1.639   5.395
 3297SOL    HW110790   3.190   1.593   5.475
 3297SOL    HW210791   3.255   1.732   5.420
 3298SOL     OW10792   6.659   2.423   5.491
 3298SOL    HW110793   6.648   2.499   5.427
 3298SOL    HW210794   6.603   2.346   5.463
 3299SOL     OW10795   3.784   6.103   2.734
 3299SOL    HW110796   3.766   6.094   2.832
 3299SOL    HW210797   3.701   6.134   2.688
 3300SOL     OW10798   1.351   0.427   6.068
 3300SOL    HW110799   1.320   0.368   6.143
 3300SOL    HW210800   1.377   0.516   6.106
 3301SOL     OW10801   1.755   3.426   3.540
 3301SOL    HW110802   1.795   3.401   3.452
 3301SOL    HW210803   1.762   3.349   3.604
 3302SOL     OW10804   0.958   4.497   5.815
 3302SOL    HW110805   0.912   4.410   5.835
 3302SOL    HW210806   1.048   4.498   5.858
 3303SOL     OW10807   3.117   3.457   0.340
 3303SOL    HW110808   3.157   3.549   0.344
 3303SOL    HW210809   3.044   3.455   0.272
 3304SOL     OW10810   1.708   5.526   6.076
 3304SOL    HW110811   1.680   5.474   5.996
 3304SOL    HW210812   1.807   5.541   6.073
 3305SOL     OW10813   2.966   0.530   1.888
 3305SOL    HW110814   2.918   0.616   1.872
 3305SOL    HW210815   3.064   0.547   1.892
 3306SOL     OW10816   1.042   5.589   4.842
 3306SOL    HW110817   0.989   5.513   4.881
 3306SOL    HW210818   0.997   5.676   4.862
 3307SOL     OW10819   0.677   6.936   5.398
 3307SOL    HW110820   0.650   6.854   5.348
 3307SOL    HW210821   0.744   6.912   5.468
 3308SOL     OW10822   3.229   5.593   1.127
 3308SOL    HW110823   3.313   5.539   1.119
 3308SOL    HW210824   3.201   5.596   1.223
 3309SOL     OW10825   6.378   4.644   4.530
 3309SOL    HW110826   6.327   4.623   4.447
 3309SOL    HW210827   6.351   4.581   4.603
 3310SOL     OW10828   0.652   4.082   4.987
 3310SOL    HW110829   0.645   3.989   5.022
 3310SOL    HW210830   0.565   4.108   4.944
 3311SOL     OW10831   3.270   3.624   0.482
 3311SOL    HW110832   3.217   3.666   0.555
 3311SOL    HW210833   3.290   3.529   0.506
 3312SOL     OW10834   4.353   2.871   5.963
 3312SOL    HW110835   4.306   2.928   5.895
 3312SOL    HW210836   4.430   2.921   6.001
 3313SOL     OW10837   1.124   6.997   3.696
 3313SOL    HW110838   1.216   6.980   3.663
 3313SOL    HW210839   1.064   7.015   3.619
 3314SOL     OW10840   2.672   0.443   1.930
 3314SOL    HW110841   2.661   0.380   1.854
 3314SOL    HW210842   2.766   0.476   1.933
 3315SOL     OW10843   0.810   4.111   4.774
 3315SOL    HW110844   0.752   4.108   4.856
 3315SOL    HW210845   0.790   4.195   4.723
 3316SOL     OW10846   4.125   0.532   5.162
 3316SOL    HW110847   4.196   0.602   5.156
 3316SOL    HW210848   4.035   0.574   5.150
 3317SOL     OW10849   5.029   2.086   2.423
 3317SOL    HW110850   5.011   2.001   2.373
 3317SOL    HW210851   4.962   2.096   2.496
 3318SOL     OW10852   1.654   1.154   0.016
 3318SOL    HW110853   1.633   1.160   6.943
 3318SOL    HW210854   1.736   1.099   0.029
 3319SOL     OW10855   5.740   0.470   3.723
 3319SOL    HW110856   5.710   0.450   3.816
 3319SOL    HW210857   5.825   0.420   3.704
 3320SOL     OW10858   6.440   0.618   0.273
 3320SOL    HW110859   6.435   0.705   0.223
 3320SOL    HW210860   6.494   0.553   0.220
 3321SOL     OW10861   5.961   1.787   0.973
 3321SOL    HW110862   5.991   1.704   1.022
 3321SOL    HW210863   5.946   1.860   1.039
 3322SOL     OW10864   0.360   2.652   1.076
 3322SOL    HW110865   0.354   2.713   0.997
 3322SOL    HW210866   0.380   2.706   1.158
 3323SOL     OW10867   2.584   2.112   0.893
 3323SOL    HW110868   2.598   2.202   0.851
 3323SOL    HW210869   2.660   2.052   0.870
 3324SOL     OW10870   4.448   5.240   5.997
 3324SOL    HW110871   4.478   5.154   6.037
 3324SOL    HW210872   4.440   5.309   6.068
 3325SOL     OW10873   0.105   3.654   6.783
 3325SOL    HW110874   0.057   3.591   6.721
 3325SOL    HW210875   0.199   3.622   6.797
 3326SOL     OW10876   4.459   1.565   1.529
 3326SOL    HW110877   4.496   1.569   1.437
 3326SOL    HW210878   4.369   1.608   1.531
 3327SOL     OW10879   2.614   5.186   1.381
 3327SOL    HW110880   2.528   5.146   1.413
 3327SOL    HW210881   2.609   5.286   1.387
 3328SOL     OW10882   3.677   2.154   0.979
 3328SOL    HW110883   3.624   2.071   0.995
 3328SOL    HW210884   3.620   2.234   0.999
 3329SOL     OW10885   5.660   0.221   5.735
 3329SOL    HW110886   5.724   0.268   5.675
 3329SOL    HW210887   5.676   0.122   5.731
 3330SOL     OW10888   6.239   3.494   1.512
 3330SOL    HW110889   6.173   3.442   1.457
 3330SOL    HW210890   6.199   3.581   1.538
 3331SOL     OW10891   2.618   3.071   1.186
 3331SOL    HW110892   2.623   3.084   1.285
 3331SOL    HW210893   2.597   2.976   1.166
 3332SOL     OW10894   5.870   5.377   0.183
 3332SOL    HW110895   5.842   5.456   0.237
 3332SOL    HW210896   5.926   5.406   0.106
 3333SOL     OW10897   4.417   6.036   6.364
 3333SOL    HW110898   4.401   5.941   6.391
 3333SOL    HW210899   4.406   6.044   6.265
 3334SOL     OW10900   3.581   3.160   1.434
 3334SOL    HW110901   3.575   3.086   1.368
 3334SOL    HW210902   3.648   3.137   1.504
 3335SOL     OW10903   4.614   5.415   5.280
 3335SOL    HW110904   4.666   5.439   5.198
 3335SOL    HW210905   4.517   5.426   5.262
 3336SOL     OW10906   2.966   5.267   5.048
 3336SOL    HW110907   2.938   5.177   5.083
 3336SOL    HW210908   2.938   5.276   4.953
 3337SOL     OW10909   2.963   3.046   1.812
 3337SOL    HW110910   2.926   3.136   1.790
 3337SOL    HW210911   3.043   3.056   1.870
 3338SOL     OW10912   6.113   3.435   0.994
 3338SOL    HW110913   6.068   3.424   0.905
 3338SOL    HW210914   6.044   3.431   1.067
 3339SOL     OW10915   0.009   0.067   6.828
 3339SOL    HW110916   0.067   0.138   6.788
 3339SOL    HW210917   6.948   0.107   6.859
 3340SOL     OW10918   3.584   0.308   1.515
 3340SOL    HW110919   3.609   0.334   1.608
 3340SOL    HW210920   3.594   0.386   1.454
 3341SOL     OW10921   1.894   6.421   3.772
 3341SOL    HW110922   1.809   6.404   3.821
 3341SOL    HW210923   1.968   6.440   3.837
 3342SOL     OW10924   2.099   6.418   3.956
 3342SOL    HW110925   2.165   6.367   3.901
 3342SOL    HW210926   2.076   6.366   4.038
 3343SOL     OW10927   5.138   2.751   0.276
 3343SOL    HW110928   5.238   2.753   0.267
 3343SOL    HW210929   5.107   2.836   0.316
 3344SOL     OW10930   5.601   3.945   4.889
 3344SOL    HW110931   5.537   3.870   4.871
 3344SOL    HW210932   5.550   4.026   4.917
 3345SOL     OW10933   2.279   3.733   5.865
 3345SOL    HW110934   2.295   3.658   5.929
 3345SOL    HW210935   2.353   3.800   5.873
 3346SOL     OW10936   1.642   0.994   1.716
 3346SOL    HW110937   1.622   0.938   1.797
 3346SOL    HW210938   1.725   1.047   1.733
 3347SOL     OW10939   0.691   5.428   3.630
 3347SOL    HW110940   0.639   5.507   3.598
 3347SOL    HW210941   0.633   5.373   3.690
 3348SOL     OW10942   3.033   3.218   3.148
 3348SOL    HW110943   2.935   3.228   3.133
 3348SOL    HW210944   3.049   3.154   3.224
 3349SOL     OW10945   0.622   4.621   4.744
 3349SOL    HW110946   0.532   4.659   4.763
 3349SOL    HW210947   0.673   4.610   4.829
 3350SOL     OW10948   1.322   2.120   6.570
 3350SOL    HW110949   1.278   2.188   6.511
 3350SOL    HW210950   1.341   2.161   6.659
 3351SOL     OW10951   5.268   0.252   2.419
 3351SOL    HW110952   5.302   0.341   2.452
 3351SOL    HW210953   5.309   0.179   2.473
 3352SOL     OW10954   0.028   3.651   0.501
 3352SOL    HW110955   0.120   3.684   0.521
 3352SOL    HW210956   0.019   3.633   0.403
 3353SOL     OW10957   1.256   6.732   1.817
 3353SOL    HW110958   1.342   6.724   1.766
 3353SOL    HW210959   1.238   6.829   1.837
 3354SOL     OW10960   6.425   2.541   4.020
 3354SOL    HW110961   6.514   2.504   4.049
 3354SOL    HW210962   6.421   2.543   3.920
 3355SOL     OW10963   1.436   1.338   0.051
 3355SOL    HW110964   1.513   1.276   0.040
 3355SOL    HW210965   1.454   1.400   0.128
 3356SOL     OW10966   2.083   3.083   0.382
 3356SOL    HW110967   1.989   3.108   0.361
 3356SOL    HW210968   2.126   3.154   0.438
 3357SOL     OW10969   2.453   4.954   1.802
 3357SOL    HW110970   2.536   5.008   1.815
 3357SOL    HW210971   2.457   4.909   1.712
 3358SOL     OW10972   4.742   6.957   1.829
 3358SOL    HW110973   4.818   6.931   1.888
 3358SOL    HW210974   4.731   6.889   1.756
 3359SOL     OW10975   6.890   0.448   4.289
 3359SOL    HW110976   6.791   0.459   4.295
 3359SOL    HW210977   6.927   0.429   4.380
 3360SOL     OW10978   0.264   1.164   1.208
 3360SOL    HW110979   0.268   1.263   1.192
 3360SOL    HW210980   0.337   1.119   1.157
 3361SOL     OW10981   0.191   4.650   2.277
 3361SOL    HW110982   0.278   4.604   2.295
 3361SOL    HW210983   0.163   4.632   2.183
 3362SOL     OW10984   3.700   1.339   4.617
 3362SOL    HW110985   3.655   1.256   4.648
 3362SOL    HW210986   3.633   1.398   4.571
 3363SOL     OW10987   0.347   0.624   6.133
 3363SOL    HW110988   0.387   0.686   6.200
 3363SOL    HW210989   0.413   0.605   6.060
 3364SOL     OW10990   1.529   4.790   4.563
 3364SOL    HW110991   1.557   4.868   4.619
 3364SOL    HW210992   1.567   4.706   4.601
 3365SOL     OW10993   0.495   2.397   5.027
 3365SOL    HW110994   0.408   2.388   4.978
 3365SOL    HW210995   0.478   2.435   5.118
 3366SOL     OW10996   6.359   0.743   5.057
 3366SOL    HW110997   6.449   0.754   5.014
 3366SOL    HW210998   6.289   0.787   5.001
 3367SOL     OW10999   2.010   2.838   1.713
 3367SOL    HW111000   2.073   2.832   1.790
 3367SOL    HW211001   2.024   2.760   1.652
 3368SOL     OW11002   0.173   5.896   0.020
 3368SOL    HW111003   0.082   5.891   0.061
 3368SOL    HW211004   0.206   5.803   7.024
 3369SOL     OW11005   3.630   2.034   5.554
 3369SOL    HW111006   3.608   2.098   5.480
 3369SOL    HW211007   3.644   1.943   5.517
 3370SOL     OW11008   6.432   6.477   5.400
 3370SOL    HW111009   6.344   6.522   5.415
 3370SOL    HW211010   6.502   6.521   5.458
 3371SOL     OW11011   0.533   4.221   2.266
 3371SOL    HW111012   0.516   4.126   2.290
 3371SOL    HW211013   0.631   4.239   2.268
 3372SOL     OW11014   0.984   1.293   2.739
 3372SOL    HW111015   0.999   1.369   2.675
 3372SOL    HW211016   1.007   1.207   2.695
 3373SOL     OW11017   6.305   1.293   3.846
 3373SOL    HW111018   6.353   1.376   3.820
 3373SOL    HW211019   6.207   1.311   3.852
 3374SOL     OW11020   3.066   5.814   4.094
 3374SOL    HW111021   3.138   5.751   4.124
 3374SOL    HW211022   3.103   5.907   4.088
 3375SOL     OW11023   4.193   4.853   4.377
 3375SOL    HW111024   4.099   4.887   4.387
 3375SOL    HW211025   4.217   4.850   4.280
 3376SOL     OW11026   4.104   3.206   2.961
 3376SOL    HW111027   4.102   3.112   2.927
 3376SOL    HW211028   4.076   3.208   3.057
 3377SOL     OW11029   0.116   6.486   4.474
 3377SOL    HW111030   0.173   6.564   4.499
 3377SOL    HW211031   0.065   6.455   4.554
 3378SOL     OW11032   6.646   0.683   1.421
 3378SOL    HW111033   6.616   0.629   1.500
 3378SOL    HW211034   6.743   0.667   1.405
 3379SOL     OW11035   6.754   5.372   6.159
 3379SOL    HW111036   6.798   5.350   6.246
 3379SOL    HW211037   6.818   5.421   6.100
 3380SOL     OW11038   6.027   5.629   5.524
 3380SOL    HW111039   5.961   5.612   5.596
 3380SOL    HW211040   6.048   5.727   5.521
 3381SOL     OW11041   2.100   2.010   0.335
 3381SOL    HW111042   2.121   2.105   0.310
 3381SOL    HW211043   2.023   1.977   0.280
 3382SOL     OW11044   0.981   1.280   0.936
 3382SOL    HW111045   1.064   1.312   0.891
 3382SOL    HW211046   0.998   1.190   0.975
 3383SOL     OW11047   5.358   5.006   2.646
 3383SOL    HW111048   5.358   5.100   2.680
 3383SOL    HW211049   5.278   4.957   2.680
 3384SOL     OW11050   2.927   3.235   5.044
 3384SOL    HW111051   2.827   3.234   5.047
 3384SOL    HW211052   2.963   3.226   5.137
 3385SOL     OW11053   0.503   3.885   3.947
 3385SOL    HW111054   0.548   3.915   4.031
 3385SOL    HW211055   0.571   3.843   3.887
 3386SOL     OW11056   6.086   3.021   5.480
 3386SOL    HW111057   6.117   3.104   5.434
 3386SOL    HW211058   6.022   3.046   5.553
 3387SOL     OW11059   2.225   0.906   2.997
 3387SOL    HW111060   2.249   0.951   2.912
 3387SOL    HW211061   2.297   0.921   3.065
 3388SOL     OW11062   5.785   3.445   0.976
 3388SOL    HW111063   5.836   3.407   0.899
 3388SOL    HW211064   5.846   3.458   1.054
 3389SOL     OW11065   4.311   5.275   4.940
 3389SOL    HW111066   4.381   5.228   4.887
 3389SOL    HW211067   4.224   5.273   4.890
 3390SOL     OW11068   4.943   4.528   5.867
 3390SOL    HW111069   4.934   4.621   5.903
 3390SOL    HW211070   4.874   4.470   5.910
 3391SOL     OW11071   5.476   2.478   4.816
 3391SOL    HW111072   5.491   2.502   4.912
 3391SOL    HW211073   5.426   2.551   4.770
 3392SOL     OW11074   2.676   1.086   3.448
 3392SOL    HW111075   2.725   1.062   3.532
 3392SOL    HW211076   2.579   1.098   3.469
 3393SOL     OW11077   6.795   6.452   0.560
 3393SOL    HW111078   6.801   6.433   0.658
 3393SOL    HW211079   6.699   6.458   0.533
 3394SOL     OW11080   5.949   3.761   0.892
 3394SOL    HW111081   5.878   3.825   0.921
 3394SOL    HW211082   5.940   3.744   0.794
 3395SOL     OW11083   6.928   3.552   3.892
 3395SOL    HW111084   6.927   3.618   3.818
 3395SOL    HW211085   7.006   3.489   3.880
 3396SOL     OW11086   0.405   2.637   3.102
 3396SOL    HW111087   0.468   2.566   3.071
 3396SOL    HW211088   0.387   2.626   3.200
 3397SOL     OW11089   3.127   1.298   5.629
 3397SOL    HW111090   3.092   1.390   5.611
 3397SOL    HW211091   3.220   1.289   5.594
 3398SOL     OW11092   1.009   6.873   4.504
 3398SOL    HW111093   0.924   6.822   4.491
 3398SOL    HW211094   0.990   6.971   4.504
 3399SOL     OW11095   4.794   4.206   4.099
 3399SOL    HW111096   4.802   4.128   4.162
 3399SOL    HW211097   4.882   4.223   4.055
 3400SOL     OW11098   4.045   0.962   5.107
 3400SOL    HW111099   4.081   1.051   5.136
 3400SOL    HW211100   3.946   0.960   5.122
 3401SOL     OW11101   0.069   3.563   1.033
 3401SOL    HW111102   7.017   3.622   1.008
 3401SOL    HW211103   0.155   3.610   1.011
 3402SOL     OW11104   4.522   6.125   0.489
 3402SOL    HW111105   4.512   6.178   0.573
 3402SOL    HW211106   4.543   6.030   0.511
 3403SOL     OW11107   3.619   0.360   4.491
 3403SOL    HW111108   3.689   0.368   4.419
 3403SOL    HW211109   3.564   0.278   4.474
 3404SOL     OW11110   3.917   1.590   0.451
 3404SOL    HW111111   3.934   1.554   0.359
 3404SOL    HW211112   4.001   1.630   0.487
 3405SOL     OW11113   6.418   3.763   4.340
 3405SOL    HW111114   6.489   3.713   4.290
 3405SOL    HW211115   6.334   3.765   4.286
 3406SOL     OW11116   1.394   4.166   1.618
 3406SOL    HW111117   1.458   4.189   1.691
 3406SOL    HW211118   1.314   4.225   1.623
 3407SOL     OW11119   1.571   5.335   0.133
 3407SOL    HW111120   1.585   5.340   0.034
 3407SOL    HW211121   1.542   5.242   0.157
 3408SOL     OW11122   4.973   4.378   4.905
 3408SOL    HW111123   4.908   4.321   4.855
 3408SOL    HW211124   4.930   4.465   4.928
 3409SOL     OW11125   3.496   6.361   5.721
 3409SOL    HW111126   3.460   6.437   5.775
 3409SOL    HW211127   3.444   6.278   5.742
 3410SOL     OW11128   5.959   6.003   0.343
 3410SOL    HW111129   5.976   5.924   0.403
 3410SOL    HW211130   5.885   5.981   0.280
 3411SOL     OW11131   0.325   2.656   1.790
 3411SOL    HW111132   0.287   2.582   1.734
 3411SOL    HW211133   0.275   2.740   1.771
 3412SOL     OW11134   4.644   2.623   0.001
 3412SOL    HW111135   4.723   2.606   6.966
 3412SOL    HW211136   4.590   2.698   6.989
 3413SOL     OW11137   5.030   1.167   2.981
 3413SOL    HW111138   4.952   1.230   2.975
 3413SOL    HW211139   4.998   1.076   3.006
 3414SOL     OW11140   2.422   1.460   5.308
 3414SOL    HW111141   2.337   1.427   5.266
 3414SOL    HW211142   2.410   1.554   5.338
 3415SOL     OW11143   2.323   4.197   4.085
 3415SOL    HW111144   2.373   4.237   4.162
 3415SOL    HW211145   2.309   4.100   4.101
 3416SOL     OW11146   6.764   5.335   6.823
 3416SOL    HW111147   6.795   5.269   6.754
 3416SOL    HW211148   6.844   5.374   6.869
 3417SOL     OW11149   6.396   6.084   3.301
 3417SOL    HW111150   6.378   6.106   3.397
 3417SOL    HW211151   6.356   5.995   3.279
 3418SOL     OW11152   3.987   6.863   4.590
 3418SOL    HW111153   4.083   6.860   4.616
 3418SOL    HW211154   3.968   6.948   4.539
 3419SOL     OW11155   3.080   5.522   5.624
 3419SOL    HW111156   3.126   5.600   5.584
 3419SOL    HW211157   3.061   5.453   5.554
 3420SOL     OW11158   5.282   2.483   3.360
 3420SOL    HW111159   5.198   2.432   3.342
 3420SOL    HW211160   5.293   2.495   3.459
 3421SOL     OW11161   6.249   0.287   6.427
 3421SOL    HW111162   6.162   0.239   6.416
 3421SOL    HW211163   6.264   0.347   6.349
 3422SOL     OW11164   2.331   6.552   0.896
 3422SOL    HW111165   2.260   6.612   0.860
 3422SOL    HW211166   2.400   6.606   0.945
 3423SOL     OW11167   2.134   0.007   0.680
 3423SOL    HW111168   2.040   7.017   0.650
 3423SOL    HW211169   2.168   0.093   0.642
 3424SOL     OW11170   2.686   6.694   2.262
 3424SOL    HW111171   2.780   6.724   2.248
 3424SOL    HW211172   2.675   6.664   2.357
 3425SOL     OW11173   5.009   4.166   1.915
 3425SOL    HW111174   5.047   4.092   1.970
 3425SOL    HW211175   4.909   4.155   1.910
 3426SOL     OW11176   3.164   2.894   6.847
 3426SOL    HW111177   3.148   2.800   6.877
 3426SOL    HW211178   3.098   2.919   6.776
 3427SOL     OW11179   6.555   6.810   6.410
 3427SOL    HW111180   6.599   6.884   6.358
 3427SOL    HW211181   6.534   6.843   6.502
 3428SOL     OW11182   3.715   4.846   1.363
 3428SOL    HW111183   3.763   4.794   1.292
 3428SOL    HW211184   3.655   4.913   1.320
 3429SOL     OW11185   0.459   1.762   0.040
 3429SOL    HW111186   0.410   1.721   6.988
 3429SOL    HW211187   0.440   1.709   0.123
 3430SOL     OW11188   0.375   0.014   5.633
 3430SOL    HW111189   0.468   7.004   5.645
 3430SOL    HW211190   0.379   0.111   5.606
 3431SOL     OW11191   2.115   6.984   0.956
 3431SOL    HW111192   2.162   6.981   0.867
 3431SOL    HW211193   2.172   0.005   1.023
 3432SOL     OW11194   2.546   2.612   6.269
 3432SOL    HW111195   2.591   2.700   6.288
 3432SOL    HW211196   2.524   2.607   6.172
 3433SOL     OW11197   1.287   6.755   6.347
 3433SOL    HW111198   1.367   6.812   6.327
 3433SOL    HW211199   1.317   6.667   6.382
 3434SOL     OW11200   3.337   2.808   1.139
 3434SOL    HW111201   3.270   2.797   1.066
 3434SOL    HW211202   3.324   2.737   1.207
 3435SOL     OW11203   1.383   2.158   1.300
 3435SOL    HW111204   1.449   2.098   1.254
 3435SOL    HW211205   1.386   2.139   1.398
 3436SOL     OW11206   3.847   6.689   5.802
 3436SOL    HW111207   3.911   6.729   5.867
 3436SOL    HW211208   3.877   6.709   5.709
 3437SOL     OW11209   4.178   0.286   6.444
 3437SOL    HW111210   4.192   0.288   6.345
 3437SOL    HW211211   4.135   0.372   6.474
 3438SOL     OW11212   1.256   2.489   6.744
 3438SOL    HW111213   1.239   2.588   6.750
 3438SOL    HW211214   1.174   2.443   6.711
 3439SOL     OW11215   1.989   0.316   6.181
 3439SOL    HW111216   1.901   0.336   6.137
 3439SOL    HW211217   2.014   0.221   6.164
 3440SOL     OW11218   4.626   3.431   1.567
 3440SOL    HW111219   4.528   3.415   1.578
 3440SOL    HW211220   4.676   3.377   1.635
 3441SOL     OW11221   4.948   0.369   3.845
 3441SOL    HW111222   4.848   0.362   3.848
 3441SOL    HW211223   4.986   0.348   3.935
 3442SOL     OW11224   3.325   4.886   2.578
 3442SOL    HW111225   3.273   4.847   2.653
 3442SOL    HW211226   3.402   4.938   2.614
 3443SOL     OW11227   5.627   0.825   2.479
 3443SOL    HW111228   5.639   0.750   2.544
 3443SOL    HW211229   5.602   0.788   2.389
 3444SOL     OW11230   5.255   4.873   6.909
 3444SOL    HW111231   5.286   4.779   6.894
 3444SOL    HW211232   5.260   4.925   6.824
 3445SOL     OW11233   5.879   5.068   4.160
 3445SOL    HW111234   5.884   5.166   4.179
 3445SOL    HW211235   5.903   5.016   4.242
 3446SOL     OW11236   6.179   1.224   3.090
 3446SOL    HW111237   6.162   1.143   3.147
 3446SOL    HW211238   6.157   1.307   3.142
 3447SOL     OW11239   5.649   4.254   0.668
 3447SOL    HW111240   5.714   4.317   0.710
 3447SOL    HW211241   5.698   4.188   0.612
 3448SOL     OW11242   3.192   0.032   0.708
 3448SOL    HW111243   3.186   0.128   0.680
 3448SOL    HW211244   3.121   7.005   0.661
 3449SOL     OW11245   5.982   6.395   3.796
 3449SOL    HW111246   5.994   6.460   3.722
 3449SOL    HW211247   5.979   6.444   3.883
 3450SOL     OW11248   0.568   2.430   7.023
 3450SOL    HW111249   0.584   2.479   0.084
 3450SOL    HW211250   0.532   2.493   6.954
 3451SOL     OW11251   0.617   5.506   2.991
 3451SOL    HW111252   0.629   5.441   3.066
 3451SOL    HW211253   0.632   5.599   3.024
 3452SOL     OW11254   5.611   1.520   0.029
 3452SOL    HW111255   5.668   1.594   0.064
 3452SOL    HW211256   5.654   1.479   6.974
 3453SOL     OW11257   6.846   5.754   5.897
 3453SOL    HW111258   6.873   5.793   5.810
 3453SOL    HW211259   6.821   5.827   5.961
 3454SOL     OW11260   2.351   1.089   5.597
 3454SOL    HW111261   2.328   1.015   5.660
 3454SOL    HW211262   2.381   1.169   5.648
 3455SOL     OW11263   1.854   2.813   4.291
 3455SOL    HW111264   1.756   2.833   4.280
 3455SOL    HW211265   1.868   2.761   4.375
 3456SOL     OW11266   5.474   6.551   2.261
 3456SOL    HW111267   5.526   6.616   2.317
 3456SOL    HW211268   5.508   6.459   2.278
 3457SOL     OW11269   2.608   5.309   4.194
 3457SOL    HW111270   2.584   5.237   4.128
 3457SOL    HW211271   2.599   5.398   4.151
 3458SOL     OW11272   5.401   6.870   0.487
 3458SOL    HW111273   5.397   6.891   0.585
 3458SOL    HW211274   5.317   6.822   0.460
 3459SOL     OW11275   5.895   3.941   3.118
 3459SOL    HW111276   5.929   3.848   3.107
 3459SOL    HW211277   5.959   3.994   3.172
 3460SOL     OW11278   2.940   3.521   0.154
 3460SOL    HW111279   2.854   3.537   0.203
 3460SOL    HW211280   2.920   3.496   0.059
 3461SOL     OW11281   4.279   5.713   4.502
 3461SOL    HW111282   4.366   5.670   4.526
 3461SOL    HW211283   4.295   5.783   4.432
 3462SOL     OW11284   6.561   3.440   2.360
 3462SOL    HW111285   6.614   3.478   2.284
 3462SOL    HW211286   6.603   3.466   2.446
 3463SOL     OW11287   1.328   3.032   2.869
 3463SOL    HW111288   1.302   3.038   2.773
 3463SOL    HW211289   1.329   3.123   2.909
 3464SOL     OW11290   6.439   2.166   6.835
 3464SOL    HW111291   6.491   2.191   6.754
 3464SOL    HW211292   6.498   2.173   6.916
 3465SOL     OW11293   0.593   3.231   1.966
 3465SOL    HW111294   0.576   3.313   1.912
 3465SOL    HW211295   0.691   3.215   1.972
 3466SOL     OW11296   6.589   4.870   6.082
 3466SOL    HW111297   6.527   4.927   6.028
 3466SOL    HW211298   6.541   4.786   6.109
 3467SOL     OW11299   2.082   1.726   0.408
 3467SOL    HW111300   2.120   1.687   0.325
 3467SOL    HW211301   2.085   1.826   0.403
 3468SOL     OW11302   5.200   1.301   3.401
 3468SOL    HW111303   5.153   1.263   3.481
 3468SOL    HW211304   5.293   1.328   3.427
 3469SOL     OW11305   4.388   6.950   4.376
 3469SOL    HW111306   4.373   0.003   4.437
 3469SOL    HW211307   4.466   6.969   4.317
 3470SOL     OW11308   0.747   2.170   1.968
 3470SOL    HW111309   0.759   2.207   1.876
 3470SOL    HW211310   0.803   2.221   2.033
 3471SOL     OW11311   4.761   4.483   3.430
 3471SOL    HW111312   4.813   4.563   3.461
 3471SOL    HW211313   4.697   4.455   3.502
 3472SOL     OW11314   2.673   0.836   1.653
 3472SOL    HW111315   2.704   0.926   1.620
 3472SOL    HW211316   2.722   0.764   1.604
 3473SOL     OW11317   6.355   3.290   2.621
 3473SOL    HW111318   6.411   3.241   2.553
 3473SOL    HW211319   6.261   3.257   2.616
 3474SOL     OW11320   0.107   4.421   2.485
 3474SOL    HW111321   0.057   4.489   2.539
 3474SOL    HW211322   0.200   4.454   2.468
 3475SOL     OW11323   0.771   4.717   4.528
 3475SOL    HW111324   0.725   4.685   4.611
 3475SOL    HW211325   0.870   4.705   4.539
 3476SOL     OW11326   2.599   2.380   2.484
 3476SOL    HW111327   2.535   2.324   2.432
 3476SOL    HW211328   2.692   2.348   2.468
 3477SOL     OW11329   1.646   4.932   0.933
 3477SOL    HW111330   1.562   4.879   0.940
 3477SOL    HW211331   1.682   4.950   1.025
 3478SOL     OW11332   2.608   5.847   6.549
 3478SOL    HW111333   2.639   5.798   6.630
 3478SOL    HW211334   2.674   5.836   6.475
 3479SOL     OW11335   0.909   0.450   2.859
 3479SOL    HW111336   0.859   0.364   2.864
 3479SOL    HW211337   0.910   0.493   2.949
 3480SOL     OW11338   6.971   6.278   5.137
 3480SOL    HW111339   7.024   6.355   5.173
 3480SOL    HW211340   6.945   6.218   5.212
 3481SOL     OW11341   4.827   0.479   0.357
 3481SOL    HW111342   4.731   0.489   0.382
 3481SOL    HW211343   4.838   0.401   0.296
 3482SOL     OW11344   6.313   0.976   2.210
 3482SOL    HW111345   6.370   1.037   2.266
 3482SOL    HW211346   6.285   1.023   2.127
 3483SOL     OW11347   5.335   1.925   2.366
 3483SOL    HW111348   5.417   1.948   2.316
 3483SOL    HW211349   5.282   1.857   2.316
 3484SOL     OW11350   1.392   2.971   0.362
 3484SOL    HW111351   1.487   2.960   0.331
 3484SOL    HW211352   1.335   2.999   0.285
 3485SOL     OW11353   1.926   1.570   4.016
 3485SOL    HW111354   1.888   1.605   3.930
 3485SOL    HW211355   1.948   1.647   4.076
 3486SOL     OW11356   1.897   0.105   3.146
 3486SOL    HW111357   1.862   0.145   3.062
 3486SOL    HW211358   1.982   0.056   3.128
 3487SOL     OW11359   0.162   1.907   0.734
 3487SOL    HW111360   0.121   1.946   0.816
 3487SOL    HW211361   0.116   1.943   0.653
 3488SOL     OW11362   5.765   1.277   5.174
 3488SOL    HW111363   5.732   1.186   5.203
 3488SOL    HW211364   5.766   1.338   5.253
 3489SOL     OW11365   3.780   0.287   2.027
 3489SOL    HW111366   3.830   0.362   2.071
 3489SOL    HW211367   3.844   0.230   1.976
 3490SOL     OW11368   3.980   4.550   0.969
 3490SOL    HW111369   3.915   4.492   1.018
 3490SOL    HW211370   3.934   4.594   0.892
 3491SOL     OW11371   4.620   2.127   6.050
 3491SOL    HW111372   4.701   2.183   6.068
 3491SOL    HW211373   4.537   2.181   6.068
 3492SOL     OW11374   6.392   4.416   0.783
 3492SOL    HW111375   6.318   4.357   0.752
 3492SOL    HW211376   6.403   4.408   0.882
 3493SOL     OW11377   4.902   3.702   3.947
 3493SOL    HW111378   4.926   3.743   4.035
 3493SOL    HW211379   4.933   3.761   3.873
 3494SOL     OW11380   2.327   0.920   1.760
 3494SOL    HW111381   2.371   0.842   1.805
 3494SOL    HW211382   2.315   0.901   1.663
 3495SOL     OW11383   6.320   4.718   1.726
 3495SOL    HW111384   6.231   4.697   1.766
 3495SOL    HW211385   6.390   4.718   1.797
 3496SOL     OW11386   6.117   4.768   0.972
 3496SOL    HW111387   6.176   4.727   0.902
 3496SOL    HW211388   6.021   4.757   0.946
 3497SOL     OW11389   3.093   1.658   3.600
 3497SOL    HW111390   3.171   1.596   3.602
 3497SOL    HW211391   3.105   1.729   3.669
 3498SOL     OW11392   3.069   1.281   1.490
 3498SOL    HW111393   3.130   1.360   1.490
 3498SOL    HW211394   2.980   1.307   1.454
 3499SOL     OW11395   5.630   4.508   4.073
 3499SOL    HW111396   5.682   4.448   4.012
 3499SOL    HW211397   5.563   4.454   4.124
 3500SOL     OW11398   1.818   3.364   3.058
 3500SOL    HW111399   1.825   3.431   2.984
 3500SOL    HW211400   1.833   3.272   3.022
 3501SOL     OW11401   3.142   6.464   5.924
 3501SOL    HW111402   3.085   6.511   5.992
 3501SOL    HW211403   3.084   6.433   5.849
 3502SOL     OW11404   0.101   1.827   1.258
 3502SOL    HW111405   0.028   1.891   1.232
 3502SOL    HW211406   0.069   1.769   1.333
 3503SOL     OW11407   5.906   5.870   4.862
 3503SOL    HW111408   5.833   5.807   4.891
 3503SOL    HW211409   5.885   5.906   4.772
 3504SOL     OW11410   2.461   0.021   1.644
 3504SOL    HW111411   2.465   0.064   1.734
 3504SOL    HW211412   2.545   6.993   1.628
 3505SOL     OW11413   5.242   4.220   5.649
 3505SOL    HW111414   5.172   4.197   5.581
 3505SOL    HW211415   5.213   4.302   5.699
 3506SOL     OW11416   5.159   5.263   5.060
 3506SOL    HW111417   5.201   5.347   5.096
 3506SOL    HW211418   5.133   5.278   4.965
 3507SOL     OW11419   2.976   0.639   0.789
 3507SOL    HW111420   3.024   0.697   0.855
 3507SOL    HW211421   2.878   0.658   0.794
 3508SOL     OW11422   1.944   1.912   5.626
 3508SOL    HW111423   1.977   2.004   5.604
 3508SOL    HW211424   1.960   1.894   5.723
 3509SOL     OW11425   5.535   0.143   0.040
 3509SOL    HW111426   5.633   0.128   0.048
 3509SOL    HW211427   5.503   0.198   0.117
 3510SOL     OW11428   1.356   0.998   2.073
 3510SOL    HW111429   1.308   1.048   2.000
 3510SOL    HW211430   1.313   1.018   2.161
 3511SOL     OW11431   1.833   4.094   1.722
 3511SOL    HW111432   1.873   4.078   1.632
 3511SOL    HW211433   1.763   4.025   1.740
 3512SOL     OW11434   0.211   4.742   0.329
 3512SOL    HW111435   0.184   4.708   0.239
 3512SOL    HW211436   0.246   4.666   0.384
 3513SOL     OW11437   6.033   2.018   0.667
 3513SOL    HW111438   6.036   2.099   0.608
 3513SOL    HW211439   5.940   1.983   0.671
 3514SOL     OW11440   6.963   1.067   1.999
 3514SOL    HW111441   6.987   0.971   2.013
 3514SOL    HW211442   6.958   1.086   1.901
 3515SOL     OW11443   4.678   6.209   2.739
 3515SOL    HW111444   4.631   6.164   2.815
 3515SOL    HW211445   4.753   6.151   2.707
 3516SOL     OW11446   4.986   0.061   0.725
 3516SOL    HW111447   5.065   0.099   0.678
 3516SOL    HW211448   5.016   0.006   0.804
 3517SOL     OW11449   0.914   1.980   1.355
 3517SOL    HW111450   0.884   2.064   1.402
 3517SOL    HW211451   0.842   1.911   1.363
 3518SOL     OW11452   4.963   2.814   5.191
 3518SOL    HW111453   4.973   2.725   5.236
 3518SOL    HW211454   5.038   2.873   5.218
 3519SOL     OW11455   1.330   0.483   5.788
 3519SOL    HW111456   1.264   0.476   5.862
 3519SOL    HW211457   1.423   0.476   5.825
 3520SOL     OW11458   3.481   5.839   0.140
 3520SOL    HW111459   3.477   5.916   0.076
 3520SOL    HW211460   3.573   5.800   0.139
 3521SOL     OW11461   4.851   2.771   0.367
 3521SOL    HW111462   4.948   2.749   0.363
 3521SOL    HW211463   4.820   2.767   0.462
 3522SOL     OW11464   0.593   5.263   0.885
 3522SOL    HW111465   0.641   5.177   0.868
 3522SOL    HW211466   0.623   5.301   0.973
 3523SOL     OW11467   1.723   4.546   5.131
 3523SOL    HW111468   1.625   4.528   5.136
 3523SOL    HW211469   1.764   4.485   5.063
 3524SOL     OW11470   4.521   1.381   1.703
 3524SOL    HW111471   4.512   1.451   1.633
 3524SOL    HW211472   4.437   1.326   1.706
 3525SOL     OW11473   6.561   4.606   3.627
 3525SOL    HW111474   6.559   4.689   3.682
 3525SOL    HW211475   6.471   4.592   3.586
 3526SOL     OW11476   2.035   6.909   3.783
 3526SOL    HW111477   2.036   6.826   3.728
 3526SOL    HW211478   2.128   6.944   3.794
 3527SOL     OW11479   5.583   3.007   6.344
 3527SOL    HW111480   5.639   2.996   6.426
 3527SOL    HW211481   5.487   2.994   6.367
 3528SOL     OW11482   1.396   6.481   5.471
 3528SOL    HW111483   1.436   6.392   5.493
 3528SOL    HW211484   1.469   6.544   5.446
 3529SOL     OW11485   4.021   0.130   0.387
 3529SOL    HW111486   4.059   0.038   0.382
 3529SOL    HW211487   3.946   0.130   0.453
 3530SOL     OW11488   6.493   6.429   1.470
 3530SOL    HW111489   6.427   6.371   1.519
 3530SOL    HW211490   6.461   6.445   1.377
 3531SOL     OW11491   4.881   2.406   1.175
 3531SOL    HW111492   4.882   2.505   1.188
 3531SOL    HW211493   4.786   2.373   1.177
 3532SOL     OW11494   2.688   6.698   1.735
 3532SOL    HW111495   2.590   6.680   1.747
 3532SOL    HW211496   2.727   6.724   1.824
 3533SOL     OW11497   0.816   1.576   2.752
 3533SOL    HW111498   0.889   1.545   2.690
 3533SOL    HW211499   0.800   1.507   2.822
 3534SOL     OW11500   0.384   2.058   1.006
 3534SOL    HW111501   0.350   2.137   1.056
 3534SOL    HW211502   0.384   2.079   0.908
 3535SOL     OW11503   2.117   5.121   6.330
 3535SOL    HW111504   2.033   5.074   6.356
 3535SOL    HW211505   2.180   5.057   6.288
 3536SOL     OW11506   3.188   1.864   2.804
 3536SOL    HW111507   3.091   1.886   2.796
 3536SOL    HW211508   3.243   1.943   2.777
 3537SOL     OW11509   2.466   5.364   2.685
 3537SOL    HW111510   2.540   5.316   2.639
 3537SOL    HW211511   2.500   5.450   2.724
 3538SOL     OW11512   2.333   0.004   6.026
 3538SOL    HW111513   2.345   6.932   6.051
 3538SOL    HW211514   2.326   0.012   5.927
 3539SOL     OW11515   3.383   2.845   5.157
 3539SOL    HW111516   3.450   2.801   5.098
 3539SOL    HW211517   3.304   2.875   5.103
 3540SOL     OW11518   1.563   2.378   4.977
 3540SOL    HW111519   1.634   2.375   4.907
 3540SOL    HW211520   1.591   2.322   5.055
 3541SOL     OW11521   1.965   2.875   6.189
 3541SOL    HW111522   1.940   2.888   6.286
 3541SOL    HW211523   1.948   2.780   6.163
 3542SOL     OW11524   1.403   5.353   3.389
 3542SOL    HW111525   1.497   5.318   3.381
 3542SOL    HW211526   1.373   5.344   3.484
 3543SOL     OW11527   0.612   2.207   4.877
 3543SOL    HW111528   0.646   2.210   4.783
 3543SOL    HW211529   0.569   2.295   4.900
 3544SOL     OW11530   1.658   4.249   5.546
 3544SOL    HW111531   1.743   4.301   5.534
 3544SOL    HW211532   1.585   4.292   5.492
 3545SOL     OW11533   4.320   5.688   0.236
 3545SOL    HW111534   4.302   5.610   0.176
 3545SOL    HW211535   4.407   5.729   0.211
 3546SOL     OW11536   1.652   4.103   3.813
 3546SOL    HW111537   1.732   4.079   3.868
 3546SOL    HW211538   1.580   4.140   3.872
 3547SOL     OW11539   6.750   4.621   3.932
 3547SOL    HW111540   6.683   4.682   3.889
 3547SOL    HW211541   6.839   4.634   3.889
 3548SOL     OW11542   5.836   1.619   5.801
 3548SOL    HW111543   5.830   1.536   5.855
 3548SOL    HW211544   5.883   1.599   5.715
 3549SOL     OW11545   6.433   5.103   5.876
 3549SOL    HW111546   6.341   5.127   5.907
 3549SOL    HW211547   6.432   5.085   5.778
 3550SOL     OW11548   5.705   2.344   2.511
 3550SOL    HW111549   5.753   2.258   2.530
 3550SOL    HW211550   5.718   2.368   2.415
 3551SOL     OW11551   3.487   0.207   2.914
 3551SOL    HW111552   3.500   0.117   2.873
 3551SOL    HW211553   3.572   0.259   2.908
 3552SOL     OW11554   5.491   5.970   1.357
 3552SOL    HW111555   5.430   5.978   1.435
 3552SOL    HW211556   5.478   6.049   1.297
 3553SOL     OW11557   5.352   3.887   1.269
 3553SOL    HW111558   5.443   3.925   1.285
 3553SOL    HW211559   5.302   3.881   1.355
 3554SOL     OW11560   3.789   2.908   0.964
 3554SOL    HW111561   3.879   2.915   0.922
 3554SOL    HW211562   3.783   2.826   1.020
 3555SOL     OW11563   1.008   3.978   3.271
 3555SOL    HW111564   0.909   3.963   3.276
 3555SOL    HW211565   1.045   3.936   3.188
 3556SOL     OW11566   4.513   0.792   3.650
 3556SOL    HW111567   4.545   0.838   3.567
 3556SOL    HW211568   4.458   0.712   3.624
 3557SOL     OW11569   0.857   0.453   4.220
 3557SOL    HW111570   0.929   0.512   4.185
 3557SOL    HW211571   0.768   0.487   4.190
 3558SOL     OW11572   1.209   5.918   0.969
 3558SOL    HW111573   1.196   5.919   1.068
 3558SOL    HW211574   1.120   5.912   0.923
 3559SOL     OW11575   0.506   6.620   4.740
 3559SOL    HW111576   0.568   6.610   4.817
 3559SOL    HW211577   0.482   6.717   4.728
 3560SOL     OW11578   1.550   5.599   1.317
 3560SOL    HW111579   1.639   5.556   1.330
 3560SOL    HW211580   1.483   5.556   1.378
 3561SOL     OW11581   4.202   4.422   5.504
 3561SOL    HW111582   4.271   4.492   5.521
 3561SOL    HW211583   4.201   4.357   5.580
 3562SOL     OW11584   5.348   0.891   4.190
 3562SOL    HW111585   5.289   0.971   4.206
 3562SOL    HW211586   5.292   0.809   4.187
 3563SOL     OW11587   5.798   0.723   0.847
 3563SOL    HW111588   5.734   0.650   0.870
 3563SOL    HW211589   5.892   0.692   0.860
 3564SOL     OW11590   1.758   4.553   4.195
 3564SOL    HW111591   1.750   4.653   4.195
 3564SOL    HW211592   1.796   4.523   4.108
 3565SOL     OW11593   3.571   6.082   5.243
 3565SOL    HW111594   3.648   6.091   5.180
 3565SOL    HW211595   3.558   5.986   5.266
 3566SOL     OW11596   6.661   3.589   6.221
 3566SOL    HW111597   6.685   3.568   6.126
 3566SOL    HW211598   6.740   3.629   6.267
 3567SOL     OW11599   1.198   2.970   0.159
 3567SOL    HW111600   1.100   2.975   0.138
 3567SOL    HW211601   1.228   2.875   0.151
 3568SOL     OW11602   5.213   5.998   4.127
 3568SOL    HW111603   5.207   6.018   4.030
 3568SOL    HW211604   5.195   6.080   4.180
 3569SOL     OW11605   3.236   2.480   6.041
 3569SOL    HW111606   3.194   2.499   6.130
 3569SOL    HW211607   3.200   2.544   5.973
 3570SOL     OW11608   5.231   0.202   4.963
 3570SOL    HW111609   5.206   0.119   4.912
 3570SOL    HW211610   5.221   0.184   5.061
 3571SOL     OW11611   2.304   0.664   4.864
 3571SOL    HW111612   2.262   0.720   4.792
 3571SOL    HW211613   2.401   0.652   4.844
 3572SOL     OW11614   5.333   3.855   2.626
 3572SOL    HW111615   5.397   3.916   2.672
 3572SOL    HW211616   5.292   3.902   2.548
 3573SOL     OW11617   6.134   4.013   2.516
 3573SOL    HW111618   6.103   3.999   2.610
 3573SOL    HW211619   6.105   3.936   2.459
 3574SOL     OW11620   1.090   3.244   0.512
 3574SOL    HW111621   1.189   3.253   0.520
 3574SOL    HW211622   1.048   3.261   0.601
 3575SOL     OW11623   4.720   5.902   2.277
 3575SOL    HW111624   4.629   5.874   2.307
 3575SOL    HW211625   4.747   5.986   2.326
 3576SOL     OW11626   0.552   2.002   0.092
 3576SOL    HW111627   0.468   2.025   0.141
 3576SOL    HW211628   0.546   1.909   0.058
 3577SOL     OW11629   2.100   3.006   6.735
 3577SOL    HW111630   2.199   3.015   6.743
 3577SOL    HW211631   2.058   3.096   6.738
 3578SOL     OW11632   5.238   1.619   1.383
 3578SOL    HW111633   5.334   1.635   1.407
 3578SOL    HW211634   5.183   1.695   1.417
 3579SOL     OW11635   6.878   2.871   2.750
 3579SOL    HW111636   6.954   2.929   2.777
 3579SOL    HW211637   6.905   2.775   2.759
 3580SOL     OW11638   5.989   2.874   0.107
 3580SOL    HW111639   6.063   2.923   0.061
 3580SOL    HW211640   5.942   2.815   0.042
 3581SOL     OW11641   0.414   6.100   2.833
 3581SOL    HW111642   0.498   6.083   2.886
 3581SOL    HW211643   0.430   6.075   2.737
 3582SOL     OW11644   2.188   4.624   6.030
 3582SOL    HW111645   2.221   4.530   6.025
 3582SOL    HW211646   2.114   4.636   5.964
 3583SOL     OW11647   1.464   5.091   0.177
 3583SOL    HW111648   1.509   5.004   0.200
 3583SOL    HW211649   1.391   5.074   0.111
 3584SOL     OW11650   5.484   4.688   5.457
 3584SOL    HW111651   5.517   4.664   5.366
 3584SOL    HW211652   5.408   4.628   5.482
 3585SOL     OW11653   3.228   2.127   4.749
 3585SOL    HW111654   3.207   2.196   4.817
 3585SOL    HW211655   3.263   2.171   4.666
 3586SOL     OW11656   6.596   1.657   4.977
 3586SOL    HW111657   6.625   1.615   5.063
 3586SOL    HW211658   6.531   1.730   4.996
 3587SOL     OW11659   2.740   5.748   6.243
 3587SOL    HW111660   2.695   5.671   6.199
 3587SOL    HW211661   2.838   5.747   6.220
 3588SOL     OW11662   6.751   2.931   5.072
 3588SOL    HW111663   6.800   2.936   5.159
 3588SOL    HW211664   6.738   3.023   5.035
 3589SOL     OW11665   5.851   0.224   6.798
 3589SOL    HW111666   5.840   0.163   6.876
 3589SOL    HW211667   5.903   0.305   6.826
 3590SOL     OW11668   0.357   3.644   0.251
 3590SOL    HW111669   0.266   3.618   0.284
 3590SOL    HW211670   0.383   3.585   0.174
 3591SOL     OW11671   5.798   3.592   0.538
 3591SOL    HW111672   5.786   3.515   0.475
 3591SOL    HW211673   5.891   3.589   0.576
 3592SOL     OW11674   0.639   0.033   3.387
 3592SOL    HW111675   0.694   0.077   3.458
 3592SOL    HW211676   0.605   6.970   3.420
 3593SOL     OW11677   0.519   4.361   6.174
 3593SOL    HW111678   0.595   4.419   6.145
 3593SOL    HW211679   0.434   4.394   6.133
 3594SOL     OW11680   4.924   0.390   4.339
 3594SOL    HW111681   4.990   0.391   4.414
 3594SOL    HW211682   4.844   0.444   4.365
 3595SOL     OW11683   5.223   5.768   6.582
 3595SOL    HW111684   5.277   5.810   6.654
 3595SOL    HW211685   5.241   5.813   6.495
 3596SOL     OW11686   5.189   2.841   3.656
 3596SOL    HW111687   5.176   2.937   3.682
 3596SOL    HW211688   5.156   2.828   3.563
 3597SOL     OW11689   1.982   2.810   5.120
 3597SOL    HW111690   2.009   2.724   5.077
 3597SOL    HW211691   1.996   2.804   5.219
 3598SOL     OW11692   1.997   6.438   5.521
 3598SOL    HW111693   2.006   6.465   5.425
 3598SOL    HW211694   2.073   6.378   5.546
 3599SOL     OW11695   4.420   2.028   0.650
 3599SOL    HW111696   4.443   2.029   0.553
 3599SOL    HW211697   4.499   2.057   0.704
 3600SOL     OW11698   0.300   3.409   2.191
 3600SOL    HW111699   0.287   3.327   2.136
 3600SOL    HW211700   0.366   3.390   2.264
 3601SOL     OW11701   5.400   2.432   6.044
 3601SOL    HW111702   5.443   2.522   6.050
 3601SOL    HW211703   5.362   2.418   5.953
 3602SOL     OW11704   1.157   3.436   0.779
 3602SOL    HW111705   1.178   3.354   0.833
 3602SOL    HW211706   1.218   3.440   0.700
 3603SOL     OW11707   3.625   1.132   4.750
 3603SOL    HW111708   3.707   1.097   4.794
 3603SOL    HW211709   3.552   1.064   4.756
 3604SOL     OW11710   6.646   0.304   4.252
 3604SOL    HW111711   6.602   0.265   4.172
 3604SOL    HW211712   6.740   0.269   4.258
 3605SOL     OW11713   1.064   4.272   3.767
 3605SOL    HW111714   1.050   4.223   3.681
 3605SOL    HW211715   0.976   4.296   3.807
 3606SOL     OW11716   0.947   6.645   3.215
 3606SOL    HW111717   0.959   6.604   3.305
 3606SOL    HW211718   0.954   6.574   3.145
 3607SOL     OW11719   5.472   3.720   1.956
 3607SOL    HW111720   5.420   3.689   1.876
 3607SOL    HW211721   5.410   3.734   2.033
 3608SOL     OW11722   4.936   1.377   4.348
 3608SOL    HW111723   4.938   1.289   4.396
 3608SOL    HW211724   5.029   1.414   4.342
 3609SOL     OW11725   2.266   0.115   4.361
 3609SOL    HW111726   2.215   0.040   4.318
 3609SOL    HW211727   2.215   0.200   4.351
 3610SOL     OW11728   1.466   0.702   5.507
 3610SOL    HW111729   1.523   0.668   5.582
 3610SOL    HW211730   1.413   0.626   5.469
 3611SOL     OW11731   4.158   4.721   3.871
 3611SOL    HW111732   4.163   4.762   3.779
 3611SOL    HW211733   4.237   4.660   3.883
 3612SOL     OW11734   0.005   1.088   0.001
 3612SOL    HW111735   6.975   1.019   6.980
 3612SOL    HW211736   7.020   1.079   0.100
 3613SOL     OW11737   4.438   4.752   2.020
 3613SOL    HW111738   4.461   4.806   1.940
 3613SOL    HW211739   4.341   4.764   2.041
 3614SOL     OW11740   3.024   3.779   0.134
 3614SOL    HW111741   3.113   3.809   0.168
 3614SOL    HW211742   3.010   3.683   0.157
 3615SOL     OW11743   5.720   2.380   6.317
 3615SOL    HW111744   5.805   2.417   6.278
 3615SOL    HW211745   5.658   2.354   6.243
 3616SOL     OW11746   1.100   0.738   6.543
 3616SOL    HW111747   1.029   0.669   6.533
 3616SOL    HW211748   1.086   0.811   6.475
 3617SOL     OW11749   4.530   0.646   5.763
 3617SOL    HW111750   4.549   0.610   5.672
 3617SOL    HW211751   4.601   0.713   5.788
 3618SOL     OW11752   2.689   3.368   5.310
 3618SOL    HW111753   2.591   3.364   5.289
 3618SOL    HW211754   2.715   3.288   5.364
 3619SOL     OW11755   5.531   3.676   6.802
 3619SOL    HW111756   5.620   3.633   6.790
 3619SOL    HW211757   5.465   3.608   6.835
 3620SOL     OW11758   5.830   5.355   5.644
 3620SOL    HW111759   5.898   5.404   5.699
 3620SOL    HW211760   5.816   5.263   5.681
 3621SOL     OW11761   3.444   3.772   4.529
 3621SOL    HW111762   3.364   3.719   4.500
 3621SOL    HW211763   3.440   3.786   4.628
 3622SOL     OW11764   1.917   0.836   0.292
 3622SOL    HW111765   1.861   0.760   0.260
 3622SOL    HW211766   1.896   0.854   0.388
 3623SOL     OW11767   0.123   5.558   4.669
 3623SOL    HW111768   0.146   5.495   4.743
 3623SOL    HW211769   0.203   5.613   4.646
 3624SOL     OW11770   1.496   6.954   2.560
 3624SOL    HW111771   1.546   6.882   2.512
 3624SOL    HW211772   1.402   6.924   2.578
 3625SOL     OW11773   0.041   3.684   6.402
 3625SOL    HW111774   0.059   3.619   6.328
 3625SOL    HW211775   6.971   3.676   6.432
 3626SOL     OW11776   0.493   3.116   4.157
 3626SOL    HW111777   0.411   3.136   4.103
 3626SOL    HW211778   0.573   3.155   4.111
 3627SOL     OW11779   4.755   3.230   1.729
 3627SOL    HW111780   4.788   3.194   1.641
 3627SOL    HW211781   4.721   3.154   1.784
 3628SOL     OW11782   1.383   1.304   1.985
 3628SOL    HW111783   1.371   1.313   1.886
 3628SOL    HW211784   1.306   1.252   2.023
 3629SOL     OW11785   1.281   0.504   4.548
 3629SOL    HW111786   1.228   0.575   4.502
 3629SOL    HW211787   1.278   0.420   4.494
 3630SOL     OW11788   6.525   2.857   3.678
 3630SOL    HW111789   6.451   2.920   3.654
 3630SOL    HW211790   6.581   2.899   3.749
 3631SOL     OW11791   1.608   6.549   3.588
 3631SOL    HW111792   1.652   6.528   3.675
 3631SOL    HW211793   1.627   6.644   3.563
 3632SOL     OW11794   4.665   4.708   0.307
 3632SOL    HW111795   4.754   4.664   0.299
 3632SOL    HW211796   4.656   4.748   0.398
 3633SOL     OW11797   4.338   2.664   5.775
 3633SOL    HW111798   4.395   2.583   5.789
 3633SOL    HW211799   4.349   2.726   5.853
 3634SOL     OW11800   1.841   6.268   6.281
 3634SOL    HW111801   1.748   6.273   6.244
 3634SOL    HW211802   1.870   6.173   6.285
 3635SOL     OW11803   2.358   1.258   0.706
 3635SOL    HW111804   2.403   1.340   0.671
 3635SOL    HW211805   2.263   1.257   0.676
 3636SOL     OW11806   6.749   6.015   1.215
 3636SOL    HW111807   6.684   6.045   1.285
 3636SOL    HW211808   6.716   5.931   1.172
 3637SOL     OW11809   0.954   2.590   0.962
 3637SOL    HW111810   0.888   2.552   1.028
 3637SOL    HW211811   1.046   2.559   0.986
 3638SOL     OW11812   6.518   4.062   2.709
 3638SOL    HW111813   6.464   4.087   2.628
 3638SOL    HW211814   6.569   4.142   2.741
 3639SOL     OW11815   3.690   4.829   6.491
 3639SOL    HW111816   3.680   4.730   6.499
 3639SOL    HW211817   3.659   4.858   6.400
 3640SOL     OW11818   5.199   1.738   0.801
 3640SOL    HW111819   5.113   1.790   0.797
 3640SOL    HW211820   5.217   1.712   0.896
 3641SOL     OW11821   5.335   4.203   1.271
 3641SOL    HW111822   5.246   4.242   1.293
 3641SOL    HW211823   5.323   4.126   1.209
 3642SOL     OW11824   4.964   2.356   6.859
 3642SOL    HW111825   4.970   2.261   6.830
 3642SOL    HW211826   5.018   2.369   6.942
 3643SOL     OW11827   4.104   6.507   5.996
 3643SOL    HW111828   4.173   6.532   5.927
 3643SOL    HW211829   4.068   6.590   6.039
 3644SOL     OW11830   2.695   0.478   1.329
 3644SOL    HW111831   2.660   0.385   1.332
 3644SOL    HW211832   2.704   0.507   1.233
 3645SOL     OW11833   1.344   4.005   4.238
 3645SOL    HW111834   1.359   4.093   4.193
 3645SOL    HW211835   1.406   3.997   4.316
 3646SOL     OW11836   1.826   4.870   4.763
 3646SOL    HW111837   1.845   4.773   4.775
 3646SOL    HW211838   1.911   4.922   4.771
 3647SOL     OW11839   2.811   5.983   6.853
 3647SOL    HW111840   2.832   5.897   6.806
 3647SOL    HW211841   2.836   5.976   6.949
 3648SOL     OW11842   4.777   6.192   3.002
 3648SOL    HW111843   4.855   6.255   3.006
 3648SOL    HW211844   4.693   6.240   3.028
 3649SOL     OW11845   6.691   3.515   0.371
 3649SOL    HW111846   6.628   3.593   0.371
 3649SOL    HW211847   6.653   3.441   0.425
 3650SOL     OW11848   6.318   4.222   0.531
 3650SOL    HW111849   6.364   4.259   0.450
 3650SOL    HW211850   6.321   4.122   0.529
 3651SOL     OW11851   1.882   1.338   4.514
 3651SOL    HW111852   1.866   1.403   4.439
 3651SOL    HW211853   1.863   1.246   4.481
 3652SOL     OW11854   5.602   7.006   2.997
 3652SOL    HW111855   5.700   7.012   3.019
 3652SOL    HW211856   5.562   6.929   3.046
 3653SOL     OW11857   1.518   0.968   3.218
 3653SOL    HW111858   1.582   1.045   3.222
 3653SOL    HW211859   1.435   0.991   3.268
 3654SOL     OW11860   5.071   6.202   0.572
 3654SOL    HW111861   5.070   6.287   0.519
 3654SOL    HW211862   5.145   6.144   0.540
 3655SOL     OW11863   3.020   1.243   4.202
 3655SOL    HW111864   3.025   1.321   4.264
 3655SOL    HW211865   2.951   1.261   4.132
 3656SOL     OW11866   1.345   5.392   1.529
 3656SOL    HW111867   1.352   5.386   1.628
 3656SOL    HW211868   1.254   5.426   1.504
 3657SOL     OW11869   4.843   5.925   5.620
 3657SOL    HW111870   4.872   6.018   5.600
 3657SOL    HW211871   4.750   5.911   5.584
 3658SOL     OW11872   1.740   5.084   6.522
 3658SOL    HW111873   1.823   5.128   6.556
 3658SOL    HW211874   1.747   4.985   6.534
 3659SOL     OW11875   0.453   1.939   6.649
 3659SOL    HW111876   0.423   1.967   6.558
 3659SOL    HW211877   0.550   1.914   6.645
 3660SOL     OW11878   6.135   5.981   4.933
 3660SOL    HW111879   6.201   5.955   4.862
 3660SOL    HW211880   6.044   5.950   4.907
 3661SOL     OW11881   0.455   0.570   4.760
 3661SOL    HW111882   0.510   0.527   4.832
 3661SOL    HW211883   0.481   0.532   4.671
 3662SOL     OW11884   3.814   0.615   4.680
 3662SOL    HW111885   3.865   0.586   4.598
 3662SOL    HW211886   3.838   0.709   4.703
 3663SOL     OW11887   2.129   2.919   0.141
 3663SOL    HW111888   2.098   2.830   0.173
 3663SOL    HW211889   2.113   2.987   0.213
 3664SOL     OW11890   3.655   1.559   2.062
 3664SOL    HW111891   3.598   1.547   1.980
 3664SOL    HW211892   3.720   1.483   2.069
 3665SOL     OW11893   0.719   5.841   5.816
 3665SOL    HW111894   0.703   5.818   5.720
 3665SOL    HW211895   0.808   5.806   5.845
 3666SOL     OW11896   1.044   3.165   3.049
 3666SOL    HW111897   1.078   3.112   3.127
 3666SOL    HW211898   1.072   3.260   3.058
 3667SOL     OW11899   0.882   1.197   3.946
 3667SOL    HW111900   0.786   1.224   3.943
 3667SOL    HW211901   0.933   1.250   3.878
 3668SOL     OW11902   1.343   0.907   0.978
 3668SOL    HW111903   1.265   0.953   1.020
 3668SOL    HW211904   1.340   0.810   1.001
 3669SOL     OW11905   5.660   1.707   4.013
 3669SOL    HW111906   5.651   1.663   3.923
 3669SOL    HW211907   5.658   1.806   4.002
 3670SOL     OW11908   3.145   5.191   1.134
 3670SOL    HW111909   3.071   5.259   1.140
 3670SOL    HW211910   3.216   5.213   1.201
 3671SOL     OW11911   6.809   1.122   3.574
 3671SOL    HW111912   6.905   1.148   3.587
 3671SOL    HW211913   6.760   1.131   3.661
 3672SOL     OW11914   4.585   1.555   2.738
 3672SOL    HW111915   4.562   1.473   2.685
 3672SOL    HW211916   4.567   1.636   2.682
 3673SOL     OW11917   4.053   5.738   6.646
 3673SOL    HW111918   4.048   5.663   6.712
 3673SOL    HW211919   4.089   5.704   6.559
 3674SOL     OW11920   1.180   5.891   5.465
 3674SOL    HW111921   1.114   5.820   5.440
 3674SOL    HW211922   1.271   5.852   5.470
 3675SOL     OW11923   0.337   2.728   3.614
 3675SOL    HW111924   0.333   2.674   3.698
 3675SOL    HW211925   0.324   2.825   3.636
 3676SOL     OW11926   5.697   2.781   2.665
 3676SOL    HW111927   5.601   2.807   2.652
 3676SOL    HW211928   5.746   2.857   2.708
 3677SOL     OW11929   2.353   1.014   5.157
 3677SOL    HW111930   2.341   0.929   5.209
 3677SOL    HW211931   2.401   0.993   5.071
 3678SOL     OW11932   1.458   1.666   4.177
 3678SOL    HW111933   1.487   1.598   4.245
 3678SOL    HW211934   1.374   1.710   4.208
 3679SOL     OW11935   6.699   0.347   3.941
 3679SOL    HW111936   6.640   0.428   3.945
 3679SOL    HW211937   6.654   0.270   3.984
 3680SOL     OW11938   4.389   2.235   4.229
 3680SOL    HW111939   4.292   2.236   4.207
 3680SOL    HW211940   4.401   2.251   4.327
 3681SOL     OW11941   0.593   1.223   6.262
 3681SOL    HW111942   0.624   1.216   6.357
 3681SOL    HW211943   0.543   1.308   6.250
 3682SOL     OW11944   5.445   2.079   0.737
 3682SOL    HW111945   5.516   2.145   0.762
 3682SOL    HW211946   5.482   1.986   0.746
 3683SOL     OW11947   0.883   1.147   4.851
 3683SOL    HW111948   0.830   1.230   4.833
 3683SOL    HW211949   0.949   1.132   4.778
 3684SOL     OW11950   1.509   5.959   6.989
 3684SOL    HW111951   1.490   5.993   6.897
 3684SOL    HW211952   1.510   5.859   6.988
 3685SOL     OW11953   2.741   6.322   5.221
 3685SOL    HW111954   2.732   6.331   5.122
 3685SOL    HW211955   2.704   6.234   5.250
 3686SOL     OW11956   6.518   4.423   4.055
 3686SOL    HW111957   6.608   4.458   4.026
 3686SOL    HW211958   6.498   4.338   4.006
 3687SOL     OW11959   5.149   6.794   3.697
 3687SOL    HW111960   5.214   6.792   3.772
 3687SOL    HW211961   5.108   6.885   3.690
 3688SOL     OW11962   6.054   3.311   7.019
 3688SOL    HW111963   5.991   3.367   0.049
 3688SOL    HW211964   6.021   3.309   6.924
 3689SOL     OW11965   2.283   1.969   5.441
 3689SOL    HW111966   2.190   1.979   5.475
 3689SOL    HW211967   2.290   2.012   5.351
 3690SOL     OW11968   4.713   5.812   1.043
 3690SOL    HW111969   4.644   5.883   1.034
 3690SOL    HW211970   4.687   5.733   0.987
 3691SOL     OW11971   2.713   2.386   5.982
 3691SOL    HW111972   2.789   2.428   5.932
 3691SOL    HW211973   2.704   2.290   5.954
 3692SOL     OW11974   6.586   4.512   6.236
 3692SOL    HW111975   6.503   4.563   6.217
 3692SOL    HW211976   6.624   4.540   6.324
 3693SOL     OW11977   1.958   1.724   2.451
 3693SOL    HW111978   1.943   1.813   2.410
 3693SOL    HW211979   1.934   1.727   2.548
 3694SOL     OW11980   1.309   0.076   1.623
 3694SOL    HW111981   1.396   0.027   1.626
 3694SOL    HW211982   1.239   0.019   1.581
 3695SOL     OW11983   6.191   2.155   1.644
 3695SOL    HW111984   6.108   2.113   1.682
 3695SOL    HW211985   6.271   2.110   1.683
 3696SOL     OW11986   4.818   0.223   5.446
 3696SOL    HW111987   4.773   0.211   5.358
 3696SOL    HW211988   4.862   0.137   5.472
 3697SOL     OW11989   6.553   6.121   3.060
 3697SOL    HW111990   6.497   6.099   2.981
 3697SOL    HW211991   6.495   6.131   3.141
 3698SOL     OW11992   2.110   1.348   3.491
 3698SOL    HW111993   2.180   1.310   3.552
 3698SOL    HW211994   2.039   1.280   3.474
 3699SOL     OW11995   2.292   2.026   3.176
 3699SOL    HW111996   2.309   1.928   3.177
 3699SOL    HW211997   2.363   2.073   3.229
 3700SOL     OW11998   1.323   5.549   4.931
 3700SOL    HW111999   1.235   5.567   4.887
 3700SOL    HW212000   1.381   5.497   4.869
 3701SOL     OW12001   0.843   6.506   2.642
 3701SOL    HW112002   0.895   6.449   2.577
 3701SOL    HW212003   0.813   6.449   2.718
 3702SOL     OW12004   5.458   6.543   3.734
 3702SOL    HW112005   5.387   6.473   3.734
 3702SOL    HW212006   5.528   6.519   3.666
 3703SOL     OW12007   0.482   0.829   6.275
 3703SOL    HW112008   0.463   0.887   6.195
 3703SOL    HW212009   0.580   0.807   6.277
 3704SOL     OW12010   5.506   3.318   1.005
 3704SOL    HW112011   5.518   3.264   1.088
 3704SOL    HW212012   5.590   3.368   0.985
 3705SOL     OW12013   4.645   5.010   3.609
 3705SOL    HW112014   4.729   5.039   3.563
 3705SOL    HW212015   4.572   5.075   3.591
 3706SOL     OW12016   1.062   3.984   6.810
 3706SOL    HW112017   0.985   3.939   6.855
 3706SOL    HW212018   1.051   4.083   6.816
 3707SOL     OW12019   4.144   5.496   3.791
 3707SOL    HW112020   4.057   5.504   3.839
 3707SOL    HW212021   4.211   5.452   3.852
 3708SOL     OW12022   4.675   0.269   1.139
 3708SOL    HW112023   4.737   0.247   1.063
 3708SOL    HW212024   4.602   0.328   1.105
 3709SOL     OW12025   1.974   6.893   1.437
 3709SOL    HW112026   2.029   6.971   1.464
 3709SOL    HW212027   2.033   6.824   1.395
 3710SOL     OW12028   0.785   5.700   5.331
 3710SOL    HW112029   0.778   5.688   5.232
 3710SOL    HW212030   0.880   5.718   5.356
 3711SOL     OW12031   1.418   6.048   4.719
 3711SOL    HW112032   1.391   6.068   4.624
 3711SOL    HW212033   1.480   5.970   4.720
 3712SOL     OW12034   1.953   5.813   6.493
 3712SOL    HW112035   2.003   5.792   6.577
 3712SOL    HW212036   1.863   5.769   6.496
 3713SOL     OW12037   0.458   0.081   5.034
 3713SOL    HW112038   0.525   0.081   4.959
 3713SOL    HW212039   0.372   0.042   5.001
 3714SOL     OW12040   0.034   5.088   6.912
 3714SOL    HW112041   0.103   5.129   6.971
 3714SOL    HW212042   6.980   5.060   6.968
 3715SOL     OW12043   0.355   5.429   2.871
 3715SOL    HW112044   0.347   5.329   2.868
 3715SOL    HW212045   0.445   5.455   2.904
 3716SOL     OW12046   5.762   5.015   4.431
 3716SOL    HW112047   5.849   5.039   4.474
 3716SOL    HW212048   5.695   4.990   4.502
 3717SOL     OW12049   6.052   1.212   0.222
 3717SOL    HW112050   6.098   1.259   0.298
 3717SOL    HW212051   5.956   1.197   0.246
 3718SOL     OW12052   0.530   0.237   0.068
 3718SOL    HW112053   0.536   0.157   0.009
 3718SOL    HW212054   0.478   0.214   0.150
 3719SOL     OW12055   4.527   3.179   6.603
 3719SOL    HW112056   4.453   3.118   6.634
 3719SOL    HW212057   4.500   3.224   6.518
 3720SOL     OW12058   5.556   3.686   0.612
 3720SOL    HW112059   5.648   3.647   0.601
 3720SOL    HW212060   5.498   3.621   0.660
 3721SOL     OW12061   6.854   4.957   0.352
 3721SOL    HW112062   6.948   4.936   0.379
 3721SOL    HW212063   6.790   4.901   0.405
 3722SOL     OW12064   5.268   6.762   1.384
 3722SOL    HW112065   5.239   6.831   1.318
 3722SOL    HW212066   5.202   6.687   1.386
 3723SOL     OW12067   4.552   5.135   0.085
 3723SOL    HW112068   4.471   5.171   0.132
 3723SOL    HW212069   4.605   5.081   0.149
 3724SOL     OW12070   1.920   5.007   5.145
 3724SOL    HW112071   1.852   4.935   5.135
 3724SOL    HW212072   1.874   5.096   5.149
 3725SOL     OW12073   0.889   6.455   6.902
 3725SOL    HW112074   0.810   6.510   6.930
 3725SOL    HW212075   0.960   6.516   6.866
 3726SOL     OW12076   5.463   3.477   5.807
 3726SOL    HW112077   5.561   3.474   5.827
 3726SOL    HW212078   5.422   3.558   5.849
 3727SOL     OW12079   6.818   2.958   4.477
 3727SOL    HW112080   6.866   3.045   4.488
 3727SOL    HW212081   6.733   2.974   4.426
 3728SOL     OW12082   2.162   3.916   6.626
 3728SOL    HW112083   2.073   3.880   6.597
 3728SOL    HW212084   2.217   3.935   6.545
 3729SOL     OW12085   0.635   0.513   4.127
 3729SOL    HW112086   0.540   0.485   4.143
 3729SOL    HW212087   0.638   0.612   4.111
 3730SOL     OW12088   4.129   6.285   5.623
 3730SOL    HW112089   4.030   6.275   5.629
 3730SOL    HW212090   4.154   6.380   5.641
 3731SOL     OW12091   0.768   1.729   0.179
 3731SOL    HW112092   0.680   1.766   0.208
 3731SOL    HW212093   0.805   1.671   0.252
 3732SOL     OW12094   1.919   1.824   0.924
 3732SOL    HW112095   1.849   1.874   0.976
 3732SOL    HW212096   1.883   1.734   0.898
 3733SOL     OW12097   2.063   2.725   3.695
 3733SOL    HW112098   2.021   2.674   3.620
 3733SOL    HW212099   2.094   2.814   3.661
 3734SOL     OW12100   3.999   0.715   1.830
 3734SOL    HW112101   4.099   0.720   1.830
 3734SOL    HW212102   3.970   0.632   1.783
 3735SOL     OW12103   3.875   0.624   2.594
 3735SOL    HW112104   3.840   0.593   2.505
 3735SOL    HW212105   3.879   0.546   2.656
 3736SOL     OW12106   7.002   1.217   1.314
 3736SOL    HW112107   6.984   1.122   1.292
 3736SOL    HW212108   0.017   1.263   1.235
 3737SOL     OW12109   6.192   2.237   4.007
 3737SOL    HW112110   6.287   2.267   3.997
 3737SOL    HW212111   6.172   2.222   4.103
 3738SOL     OW12112   6.438   5.936   1.113
 3738SOL    HW112113   6.442   5.910   1.016
 3738SOL    HW212114   6.473   5.860   1.169
 3739SOL     OW12115   3.006   4.596   1.644
 3739SOL    HW112116   3.073   4.664   1.673
 3739SOL    HW212117   2.982   4.537   1.721
 3740SOL     OW12118   6.049   5.784   0.504
 3740SOL    HW112119   6.074   5.834   0.587
 3740SOL    HW212120   6.132   5.768   0.449
 3741SOL     OW12121   4.230   3.285   6.634
 3741SOL    HW112122   4.287   3.209   6.664
 3741SOL    HW212123   4.153   3.250   6.581
 3742SOL     OW12124   4.409   0.142   0.785
 3742SOL    HW112125   4.313   0.124   0.807
 3742SOL    HW212126   4.463   0.060   0.804
 3743SOL     OW12127   4.739   4.487   1.635
 3743SOL    HW112128   4.651   4.448   1.608
 3743SOL    HW212129   4.754   4.470   1.733
 3744SOL     OW12130   0.761   6.340   2.880
 3744SOL    HW112131   0.755   6.264   2.815
 3744SOL    HW212132   0.680   6.339   2.939
 3745SOL     OW12133   4.953   3.840   2.211
 3745SOL    HW112134   4.949   3.757   2.156
 3745SOL    HW212135   4.999   3.913   2.159
 3746SOL     OW12136   6.431   0.733   3.178
 3746SOL    HW112137   6.431   0.692   3.269
 3746SOL    HW212138   6.516   0.710   3.130
 3747SOL     OW12139   5.220   6.476   5.470
 3747SOL    HW112140   5.222   6.575   5.482
 3747SOL    HW212141   5.284   6.449   5.399
 3748SOL     OW12142   5.222   0.551   2.324
 3748SOL    HW112143   5.280   0.552   2.405
 3748SOL    HW212144   5.146   0.614   2.336
 3749SOL     OW12145   1.856   4.999   3.326
 3749SOL    HW112146   1.900   5.031   3.242
 3749SOL    HW212147   1.844   4.900   3.322
 3750SOL     OW12148   5.890   4.075   0.681
 3750SOL    HW112149   5.957   4.144   0.653
 3750SOL    HW212150   5.871   4.015   0.603
 3751SOL     OW12151   0.549   2.585   0.746
 3751SOL    HW112152   0.647   2.592   0.769
 3751SOL    HW212153   0.504   2.672   0.766
 3752SOL     OW12154   0.495   0.090   0.512
 3752SOL    HW112155   0.483   0.166   0.447
 3752SOL    HW212156   0.413   0.032   0.509
 3753SOL     OW12157   0.440   6.947   4.681
 3753SOL    HW112158   0.422   7.020   4.614
 3753SOL    HW212159   0.538   6.936   4.693
 3754SOL     OW12160   5.082   6.432   1.618
 3754SOL    HW112161   5.020   6.503   1.651
 3754SOL    HW212162   5.077   6.352   1.678
 3755SOL     OW12163   5.555   5.550   4.599
 3755SOL    HW112164   5.489   5.502   4.656
 3755SOL    HW212165   5.603   5.484   4.541
 3756SOL     OW12166   1.566   0.903   6.110
 3756SOL    HW112167   1.516   0.990   6.114
 3756SOL    HW212168   1.615   0.897   6.023
 3757SOL     OW12169   3.626   5.927   6.791
 3757SOL    HW112170   3.706   5.957   6.738
 3757SOL    HW212171   3.595   6.003   6.848
 3758SOL     OW12172   1.625   1.416   4.717
 3758SOL    HW112173   1.647   1.333   4.767
 3758SOL    HW212174   1.695   1.485   4.735
 3759SOL     OW12175   4.009   4.799   5.448
 3759SOL    HW112176   4.054   4.722   5.402
 3759SOL    HW212177   4.043   4.806   5.542
 3760SOL     OW12178   0.727   4.000   4.417
 3760SOL    HW112179   0.656   3.993   4.488
 3760SOL    HW212180   0.814   4.026   4.460
 3761SOL     OW12181   0.948   6.735   5.111
 3761SOL    HW112182   0.908   6.806   5.053
 3761SOL    HW212183   0.999   6.671   5.055
 3762SOL     OW12184   0.981   5.141   0.006
 3762SOL    HW112185   0.990   5.241   0.007
 3762SOL    HW212186   0.989   5.108   6.937
 3763SOL     OW12187   6.586   5.006   0.101
 3763SOL    HW112188   6.534   5.069   0.159
 3763SOL    HW212189   6.571   5.027   0.005
 3764SOL     OW12190   2.348   0.428   4.310
 3764SOL    HW112191   2.389   0.514   4.281
 3764SOL    HW212192   2.420   0.367   4.343
 3765SOL     OW12193   5.397   1.319   2.067
 3765SOL    HW112194   5.395   1.255   1.990
 3765SOL    HW212195   5.411   1.268   2.152
 3766SOL     OW12196   0.474   0.823   5.000
 3766SOL    HW112197   0.455   0.753   5.068
 3766SOL    HW212198   0.573   0.840   4.996
 3767SOL     OW12199   2.469   5.300   0.680
 3767SOL    HW112200   2.528   5.236   0.630
 3767SOL    HW212201   2.436   5.256   0.763
 3768SOL     OW12202   2.973   5.991   5.974
 3768SOL    HW112203   3.025   5.910   6.003
 3768SOL    HW212204   3.030   6.047   5.914
 3769SOL     OW12205   5.597   5.426   5.484
 3769SOL    HW112206   5.569   5.518   5.511
 3769SOL    HW212207   5.680   5.400   5.533
 3770SOL     OW12208   1.678   0.500   6.580
 3770SOL    HW112209   1.678   0.408   6.541
 3770SOL    HW212210   1.754   0.509   6.644
 3771SOL     OW12211   5.784   1.982   0.593
 3771SOL    HW112212   5.734   1.899   0.568
 3771SOL    HW212213   5.751   2.015   0.681
 3772SOL     OW12214   6.700   1.509   0.859
 3772SOL    HW112215   6.750   1.583   0.815
 3772SOL    HW212216   6.685   1.531   0.955
 3773SOL     OW12217   5.524   2.704   6.064
 3773SOL    HW112218   5.564   2.628   6.013
 3773SOL    HW212219   5.564   2.790   6.033
 3774SOL     OW12220   1.075   7.021   6.939
 3774SOL    HW112221   1.050   6.936   6.893
 3774SOL    HW212222   1.082   7.003   0.013
 3775SOL     OW12223   5.148   4.012   2.096
 3775SOL    HW112224   5.235   4.053   2.125
 3775SOL    HW212225   5.167   3.929   2.044
 3776SOL     OW12226   3.072   1.625   0.978
 3776SOL    HW112227   3.028   1.594   0.893
 3776SOL    HW212228   3.165   1.588   0.982
 3777SOL     OW12229   2.971   4.797   4.418
 3777SOL    HW112230   2.881   4.839   4.429
 3777SOL    HW212231   2.965   4.720   4.354
 3778SOL     OW12232   2.437   5.759   3.067
 3778SOL    HW112233   2.393   5.760   2.978
 3778SOL    HW212234   2.508   5.688   3.068
 3779SOL     OW12235   2.149   4.348   0.729
 3779SOL    HW112236   2.154   4.258   0.686
 3779SOL    HW212237   2.220   4.407   0.690
 3780SOL     OW12238   4.145   4.644   5.237
 3780SOL    HW112239   4.098   4.706   5.174
 3780SOL    HW212240   4.092   4.559   5.246
 3781SOL     OW12241   1.907   6.660   4.378
 3781SOL    HW112242   1.843   6.594   4.418
 3781SOL    HW212243   1.973   6.689   4.447
 3782SOL     OW12244   2.845   2.202   4.412
 3782SOL    HW112245   2.924   2.206   4.350
 3782SOL    HW212246   2.865   2.256   4.494
 3783SOL     OW12247   5.717   6.371   5.176
 3783SOL    HW112248   5.687   6.433   5.248
 3783SOL    HW212249   5.816   6.374   5.167
 3784SOL     OW12250   4.734   1.814   3.307
 3784SOL    HW112251   4.645   1.777   3.334
 3784SOL    HW212252   4.782   1.746   3.251
 3785SOL     OW12253   2.022   1.292   6.712
 3785SOL    HW112254   2.000   1.341   6.796
 3785SOL    HW212255   2.018   1.194   6.728
 3786SOL     OW12256   3.024   6.345   3.288
 3786SOL    HW112257   2.953   6.278   3.309
 3786SOL    HW212258   3.113   6.300   3.283
 3787SOL     OW12259   6.146   6.139   3.441
 3787SOL    HW112260   6.047   6.153   3.441
 3787SOL    HW212261   6.190   6.214   3.492
 3788SOL     OW12262   0.283   3.220   3.389
 3788SOL    HW112263   0.232   3.150   3.339
 3788SOL    HW212264   0.381   3.207   3.374
 3789SOL     OW12265   1.409   3.396   3.848
 3789SOL    HW112266   1.368   3.478   3.888
 3789SOL    HW212267   1.415   3.324   3.917
 3790SOL     OW12268   1.542   3.804   5.120
 3790SOL    HW112269   1.475   3.734   5.144
 3790SOL    HW212270   1.567   3.856   5.202
 3791SOL     OW12271   6.537   0.253   0.938
 3791SOL    HW112272   6.466   0.183   0.940
 3791SOL    HW212273   6.495   0.343   0.923
 3792SOL     OW12274   6.775   0.897   4.530
 3792SOL    HW112275   6.784   0.797   4.524
 3792SOL    HW212276   6.692   0.919   4.581
 3793SOL     OW12277   2.886   0.208   2.741
 3793SOL    HW112278   2.786   0.215   2.747
 3793SOL    HW212279   2.911   0.149   2.664
 3794SOL     OW12280   3.385   4.661   1.482
 3794SOL    HW112281   3.328   4.649   1.401
 3794SOL    HW212282   3.433   4.749   1.477
 3795SOL     OW12283   4.046   6.495   0.277
 3795SOL    HW112284   4.043   6.494   0.177
 3795SOL    HW212285   4.141   6.502   0.307
 3796SOL     OW12286   2.211   2.291   1.403
 3796SOL    HW112287   2.112   2.295   1.413
 3796SOL    HW212288   2.254   2.350   1.471
 3797SOL     OW12289   6.819   4.826   2.603
 3797SOL    HW112290   6.783   4.837   2.510
 3797SOL    HW212291   6.873   4.907   2.627
 3798SOL     OW12292   3.364   5.594   3.533
 3798SOL    HW112293   3.267   5.604   3.510
 3798SOL    HW212294   3.413   5.677   3.509
 3799SOL     OW12295   0.406   2.285   4.383
 3799SOL    HW112296   0.406   2.354   4.311
 3799SOL    HW212297   0.422   2.194   4.343
 3800SOL     OW12298   5.330   2.679   4.687
 3800SOL    HW112299   5.369   2.768   4.711
 3800SOL    HW212300   5.231   2.690   4.673
 3801SOL     OW12301   6.955   6.593   4.936
 3801SOL    HW112302   6.938   6.667   5.000
 3801SOL    HW212303   6.880   6.526   4.940
 3802SOL     OW12304   0.530   1.483   4.657
 3802SOL    HW112305   0.499   1.538   4.734
 3802SOL    HW212306   0.590   1.537   4.598
 3803SOL     OW12307   3.721   1.568   1.647
 3803SOL    HW112308   3.787   1.557   1.721
 3803SOL    HW212309   3.628   1.562   1.683
 3804SOL     OW12310   5.128   2.236   4.235
 3804SOL    HW112311   5.194   2.176   4.279
 3804SOL    HW212312   5.166   2.272   4.150
 3805SOL     OW12313   2.738   3.648   1.734
 3805SOL    HW112314   2.835   3.633   1.754
 3805SOL    HW212315   2.726   3.738   1.693
 3806SOL     OW12316   2.259   3.161   7.004
 3806SOL    HW112317   2.295   3.165   6.910
 3806SOL    HW212318   2.218   3.071   7.020
 3807SOL     OW12319   2.427   1.578   4.050
 3807SOL    HW112320   2.421   1.590   3.951
 3807SOL    HW212321   2.520   1.553   4.076
 3808SOL     OW12322   3.035   1.158   1.245
 3808SOL    HW112323   3.040   1.237   1.185
 3808SOL    HW212324   3.082   1.177   1.330
 3809SOL     OW12325   6.481   2.080   0.375
 3809SOL    HW112326   6.446   2.138   0.301
 3809SOL    HW212327   6.406   2.051   0.434
 3810SOL     OW12328   4.368   2.604   5.345
 3810SOL    HW112329   4.313   2.592   5.427
 3810SOL    HW212330   4.310   2.597   5.264
 3811SOL     OW12331   1.023   4.653   4.528
 3811SOL    HW112332   1.111   4.700   4.538
 3811SOL    HW212333   1.030   4.562   4.570
 3812SOL     OW12334   5.588   1.385   5.545
 3812SOL    HW112335   5.587   1.285   5.539
 3812SOL    HW212336   5.501   1.422   5.511
 3813SOL     OW12337   4.648   4.378   0.723
 3813SOL    HW112338   4.553   4.403   0.742
 3813SOL    HW212339   4.705   4.400   0.802
 3814SOL     OW12340   6.879   6.320   1.247
 3814SOL    HW112341   6.788   6.314   1.208
 3814SOL    HW212342   6.901   6.234   1.294
 3815SOL     OW12343   4.871   2.196   0.573
 3815SOL    HW112344   4.928   2.240   0.642
 3815SOL    HW212345   4.785   2.246   0.563
 3816SOL     OW12346   6.943   6.341   0.855
 3816SOL    HW112347   6.977   6.270   0.793
 3816SOL    HW212348   6.843   6.340   0.854
 3817SOL     OW12349   4.828   2.953   4.070
 3817SOL    HW112350   4.772   2.907   4.138
 3817SOL    HW212351   4.834   2.896   3.988
 3818SOL     OW12352   4.995   6.756   1.133
 3818SOL    HW112353   5.031   6.670   1.169
 3818SOL    HW212354   4.897   6.761   1.151
 3819SOL     OW12355   5.204   4.734   0.550
 3819SOL    HW112356   5.272   4.807   0.546
 3819SOL    HW212357   5.131   4.760   0.614
 3820SOL     OW12358   6.635   6.913   3.938
 3820SOL    HW112359   6.554   6.858   3.959
 3820SOL    HW212360   6.717   6.857   3.953
 3821SOL     OW12361   1.763   3.328   1.738
 3821SOL    HW112362   1.735   3.232   1.742
 3821SOL    HW212363   1.851   3.339   1.785
 3822SOL     OW12364   1.128   5.611   2.541
 3822SOL    HW112365   1.150   5.594   2.445
 3822SOL    HW212366   1.030   5.628   2.551
 3823SOL     OW12367   4.061   2.197   5.642
 3823SOL    HW112368   4.151   2.183   5.682
 3823SOL    HW212369   4.070   2.240   5.552
 3824SOL     OW12370   5.884   1.361   5.875
 3824SOL    HW112371   5.924   1.383   5.964
 3824SOL    HW212372   5.899   1.265   5.854
 3825SOL     OW12373   0.478   0.579   0.577
 3825SOL    HW112374   0.522   0.617   0.496
 3825SOL    HW212375   0.395   0.531   0.550
 3826SOL     OW12376   0.333   3.759   6.444
 3826SOL    HW112377   0.241   3.749   6.480
 3826SOL    HW212378   0.380   3.671   6.445
 3827SOL     OW12379   3.878   3.836   0.302
 3827SOL    HW112380   3.868   3.927   0.262
 3827SOL    HW212381   3.810   3.822   0.373
 3828SOL     OW12382   4.462   2.148   1.387
 3828SOL    HW112383   4.457   2.193   1.476
 3828SOL    HW212384   4.372   2.153   1.342
 3829SOL     OW12385   2.449   4.637   4.158
 3829SOL    HW112386   2.429   4.637   4.060
 3829SOL    HW212387   2.440   4.545   4.194
 3830SOL     OW12388   0.587   0.466   4.985
 3830SOL    HW112389   0.646   0.542   4.956
 3830SOL    HW212390   0.528   0.497   5.060
 3831SOL     OW12391   4.512   2.092   2.625
 3831SOL    HW112392   4.461   2.177   2.607
 3831SOL    HW212393   4.477   2.019   2.566
 3832SOL     OW12394   6.358   0.372   2.305
 3832SOL    HW112395   6.396   0.411   2.221
 3832SOL    HW212396   6.294   0.437   2.346
 3833SOL     OW12397   0.656   5.934   6.518
 3833SOL    HW112398   0.679   5.870   6.445
 3833SOL    HW212399   0.639   5.883   6.603
 3834SOL     OW12400   3.519   2.676   0.254
 3834SOL    HW112401   3.484   2.743   0.319
 3834SOL    HW212402   3.475   2.690   0.165
 3835SOL     OW12403   3.101   5.132   5.372
 3835SOL    HW112404   3.050   5.105   5.290
 3835SOL    HW212405   3.092   5.060   5.441
 3836SOL     OW12406   2.095   3.121   4.999
 3836SOL    HW112407   2.182   3.078   4.974
 3836SOL    HW212408   2.030   3.049   5.025
 3837SOL     OW12409   4.595   3.354   6.805
 3837SOL    HW112410   4.671   3.418   6.800
 3837SOL    HW212411   4.589   3.302   6.720
 3838SOL     OW12412   5.891   3.962   4.197
 3838SOL    HW112413   5.836   4.046   4.201
 3838SOL    HW212414   5.948   3.964   4.114
 3839SOL     OW12415   4.656   6.570   4.439
 3839SOL    HW112416   4.751   6.539   4.428
 3839SOL    HW212417   4.618   6.593   4.350
 3840SOL     OW12418   1.341   1.107   5.155
 3840SOL    HW112419   1.410   1.062   5.213
 3840SOL    HW212420   1.378   1.193   5.121
 3841SOL     OW12421   0.636   3.817   5.036
 3841SOL    HW112422   0.703   3.784   4.970
 3841SOL    HW212423   0.649   3.769   5.123
 3842SOL     OW12424   1.402   5.072   0.476
 3842SOL    HW112425   1.477   5.034   0.531
 3842SOL    HW212426   1.428   5.070   0.379
 3843SOL     OW12427   6.782   3.468   1.424
 3843SOL    HW112428   6.814   3.526   1.349
 3843SOL    HW212429   6.726   3.394   1.387
 3844SOL     OW12430   0.121   4.861   5.346
 3844SOL    HW112431   0.165   4.783   5.390
 3844SOL    HW212432   0.185   4.938   5.345
 3845SOL     OW12433   3.440   2.881   2.629
 3845SOL    HW112434   3.356   2.927   2.657
 3845SOL    HW212435   3.437   2.864   2.530
 3846SOL     OW12436   0.298   4.581   4.178
 3846SOL    HW112437   0.286   4.487   4.209
 3846SOL    HW212438   0.372   4.585   4.111
 3847SOL     OW12439   6.430   0.997   6.190
 3847SOL    HW112440   6.426   1.077   6.130
 3847SOL    HW212441   6.370   1.011   6.268
 3848SOL     OW12442   2.195   5.534   2.728
 3848SOL    HW112443   2.260   5.486   2.669
 3848SOL    HW212444   2.102   5.506   2.705
 3849SOL     OW12445   0.508   1.191   5.499
 3849SOL    HW112446   0.523   1.289   5.490
 3849SOL    HW212447   0.412   1.171   5.481
 3850SOL     OW12448   2.529   3.495   1.685
 3850SOL    HW112449   2.578   3.575   1.718
 3850SOL    HW212450   2.453   3.474   1.747
 3851SOL     OW12451   1.752   4.383   2.922
 3851SOL    HW112452   1.746   4.289   2.956
 3851SOL    HW212453   1.825   4.390   2.855
 3852SOL     OW12454   4.587   6.459   4.688
 3852SOL    HW112455   4.576   6.366   4.653
 3852SOL    HW212456   4.626   6.517   4.617
 3853SOL     OW12457   1.556   3.440   2.457
 3853SOL    HW112458   1.602   3.477   2.376
 3853SOL    HW212459   1.613   3.367   2.497
 3854SOL     OW12460   0.751   3.552   3.203
 3854SOL    HW112461   0.755   3.652   3.200
 3854SOL    HW212462   0.764   3.516   3.111
 3855SOL     OW12463   5.461   5.519   6.699
 3855SOL    HW112464   5.438   5.533   6.795
 3855SOL    HW212465   5.403   5.448   6.660
 3856SOL     OW12466   0.098   0.075   5.498
 3856SOL    HW112467   0.028   0.029   5.443
 3856SOL    HW212468   0.188   0.058   5.459
 3857SOL     OW12469   1.578   0.153   5.338
 3857SOL    HW112470   1.666   0.115   5.367
 3857SOL    HW212471   1.528   0.085   5.285
 3858SOL     OW12472   1.041   6.029   5.957
 3858SOL    HW112473   1.034   6.079   6.044
 3858SOL    HW212474   1.055   5.932   5.976
 3859SOL     OW12475   6.776   1.811   3.179
 3859SOL    HW112476   6.793   1.828   3.276
 3859SOL    HW212477   6.758   1.713   3.166
 3860SOL     OW12478   2.311   6.265   4.225
 3860SOL    HW112479   2.404   6.236   4.246
 3860SOL    HW212480   2.296   6.357   4.263
 3861SOL     OW12481   5.736   4.439   1.167
 3861SOL    HW112482   5.636   4.436   1.168
 3861SOL    HW212483   5.772   4.350   1.139
 3862SOL     OW12484   6.736   0.085   5.985
 3862SOL    HW112485   6.809   0.130   6.037
 3862SOL    HW212486   6.738   0.115   5.890
 3863SOL     OW12487   3.734   3.717   6.912
 3863SOL    HW112488   3.671   3.693   6.986
 3863SOL    HW212489   3.812   3.768   6.949
 3864SOL     OW12490   4.467   1.908   5.966
 3864SOL    HW112491   4.511   1.986   6.009
 3864SOL    HW212492   4.536   1.850   5.922
 3865SOL     OW12493   3.648   0.420   1.776
 3865SOL    HW112494   3.583   0.494   1.794
 3865SOL    HW212495   3.663   0.368   1.860
 3866SOL     OW12496   4.011   0.616   0.496
 3866SOL    HW112497   4.004   0.602   0.398
 3866SOL    HW212498   4.080   0.554   0.534
 3867SOL     OW12499   2.098   3.936   3.269
 3867SOL    HW112500   2.117   4.014   3.208
 3867SOL    HW212501   2.091   3.969   3.363
 3868SOL     OW12502   2.378   5.540   1.584
 3868SOL    HW112503   2.391   5.619   1.523
 3868SOL    HW212504   2.283   5.535   1.613
 3869SOL     OW12505   7.022   2.352   3.829
 3869SOL    HW112506   6.986   2.306   3.909
 3869SOL    HW212507   6.966   2.432   3.808
 3870SOL     OW12508   3.095   4.968   6.976
 3870SOL    HW112509   3.195   4.967   6.974
 3870SOL    HW212510   3.062   5.057   6.944
 3871SOL     OW12511   3.233   0.472   2.385
 3871SOL    HW112512   3.289   0.433   2.458
 3871SOL    HW212513   3.258   0.429   2.298
 3872SOL     OW12514   3.851   3.277   1.225
 3872SOL    HW112515   3.950   3.288   1.225
 3872SOL    HW212516   3.827   3.190   1.267
 3873SOL     OW12517   5.595   5.188   1.316
 3873SOL    HW112518   5.627   5.269   1.365
 3873SOL    HW212519   5.669   5.151   1.259
 3874SOL     OW12520   4.208   6.934   0.316
 3874SOL    HW112521   4.128   6.919   0.257
 3874SOL    HW212522   4.267   6.853   0.313
 3875SOL     OW12523   1.073   4.020   2.564
 3875SOL    HW112524   1.065   3.934   2.615
 3875SOL    HW212525   0.984   4.046   2.527
 3876SOL     OW12526   5.098   5.538   6.229
 3876SOL    HW112527   5.061   5.560   6.320
 3876SOL    HW212528   5.066   5.605   6.163
 3877SOL     OW12529   6.486   1.336   1.111
 3877SOL    HW112530   6.448   1.369   1.198
 3877SOL    HW212531   6.412   1.326   1.045
 3878SOL     OW12532   3.379   6.581   5.890
 3878SOL    HW112533   3.283   6.557   5.877
 3878SOL    HW212534   3.388   6.646   5.965
 3879SOL     OW12535   4.615   5.886   0.550
 3879SOL    HW112536   4.689   5.878   0.617
 3879SOL    HW212537   4.551   5.809   0.561
 3880SOL     OW12538   6.077   4.246   2.355
 3880SOL    HW112539   6.095   4.161   2.403
 3880SOL    HW212540   6.162   4.295   2.338
 3881SOL     OW12541   1.698   5.466   0.330
 3881SOL    HW112542   1.640   5.410   0.272
 3881SOL    HW212543   1.697   5.430   0.424
 3882SOL     OW12544   6.328   0.996   6.465
 3882SOL    HW112545   6.290   1.084   6.495
 3882SOL    HW212546   6.267   0.922   6.494
 3883SOL     OW12547   4.338   0.959   3.763
 3883SOL    HW112548   4.385   0.882   3.719
 3883SOL    HW212549   4.346   1.040   3.705
 3884SOL     OW12550   1.452   6.588   4.824
 3884SOL    HW112551   1.453   6.489   4.838
 3884SOL    HW212552   1.464   6.608   4.726
 3885SOL     OW12553   6.467   1.134   4.312
 3885SOL    HW112554   6.523   1.065   4.266
 3885SOL    HW212555   6.449   1.210   4.249
 3886SOL     OW12556   6.634   0.432   5.329
 3886SOL    HW112557   6.570   0.358   5.349
 3886SOL    HW212558   6.586   0.519   5.328
 3887SOL     OW12559   4.283   1.572   5.490
 3887SOL    HW112560   4.243   1.607   5.405
 3887SOL    HW212561   4.287   1.645   5.557
 3888SOL     OW12562   6.884   1.593   0.595
 3888SOL    HW112563   6.823   1.578   0.517
 3888SOL    HW212564   6.973   1.553   0.577
 3889SOL     OW12565   0.548   5.490   6.696
 3889SOL    HW112566   0.582   5.417   6.755
 3889SOL    HW212567   0.520   5.568   6.752
 3890SOL     OW12568   5.512   5.803   3.573
 3890SOL    HW112569   5.510   5.880   3.637
 3890SOL    HW212570   5.440   5.815   3.504
 3891SOL     OW12571   5.152   5.527   4.857
 3891SOL    HW112572   5.203   5.533   4.943
 3891SOL    HW212573   5.077   5.461   4.867
 3892SOL     OW12574   6.965   6.670   2.805
 3892SOL    HW112575   0.035   6.685   2.776
 3892SOL    HW212576   6.961   6.590   2.865
 3893SOL     OW12577   3.727   5.700   3.923
 3893SOL    HW112578   3.731   5.788   3.971
 3893SOL    HW212579   3.653   5.644   3.962
 3894SOL     OW12580   4.225   2.701   0.650
 3894SOL    HW112581   4.284   2.622   0.662
 3894SOL    HW212582   4.152   2.679   0.585
 3895SOL     OW12583   1.411   1.408   5.306
 3895SOL    HW112584   1.408   1.346   5.227
 3895SOL    HW212585   1.487   1.471   5.295
 3896SOL     OW12586   6.979   2.087   5.946
 3896SOL    HW112587   6.939   2.173   5.976
 3896SOL    HW212588   6.915   2.039   5.886
 3897SOL     OW12589   2.580   6.208   2.070
 3897SOL    HW112590   2.655   6.232   2.009
 3897SOL    HW212591   2.544   6.291   2.113
 3898SOL     OW12592   4.160   3.434   4.277
 3898SOL    HW112593   4.127   3.528   4.278
 3898SOL    HW212594   4.089   3.373   4.311
 3899SOL     OW12595   4.608   1.403   5.499
 3899SOL    HW112596   4.529   1.360   5.541
 3899SOL    HW212597   4.581   1.490   5.459
 3900SOL     OW12598   6.440   2.486   3.351
 3900SOL    HW112599   6.376   2.410   3.354
 3900SOL    HW212600   6.424   2.547   3.429
 3901SOL     OW12601   1.167   6.603   4.854
 3901SOL    HW112602   1.266   6.616   4.860
 3901SOL    HW212603   1.125   6.687   4.819
 3902SOL     OW12604   5.497   4.886   1.568
 3902SOL    HW112605   5.477   4.813   1.502
 3902SOL    HW212606   5.463   4.973   1.532
 3903SOL     OW12607   4.199   2.326   0.250
 3903SOL    HW112608   4.205   2.321   0.151
 3903SOL    HW212609   4.107   2.355   0.278
 3904SOL     OW12610   1.190   0.343   0.413
 3904SOL    HW112611   1.209   0.340   0.511
 3904SOL    HW212612   1.215   0.255   0.372
 3905SOL     OW12613   6.834   6.616   6.108
 3905SOL    HW112614   6.788   6.687   6.055
 3905SOL    HW212615   6.927   6.604   6.073
 3906SOL     OW12616   1.925   4.793   4.484
 3906SOL    HW112617   1.962   4.701   4.474
 3906SOL    HW212618   1.880   4.801   4.573
 3907SOL     OW12619   6.860   1.181   4.234
 3907SOL    HW112620   6.902   1.169   4.324
 3907SOL    HW212621   6.782   1.119   4.226
 3908SOL     OW12622   1.542   0.776   5.251
 3908SOL    HW112623   1.589   0.694   5.217
 3908SOL    HW212624   1.513   0.760   5.345
 3909SOL     OW12625   5.088   2.640   5.767
 3909SOL    HW112626   5.096   2.722   5.823
 3909SOL    HW212627   5.143   2.567   5.808
 3910SOL     OW12628   3.331   2.576   1.312
 3910SOL    HW112629   3.277   2.498   1.344
 3910SOL    HW212630   3.407   2.543   1.256
 3911SOL     OW12631   5.821   0.795   1.920
 3911SOL    HW112632   5.825   0.867   1.851
 3911SOL    HW212633   5.783   0.711   1.880
 3912SOL     OW12634   3.894   2.311   6.684
 3912SOL    HW112635   3.845   2.363   6.613
 3912SOL    HW212636   3.840   2.312   6.768
 3913SOL     OW12637   4.278   6.179   0.340
 3913SOL    HW112638   4.235   6.268   0.326
 3913SOL    HW212639   4.352   6.188   0.407
 3914SOL     OW12640   5.992   0.955   1.145
 3914SOL    HW112641   5.988   0.955   1.045
 3914SOL    HW212642   5.900   0.964   1.182
 3915SOL     OW12643   4.719   5.341   0.658
 3915SOL    HW112644   4.734   5.249   0.695
 3915SOL    HW212645   4.807   5.389   0.652
 3916SOL     OW12646   1.909   0.819   2.799
 3916SOL    HW112647   1.980   0.802   2.730
 3916SOL    HW212648   1.953   0.833   2.888
 3917SOL     OW12649   2.606   4.962   0.808
 3917SOL    HW112650   2.702   4.987   0.796
 3917SOL    HW212651   2.587   4.877   0.760
 3918SOL     OW12652   5.731   0.332   1.137
 3918SOL    HW112653   5.806   0.371   1.189
 3918SOL    HW212654   5.719   0.383   1.052
 3919SOL     OW12655   4.180   0.624   1.058
 3919SOL    HW112656   4.177   0.719   1.088
 3919SOL    HW212657   4.233   0.619   0.973
 3920SOL     OW12658   3.099   1.004   6.344
 3920SOL    HW112659   3.000   0.991   6.335
 3920SOL    HW212660   3.119   1.102   6.348
 3921SOL     OW12661   0.750   2.927   6.237
 3921SOL    HW112662   0.671   2.916   6.177
 3921SOL    HW212663   0.748   3.017   6.280
 3922SOL     OW12664   4.519   4.981   1.798
 3922SOL    HW112665   4.464   5.053   1.841
 3922SOL    HW212666   4.517   4.991   1.699
 3923SOL     OW12667   5.462   0.773   1.719
 3923SOL    HW112668   5.449   0.870   1.741
 3923SOL    HW212669   5.498   0.726   1.800
 3924SOL     OW12670   0.079   4.783   4.783
 3924SOL    HW112671   0.061   4.878   4.760
 3924SOL    HW212672   0.011   4.724   4.740
 3925SOL     OW12673   4.936   3.746   0.457
 3925SOL    HW112674   4.919   3.726   0.360
 3925SOL    HW212675   4.979   3.836   0.465
 3926SOL     OW12676   0.764   0.667   5.582
 3926SOL    HW112677   0.797   0.594   5.642
 3926SOL    HW212678   0.814   0.751   5.601
 3927SOL     OW12679   6.937   2.893   4.739
 3927SOL    HW112680   6.918   2.808   4.787
 3927SOL    HW212681   6.884   2.896   4.654
 3928SOL     OW12682   2.136   6.588   3.078
 3928SOL    HW112683   2.103   6.526   3.149
 3928SOL    HW212684   2.081   6.576   2.995
 3929SOL     OW12685   6.885   2.053   5.159
 3929SOL    HW112686   6.908   2.031   5.065
 3929SOL    HW212687   6.907   2.148   5.179
 3930SOL     OW12688   0.901   3.739   4.110
 3930SOL    HW112689   0.927   3.682   4.188
 3930SOL    HW212690   0.979   3.747   4.047
 3931SOL     OW12691   1.629   2.601   1.399
 3931SOL    HW112692   1.580   2.529   1.350
 3931SOL    HW212693   1.615   2.591   1.497
 3932SOL     OW12694   1.603   5.802   4.005
 3932SOL    HW112695   1.504   5.794   3.998
 3932SOL    HW212696   1.646   5.717   3.975
 3933SOL     OW12697   2.289   4.865   0.154
 3933SOL    HW112698   2.332   4.922   0.084
 3933SOL    HW212699   2.282   4.917   0.240
 3934SOL     OW12700   0.744   1.298   2.390
 3934SOL    HW112701   0.711   1.369   2.453
 3934SOL    HW212702   0.718   1.208   2.424
 3935SOL     OW12703   6.300   3.345   6.618
 3935SOL    HW112704   6.384   3.391   6.589
 3935SOL    HW212705   6.320   3.249   6.635
 3936SOL     OW12706   0.143   5.508   5.165
 3936SOL    HW112707   0.114   5.528   5.071
 3936SOL    HW212708   0.216   5.441   5.164
 3937SOL     OW12709   0.006   6.316   2.376
 3937SOL    HW112710   0.005   6.278   2.469
 3937SOL    HW212711   6.984   6.254   2.314
 3938SOL     OW12712   6.658   3.842   3.071
 3938SOL    HW112713   6.673   3.938   3.094
 3938SOL    HW212714   6.732   3.786   3.108
 3939SOL     OW12715   0.661   1.016   2.450
 3939SOL    HW112716   0.575   1.037   2.496
 3939SOL    HW212717   0.642   0.986   2.356
 3940SOL     OW12718   3.212   4.753   1.722
 3940SOL    HW112719   3.235   4.792   1.811
 3940SOL    HW212720   3.292   4.707   1.684
 3941SOL     OW12721   5.594   6.283   4.332
 3941SOL    HW112722   5.686   6.320   4.345
 3941SOL    HW212723   5.543   6.289   4.418
 3942SOL     OW12724   0.815   6.145   6.606
 3942SOL    HW112725   0.897   6.164   6.551
 3942SOL    HW212726   0.774   6.060   6.575
 3943SOL     OW12727   0.918   3.184   1.257
 3943SOL    HW112728   0.898   3.129   1.338
 3943SOL    HW212729   0.837   3.238   1.232
 3944SOL     OW12730   6.565   2.257   6.606
 3944SOL    HW112731   6.504   2.333   6.585
 3944SOL    HW212732   6.630   2.244   6.531
 3945SOL     OW12733   0.629   0.866   3.296
 3945SOL    HW112734   0.630   0.954   3.248
 3945SOL    HW212735   0.683   0.799   3.244
 3946SOL     OW12736   0.671   2.824   0.449
 3946SOL    HW112737   0.735   2.819   0.525
 3946SOL    HW212738   0.618   2.740   0.444
 3947SOL     OW12739   5.998   5.442   0.773
 3947SOL    HW112740   5.904   5.469   0.753
 3947SOL    HW212741   6.018   5.460   0.869
 3948SOL     OW12742   1.856   2.199   5.923
 3948SOL    HW112743   1.952   2.228   5.921
 3948SOL    HW212744   1.815   2.211   5.833
 3949SOL     OW12745   6.195   6.525   2.406
 3949SOL    HW112746   6.273   6.462   2.407
 3949SOL    HW212747   6.120   6.486   2.459
 3950SOL     OW12748   3.537   4.119   1.394
 3950SOL    HW112749   3.574   4.029   1.418
 3950SOL    HW212750   3.442   4.108   1.364
 3951SOL     OW12751   0.058   1.272   5.303
 3951SOL    HW112752   0.103   1.333   5.239
 3951SOL    HW212753   0.001   1.207   5.253
 3952SOL     OW12754   6.609   3.262   5.268
 3952SOL    HW112755   6.647   3.179   5.308
 3952SOL    HW212756   6.531   3.238   5.210
 3953SOL     OW12757   3.579   4.571   6.244
 3953SOL    HW112758   3.653   4.551   6.307
 3953SOL    HW212759   3.519   4.640   6.283
 3954SOL     OW12760   0.976   3.823   5.105
 3954SOL    HW112761   1.018   3.815   5.195
 3954SOL    HW212762   0.933   3.913   5.096
 3955SOL     OW12763   5.278   5.316   6.626
 3955SOL    HW112764   5.199   5.270   6.666
 3955SOL    HW212765   5.312   5.264   6.548
 3956SOL     OW12766   0.085   2.803   5.929
 3956SOL    HW112767   0.027   2.760   5.860
 3956SOL    HW212768   0.085   2.747   6.012
 3957SOL     OW12769   2.128   6.975   4.159
 3957SOL    HW112770   2.037   6.997   4.193
 3957SOL    HW212771   2.127   6.887   4.112
 3958SOL     OW12772   5.925   5.934   5.714
 3958SOL    HW112773   5.831   5.964   5.699
 3958SOL    HW212774   5.977   5.946   5.630
 3959SOL     OW12775   3.345   4.825   0.043
 3959SOL    HW112776   3.382   4.918   0.036
 3959SOL    HW212777   3.421   4.761   0.056
 3960SOL     OW12778   4.125   3.120   0.164
 3960SOL    HW112779   4.046   3.166   0.122
 3960SOL    HW212780   4.104   3.101   0.260
 3961SOL     OW12781   4.776   0.946   1.767
 3961SOL    HW112782   4.744   0.923   1.675
 3961SOL    HW212783   4.719   0.899   1.834
 3962SOL     OW12784   0.743   0.310   6.722
 3962SOL    HW112785   0.658   0.328   6.770
 3962SOL    HW212786   0.723   0.272   6.631
 3963SOL     OW12787   4.764   5.611   4.359
 3963SOL    HW112788   4.692   5.558   4.315
 3963SOL    HW212789   4.849   5.602   4.307
 3964SOL     OW12790   5.081   5.551   5.867
 3964SOL    HW112791   5.121   5.465   5.836
 3964SOL    HW212792   5.050   5.604   5.788
 3965SOL     OW12793   3.247   3.880   0.290
 3965SOL    HW112794   3.188   3.951   0.328
 3965SOL    HW212795   3.271   3.814   0.361
 3966SOL     OW12796   6.318   4.437   5.150
 3966SOL    HW112797   6.268   4.522   5.133
 3966SOL    HW212798   6.262   4.376   5.206
 3967SOL     OW12799   0.634   5.929   6.052
 3967SOL    HW112800   0.647   5.898   5.958
 3967SOL    HW212801   0.687   6.013   6.067
 3968SOL     OW12802   5.123   0.856   2.580
 3968SOL    HW112803   5.105   0.930   2.644
 3968SOL    HW212804   5.222   0.839   2.575
 3969SOL     OW12805   0.352   5.118   2.863
 3969SOL    HW112806   0.311   5.068   2.787
 3969SOL    HW212807   0.435   5.071   2.894
 3970SOL     OW12808   4.671   4.745   3.198
 3970SOL    HW112809   4.666   4.789   3.287
 3970SOL    HW212810   4.579   4.736   3.159
 3971SOL     OW12811   1.974   6.112   3.647
 3971SOL    HW112812   1.935   6.197   3.613
 3971SOL    HW212813   1.981   6.116   3.747
 3972SOL     OW12814   0.580   6.877   0.765
 3972SOL    HW112815   0.640   6.828   0.829
 3972SOL    HW212816   0.633   6.904   0.684
 3973SOL     OW12817   3.057   3.960   4.569
 3973SOL    HW112818   3.060   3.986   4.665
 3973SOL    HW212819   3.135   4.000   4.521
 3974SOL     OW12820   6.633   0.902   6.378
 3974SOL    HW112821   6.677   0.973   6.324
 3974SOL    HW212822   6.535   0.921   6.384
 3975SOL     OW12823   6.533   1.464   6.373
 3975SOL    HW112824   6.498   1.440   6.464
 3975SOL    HW212825   6.615   1.520   6.383
 3976SOL     OW12826   1.264   3.621   0.448
 3976SOL    HW112827   1.344   3.680   0.451
 3976SOL    HW212828   1.292   3.529   0.422
 3977SOL     OW12829   2.634   6.500   6.337
 3977SOL    HW112830   2.730   6.501   6.307
 3977SOL    HW212831   2.609   6.408   6.366
 3978SOL     OW12832   6.024   2.086   5.648
 3978SOL    HW112833   6.076   2.004   5.622
 3978SOL    HW212834   6.058   2.121   5.735
 3979SOL     OW12835   1.027   6.669   2.116
 3979SOL    HW112836   1.040   6.767   2.131
 3979SOL    HW212837   0.987   6.627   2.197
 3980SOL     OW12838   4.957   3.044   4.597
 3980SOL    HW112839   5.001   2.962   4.562
 3980SOL    HW212840   4.911   3.022   4.684
 3981SOL     OW12841   6.650   1.920   0.666
 3981SOL    HW112842   6.740   1.899   0.705
 3981SOL    HW212843   6.662   1.973   0.582
 3982SOL     OW12844   2.580   1.968   3.997
 3982SOL    HW112845   2.550   1.915   3.918
 3982SOL    HW212846   2.657   1.921   4.041
 3983SOL     OW12847   2.827   6.552   4.152
 3983SOL    HW112848   2.809   6.646   4.182
 3983SOL    HW212849   2.799   6.489   4.224
 3984SOL     OW12850   1.902   6.071   1.976
 3984SOL    HW112851   1.896   6.128   2.058
 3984SOL    HW212852   1.958   6.118   1.908
 3985SOL     OW12853   2.556   3.286   0.657
 3985SOL    HW112854   2.644   3.238   0.655
 3985SOL    HW212855   2.532   3.307   0.751
 3986SOL     OW12856   0.171   1.757   1.791
 3986SOL    HW112857   0.091   1.724   1.841
 3986SOL    HW212858   0.194   1.849   1.821
 3987SOL     OW12859   2.127   4.776   6.494
 3987SOL    HW112860   2.138   4.794   6.592
 3987SOL    HW212861   2.080   4.688   6.482
 3988SOL     OW12862   4.336   2.890   0.854
 3988SOL    HW112863   4.394   2.969   0.874
 3988SOL    HW212864   4.313   2.890   0.757
 3989SOL     OW12865   6.299   6.717   0.123
 3989SOL    HW112866   6.243   6.789   0.081
 3989SOL    HW212867   6.239   6.652   0.170
 3990SOL     OW12868   0.691   3.225   4.017
 3990SOL    HW112869   0.767   3.183   3.967
 3990SOL    HW212870   0.632   3.273   3.952
 3991SOL     OW12871   0.552   2.328   3.697
 3991SOL    HW112872   0.453   2.314   3.691
 3991SOL    HW212873   0.599   2.244   3.669
 3992SOL     OW12874   4.422   3.604   6.190
 3992SOL    HW112875   4.369   3.520   6.181
 3992SOL    HW212876   4.366   3.674   6.234
 3993SOL     OW12877   3.096   2.195   2.796
 3993SOL    HW112878   3.004   2.222   2.769
 3993SOL    HW212879   3.157   2.203   2.717
 3994SOL     OW12880   2.498   2.440   3.589
 3994SOL    HW112881   2.482   2.502   3.666
 3994SOL    HW212882   2.557   2.365   3.618
 3995SOL     OW12883   2.212   4.454   3.429
 3995SOL    HW112884   2.155   4.376   3.454
 3995SOL    HW212885   2.294   4.422   3.383
 3996SOL     OW12886   0.631   1.092   3.672
 3996SOL    HW112887   0.533   1.077   3.654
 3996SOL    HW212888   0.656   1.184   3.642
 3997SOL     OW12889   5.163   3.909   3.019
 3997SOL    HW112890   5.259   3.896   2.995
 3997SOL    HW212891   5.113   3.824   3.006
 3998SOL     OW12892   6.591   2.144   2.856
 3998SOL    HW112893   6.566   2.073   2.922
 3998SOL    HW212894   6.573   2.111   2.764
 3999SOL     OW12895   6.026   3.743   2.417
 3999SOL    HW112896   5.974   3.676   2.364
 3999SOL    HW212897   6.112   3.702   2.447
 4000SOL     OW12898   2.669   5.540   2.854
 4000SOL    HW112899   2.608   5.608   2.814
 4000SOL    HW212900   2.764   5.566   2.836
 4001SOL     OW12901   2.638   3.850   5.674
 4001SOL    HW112902   2.613   3.768   5.624
 4001SOL    HW212903   2.586   3.929   5.639
 4002SOL     OW12904   3.536   3.355   4.794
 4002SOL    HW112905   3.500   3.292   4.725
 4002SOL    HW212906   3.551   3.444   4.753
 4003SOL     OW12907   3.034   1.392   6.143
 4003SOL    HW112908   3.107   1.459   6.130
 4003SOL    HW212909   3.068   1.317   6.200
 4004SOL     OW12910   6.898   3.845   2.859
 4004SOL    HW112911   6.924   3.803   2.947
 4004SOL    HW212912   6.907   3.944   2.866
 4005SOL     OW12913   4.565   3.763   1.151
 4005SOL    HW112914   4.556   3.793   1.056
 4005SOL    HW212915   4.587   3.666   1.153
 4006SOL     OW12916   5.017   5.540   2.193
 4006SOL    HW112917   4.980   5.553   2.285
 4006SOL    HW212918   5.108   5.501   2.199
 4007SOL     OW12919   0.810   2.138   2.892
 4007SOL    HW112920   0.721   2.097   2.911
 4007SOL    HW212921   0.882   2.081   2.931
 4008SOL     OW12922   2.966   0.003   0.374
 4008SOL    HW112923   2.939   0.071   0.306
 4008SOL    HW212924   3.059   6.996   0.355
 4009SOL     OW12925   5.007   1.450   1.459
 4009SOL    HW112926   5.012   1.350   1.454
 4009SOL    HW212927   5.089   1.490   1.418
 4010SOL     OW12928   3.875   4.419   1.627
 4010SOL    HW112929   3.876   4.518   1.618
 4010SOL    HW212930   3.781   4.386   1.630
 4011SOL     OW12931   0.049   6.156   0.729
 4011SOL    HW112932   0.002   6.070   0.746
 4011SOL    HW212933   0.147   6.138   0.716
 4012SOL     OW12934   4.539   0.048   1.943
 4012SOL    HW112935   4.608   0.006   1.885
 4012SOL    HW212936   4.454   7.021   1.937
 4013SOL     OW12937   1.997   0.425   0.780
 4013SOL    HW112938   1.995   0.503   0.843
 4013SOL    HW212939   1.932   0.441   0.706
 4014SOL     OW12940   3.215   6.219   3.743
 4014SOL    HW112941   3.166   6.142   3.704
 4014SOL    HW212942   3.180   6.305   3.705
 4015SOL     OW12943   4.524   5.001   6.116
 4015SOL    HW112944   4.480   4.917   6.148
 4015SOL    HW212945   4.612   4.978   6.075
 4016SOL     OW12946   3.401   5.125   0.050
 4016SOL    HW112947   3.465   5.183   0.100
 4016SOL    HW212948   3.352   5.180   7.007
 4017SOL     OW12949   0.566   4.866   5.479
 4017SOL    HW112950   0.507   4.904   5.408
 4017SOL    HW212951   0.604   4.940   5.534
 4018SOL     OW12952   4.007   6.611   2.150
 4018SOL    HW112953   3.915   6.588   2.118
 4018SOL    HW212954   4.058   6.657   2.077
 4019SOL     OW12955   5.196   3.221   2.288
 4019SOL    HW112956   5.147   3.264   2.211
 4019SOL    HW212957   5.161   3.128   2.300
 4020SOL     OW12958   7.008   3.802   4.556
 4020SOL    HW112959   6.916   3.810   4.596
 4020SOL    HW212960   7.003   3.819   4.458
 4021SOL     OW12961   3.451   3.445   5.736
 4021SOL    HW112962   3.433   3.427   5.639
 4021SOL    HW212963   3.390   3.389   5.792
 4022SOL     OW12964   3.882   6.751   0.614
 4022SOL    HW112965   3.806   6.732   0.677
 4022SOL    HW212966   3.872   6.693   0.533
 4023SOL     OW12967   0.030   1.241   5.605
 4023SOL    HW112968   0.121   1.209   5.630
 4023SOL    HW212969   0.017   1.229   5.506
 4024SOL     OW12970   1.901   5.316   4.279
 4024SOL    HW112971   1.842   5.330   4.200
 4024SOL    HW212972   1.862   5.244   4.337
 4025SOL     OW12973   0.914   5.964   4.347
 4025SOL    HW112974   0.995   5.938   4.399
 4025SOL    HW212975   0.885   5.887   4.290
 4026SOL     OW12976   6.135   6.195   4.568
 4026SOL    HW112977   6.204   6.128   4.542
 4026SOL    HW212978   6.162   6.286   4.535
 4027SOL     OW12979   2.630   2.039   6.785
 4027SOL    HW112980   2.605   1.979   6.710
 4027SOL    HW212981   2.648   2.131   6.750
 4028SOL     OW12982   4.367   1.180   3.587
 4028SOL    HW112983   4.395   1.227   3.671
 4028SOL    HW212984   4.311   1.241   3.531
 4029SOL     OW12985   3.030   4.186   6.132
 4029SOL    HW112986   3.066   4.262   6.078
 4029SOL    HW212987   3.057   4.100   6.090
 4030SOL     OW12988   6.921   1.126   1.741
 4030SOL    HW112989   6.972   1.203   1.779
 4030SOL    HW212990   6.896   1.147   1.646
 4031SOL     OW12991   5.371   0.082   2.898
 4031SOL    HW112992   5.374   0.182   2.890
 4031SOL    HW212993   5.463   0.048   2.914
 4032SOL     OW12994   6.848   0.069   2.562
 4032SOL    HW112995   6.834   7.013   2.506
 4032SOL    HW212996   6.797   0.146   2.523
 4033SOL     OW12997   2.630   1.855   2.708
 4033SOL    HW112998   2.569   1.910   2.765
 4033SOL    HW212999   2.595   1.762   2.701
 4034SOL     OW13000   6.043   2.166   5.274
 4034SOL    HW113001   6.003   2.227   5.342
 4034SOL    HW213002   6.056   2.216   5.188
 4035SOL     OW13003   6.850   1.522   1.419
 4035SOL    HW113004   6.913   1.453   1.382
 4035SOL    HW213005   6.903   1.600   1.453
 4036SOL     OW13006   4.296   4.610   2.359
 4036SOL    HW113007   4.302   4.510   2.361
 4036SOL    HW213008   4.378   4.647   2.315
 4037SOL     OW13009   2.353   1.360   6.168
 4037SOL    HW113010   2.266   1.400   6.199
 4037SOL    HW213011   2.357   1.362   6.069
 4038SOL     OW13012   4.683   2.975   0.306
 4038SOL    HW113013   4.603   2.924   0.276
 4038SOL    HW213014   4.759   2.912   0.323
 4039SOL     OW13015   4.559   5.707   1.577
 4039SOL    HW113016   4.489   5.637   1.571
 4039SOL    HW213017   4.553   5.754   1.665
 4040SOL     OW13018   2.767   6.018   4.726
 4040SOL    HW113019   2.672   5.988   4.723
 4040SOL    HW213020   2.786   6.079   4.648
 4041SOL     OW13021   2.208   6.319   1.027
 4041SOL    HW113022   2.235   6.395   0.968
 4041SOL    HW213023   2.221   6.344   1.122
 4042SOL     OW13024   5.897   6.276   3.488
 4042SOL    HW113025   5.913   6.366   3.528
 4042SOL    HW213026   5.849   6.219   3.554
 4043SOL     OW13027   6.829   1.961   6.626
 4043SOL    HW113028   6.832   1.980   6.724
 4043SOL    HW213029   6.832   2.047   6.575
 4044SOL     OW13030   5.211   5.220   2.852
 4044SOL    HW113031   5.236   5.283   2.778
 4044SOL    HW213032   5.114   5.229   2.872
 4045SOL     OW13033   4.283   6.501   5.747
 4045SOL    HW113034   4.329   6.579   5.705
 4045SOL    HW213035   4.349   6.428   5.763
 4046SOL     OW13036   0.857   1.969   2.663
 4046SOL    HW113037   0.836   2.060   2.627
 4046SOL    HW213038   0.896   1.978   2.755
 4047SOL     OW13039   2.374   2.556   6.653
 4047SOL    HW113040   2.382   2.507   6.566
 4047SOL    HW213041   2.286   2.533   6.695
 4048SOL     OW13042   5.630   1.461   1.880
 4048SOL    HW113043   5.559   1.490   1.945
 4048SOL    HW213044   5.718   1.499   1.907
 4049SOL     OW13045   4.971   6.135   6.380
 4049SOL    HW113046   5.016   6.177   6.459
 4049SOL    HW213047   4.932   6.047   6.406
 4050SOL     OW13048   1.262   6.181   2.026
 4050SOL    HW113049   1.326   6.196   2.101
 4050SOL    HW213050   1.249   6.266   1.975
 4051SOL     OW13051   4.777   1.174   6.522
 4051SOL    HW113052   4.714   1.112   6.476
 4051SOL    HW213053   4.758   1.175   6.620
 4052SOL     OW13054   5.703   2.381   3.174
 4052SOL    HW113055   5.755   2.330   3.243
 4052SOL    HW213056   5.762   2.404   3.097
 4053SOL     OW13057   2.125   6.332   4.465
 4053SOL    HW113058   2.183   6.254   4.488
 4053SOL    HW213059   2.032   6.315   4.497
 4054SOL     OW13060   5.141   4.068   0.979
 4054SOL    HW113061   5.206   3.991   0.977
 4054SOL    HW213062   5.114   4.086   1.073
 4055SOL     OW13063   1.984   3.985   0.864
 4055SOL    HW113064   2.029   3.940   0.942
 4055SOL    HW213065   1.907   4.039   0.897
 4056SOL     OW13066   5.590   4.010   1.359
 4056SOL    HW113067   5.545   4.098   1.346
 4056SOL    HW213068   5.685   4.015   1.327
 4057SOL     OW13069   6.969   2.955   0.216
 4057SOL    HW113070   6.951   2.857   0.217
 4057SOL    HW213071   0.026   2.974   0.271
 4058SOL     OW13072   2.935   6.584   4.987
 4058SOL    HW113073   2.932   6.497   4.938
 4058SOL    HW213074   2.988   6.573   5.072
 4059SOL     OW13075   6.964   2.328   3.078
 4059SOL    HW113076   6.912   2.398   3.029
 4059SOL    HW213077   6.901   2.265   3.124
 4060SOL     OW13078   5.387   4.794   5.725
 4060SOL    HW113079   5.404   4.815   5.629
 4060SOL    HW213080   5.462   4.828   5.781
 4061SOL     OW13081   2.598   4.776   2.322
 4061SOL    HW113082   2.535   4.718   2.271
 4061SOL    HW213083   2.638   4.725   2.397
 4062SOL     OW13084   2.290   0.562   2.379
 4062SOL    HW113085   2.322   0.636   2.319
 4062SOL    HW213086   2.191   0.570   2.390
 4063SOL     OW13087   6.115   0.038   0.603
 4063SOL    HW113088   6.118   0.137   0.619
 4063SOL    HW213089   6.200   7.021   0.637
 4064SOL     OW13090   2.638   1.983   4.354
 4064SOL    HW113091   2.610   1.913   4.420
 4064SOL    HW213092   2.700   2.047   4.399
 4065SOL     OW13093   0.868   6.724   1.656
 4065SOL    HW113094   0.777   6.716   1.615
 4065SOL    HW213095   0.867   6.686   1.748
 4066SOL     OW13096   6.690   4.855   2.840
 4066SOL    HW113097   6.656   4.769   2.880
 4066SOL    HW213098   6.735   4.835   2.753
 4067SOL     OW13099   5.599   4.163   3.327
 4067SOL    HW113100   5.527   4.177   3.259
 4067SOL    HW213101   5.648   4.249   3.342
 4068SOL     OW13102   2.323   2.227   4.475
 4068SOL    HW113103   2.308   2.326   4.482
 4068SOL    HW213104   2.304   2.184   4.563
 4069SOL     OW13105   3.836   5.348   6.841
 4069SOL    HW113106   3.933   5.367   6.852
 4069SOL    HW213107   3.786   5.434   6.830
 4070SOL     OW13108   0.459   2.776   2.716
 4070SOL    HW113109   0.494   2.690   2.751
 4070SOL    HW213110   0.530   2.821   2.661
 4071SOL     OW13111   1.449   1.561   4.980
 4071SOL    HW113112   1.463   1.626   4.905
 4071SOL    HW213113   1.373   1.593   5.037
 4072SOL     OW13114   0.839   5.683   4.640
 4072SOL    HW113115   0.811   5.622   4.566
 4072SOL    HW213116   0.910   5.746   4.606
 4073SOL     OW13117   3.279   6.105   6.274
 4073SOL    HW113118   3.268   6.007   6.291
 4073SOL    HW213119   3.194   6.142   6.235
 4074SOL     OW13120   0.519   4.327   1.478
 4074SOL    HW113121   0.462   4.361   1.403
 4074SOL    HW213122   0.544   4.403   1.538
 4075SOL     OW13123   5.000   2.085   1.321
 4075SOL    HW113124   4.953   2.054   1.404
 4075SOL    HW213125   5.061   2.161   1.344
 4076SOL     OW13126   2.563   3.110   6.428
 4076SOL    HW113127   2.580   3.178   6.357
 4076SOL    HW213128   2.587   3.019   6.393
 4077SOL     OW13129   3.860   2.091   0.278
 4077SOL    HW113130   3.920   2.025   0.234
 4077SOL    HW213131   3.809   2.046   0.352
 4078SOL     OW13132   2.451   5.340   2.210
 4078SOL    HW113133   2.388   5.265   2.190
 4078SOL    HW213134   2.545   5.305   2.212
 4079SOL     OW13135   1.834   1.584   3.038
 4079SOL    HW113136   1.821   1.501   3.093
 4079SOL    HW213137   1.888   1.562   2.957
 4080SOL     OW13138   4.844   2.757   6.295
 4080SOL    HW113139   4.796   2.830   6.245
 4080SOL    HW213140   4.780   2.681   6.311
 4081SOL     OW13141   1.589   2.981   3.466
 4081SOL    HW113142   1.643   3.042   3.409
 4081SOL    HW213143   1.649   2.930   3.528
 4082SOL     OW13144   0.747   4.122   0.528
 4082SOL    HW113145   0.774   4.031   0.560
 4082SOL    HW213146   0.802   4.145   0.447
 4083SOL     OW13147   6.533   3.191   2.431
 4083SOL    HW113148   6.539   3.290   2.413
 4083SOL    HW213149   6.611   3.163   2.486
 4084SOL     OW13150   5.622   2.291   3.934
 4084SOL    HW113151   5.685   2.308   3.858
 4084SOL    HW213152   5.536   2.341   3.918
 4085SOL     OW13153   3.513   5.500   1.197
 4085SOL    HW113154   3.584   5.570   1.191
 4085SOL    HW213155   3.555   5.410   1.206
 4086SOL     OW13156   2.065   5.539   1.561
 4086SOL    HW113157   1.995   5.610   1.556
 4086SOL    HW213158   2.070   5.504   1.654
 4087SOL     OW13159   2.860   2.063   3.541
 4087SOL    HW113160   2.948   2.076   3.495
 4087SOL    HW213161   2.852   1.968   3.571
 4088SOL     OW13162   0.385   2.042   0.731
 4088SOL    HW113163   0.312   1.973   0.728
 4088SOL    HW213164   0.472   2.000   0.707
 4089SOL     OW13165   6.228   6.332   3.621
 4089SOL    HW113166   6.256   6.427   3.625
 4089SOL    HW213167   6.155   6.315   3.687
 4090SOL     OW13168   1.872   4.297   5.961
 4090SOL    HW113169   1.783   4.263   5.933
 4090SOL    HW213170   1.889   4.271   6.056
 4091SOL     OW13171   6.539   6.449   0.502
 4091SOL    HW113172   6.521   6.457   0.404
 4091SOL    HW213173   6.467   6.394   0.544
 4092SOL     OW13174   6.369   3.245   5.104
 4092SOL    HW113175   6.280   3.267   5.144
 4092SOL    HW213176   6.416   3.329   5.077
 4093SOL     OW13177   4.250   0.045   3.537
 4093SOL    HW113178   4.150   0.048   3.532
 4093SOL    HW213179   4.283   6.984   3.497
 4094SOL     OW13180   2.275   6.095   4.532
 4094SOL    HW113181   2.231   6.009   4.559
 4094SOL    HW213182   2.351   6.115   4.594
 4095SOL     OW13183   0.662   3.486   6.758
 4095SOL    HW113184   0.652   3.387   6.742
 4095SOL    HW213185   0.752   3.516   6.728
 4096SOL     OW13186   4.461   5.340   0.749
 4096SOL    HW113187   4.555   5.348   0.715
 4096SOL    HW213188   4.402   5.305   0.676
 4097SOL     OW13189   3.863   4.247   6.342
 4097SOL    HW113190   3.804   4.316   6.300
 4097SOL    HW213191   3.865   4.165   6.285
 4098SOL     OW13192   0.853   3.072   1.487
 4098SOL    HW113193   0.923   3.124   1.535
 4098SOL    HW213194   0.762   3.104   1.516
 4099SOL     OW13195   3.032   4.566   1.196
 4099SOL    HW113196   3.049   4.494   1.128
 4099SOL    HW213197   3.031   4.526   1.288
 4100SOL     OW13198   6.580   5.874   4.896
 4100SOL    HW113199   6.497   5.844   4.942
 4100SOL    HW213200   6.630   5.795   4.861
 4101SOL     OW13201   5.988   0.921   0.661
 4101SOL    HW113202   6.027   0.945   0.750
 4101SOL    HW213203   5.995   0.822   0.647
 4102SOL     OW13204   6.554   0.856   1.211
 4102SOL    HW113205   6.610   0.938   1.221
 4102SOL    HW213206   6.574   0.793   1.286
 4103SOL     OW13207   0.448   0.710   1.073
 4103SOL    HW113208   0.467   0.678   1.166
 4103SOL    HW213209   0.518   0.676   1.010
 4104SOL     OW13210   0.536   4.754   2.263
 4104SOL    HW113211   0.514   4.708   2.177
 4104SOL    HW213212   0.599   4.696   2.316
 4105SOL     OW13213   4.032   5.790   1.213
 4105SOL    HW113214   4.058   5.759   1.304
 4105SOL    HW213215   4.114   5.795   1.155
 4106SOL     OW13216   0.032   1.808   4.625
 4106SOL    HW113217   0.025   1.906   4.607
 4106SOL    HW213218   6.965   1.769   4.639
 4107SOL     OW13219   1.966   6.254   1.197
 4107SOL    HW113220   1.872   6.220   1.196
 4107SOL    HW213221   1.995   6.277   1.104
 4108SOL     OW13222   0.192   4.211   6.056
 4108SOL    HW113223   0.202   4.308   6.076
 4108SOL    HW213224   0.199   4.158   6.140
 4109SOL     OW13225   4.653   6.177   4.994
 4109SOL    HW113226   4.675   6.257   5.049
 4109SOL    HW213227   4.641   6.097   5.053
 4110SOL     OW13228   4.576   2.837   6.611
 4110SOL    HW113229   4.599   2.739   6.611
 4110SOL    HW213230   4.595   2.876   6.701
 4111SOL     OW13231   4.022   3.219   6.468
 4111SOL    HW113232   3.973   3.300   6.437
 4111SOL    HW213233   3.989   3.139   6.418
 4112SOL     OW13234   4.789   0.523   4.991
 4112SOL    HW113235   4.692   0.505   4.975
 4112SOL    HW213236   4.807   0.621   4.977
 4113SOL     OW13237   4.548   6.335   4.409
 4113SOL    HW113238   4.620   6.402   4.425
 4113SOL    HW213239   4.459   6.375   4.430
 4114SOL     OW13240   3.617   2.055   4.141
 4114SOL    HW113241   3.660   2.042   4.230
 4114SOL    HW213242   3.652   1.986   4.077
 4115SOL     OW13243   3.883   6.008   2.282
 4115SOL    HW113244   3.909   5.917   2.248
 4115SOL    HW213245   3.905   6.077   2.214
 4116SOL     OW13246   3.722   2.172   1.478
 4116SOL    HW113247   3.771   2.220   1.406
 4116SOL    HW213248   3.763   2.194   1.567
 4117SOL     OW13249   0.591   5.385   1.902
 4117SOL    HW113250   0.611   5.303   1.848
 4117SOL    HW213251   0.618   5.368   1.997
 4118SOL     OW13252   3.033   6.401   0.619
 4118SOL    HW113253   2.996   6.313   0.648
 4118SOL    HW213254   2.960   6.458   0.580
 4119SOL     OW13255   4.068   2.192   3.526
 4119SOL    HW113256   4.121   2.182   3.441
 4119SOL    HW213257   4.040   2.287   3.536
 4120SOL     OW13258   4.561   0.851   0.823
 4120SOL    HW113259   4.588   0.779   0.886
 4120SOL    HW213260   4.463   0.845   0.805
 4121SOL     OW13261   5.741   1.502   5.351
 4121SOL    HW113262   5.706   1.440   5.421
 4121SOL    HW213263   5.802   1.570   5.392
 4122SOL     OW13264   0.825   6.028   5.620
 4122SOL    HW113265   0.890   6.098   5.649
 4122SOL    HW213266   0.741   6.036   5.673
 4123SOL     OW13267   4.365   4.665   5.467
 4123SOL    HW113268   4.412   4.657   5.554
 4123SOL    HW213269   4.377   4.757   5.431
 4124SOL     OW13270   6.128   5.086   6.086
 4124SOL    HW113271   6.139   4.989   6.063
 4124SOL    HW213272   6.036   5.116   6.062
 4125SOL     OW13273   4.782   1.620   2.448
 4125SOL    HW113274   4.810   1.648   2.539
 4125SOL    HW213275   4.783   1.520   2.442
 4126SOL     OW13276   1.021   3.911   3.583
 4126SOL    HW113277   1.020   3.890   3.485
 4126SOL    HW213278   1.104   3.960   3.606
 4127SOL     OW13279   4.577   4.565   4.819
 4127SOL    HW113280   4.585   4.492   4.750
 4127SOL    HW213281   4.494   4.551   4.873
 4128SOL     OW13282   1.513   3.482   1.519
 4128SOL    HW113283   1.454   3.463   1.597
 4128SOL    HW213284   1.559   3.398   1.491
 4129SOL     OW13285   4.798   1.492   6.852
 4129SOL    HW113286   4.826   1.430   6.925
 4129SOL    HW213287   4.838   1.462   6.765
 4130SOL     OW13288   0.109   3.314   5.687
 4130SOL    HW113289   0.197   3.300   5.732
 4130SOL    HW213290   0.123   3.320   5.588
 4131SOL     OW13291   1.358   5.683   4.010
 4131SOL    HW113292   1.272   5.642   4.041
 4131SOL    HW213293   1.355   5.696   3.911
 4132SOL     OW13294   4.995   4.350   3.625
 4132SOL    HW113295   4.923   4.286   3.597
 4132SOL    HW213296   4.975   4.440   3.585
 4133SOL     OW13297   2.959   6.944   1.670
 4133SOL    HW113298   2.886   6.912   1.610
 4133SOL    HW213299   3.017   7.009   1.620
 4134SOL     OW13300   2.048   2.888   0.580
 4134SOL    HW113301   1.952   2.887   0.609
 4134SOL    HW213302   2.056   2.936   0.493
 4135SOL     OW13303   1.971   0.968   2.353
 4135SOL    HW113304   1.940   0.958   2.447
 4135SOL    HW213305   2.070   0.958   2.349
 4136SOL     OW13306   1.410   1.841   2.706
 4136SOL    HW113307   1.415   1.898   2.624
 4136SOL    HW213308   1.371   1.893   2.781
 4137SOL     OW13309   1.767   4.406   0.929
 4137SOL    HW113310   1.683   4.414   0.982
 4137SOL    HW213311   1.745   4.411   0.831
 4138SOL     OW13312   3.741   5.188   2.935
 4138SOL    HW113313   3.758   5.089   2.943
 4138SOL    HW213314   3.736   5.228   3.026
 4139SOL     OW13315   2.305   2.120   5.193
 4139SOL    HW113316   2.326   2.075   5.106
 4139SOL    HW213317   2.362   2.202   5.202
 4140SOL     OW13318   2.903   0.893   5.343
 4140SOL    HW113319   2.977   0.833   5.312
 4140SOL    HW213320   2.871   0.949   5.266
 4141SOL     OW13321   5.309   6.506   1.732
 4141SOL    HW113322   5.236   6.477   1.670
 4141SOL    HW213323   5.286   6.595   1.770
 4142SOL     OW13324   6.425   5.420   0.938
 4142SOL    HW113325   6.443   5.326   0.907
 4142SOL    HW213326   6.364   5.466   0.873
 4143SOL     OW13327   0.200   3.042   0.371
 4143SOL    HW113328   0.176   3.138   0.383
 4143SOL    HW213329   0.294   3.034   0.338
 4144SOL     OW13330   5.175   3.185   6.856
 4144SOL    HW113331   5.081   3.176   6.823
 4144SOL    HW213332   5.221   3.096   6.853
 4145SOL     OW13333   0.142   5.830   1.235
 4145SOL    HW113334   0.073   5.901   1.243
 4145SOL    HW213335   0.149   5.801   1.140
 4146SOL     OW13336   6.988   0.850   6.124
 4146SOL    HW113337   7.006   0.901   6.040
 4146SOL    HW213338   0.025   0.772   6.130
 4147SOL     OW13339   4.283   2.152   5.778
 4147SOL    HW113340   4.369   2.124   5.736
 4147SOL    HW213341   4.249   2.078   5.836
 4148SOL     OW13342   0.749   0.275   4.400
 4148SOL    HW113343   0.778   0.283   4.495
 4148SOL    HW213344   0.810   0.329   4.342
 4149SOL     OW13345   0.492   2.575   0.477
 4149SOL    HW113346   0.495   2.570   0.577
 4149SOL    HW213347   0.423   2.511   0.443
 4150SOL     OW13348   0.105   0.840   5.873
 4150SOL    HW113349   0.167   0.909   5.835
 4150SOL    HW213350   0.135   0.749   5.845
 4151SOL     OW13351   4.800   6.668   6.272
 4151SOL    HW113352   4.834   6.652   6.179
 4151SOL    HW213353   4.836   6.597   6.333
 4152SOL     OW13354   3.166   6.017   0.609
 4152SOL    HW113355   3.260   6.049   0.598
 4152SOL    HW213356   3.116   6.032   0.523
 4153SOL     OW13357   4.590   5.195   6.644
 4153SOL    HW113358   4.610   5.145   6.560
 4153SOL    HW213359   4.636   5.284   6.642
 4154SOL     OW13360   0.292   4.228   5.213
 4154SOL    HW113361   0.289   4.128   5.212
 4154SOL    HW213362   0.342   4.260   5.133
 4155SOL     OW13363   6.235   2.313   3.410
 4155SOL    HW113364   6.173   2.385   3.440
 4155SOL    HW213365   6.196   2.224   3.433
 4156SOL     OW13366   5.463   6.648   5.092
 4156SOL    HW113367   5.433   6.722   5.151
 4156SOL    HW213368   5.386   6.589   5.070
 4157SOL     OW13369   4.184   6.696   3.540
 4157SOL    HW113370   4.085   6.683   3.544
 4157SOL    HW213371   4.220   6.705   3.632
 4158SOL     OW13372   1.700   5.559   3.917
 4158SOL    HW113373   1.633   5.504   3.966
 4158SOL    HW213374   1.792   5.525   3.935
 4159SOL     OW13375   1.952   3.023   3.752
 4159SOL    HW113376   1.910   2.963   3.684
 4159SOL    HW213377   1.883   3.086   3.788
 4160SOL     OW13378   0.052   0.981   1.202
 4160SOL    HW113379   0.094   0.900   1.162
 4160SOL    HW213380   0.119   1.055   1.205
 4161SOL     OW13381   1.630   6.491   6.187
 4161SOL    HW113382   1.638   6.526   6.094
 4161SOL    HW213383   1.660   6.561   6.252
 4162SOL     OW13384   5.936   6.648   5.490
 4162SOL    HW113385   5.874   6.578   5.524
 4162SOL    HW213386   5.887   6.709   5.427
 4163SOL     OW13387   6.183   0.430   3.247
 4163SOL    HW113388   6.260   0.429   3.311
 4163SOL    HW213389   6.126   0.511   3.265
 4164SOL     OW13390   1.051   6.759   6.232
 4164SOL    HW113391   1.093   6.739   6.144
 4164SOL    HW213392   1.122   6.769   6.302
 4165SOL     OW13393   4.446   0.222   0.365
 4165SOL    HW113394   4.470   0.138   0.414
 4165SOL    HW213395   4.385   0.200   0.289
 4166SOL     OW13396   5.930   3.463   1.205
 4166SOL    HW113397   5.993   3.393   1.237
 4166SOL    HW213398   5.932   3.541   1.267
 4167SOL     OW13399   2.330   4.034   0.218
 4167SOL    HW113400   2.349   3.951   0.167
 4167SOL    HW213401   2.233   4.038   0.241
 4168SOL     OW13402   0.547   5.378   1.483
 4168SOL    HW113403   0.524   5.398   1.387
 4168SOL    HW213404   0.528   5.459   1.538
 4169SOL     OW13405   6.040   3.524   3.610
 4169SOL    HW113406   5.993   3.547   3.524
 4169SOL    HW213407   6.039   3.603   3.671
 4170SOL     OW13408   3.149   3.438   5.078
 4170SOL    HW113409   3.058   3.419   5.040
 4170SOL    HW213410   3.204   3.487   5.010
 4171SOL     OW13411   5.769   4.682   1.401
 4171SOL    HW113412   5.677   4.715   1.381
 4171SOL    HW213413   5.807   4.639   1.319
 4172SOL     OW13414   7.009   2.283   6.254
 4172SOL    HW113415   0.080   2.270   6.228
 4172SOL    HW213416   6.951   2.278   6.173
 4173SOL     OW13417   6.101   3.451   4.929
 4173SOL    HW113418   6.021   3.436   4.871
 4173SOL    HW213419   6.184   3.445   4.874
 4174SOL     OW13420   5.527   0.532   4.154
 4174SOL    HW113421   5.437   0.488   4.160
 4174SOL    HW213422   5.523   0.607   4.089
 4175SOL     OW13423   2.750   6.084   3.680
 4175SOL    HW113424   2.721   6.074   3.775
 4175SOL    HW213425   2.672   6.108   3.623
 4176SOL     OW13426   2.538   6.477   2.089
 4176SOL    HW113427   2.589   6.525   2.160
 4176SOL    HW213428   2.518   6.541   2.014
 4177SOL     OW13429   0.055   4.782   5.107
 4177SOL    HW113430   0.118   4.798   5.183
 4177SOL    HW213431   0.101   4.802   5.021
 4178SOL     OW13432   4.411   0.487   4.281
 4178SOL    HW113433   4.336   0.527   4.334
 4178SOL    HW213434   4.405   0.387   4.286
 4179SOL     OW13435   5.559   3.137   4.046
 4179SOL    HW113436   5.476   3.152   3.993
 4179SOL    HW213437   5.634   3.190   4.007
 4180SOL     OW13438   5.643   3.384   1.971
 4180SOL    HW113439   5.675   3.446   1.899
 4180SOL    HW213440   5.592   3.309   1.930
 4181SOL     OW13441   2.137   2.260   6.139
 4181SOL    HW113442   2.063   2.256   6.206
 4181SOL    HW213443   2.225   2.270   6.186
 4182SOL     OW13444   0.332   6.380   2.805
 4182SOL    HW113445   0.389   6.462   2.801
 4182SOL    HW213446   0.390   6.299   2.799
 4183SOL     OW13447   3.590   0.973   1.447
 4183SOL    HW113448   3.573   0.874   1.455
 4183SOL    HW213449   3.683   0.988   1.413
 4184SOL     OW13450   4.375   4.846   1.253
 4184SOL    HW113451   4.289   4.880   1.213
 4184SOL    HW213452   4.355   4.770   1.315
 4185SOL     OW13453   0.490   5.550   2.606
 4185SOL    HW113454   0.490   5.648   2.590
 4185SOL    HW213455   0.413   5.527   2.666
 4186SOL     OW13456   1.603   4.858   0.290
 4186SOL    HW113457   1.676   4.847   0.358
 4186SOL    HW213458   1.545   4.776   0.290
 4187SOL     OW13459   3.874   2.877   5.758
 4187SOL    HW113460   3.830   2.966   5.775
 4187SOL    HW213461   3.905   2.839   5.845
 4188SOL     OW13462   5.017   6.612   4.147
 4188SOL    HW113463   5.090   6.547   4.124
 4188SOL    HW213464   5.057   6.701   4.168
 4189SOL     OW13465   3.318   1.279   4.633
 4189SOL    HW113466   3.403   1.300   4.682
 4189SOL    HW213467   3.273   1.364   4.607
 4190SOL     OW13468   1.992   6.853   6.760
 4190SOL    HW113469   1.905   6.822   6.722
 4190SOL    HW213470   2.066   6.796   6.726
 4191SOL     OW13471   5.407   3.811   2.976
 4191SOL    HW113472   5.412   3.730   3.035
 4191SOL    HW213473   5.476   3.877   3.005
 4192SOL     OW13474   6.472   1.083   3.820
 4192SOL    HW113475   6.405   1.153   3.842
 4192SOL    HW213476   6.564   1.123   3.823
 4193SOL     OW13477   2.052   6.585   1.679
 4193SOL    HW113478   2.099   6.552   1.597
 4193SOL    HW213479   1.967   6.631   1.653
 4194SOL     OW13480   6.472   1.901   5.354
 4194SOL    HW113481   6.497   1.807   5.380
 4194SOL    HW213482   6.480   1.911   5.255
 4195SOL     OW13483   3.302   0.362   1.537
 4195SOL    HW113484   3.398   0.334   1.535
 4195SOL    HW213485   3.267   0.357   1.630
 4196SOL     OW13486   6.339   1.876   4.127
 4196SOL    HW113487   6.286   1.793   4.111
 4196SOL    HW213488   6.435   1.859   4.108
 4197SOL     OW13489   4.544   4.887   4.049
 4197SOL    HW113490   4.608   4.818   4.017
 4197SOL    HW213491   4.573   4.922   4.138
 4198SOL     OW13492   6.183   3.863   6.786
 4198SOL    HW113493   6.216   3.853   6.692
 4198SOL    HW213494   6.093   3.821   6.794
 4199SOL     OW13495   1.833   3.445   6.222
 4199SOL    HW113496   1.880   3.370   6.269
 4199SOL    HW213497   1.856   3.442   6.124
 4200SOL     OW13498   2.713   6.583   5.345
 4200SOL    HW113499   2.734   6.498   5.297
 4200SOL    HW213500   2.795   6.616   5.392
 4201SOL     OW13501   5.635   6.522   3.978
 4201SOL    HW113502   5.579   6.539   3.897
 4201SOL    HW213503   5.678   6.432   3.972
 4202SOL     OW13504   4.300   4.886   5.932
 4202SOL    HW113505   4.397   4.901   5.914
 4202SOL    HW213506   4.281   4.788   5.932
 4203SOL     OW13507   4.019   5.488   2.221
 4203SOL    HW113508   3.934   5.461   2.177
 4203SOL    HW213509   4.093   5.425   2.195
 4204SOL     OW13510   3.684   2.836   1.953
 4204SOL    HW113511   3.699   2.868   2.046
 4204SOL    HW213512   3.612   2.767   1.952
 4205SOL     OW13513   3.498   5.316   4.107
 4205SOL    HW113514   3.494   5.274   4.198
 4205SOL    HW213515   3.470   5.249   4.038
 4206SOL     OW13516   5.219   0.987   5.776
 4206SOL    HW113517   5.165   1.071   5.779
 4206SOL    HW213518   5.224   0.947   5.868
 4207SOL     OW13519   2.383   1.704   1.760
 4207SOL    HW113520   2.449   1.696   1.685
 4207SOL    HW213521   2.352   1.613   1.787
 4208SOL     OW13522   1.685   2.330   0.285
 4208SOL    HW113523   1.747   2.311   0.361
 4208SOL    HW213524   1.609   2.265   0.288
 4209SOL     OW13525   1.072   1.478   4.607
 4209SOL    HW113526   1.171   1.468   4.603
 4209SOL    HW213527   1.044   1.509   4.698
 4210SOL     OW13528   3.507   3.104   2.156
 4210SOL    HW113529   3.429   3.110   2.094
 4210SOL    HW213530   3.591   3.130   2.107
 4211SOL     OW13531   5.269   6.131   6.116
 4211SOL    HW113532   5.228   6.042   6.095
 4211SOL    HW213533   5.196   6.195   6.142
 4212SOL     OW13534   6.499   2.414   2.176
 4212SOL    HW113535   6.471   2.400   2.081
 4212SOL    HW213536   6.434   2.475   2.220
 4213SOL     OW13537   2.230   0.926   2.352
 4213SOL    HW113538   2.290   0.977   2.412
 4213SOL    HW213539   2.283   0.854   2.306
 4214SOL     OW13540   0.010   3.993   6.087
 4214SOL    HW113541   0.046   4.073   6.039
 4214SOL    HW213542   0.085   3.943   6.130
 4215SOL     OW13543   0.035   5.666   4.944
 4215SOL    HW113544   6.964   5.637   4.952
 4215SOL    HW213545   0.046   5.756   4.986
 4216SOL     OW13546   1.283   2.197   3.478
 4216SOL    HW113547   1.345   2.198   3.399
 4216SOL    HW213548   1.335   2.176   3.561
 4217SOL     OW13549   6.648   0.679   3.039
 4217SOL    HW113550   6.707   0.738   2.984
 4217SOL    HW213551   6.658   0.584   3.010
 4218SOL     OW13552   5.561   0.225   1.935
 4218SOL    HW113553   5.534   0.300   1.875
 4218SOL    HW213554   5.654   0.197   1.914
 4219SOL     OW13555   2.997   4.822   5.307
 4219SOL    HW113556   2.991   4.725   5.285
 4219SOL    HW213557   3.063   4.836   5.381
 4220SOL     OW13558   6.201   3.330   3.087
 4220SOL    HW113559   6.263   3.334   3.167
 4220SOL    HW213560   6.232   3.397   3.019
 4221SOL     OW13561   6.849   5.879   6.297
 4221SOL    HW113562   6.882   5.912   6.386
 4221SOL    HW213563   6.793   5.950   6.254
 4222SOL     OW13564   5.938   2.169   1.974
 4222SOL    HW113565   5.998   2.249   1.976
 4222SOL    HW213566   5.887   2.163   2.061
 4223SOL     OW13567   3.787   2.971   3.887
 4223SOL    HW113568   3.866   3.026   3.912
 4223SOL    HW213569   3.795   2.880   3.928
 4224SOL     OW13570   5.058   3.428   4.277
 4224SOL    HW113571   5.044   3.337   4.316
 4224SOL    HW213572   5.085   3.492   4.350
 4225SOL     OW13573   5.363   1.005   5.331
 4225SOL    HW113574   5.318   1.089   5.299
 4225SOL    HW213575   5.417   1.026   5.413
 4226SOL     OW13576   2.055   0.542   3.418
 4226SOL    HW113577   1.956   0.555   3.420
 4226SOL    HW213578   2.078   0.464   3.360
 4227SOL     OW13579   3.445   4.176   6.414
 4227SOL    HW113580   3.449   4.082   6.447
 4227SOL    HW213581   3.495   4.235   6.477
 4228SOL     OW13582   5.709   5.416   3.890
 4228SOL    HW113583   5.635   5.482   3.903
 4228SOL    HW213584   5.671   5.323   3.895
 4229SOL     OW13585   4.082   4.651   6.199
 4229SOL    HW113586   4.023   4.730   6.182
 4229SOL    HW213587   4.127   4.661   6.288
 4230SOL     OW13588   2.474   0.307   4.708
 4230SOL    HW113589   2.446   0.258   4.791
 4230SOL    HW213590   2.567   0.281   4.682
 4231SOL     OW13591   5.330   6.455   4.932
 4231SOL    HW113592   5.290   6.364   4.935
 4231SOL    HW213593   5.423   6.450   4.896
 4232SOL     OW13594   0.626   4.687   1.827
 4232SOL    HW113595   0.568   4.662   1.904
 4232SOL    HW213596   0.608   4.781   1.800
 4233SOL     OW13597   6.907   0.478   0.866
 4233SOL    HW113598   6.919   0.418   0.945
 4233SOL    HW213599   6.835   0.544   0.885
 4234SOL     OW13600   1.951   5.900   5.403
 4234SOL    HW113601   1.937   5.811   5.446
 4234SOL    HW213602   2.041   5.935   5.429
 4235SOL     OW13603   5.743   4.200   5.115
 4235SOL    HW113604   5.719   4.183   5.019
 4235SOL    HW213605   5.664   4.182   5.173
 4236SOL     OW13606   0.127   3.007   3.270
 4236SOL    HW113607   0.034   2.999   3.233
 4236SOL    HW213608   0.180   2.926   3.245
 4237SOL     OW13609   6.301   4.446   4.316
 4237SOL    HW113610   6.377   4.436   4.251
 4237SOL    HW213611   6.315   4.384   4.393
 4238SOL     OW13612   4.403   4.616   3.888
 4238SOL    HW113613   4.391   4.572   3.976
 4238SOL    HW213614   4.495   4.653   3.881
 4239SOL     OW13615   5.191   6.970   4.407
 4239SOL    HW113616   5.204   6.880   4.450
 4239SOL    HW213617   5.230   0.016   4.466
 4240SOL     OW13618   2.655   6.001   6.230
 4240SOL    HW113619   2.687   6.017   6.136
 4240SOL    HW213620   2.682   5.909   6.259
 4241SOL     OW13621   6.100   0.382   0.781
 4241SOL    HW113622   6.147   0.372   0.869
 4241SOL    HW213623   6.167   0.385   0.707
 4242SOL     OW13624   2.299   6.818   3.138
 4242SOL    HW113625   2.246   6.733   3.136
 4242SOL    HW213626   2.247   6.891   3.093
 4243SOL     OW13627   0.586   3.616   2.737
 4243SOL    HW113628   0.614   3.522   2.720
 4243SOL    HW213629   0.645   3.678   2.685
 4244SOL     OW13630   4.759   5.885   1.292
 4244SOL    HW113631   4.837   5.830   1.323
 4244SOL    HW213632   4.743   5.867   1.195
 4245SOL     OW13633   6.862   2.690   0.190
 4245SOL    HW113634   6.768   2.721   0.177
 4245SOL    HW213635   6.866   2.623   0.264
 4246SOL     OW13636   5.193   3.383   3.116
 4246SOL    HW113637   5.194   3.286   3.140
 4246SOL    HW213638   5.109   3.404   3.065
 4247SOL     OW13639   2.627   5.283   4.509
 4247SOL    HW113640   2.610   5.331   4.423
 4247SOL    HW213641   2.725   5.284   4.529
 4248SOL     OW13642   1.487   0.367   3.437
 4248SOL    HW113643   1.412   0.380   3.371
 4248SOL    HW213644   1.572   0.401   3.398
 4249SOL     OW13645   6.866   1.948   3.474
 4249SOL    HW113646   6.915   2.023   3.519
 4249SOL    HW213647   6.832   1.884   3.544
 4250SOL     OW13648   0.099   5.884   4.169
 4250SOL    HW113649   0.080   5.981   4.153
 4250SOL    HW213650   0.167   5.852   4.104
 4251SOL     OW13651   6.091   2.671   6.431
 4251SOL    HW113652   6.157   2.746   6.435
 4251SOL    HW213653   6.139   2.584   6.420
 4252SOL     OW13654   6.105   5.539   5.966
 4252SOL    HW113655   6.009   5.559   5.946
 4252SOL    HW213656   6.147   5.621   6.006
 4253SOL     OW13657   3.637   6.409   2.875
 4253SOL    HW113658   3.551   6.358   2.882
 4253SOL    HW213659   3.700   6.380   2.947
 4254SOL     OW13660   1.882   4.573   1.691
 4254SOL    HW113661   1.905   4.507   1.762
 4254SOL    HW213662   1.956   4.577   1.624
 4255SOL     OW13663   0.333   3.590   3.662
 4255SOL    HW113664   0.290   3.508   3.700
 4255SOL    HW213665   0.261   3.651   3.627
 4256SOL     OW13666   0.981   5.485   1.724
 4256SOL    HW113667   0.912   5.426   1.682
 4256SOL    HW213668   0.940   5.534   1.802
 4257SOL     OW13669   6.511   1.405   4.832
 4257SOL    HW113670   6.522   1.502   4.854
 4257SOL    HW213671   6.537   1.389   4.737
 4258SOL     OW13672   3.586   5.840   1.302
 4258SOL    HW113673   3.567   5.903   1.226
 4258SOL    HW213674   3.515   5.769   1.305
 4259SOL     OW13675   1.831   6.510   1.173
 4259SOL    HW113676   1.763   6.488   1.243
 4259SOL    HW213677   1.913   6.454   1.189
 4260SOL     OW13678   5.087   6.872   4.144
 4260SOL    HW113679   4.991   6.899   4.148
 4260SOL    HW213680   5.131   6.890   4.231
 4261SOL     OW13681   2.363   0.180   4.082
 4261SOL    HW113682   2.317   0.141   4.161
 4261SOL    HW213683   2.304   0.247   4.038
 4262SOL     OW13684   1.508   4.872   5.707
 4262SOL    HW113685   1.445   4.861   5.783
 4262SOL    HW213686   1.529   4.968   5.694
 4263SOL     OW13687   2.937   1.771   3.369
 4263SOL    HW113688   2.871   1.701   3.344
 4263SOL    HW213689   2.998   1.736   3.440
 4264SOL     OW13690   5.776   1.360   4.506
 4264SOL    HW113691   5.821   1.335   4.591
 4264SOL    HW213692   5.845   1.378   4.436
 4265SOL     OW13693   3.380   0.159   0.381
 4265SOL    HW113694   3.439   0.179   0.302
 4265SOL    HW213695   3.435   0.160   0.464
 4266SOL     OW13696   1.819   0.333   0.138
 4266SOL    HW113697   1.890   0.374   0.080
 4266SOL    HW213698   1.743   0.302   0.081
 4267SOL     OW13699   2.210   4.047   3.647
 4267SOL    HW113700   2.269   4.093   3.714
 4267SOL    HW213701   2.199   3.951   3.673
 4268SOL     OW13702   1.799   5.121   6.884
 4268SOL    HW113703   1.714   5.121   6.832
 4268SOL    HW213704   1.791   5.059   6.962
 4269SOL     OW13705   3.406   1.438   3.856
 4269SOL    HW113706   3.356   1.445   3.770
 4269SOL    HW213707   3.477   1.368   3.847
 4270SOL     OW13708   3.808   3.173   1.646
 4270SOL    HW113709   3.811   3.271   1.668
 4270SOL    HW213710   3.884   3.126   1.691
 4271SOL     OW13711   6.107   1.016   0.875
 4271SOL    HW113712   6.162   1.099   0.862
 4271SOL    HW213713   6.161   0.948   0.924
 4272SOL     OW13714   6.759   3.369   5.568
 4272SOL    HW113715   6.668   3.327   5.566
 4272SOL    HW213716   6.763   3.438   5.640
 4273SOL     OW13717   5.063   6.309   5.192
 4273SOL    HW113718   5.043   6.211   5.201
 4273SOL    HW213719   5.093   6.345   5.280
 4274SOL     OW13720   0.887   6.580   2.333
 4274SOL    HW113721   0.918   6.512   2.399
 4274SOL    HW213722   0.845   6.657   2.382
 4275SOL     OW13723   0.023   2.106   4.533
 4275SOL    HW113724   0.117   2.130   4.554
 4275SOL    HW213725   0.004   2.123   4.436
 4276SOL     OW13726   3.496   4.960   3.448
 4276SOL    HW113727   3.398   4.944   3.464
 4276SOL    HW213728   3.510   4.989   3.354
 4277SOL     OW13729   6.760   5.060   3.705
 4277SOL    HW113730   6.825   5.129   3.672
 4277SOL    HW213731   6.806   4.999   3.769
 4278SOL     OW13732   6.907   6.410   3.928
 4278SOL    HW113733   6.946   6.491   3.885
 4278SOL    HW213734   6.916   6.331   3.868
 4279SOL     OW13735   1.565   1.112   2.685
 4279SOL    HW113736   1.606   1.142   2.771
 4279SOL    HW213737   1.551   1.191   2.625
 4280SOL     OW13738   6.168   6.861   6.116
 4280SOL    HW113739   6.143   6.827   6.207
 4280SOL    HW213740   6.243   6.805   6.080
 4281SOL     OW13741   4.625   5.724   3.833
 4281SOL    HW113742   4.546   5.667   3.810
 4281SOL    HW213743   4.664   5.763   3.750
 4282SOL     OW13744   3.665   4.154   0.554
 4282SOL    HW113745   3.630   4.243   0.584
 4282SOL    HW213746   3.589   4.089   0.545
 4283SOL     OW13747   4.913   0.923   3.037
 4283SOL    HW113748   4.895   0.908   3.135
 4283SOL    HW213749   4.965   0.845   3.001
 4284SOL     OW13750   3.946   5.685   6.965
 4284SOL    HW113751   4.017   5.625   6.929
 4284SOL    HW213752   3.982   5.778   6.973
 4285SOL     OW13753   3.205   0.543   6.130
 4285SOL    HW113754   3.240   0.582   6.214
 4285SOL    HW213755   3.176   0.617   6.068
 4286SOL     OW13756   6.994   0.735   0.012
 4286SOL    HW113757   6.960   0.789   6.960
 4286SOL    HW213758   6.940   0.754   0.094
 4287SOL     OW13759   4.543   1.141   7.013
 4287SOL    HW113760   4.532   1.219   0.050
 4287SOL    HW213761   4.546   1.056   0.042
 4288SOL     OW13762   6.586   5.829   1.983
 4288SOL    HW113763   6.526   5.797   2.057
 4288SOL    HW213764   6.594   5.758   1.913
 4289SOL     OW13765   0.359   2.336   5.463
 4289SOL    HW113766   0.270   2.354   5.505
 4289SOL    HW213767   0.381   2.239   5.472
 4290SOL     OW13768   6.984   6.576   3.580
 4290SOL    HW113769   6.887   6.552   3.581
 4290SOL    HW213770   0.011   6.505   3.532
 4291SOL     OW13771   4.964   3.185   6.232
 4291SOL    HW113772   4.894   3.118   6.258
 4291SOL    HW213773   4.975   3.185   6.133
 4292SOL     OW13774   5.459   2.447   0.186
 4292SOL    HW113775   5.400   2.390   0.128
 4292SOL    HW213776   5.518   2.388   0.241
 4293SOL     OW13777   4.439   3.687   6.697
 4293SOL    HW113778   4.472   3.769   6.743
 4293SOL    HW213779   4.501   3.611   6.716
 4294SOL     OW13780   2.388   1.730   6.125
 4294SOL    HW113781   2.462   1.784   6.086
 4294SOL    HW213782   2.423   1.678   6.203
 4295SOL     OW13783   4.259   6.544   2.763
 4295SOL    HW113784   4.232   6.611   2.694
 4295SOL    HW213785   4.213   6.458   2.746
 4296SOL     OW13786   3.440   6.821   0.783
 4296SOL    HW113787   3.378   6.804   0.860
 4296SOL    HW213788   3.398   6.788   0.698
 4297SOL     OW13789   6.745   5.784   1.465
 4297SOL    HW113790   6.719   5.834   1.382
 4297SOL    HW213791   6.663   5.754   1.513
 4298SOL     OW13792   4.034   6.260   1.309
 4298SOL    HW113793   4.006   6.172   1.269
 4298SOL    HW213794   4.049   6.327   1.237
 4299SOL     OW13795   0.582   2.990   6.918
 4299SOL    HW113796   0.587   2.915   6.852
 4299SOL    HW213797   0.545   2.956   7.004
 4300SOL     OW13798   3.333   0.421   0.873
 4300SOL    HW113799   3.349   0.519   0.880
 4300SOL    HW213800   3.239   0.400   0.900
 4301SOL     OW13801   2.787   6.653   1.321
 4301SOL    HW113802   2.722   6.729   1.327
 4301SOL    HW213803   2.825   6.635   1.412
 4302SOL     OW13804   6.796   0.300   6.896
 4302SOL    HW113805   6.853   0.381   6.912
 4302SOL    HW213806   6.800   0.275   6.799
 4303SOL     OW13807   6.876   4.693   3.691
 4303SOL    HW113808   6.822   4.715   3.610
 4303SOL    HW213809   6.972   4.683   3.665
 4304SOL     OW13810   3.661   4.105   1.906
 4304SOL    HW113811   3.604   4.141   1.980
 4304SOL    HW213812   3.752   4.084   1.942
 4305SOL     OW13813   0.303   6.910   5.397
 4305SOL    HW113814   0.276   6.815   5.415
 4305SOL    HW213815   0.356   6.944   5.475
 4306SOL     OW13816   4.867   3.686   4.720
 4306SOL    HW113817   4.846   3.600   4.675
 4306SOL    HW213818   4.853   3.677   4.819
 4307SOL     OW13819   5.621   2.544   5.893
 4307SOL    HW113820   5.591   2.576   5.803
 4307SOL    HW213821   5.676   2.461   5.882
 4308SOL     OW13822   5.428   4.864   1.838
 4308SOL    HW113823   5.455   4.865   1.742
 4308SOL    HW213824   5.332   4.840   1.845
 4309SOL     OW13825   0.958   3.280   6.661
 4309SOL    HW113826   0.901   3.245   6.735
 4309SOL    HW213827   1.038   3.327   6.699
 4310SOL     OW13828   1.476   2.552   2.550
 4310SOL    HW113829   1.489   2.587   2.457
 4310SOL    HW213830   1.406   2.605   2.597
 4311SOL     OW13831   1.223   6.260   2.365
 4311SOL    HW113832   1.257   6.242   2.457
 4311SOL    HW213833   1.297   6.248   2.299
 4312SOL     OW13834   0.860   5.327   2.591
 4312SOL    HW113835   0.801   5.249   2.570
 4312SOL    HW213836   0.857   5.346   2.689
 4313SOL     OW13837   3.932   1.856   0.027
 4313SOL    HW113838   4.006   1.821   0.083
 4313SOL    HW213839   3.962   1.939   7.005
 4314SOL     OW13840   6.349   2.330   5.693
 4314SOL    HW113841   6.320   2.236   5.712
 4314SOL    HW213842   6.353   2.345   5.595
 4315SOL     OW13843   1.950   1.726   3.428
 4315SOL    HW113844   1.978   1.800   3.367
 4315SOL    HW213845   1.918   1.764   3.515
 4316SOL     OW13846   4.907   6.942   2.552
 4316SOL    HW113847   4.983   6.877   2.557
 4316SOL    HW213848   4.861   6.932   2.464
 4317SOL     OW13849   4.342   0.864   5.505
 4317SOL    HW113850   4.284   0.805   5.563
 4317SOL    HW213851   4.291   0.946   5.480
 4318SOL     OW13852   0.340   0.967   4.404
 4318SOL    HW113853   0.325   1.064   4.420
 4318SOL    HW213854   0.352   0.920   4.491
 4319SOL     OW13855   1.584   1.958   1.227
 4319SOL    HW113856   1.580   1.877   1.286
 4319SOL    HW213857   1.675   1.964   1.185
 4320SOL     OW13858   4.063   6.114   0.508
 4320SOL    HW113859   4.140   6.110   0.445
 4320SOL    HW213860   4.045   6.209   0.533
 4321SOL     OW13861   6.862   5.242   3.550
 4321SOL    HW113862   6.931   5.288   3.605
 4321SOL    HW213863   6.849   5.292   3.464
 4322SOL     OW13864   0.815   3.272   5.322
 4322SOL    HW113865   0.889   3.265   5.255
 4322SOL    HW213866   0.728   3.248   5.278
 4323SOL     OW13867   4.093   5.473   6.857
 4323SOL    HW113868   4.168   5.480   6.923
 4323SOL    HW213869   4.125   5.422   6.776
 4324SOL     OW13870   6.880   3.429   5.331
 4324SOL    HW113871   6.974   3.398   5.327
 4324SOL    HW213872   6.837   3.397   5.415
 4325SOL     OW13873   2.505   1.356   2.383
 4325SOL    HW113874   2.407   1.367   2.364
 4325SOL    HW213875   2.558   1.406   2.314
 4326SOL     OW13876   5.162   3.045   2.685
 4326SOL    HW113877   5.126   3.134   2.657
 4326SOL    HW213878   5.258   3.039   2.658
 4327SOL     OW13879   3.841   5.816   3.092
 4327SOL    HW113880   3.878   5.771   3.173
 4327SOL    HW213881   3.754   5.861   3.115
 4328SOL     OW13882   6.342   4.888   4.885
 4328SOL    HW113883   6.440   4.875   4.876
 4328SOL    HW213884   6.306   4.933   4.802
 4329SOL     OW13885   5.696   3.164   5.526
 4329SOL    HW113886   5.757   3.126   5.595
 4329SOL    HW213887   5.661   3.090   5.468
 4330SOL     OW13888   2.649   6.784   5.126
 4330SOL    HW113889   2.702   6.724   5.185
 4330SOL    HW213890   2.710   6.848   5.079
 4331SOL     OW13891   0.433   0.302   1.597
 4331SOL    HW113892   0.364   0.316   1.667
 4331SOL    HW213893   0.396   0.240   1.527
 4332SOL     OW13894   5.783   3.823   2.794
 4332SOL    HW113895   5.761   3.735   2.753
 4332SOL    HW213896   5.802   3.811   2.892
 4333SOL     OW13897   5.043   2.284   5.017
 4333SOL    HW113898   5.051   2.382   5.037
 4333SOL    HW213899   5.001   2.238   5.095
 4334SOL     OW13900   1.087   2.843   2.831
 4334SOL    HW113901   1.114   2.888   2.916
 4334SOL    HW213902   1.126   2.892   2.753
 4335SOL     OW13903   3.286   3.009   0.852
 4335SOL    HW113904   3.376   2.974   0.876
 4335SOL    HW213905   3.289   3.108   0.848
 4336SOL     OW13906   2.182   4.949   5.546
 4336SOL    HW113907   2.095   4.926   5.502
 4336SOL    HW213908   2.173   4.936   5.645
 4337SOL     OW13909   1.296   6.182   2.618
 4337SOL    HW113910   1.339   6.115   2.558
 4337SOL    HW213911   1.216   6.142   2.662
 4338SOL     OW13912   6.211   0.102   6.134
 4338SOL    HW113913   6.303   0.129   6.106
 4338SOL    HW213914   6.205   0.002   6.138
 4339SOL     OW13915   4.160   2.254   6.773
 4339SOL    HW113916   4.082   2.301   6.733
 4339SOL    HW213917   4.230   2.239   6.704
 4340SOL     OW13918   5.973   3.343   0.769
 4340SOL    HW113919   6.032   3.263   0.766
 4340SOL    HW213920   5.992   3.400   0.689
 4341SOL     OW13921   0.877   5.720   2.502
 4341SOL    HW113922   0.921   5.765   2.425
 4341SOL    HW213923   0.792   5.676   2.471
 4342SOL     OW13924   4.880   3.410   3.236
 4342SOL    HW113925   4.859   3.498   3.280
 4342SOL    HW213926   4.884   3.422   3.137
 4343SOL     OW13927   3.325   0.107   6.394
 4343SOL    HW113928   3.288   0.116   6.486
 4343SOL    HW213929   3.380   0.187   6.372
 4344SOL     OW13930   0.598   2.771   3.367
 4344SOL    HW113931   0.505   2.738   3.347
 4344SOL    HW213932   0.624   2.741   3.459
 4345SOL     OW13933   2.941   3.694   2.800
 4345SOL    HW113934   2.998   3.773   2.775
 4345SOL    HW213935   2.981   3.611   2.763
 4346SOL     OW13936   2.201   2.890   2.769
 4346SOL    HW113937   2.125   2.857   2.713
 4346SOL    HW213938   2.218   2.824   2.843
 4347SOL     OW13939   6.208   6.119   1.501
 4347SOL    HW113940   6.156   6.187   1.450
 4347SOL    HW213941   6.260   6.164   1.574
 4348SOL     OW13942   6.842   5.973   4.146
 4348SOL    HW113943   6.751   5.966   4.105
 4348SOL    HW213944   6.842   5.927   4.235
 4349SOL     OW13945   0.149   3.788   3.543
 4349SOL    HW113946   0.084   3.712   3.549
 4349SOL    HW213947   0.167   3.809   3.447
 4350SOL     OW13948   5.569   1.485   4.416
 4350SOL    HW113949   5.607   1.568   4.376
 4350SOL    HW213950   5.643   1.423   4.441
 4351SOL     OW13951   1.777   5.884   1.820
 4351SOL    HW113952   1.726   5.956   1.773
 4351SOL    HW213953   1.845   5.926   1.880
 4352SOL     OW13954   5.587   3.646   0.966
 4352SOL    HW113955   5.612   3.680   1.057
 4352SOL    HW213956   5.634   3.560   0.947
 4353SOL     OW13957   3.121   3.149   6.491
 4353SOL    HW113958   3.045   3.090   6.464
 4353SOL    HW213959   3.114   3.170   6.588
 4354SOL     OW13960   1.146   0.500   5.487
 4354SOL    HW113961   1.141   0.485   5.586
 4354SOL    HW213962   1.054   0.516   5.452
 4355SOL     OW13963   1.358   6.479   3.487
 4355SOL    HW113964   1.306   6.435   3.560
 4355SOL    HW213965   1.451   6.498   3.519
 4356SOL     OW13966   4.651   3.161   5.759
 4356SOL    HW113967   4.571   3.105   5.779
 4356SOL    HW213968   4.636   3.210   5.673
 4357SOL     OW13969   0.334   1.295   1.846
 4357SOL    HW113970   0.332   1.342   1.758
 4357SOL    HW213971   0.273   1.341   1.910
 4358SOL     OW13972   0.413   1.192   0.217
 4358SOL    HW113973   0.433   1.225   0.309
 4358SOL    HW213974   0.449   1.257   0.150
 4359SOL     OW13975   1.982   0.343   6.459
 4359SOL    HW113976   1.989   0.349   6.360
 4359SOL    HW213977   1.985   0.434   6.499
 4360SOL     OW13978   0.918   2.621   3.721
 4360SOL    HW113979   1.012   2.655   3.718
 4360SOL    HW213980   0.920   2.522   3.735
 4361SOL     OW13981   1.871   2.857   1.035
 4361SOL    HW113982   1.862   2.769   1.081
 4361SOL    HW213983   1.894   2.843   0.939
 4362SOL     OW13984   0.446   6.481   4.128
 4362SOL    HW113985   0.386   6.412   4.168
 4362SOL    HW213986   0.396   6.533   4.059
 4363SOL     OW13987   4.323   0.163   2.758
 4363SOL    HW113988   4.387   0.221   2.807
 4363SOL    HW213989   4.332   0.177   2.659
 4364SOL     OW13990   2.889   3.711   2.541
 4364SOL    HW113991   2.801   3.751   2.565
 4364SOL    HW213992   2.938   3.684   2.624
 4365SOL     OW13993   2.958   1.874   1.599
 4365SOL    HW113994   2.963   1.974   1.596
 4365SOL    HW213995   2.964   1.838   1.506
 4366SOL     OW13996   6.119   5.883   5.504
 4366SOL    HW113997   6.219   5.889   5.502
 4366SOL    HW213998   6.081   5.923   5.420
 4367SOL     OW13999   3.471   5.093   2.676
 4367SOL    HW114000   3.568   5.096   2.651
 4367SOL    HW214001   3.462   5.072   2.773
 4368SOL     OW14002   3.976   6.108   2.530
 4368SOL    HW114003   3.949   6.066   2.443
 4368SOL    HW214004   3.896   6.110   2.591
 4369SOL     OW14005   5.040   5.551   2.999
 4369SOL    HW114006   4.954   5.566   3.046
 4369SOL    HW214007   5.096   5.634   3.004
 4370SOL     OW14008   3.990   3.731   1.472
 4370SOL    HW114009   4.016   3.635   1.463
 4370SOL    HW214010   4.037   3.771   1.551
 4371SOL     OW14011   2.690   0.732   2.167
 4371SOL    HW114012   2.708   0.647   2.218
 4371SOL    HW214013   2.642   0.796   2.226
 4372SOL     OW14014   1.862   3.438   4.447
 4372SOL    HW114015   1.940   3.471   4.500
 4372SOL    HW214016   1.837   3.505   4.378
 4373SOL     OW14017   5.013   0.860   6.127
 4373SOL    HW114018   5.023   0.817   6.038
 4373SOL    HW214019   5.087   0.830   6.188
 4374SOL     OW14020   2.681   2.203   1.281
 4374SOL    HW114021   2.686   2.105   1.302
 4374SOL    HW214022   2.664   2.254   1.366
 4375SOL     OW14023   3.607   0.221   3.250
 4375SOL    HW114024   3.599   0.320   3.260
 4375SOL    HW214025   3.548   0.191   3.174
 4376SOL     OW14026   6.613   0.087   1.783
 4376SOL    HW114027   6.707   0.106   1.812
 4376SOL    HW214028   6.553   0.160   1.816
 4377SOL     OW14029   6.680   5.981   0.455
 4377SOL    HW114030   6.770   5.997   0.414
 4377SOL    HW214031   6.613   6.041   0.413
 4378SOL     OW14032   1.550   4.880   2.069
 4378SOL    HW114033   1.560   4.780   2.065
 4378SOL    HW214034   1.551   4.909   2.164
 4379SOL     OW14035   2.282   0.431   1.815
 4379SOL    HW114036   2.316   0.451   1.907
 4379SOL    HW214037   2.321   0.495   1.749
 4380SOL     OW14038   2.250   5.818   5.105
 4380SOL    HW114039   2.302   5.743   5.145
 4380SOL    HW214040   2.194   5.783   5.030
 4381SOL     OW14041   3.129   5.295   4.631
 4381SOL    HW114042   3.162   5.202   4.620
 4381SOL    HW214043   3.150   5.348   4.548
 4382SOL     OW14044   4.630   4.329   4.616
 4382SOL    HW114045   4.585   4.249   4.656
 4382SOL    HW214046   4.716   4.300   4.573
 4383SOL     OW14047   0.975   1.707   5.110
 4383SOL    HW114048   0.941   1.661   5.191
 4383SOL    HW214049   0.970   1.806   5.122
 4384SOL     OW14050   4.834   0.407   1.426
 4384SOL    HW114051   4.909   0.362   1.379
 4384SOL    HW214052   4.834   0.381   1.523
 4385SOL     OW14053   6.661   1.902   4.161
 4385SOL    HW114054   6.655   1.931   4.066
 4385SOL    HW214055   6.679   1.804   4.165
 4386SOL     OW14056   1.246   4.487   6.500
 4386SOL    HW114057   1.278   4.397   6.470
 4386SOL    HW214058   1.301   4.558   6.457
 4387SOL     OW14059   6.885   2.318   1.662
 4387SOL    HW114060   6.965   2.376   1.648
 4387SOL    HW214061   6.907   2.243   1.725
 4388SOL     OW14062   3.894   0.897   6.655
 4388SOL    HW114063   3.980   0.902   6.706
 4388SOL    HW214064   3.909   0.924   6.560
 4389SOL     OW14065   5.559   1.706   1.742
 4389SOL    HW114066   5.575   1.611   1.770
 4389SOL    HW214067   5.461   1.724   1.738
 4390SOL     OW14068   3.956   2.253   1.789
 4390SOL    HW114069   4.009   2.261   1.873
 4390SOL    HW214070   3.859   2.245   1.811
 4391SOL     OW14071   1.010   5.708   6.525
 4391SOL    HW114072   0.917   5.699   6.490
 4391SOL    HW214073   1.041   5.803   6.514
 4392SOL     OW14074   5.430   3.601   5.197
 4392SOL    HW114075   5.482   3.611   5.282
 4392SOL    HW214076   5.429   3.505   5.170
 4393SOL     OW14077   4.754   6.869   3.186
 4393SOL    HW114078   4.845   6.909   3.197
 4393SOL    HW214079   4.763   6.773   3.161
 4394SOL     OW14080   5.413   5.909   2.468
 4394SOL    HW114081   5.334   5.852   2.444
 4394SOL    HW214082   5.418   5.919   2.567
 4395SOL     OW14083   4.357   2.464   0.628
 4395SOL    HW114084   4.391   2.397   0.562
 4395SOL    HW214085   4.260   2.445   0.647
 4396SOL     OW14086   2.370   1.952   4.299
 4396SOL    HW114087   2.345   2.043   4.266
 4396SOL    HW214088   2.468   1.938   4.288
 4397SOL     OW14089   0.535   1.116   4.067
 4397SOL    HW114090   0.545   1.022   4.037
 4397SOL    HW214091   0.578   1.127   4.157
 4398SOL     OW14092   1.498   4.498   4.247
 4398SOL    HW114093   1.432   4.568   4.218
 4398SOL    HW214094   1.590   4.526   4.219
 4399SOL     OW14095   2.715   0.669   0.843
 4399SOL    HW114096   2.666   0.588   0.812
 4399SOL    HW214097   2.696   0.685   0.940
 4400SOL     OW14098   2.369   6.383   4.945
 4400SOL    HW114099   2.370   6.336   5.033
 4400SOL    HW214100   2.387   6.481   4.960
 4401SOL     OW14101   6.644   5.809   5.539
 4401SOL    HW114102   6.722   5.856   5.579
 4401SOL    HW214103   6.668   5.773   5.449
 4402SOL     OW14104   1.478   6.073   2.858
 4402SOL    HW114105   1.453   6.023   2.775
 4402SOL    HW214106   1.409   6.056   2.929
 4403SOL     OW14107   6.486   0.013   3.742
 4403SOL    HW114108   6.515   6.965   3.804
 4403SOL    HW214109   6.566   0.046   3.690
 4404SOL     OW14110   1.114   3.649   4.246
 4404SOL    HW114111   1.055   3.570   4.225
 4404SOL    HW214112   1.197   3.617   4.291
 4405SOL     OW14113   3.364   4.636   6.025
 4405SOL    HW114114   3.463   4.635   6.041
 4405SOL    HW214115   3.345   4.604   5.933
 4406SOL     OW14116   5.072   4.490   0.973
 4406SOL    HW114117   5.117   4.429   0.907
 4406SOL    HW214118   5.096   4.461   1.066
 4407SOL     OW14119   0.321   5.526   0.747
 4407SOL    HW114120   0.250   5.566   0.689
 4407SOL    HW214121   0.293   5.532   0.843
 4408SOL     OW14122   4.574   0.676   1.050
 4408SOL    HW114123   4.535   0.584   1.047
 4408SOL    HW214124   4.521   0.732   1.114
 4409SOL     OW14125   3.682   0.921   2.168
 4409SOL    HW114126   3.595   0.914   2.216
 4409SOL    HW214127   3.732   1.001   2.201
 4410SOL     OW14128   1.915   4.692   6.739
 4410SOL    HW114129   1.940   4.631   6.664
 4410SOL    HW214130   1.998   4.727   6.781
 4411SOL     OW14131   3.373   2.888   3.250
 4411SOL    HW114132   3.386   2.801   3.202
 4411SOL    HW214133   3.325   2.952   3.191
 4412SOL     OW14134   4.415   1.888   5.066
 4412SOL    HW114135   4.369   1.819   5.009
 4412SOL    HW214136   4.379   1.883   5.159
 4413SOL     OW14137   5.154   5.910   5.267
 4413SOL    HW114138   5.137   5.818   5.303
 4413SOL    HW214139   5.067   5.951   5.238
 4414SOL     OW14140   4.754   5.032   2.294
 4414SOL    HW114141   4.715   4.995   2.209
 4414SOL    HW214142   4.781   4.956   2.354
 4415SOL     OW14143   5.170   3.302   6.344
 4415SOL    HW114144   5.240   3.234   6.364
 4415SOL    HW214145   5.086   3.256   6.316
 4416SOL     OW14146   2.725   1.603   3.956
 4416SOL    HW114147   2.752   1.683   4.010
 4416SOL    HW214148   2.651   1.627   3.894
 4417SOL     OW14149   6.938   4.582   2.625
 4417SOL    HW114150   6.852   4.552   2.584
 4417SOL    HW214151   6.946   4.681   2.617
 4418SOL     OW14152   4.343   6.770   3.802
 4418SOL    HW114153   4.436   6.804   3.788
 4418SOL    HW214154   4.343   6.670   3.797
 4419SOL     OW14155   5.736   5.556   0.342
 4419SOL    HW114156   5.732   5.620   0.420
 4419SOL    HW214157   5.643   5.533   0.314
 4420SOL     OW14158   4.729   1.416   0.845
 4420SOL    HW114159   4.771   1.473   0.916
 4420SOL    HW214160   4.793   1.345   0.817
 4421SOL     OW14161   1.592   1.810   3.188
 4421SOL    HW114162   1.610   1.723   3.234
 4421SOL    HW214163   1.531   1.795   3.111
 4422SOL     OW14164   2.558   3.226   5.722
 4422SOL    HW114165   2.610   3.264   5.646
 4422SOL    HW214166   2.463   3.213   5.694
 4423SOL     OW14167   0.664   3.014   5.349
 4423SOL    HW114168   0.750   2.962   5.343
 4423SOL    HW214169   0.685   3.110   5.370
 4424SOL     OW14170   5.151   0.137   3.287
 4424SOL    HW114171   5.158   0.078   3.367
 4424SOL    HW214172   5.079   0.101   3.226
 4425SOL     OW14173   3.495   5.840   6.316
 4425SOL    HW114174   3.542   5.823   6.230
 4425SOL    HW214175   3.505   5.937   6.341
 4426SOL     OW14176   6.846   1.051   5.575
 4426SOL    HW114177   6.827   0.958   5.606
 4426SOL    HW214178   6.942   1.073   5.592
 4427SOL     OW14179   6.700   0.743   2.671
 4427SOL    HW114180   6.700   0.784   2.763
 4427SOL    HW214181   6.607   0.714   2.648
 4428SOL     OW14182   3.243   4.932   3.575
 4428SOL    HW114183   3.216   5.021   3.609
 4428SOL    HW214184   3.197   4.860   3.628
 4429SOL     OW14185   2.914   0.225   3.837
 4429SOL    HW114186   2.991   0.168   3.863
 4429SOL    HW214187   2.831   0.170   3.834
 4430SOL     OW14188   4.831   2.791   3.852
 4430SOL    HW114189   4.833   2.745   3.764
 4430SOL    HW214190   4.802   2.726   3.923
 4431SOL     OW14191   2.808   1.147   2.256
 4431SOL    HW114192   2.723   1.129   2.304
 4431SOL    HW214193   2.879   1.174   2.322
 4432SOL     OW14194   3.129   3.030   3.694
 4432SOL    HW114195   3.060   3.094   3.659
 4432SOL    HW214196   3.204   3.024   3.628
 4433SOL     OW14197   6.316   6.830   4.476
 4433SOL    HW114198   6.388   6.877   4.426
 4433SOL    HW214199   6.290   6.747   4.426
 4434SOL     OW14200   4.569   1.258   4.185
 4434SOL    HW114201   4.480   1.296   4.163
 4434SOL    HW214202   4.640   1.312   4.140
 4435SOL     OW14203   4.160   3.596   0.786
 4435SOL    HW114204   4.079   3.538   0.774
 4435SOL    HW214205   4.155   3.673   0.723
 4436SOL     OW14206   3.244   1.845   0.116
 4436SOL    HW114207   3.280   1.929   0.156
 4436SOL    HW214208   3.286   1.766   0.161
 4437SOL     OW14209   4.734   1.033   4.163
 4437SOL    HW114210   4.786   1.023   4.078
 4437SOL    HW214211   4.657   1.095   4.149
 4438SOL     OW14212   4.622   1.766   6.791
 4438SOL    HW114213   4.599   1.706   6.867
 4438SOL    HW214214   4.689   1.834   6.820
 4439SOL     OW14215   0.807   5.324   1.573
 4439SOL    HW114216   0.736   5.381   1.531
 4439SOL    HW214217   0.763   5.254   1.630
 4440SOL     OW14218   1.597   5.372   6.501
 4440SOL    HW114219   1.616   5.275   6.517
 4440SOL    HW214220   1.682   5.419   6.476
 4441SOL     OW14221   6.193   1.804   1.614
 4441SOL    HW114222   6.126   1.859   1.664
 4441SOL    HW214223   6.245   1.748   1.679
 4442SOL     OW14224   3.064   6.453   3.649
 4442SOL    HW114225   3.029   6.544   3.675
 4442SOL    HW214226   2.987   6.395   3.623
 4443SOL     OW14227   1.217   2.334   6.435
 4443SOL    HW114228   1.119   2.351   6.420
 4443SOL    HW214229   1.266   2.421   6.437
 4444SOL     OW14230   3.866   6.352   6.478
 4444SOL    HW114231   3.795   6.304   6.528
 4444SOL    HW214232   3.835   6.445   6.457
 4445SOL     OW14233   1.259   0.865   6.336
 4445SOL    HW114234   1.285   0.809   6.415
 4445SOL    HW214235   1.322   0.942   6.327
 4446SOL     OW14236   5.769   0.981   1.333
 4446SOL    HW114237   5.713   0.899   1.339
 4446SOL    HW214238   5.712   1.058   1.306
 4447SOL     OW14239   5.452   3.231   5.667
 4447SOL    HW114240   5.458   3.318   5.715
 4447SOL    HW214241   5.532   3.219   5.608
 4448SOL     OW14242   2.815   3.877   0.529
 4448SOL    HW114243   2.769   3.958   0.562
 4448SOL    HW214244   2.790   3.860   0.433
 4449SOL     OW14245   3.404   0.445   5.942
 4449SOL    HW114246   3.376   0.474   5.851
 4449SOL    HW214247   3.349   0.493   6.011
 4450SOL     OW14248   3.716   2.941   3.387
 4450SOL    HW114249   3.669   2.867   3.435
 4450SOL    HW214250   3.733   2.914   3.293
 4451SOL     OW14251   5.800   4.096   2.349
 4451SOL    HW114252   5.881   4.154   2.358
 4451SOL    HW214253   5.788   4.042   2.432
 4452SOL     OW14254   5.881   6.461   4.897
 4452SOL    HW114255   5.957   6.425   4.953
 4452SOL    HW214256   5.855   6.393   4.829
 4453SOL     OW14257   6.261   2.950   0.271
 4453SOL    HW114258   6.361   2.941   0.267
 4453SOL    HW214259   6.219   2.865   0.239
 4454SOL     OW14260   4.983   1.950   0.825
 4454SOL    HW114261   5.040   2.018   0.779
 4454SOL    HW214262   4.988   1.964   0.924
 4455SOL     OW14263   2.846   6.255   0.744
 4455SOL    HW114264   2.851   6.308   0.828
 4455SOL    HW214265   2.784   6.178   0.756
 4456SOL     OW14266   2.552   4.932   2.604
 4456SOL    HW114267   2.461   4.919   2.565
 4456SOL    HW214268   2.614   4.968   2.534
 4457SOL     OW14269   4.095   2.566   7.001
 4457SOL    HW114270   4.139   2.647   0.014
 4457SOL    HW214271   4.148   2.485   0.002
 4458SOL     OW14272   1.656   3.632   6.145
 4458SOL    HW114273   1.585   3.602   6.081
 4458SOL    HW214274   1.708   3.553   6.176
 4459SOL     OW14275   5.454   0.233   3.944
 4459SOL    HW114276   5.455   0.292   3.863
 4459SOL    HW214277   5.547   0.208   3.969
 4460SOL     OW14278   2.626   3.029   5.893
 4460SOL    HW114279   2.591   3.111   5.848
 4460SOL    HW214280   2.685   3.055   5.969
 4461SOL     OW14281   1.272   0.260   2.824
 4461SOL    HW114282   1.174   0.284   2.824
 4461SOL    HW214283   1.282   0.161   2.823
 4462SOL     OW14284   6.536   3.903   1.045
 4462SOL    HW114285   6.461   3.969   1.052
 4462SOL    HW214286   6.589   3.922   0.962
 4463SOL     OW14287   2.197   2.595   6.874
 4463SOL    HW114288   2.153   2.684   6.884
 4463SOL    HW214289   2.168   2.535   6.949
 4464SOL     OW14290   6.116   5.322   0.451
 4464SOL    HW114291   6.184   5.250   0.460
 4464SOL    HW214292   6.025   5.282   0.443
 4465SOL     OW14293   1.593   5.943   3.319
 4465SOL    HW114294   1.630   6.000   3.392
 4465SOL    HW214295   1.513   5.893   3.352
 4466SOL     OW14296   1.267   0.716   2.919
 4466SOL    HW114297   1.332   0.663   2.866
 4466SOL    HW214298   1.186   0.736   2.864
 4467SOL     OW14299   0.623   6.806   3.800
 4467SOL    HW114300   0.697   6.848   3.854
 4467SOL    HW214301   0.535   6.828   3.842
 4468SOL     OW14302   0.721   2.249   0.319
 4468SOL    HW114303   0.631   2.231   0.358
 4468SOL    HW214304   0.714   2.249   0.219
 4469SOL     OW14305   3.024   6.596   1.229
 4469SOL    HW114306   2.928   6.593   1.256
 4469SOL    HW214307   3.061   6.687   1.249
 4470SOL     OW14308   5.740   3.236   1.568
 4470SOL    HW114309   5.831   3.277   1.565
 4470SOL    HW214310   5.672   3.306   1.591
 4471SOL     OW14311   0.174   2.660   0.046
 4471SOL    HW114312   0.183   2.588   7.002
 4471SOL    HW214313   0.082   2.659   0.084
 4472SOL     OW14314   1.384   4.121   2.764
 4472SOL    HW114315   1.373   4.111   2.863
 4472SOL    HW214316   1.309   4.175   2.727
 4473SOL     OW14317   0.460   1.044   4.789
 4473SOL    HW114318   0.365   1.036   4.759
 4473SOL    HW214319   0.486   0.961   4.840
 4474SOL     OW14320   3.731   0.479   2.383
 4474SOL    HW114321   3.683   0.391   2.392
 4474SOL    HW214322   3.664   0.553   2.384
 4475SOL     OW14323   1.720   4.259   1.408
 4475SOL    HW114324   1.805   4.288   1.362
 4475SOL    HW214325   1.726   4.162   1.430
 4476SOL     OW14326   5.594   6.462   3.507
 4476SOL    HW114327   5.683   6.418   3.494
 4476SOL    HW214328   5.599   6.557   3.475
 4477SOL     OW14329   1.756   0.192   6.529
 4477SOL    HW114330   1.696   0.225   6.456
 4477SOL    HW214331   1.849   0.224   6.513
 4478SOL     OW14332   2.241   6.558   2.567
 4478SOL    HW114333   2.316   6.588   2.626
 4478SOL    HW214334   2.231   6.459   2.574
 4479SOL     OW14335   1.210   1.210   6.705
 4479SOL    HW114336   1.158   1.132   6.669
 4479SOL    HW214337   1.252   1.185   6.792
 4480SOL     OW14338   2.146   3.526   4.561
 4480SOL    HW114339   2.169   3.435   4.596
 4480SOL    HW214340   2.187   3.538   4.471
 4481SOL     OW14341   2.099   6.679   4.581
 4481SOL    HW114342   2.155   6.600   4.557
 4481SOL    HW214343   2.072   6.673   4.677
 4482SOL     OW14344   0.553   3.401   3.850
 4482SOL    HW114345   0.571   3.375   3.755
 4482SOL    HW214346   0.608   3.481   3.874
 4483SOL     OW14347   6.220   2.854   1.316
 4483SOL    HW114348   6.278   2.836   1.237
 4483SOL    HW214349   6.127   2.823   1.297
 4484SOL     OW14350   3.744   1.721   5.134
 4484SOL    HW114351   3.653   1.758   5.152
 4484SOL    HW214352   3.781   1.765   5.052
 4485SOL     OW14353   5.698   2.567   6.524
 4485SOL    HW114354   5.698   2.498   6.451
 4485SOL    HW214355   5.671   2.655   6.486
 4486SOL     OW14356   6.153   3.781   4.253
 4486SOL    HW114357   6.091   3.841   4.203
 4486SOL    HW214358   6.145   3.688   4.216
 4487SOL     OW14359   2.314   3.558   6.853
 4487SOL    HW114360   2.285   3.641   6.900
 4487SOL    HW214361   2.400   3.525   6.894
 4488SOL     OW14362   5.392   2.282   6.280
 4488SOL    HW114363   5.397   2.193   6.235
 4488SOL    HW214364   5.388   2.354   6.211
 4489SOL     OW14365   5.111   6.067   4.551
 4489SOL    HW114366   5.183   6.011   4.510
 4489SOL    HW214367   5.022   6.028   4.529
 4490SOL     OW14368   5.460   2.053   1.886
 4490SOL    HW114369   5.394   2.097   1.946
 4490SOL    HW214370   5.528   2.004   1.942
 4491SOL     OW14371   0.826   2.639   3.165
 4491SOL    HW114372   0.778   2.692   3.235
 4491SOL    HW214373   0.837   2.695   3.083
 4492SOL     OW14374   5.228   3.274   0.651
 4492SOL    HW114375   5.154   3.272   0.584
 4492SOL    HW214376   5.309   3.229   0.612
 4493SOL     OW14377   4.243   4.959   4.953
 4493SOL    HW114378   4.210   5.020   5.025
 4493SOL    HW214379   4.325   4.999   4.911
 4494SOL     OW14380   6.747   2.571   5.937
 4494SOL    HW114381   6.735   2.656   5.987
 4494SOL    HW214382   6.670   2.558   5.874
 4495SOL     OW14383   5.388   0.201   3.202
 4495SOL    HW114384   5.298   0.173   3.236
 4495SOL    HW214385   5.380   0.232   3.107
 4496SOL     OW14386   5.193   5.703   0.892
 4496SOL    HW114387   5.115   5.658   0.936
 4496SOL    HW214388   5.272   5.699   0.953
 4497SOL     OW14389   4.827   6.362   0.003
 4497SOL    HW114390   4.824   6.287   0.070
 4497SOL    HW214391   4.736   6.401   7.018
 4498SOL     OW14392   0.368   3.259   6.614
 4498SOL    HW114393   0.358   3.333   6.547
 4498SOL    HW214394   0.464   3.232   6.620
 4499SOL     OW14395   0.031   3.379   4.357
 4499SOL    HW114396   0.014   3.437   4.277
 4499SOL    HW214397   0.016   3.283   4.333
 4500SOL     OW14398   2.875   3.663   3.689
 4500SOL    HW114399   2.911   3.642   3.781
 4500SOL    HW214400   2.896   3.587   3.628
 4501SOL     OW14401   0.580   3.983   5.644
 4501SOL    HW114402   0.557   3.979   5.547
 4501SOL    HW214403   0.499   3.963   5.699
 4502SOL     OW14404   2.077   3.064   6.478
 4502SOL    HW114405   2.099   3.037   6.572
 4502SOL    HW214406   2.132   3.010   6.415
 4503SOL     OW14407   2.278   0.612   3.004
 4503SOL    HW114408   2.270   0.665   3.089
 4503SOL    HW214409   2.191   0.618   2.954
 4504SOL     OW14410   6.335   1.768   5.030
 4504SOL    HW114411   6.362   1.861   5.054
 4504SOL    HW214412   6.314   1.762   4.933
 4505SOL     OW14413   0.044   6.058   4.742
 4505SOL    HW114414   0.025   5.963   4.717
 4505SOL    HW214415   0.139   6.080   4.721
 4506SOL     OW14416   4.788   2.624   4.396
 4506SOL    HW114417   4.731   2.551   4.435
 4506SOL    HW214418   4.884   2.599   4.405
 4507SOL     OW14419   5.061   4.214   1.480
 4507SOL    HW114420   5.098   4.163   1.402
 4507SOL    HW214421   5.015   4.150   1.542
 4508SOL     OW14422   1.057   4.249   6.785
 4508SOL    HW114423   0.978   4.310   6.795
 4508SOL    HW214424   1.114   4.280   6.709
 4509SOL     OW14425   4.572   1.844   4.097
 4509SOL    HW114426   4.573   1.770   4.031
 4509SOL    HW214427   4.491   1.901   4.083
 4510SOL     OW14428   5.615   6.941   4.712
 4510SOL    HW114429   5.682   6.911   4.780
 4510SOL    HW214430   5.607   0.016   4.716
 4511SOL     OW14431   0.116   3.538   6.155
 4511SOL    HW114432   0.067   3.478   6.091
 4511SOL    HW214433   0.181   3.483   6.208
 4512SOL     OW14434   2.295   7.018   5.766
 4512SOL    HW114435   2.232   6.945   5.795
 4512SOL    HW214436   2.350   6.986   5.690
 4513SOL     OW14437   4.760   0.016   1.116
 4513SOL    HW114438   4.767   0.045   1.020
 4513SOL    HW214439   4.765   0.097   1.175
 4514SOL     OW14440   4.232   0.639   4.780
 4514SOL    HW114441   4.153   0.700   4.777
 4514SOL    HW214442   4.293   0.667   4.854
 4515SOL     OW14443   6.500   3.922   6.535
 4515SOL    HW114444   6.566   3.992   6.562
 4515SOL    HW214445   6.508   3.905   6.437
 4516SOL     OW14446   0.655   1.857   6.117
 4516SOL    HW114447   0.731   1.827   6.175
 4516SOL    HW214448   0.593   1.780   6.101
 4517SOL     OW14449   2.799   7.001   5.981
 4517SOL    HW114450   2.823   6.929   5.916
 4517SOL    HW214451   2.881   0.006   6.030
 4518SOL     OW14452   7.000   2.204   3.582
 4518SOL    HW114453   7.016   2.224   3.679
 4518SOL    HW214454   0.060   2.174   3.539
 4519SOL     OW14455   6.742   1.576   2.023
 4519SOL    HW114456   6.697   1.648   2.077
 4519SOL    HW214457   6.699   1.488   2.043
 4520SOL     OW14458   5.620   5.661   3.029
 4520SOL    HW114459   5.550   5.709   3.082
 4520SOL    HW214460   5.613   5.562   3.046
 4521SOL     OW14461   4.588   1.614   5.740
 4521SOL    HW114462   4.658   1.674   5.780
 4521SOL    HW214463   4.631   1.531   5.706
 4522SOL     OW14464   5.285   0.111   3.699
 4522SOL    HW114465   5.189   0.136   3.688
 4522SOL    HW214466   5.337   0.191   3.731
 4523SOL     OW14467   1.222   4.254   0.268
 4523SOL    HW114468   1.172   4.260   0.182
 4523SOL    HW214469   1.218   4.160   0.303
 4524SOL     OW14470   5.134   2.098   5.873
 4524SOL    HW114471   5.218   2.044   5.864
 4524SOL    HW214472   5.087   2.072   5.958
 4525SOL     OW14473   6.621   2.137   3.581
 4525SOL    HW114474   6.656   2.182   3.499
 4525SOL    HW214475   6.560   2.062   3.555
 4526SOL     OW14476   5.238   0.285   1.407
 4526SOL    HW114477   5.332   0.282   1.372
 4526SOL    HW214478   5.193   0.368   1.375
 4527SOL     OW14479   4.164   1.100   3.975
 4527SOL    HW114480   4.203   1.166   4.039
 4527SOL    HW214481   4.237   1.066   3.915
 4528SOL     OW14482   4.839   6.760   0.531
 4528SOL    HW114483   4.896   6.763   0.450
 4528SOL    HW214484   4.768   6.831   0.525
 4529SOL     OW14485   2.472   1.502   3.278
 4529SOL    HW114486   2.493   1.443   3.201
 4529SOL    HW214487   2.378   1.488   3.307
 4530SOL     OW14488   0.292   3.920   5.659
 4530SOL    HW114489   0.253   3.848   5.602
 4530SOL    HW214490   0.269   4.009   5.619
 4531SOL     OW14491   0.503   3.597   3.308
 4531SOL    HW114492   0.515   3.674   3.371
 4531SOL    HW214493   0.591   3.555   3.289
 4532SOL     OW14494   0.498   1.289   2.201
 4532SOL    HW114495   0.419   1.351   2.204
 4532SOL    HW214496   0.553   1.301   2.284
 4533SOL     OW14497   1.439   0.092   3.720
 4533SOL    HW114498   1.435   0.192   3.714
 4533SOL    HW214499   1.406   0.052   3.635
 4534SOL     OW14500   6.332   3.538   4.514
 4534SOL    HW114501   6.353   3.605   4.443
 4534SOL    HW214502   6.233   3.525   4.519
 4535SOL     OW14503   4.778   2.061   2.583
 4535SOL    HW114504   4.798   2.135   2.648
 4535SOL    HW214505   4.683   2.033   2.593
 4536SOL     OW14506   4.889   1.768   4.861
 4536SOL    HW114507   4.922   1.862   4.867
 4536SOL    HW214508   4.791   1.768   4.840
 4537SOL     OW14509   3.400   3.490   6.239
 4537SOL    HW114510   3.390   3.414   6.175
 4537SOL    HW214511   3.494   3.524   6.236
 4538SOL     OW14512   3.364   2.135   4.080
 4538SOL    HW114513   3.360   2.192   3.998
 4538SOL    HW214514   3.458   2.126   4.111
 4539SOL     OW14515   2.772   1.829   4.127
 4539SOL    HW114516   2.868   1.856   4.130
 4539SOL    HW214517   2.719   1.887   4.189
 4540SOL     OW14518   3.551   3.495   3.703
 4540SOL    HW114519   3.637   3.447   3.688
 4540SOL    HW214520   3.556   3.544   3.790
 4541SOL     OW14521   5.725   1.103   0.794
 4541SOL    HW114522   5.807   1.046   0.788
 4541SOL    HW214523   5.751   1.198   0.812
 4542SOL     OW14524   5.963   6.394   1.668
 4542SOL    HW114525   5.918   6.416   1.755
 4542SOL    HW214526   5.965   6.295   1.655
 4543SOL     OW14527   4.423   1.251   6.633
 4543SOL    HW114528   4.346   1.311   6.652
 4543SOL    HW214529   4.408   1.204   6.546
 4544SOL     OW14530   2.657   6.005   5.941
 4544SOL    HW114531   2.731   5.947   5.909
 4544SOL    HW214532   2.577   5.993   5.882
 4545SOL     OW14533   5.576   2.528   5.097
 4545SOL    HW114534   5.626   2.442   5.096
 4545SOL    HW214535   5.492   2.518   5.151
 4546SOL     OW14536   1.025   0.186   6.456
 4546SOL    HW114537   1.053   0.138   6.539
 4546SOL    HW214538   0.982   0.121   6.393
 4547SOL     OW14539   6.402   2.780   2.096
 4547SOL    HW114540   6.402   2.880   2.092
 4547SOL    HW214541   6.465   2.744   2.027
 4548SOL     OW14542   1.220   4.375   3.963
 4548SOL    HW114543   1.209   4.462   4.012
 4548SOL    HW214544   1.135   4.353   3.916
 4549SOL     OW14545   6.321   4.062   2.869
 4549SOL    HW114546   6.252   4.003   2.827
 4549SOL    HW214547   6.404   4.061   2.814
 4550SOL     OW14548   0.679   6.194   3.652
 4550SOL    HW114549   0.580   6.192   3.659
 4550SOL    HW214550   0.706   6.223   3.560
 4551SOL     OW14551   0.145   1.705   5.411
 4551SOL    HW114552   0.061   1.759   5.401
 4551SOL    HW214553   0.209   1.754   5.471
 4552SOL     OW14554   6.950   3.056   6.291
 4552SOL    HW114555   6.892   2.990   6.339
 4552SOL    HW214556   6.941   3.145   6.334
 4553SOL     OW14557   3.573   4.181   0.143
 4553SOL    HW114558   3.494   4.153   0.198
 4553SOL    HW214559   3.560   4.274   0.110
 4554SOL     OW14560   3.919   0.732   2.107
 4554SOL    HW114561   3.934   0.726   2.008
 4554SOL    HW214562   3.841   0.792   2.125
 4555SOL     OW14563   4.299   1.232   6.318
 4555SOL    HW114564   4.211   1.265   6.284
 4555SOL    HW214565   4.291   1.137   6.347
 4556SOL     OW14566   4.349   1.764   3.827
 4556SOL    HW114567   4.356   1.849   3.775
 4556SOL    HW214568   4.441   1.728   3.843
 4557SOL     OW14569   5.203   0.206   5.280
 4557SOL    HW114570   5.302   0.217   5.272
 4557SOL    HW214571   5.157   0.283   5.235
 4558SOL     OW14572   6.559   3.930   5.933
 4558SOL    HW114573   6.636   3.983   5.898
 4558SOL    HW214574   6.536   3.961   6.025
 4559SOL     OW14575   1.584   6.446   2.027
 4559SOL    HW114576   1.627   6.511   1.964
 4559SOL    HW214577   1.517   6.494   2.084
 4560SOL     OW14578   5.121   4.586   3.274
 4560SOL    HW114579   5.214   4.622   3.265
 4560SOL    HW214580   5.058   4.644   3.221
 4561SOL     OW14581   2.400   0.343   0.899
 4561SOL    HW114582   2.464   0.391   0.838
 4561SOL    HW214583   2.379   0.400   0.978
 4562SOL     OW14584   2.833   5.711   5.313
 4562SOL    HW114585   2.882   5.630   5.281
 4562SOL    HW214586   2.735   5.699   5.298
 4563SOL     OW14587   6.484   3.934   0.033
 4563SOL    HW114588   6.488   4.009   6.992
 4563SOL    HW214589   6.464   3.849   7.010
 4564SOL     OW14590   1.294   5.553   0.875
 4564SOL    HW114591   1.336   5.638   0.845
 4564SOL    HW214592   1.343   5.518   0.955
 4565SOL     OW14593   0.699   1.162   5.238
 4565SOL    HW114594   0.661   1.186   5.148
 4565SOL    HW214595   0.625   1.139   5.301
 4566SOL     OW14596   0.234   0.437   1.025
 4566SOL    HW114597   0.225   0.482   0.936
 4566SOL    HW214598   0.285   0.351   1.014
 4567SOL     OW14599   0.579   1.060   0.794
 4567SOL    HW114600   0.578   0.961   0.782
 4567SOL    HW214601   0.625   1.103   0.716
 4568SOL     OW14602   1.765   4.226   5.221
 4568SOL    HW114603   1.672   4.216   5.257
 4568SOL    HW214604   1.763   4.283   5.139
 4569SOL     OW14605   2.034   1.983   3.710
 4569SOL    HW114606   2.057   1.957   3.804
 4569SOL    HW214607   2.109   1.958   3.649
 4570SOL     OW14608   0.118   5.922   3.439
 4570SOL    HW114609   0.088   5.914   3.344
 4570SOL    HW214610   0.149   5.833   3.471
 4571SOL     OW14611   3.555   3.663   5.490
 4571SOL    HW114612   3.549   3.733   5.419
 4571SOL    HW214613   3.469   3.612   5.494
 4572SOL     OW14614   0.329   6.564   0.405
 4572SOL    HW114615   0.340   6.521   0.494
 4572SOL    HW214616   0.243   6.532   0.363
 4573SOL     OW14617   6.198   5.847   0.760
 4573SOL    HW114618   6.271   5.786   0.791
 4573SOL    HW214619   6.154   5.889   0.839
 4574SOL     OW14620   6.949   4.353   0.839
 4574SOL    HW114621   0.002   4.412   0.817
 4574SOL    HW214622   6.911   4.314   0.755
 4575SOL     OW14623   0.032   2.015   0.937
 4575SOL    HW114624   0.063   2.095   0.989
 4575SOL    HW214625   6.962   2.029   0.909
 4576SOL     OW14626   2.629   5.524   6.113
 4576SOL    HW114627   2.557   5.561   6.054
 4576SOL    HW214628   2.589   5.457   6.176
 4577SOL     OW14629   0.184   3.288   2.946
 4577SOL    HW114630   0.242   3.254   3.020
 4577SOL    HW214631   0.234   3.356   2.892
 4578SOL     OW14632   0.227   4.241   3.631
 4578SOL    HW114633   0.130   4.266   3.635
 4578SOL    HW214634   0.252   4.218   3.537
 4579SOL     OW14635   4.867   1.568   3.264
 4579SOL    HW114636   4.951   1.600   3.308
 4579SOL    HW214637   4.868   1.595   3.167
 4580SOL     OW14638   5.789   5.054   0.519
 4580SOL    HW114639   5.769   5.151   0.529
 4580SOL    HW214640   5.795   5.030   0.422
 4581SOL     OW14641   2.920   5.046   2.192
 4581SOL    HW114642   2.977   5.021   2.270
 4581SOL    HW214643   2.963   5.120   2.141
 4582SOL     OW14644   6.138   6.487   4.507
 4582SOL    HW114645   6.212   6.504   4.572
 4582SOL    HW214646   6.144   6.552   4.432
 4583SOL     OW14647   3.061   1.820   5.210
 4583SOL    HW114648   3.043   1.727   5.241
 4583SOL    HW214649   3.130   1.819   5.138
 4584SOL     OW14650   0.397   5.880   5.853
 4584SOL    HW114651   0.369   5.895   5.947
 4584SOL    HW214652   0.452   5.958   5.821
 4585SOL     OW14653   2.788   6.498   3.011
 4585SOL    HW114654   2.881   6.470   3.035
 4585SOL    HW214655   2.769   6.473   2.915
 4586SOL     OW14656   3.910   4.432   1.323
 4586SOL    HW114657   3.930   4.523   1.359
 4586SOL    HW214658   3.974   4.366   1.364
 4587SOL     OW14659   4.144   3.833   1.673
 4587SOL    HW114660   4.233   3.865   1.640
 4587SOL    HW214661   4.142   3.839   1.773
 4588SOL     OW14662   3.585   3.548   4.639
 4588SOL    HW114663   3.550   3.629   4.591
 4588SOL    HW214664   3.678   3.529   4.608
 4589SOL     OW14665   5.849   1.781   2.581
 4589SOL    HW114666   5.750   1.795   2.591
 4589SOL    HW214667   5.866   1.698   2.530
 4590SOL     OW14668   4.437   6.082   1.553
 4590SOL    HW114669   4.397   6.071   1.644
 4590SOL    HW214670   4.382   6.146   1.499
 4591SOL     OW14671   6.903   6.110   5.347
 4591SOL    HW114672   6.814   6.107   5.393
 4591SOL    HW214673   6.962   6.038   5.384
 4592SOL     OW14674   4.047   3.067   1.696
 4592SOL    HW114675   4.015   2.994   1.756
 4592SOL    HW214676   4.034   3.041   1.601
 4593SOL     OW14677   4.269   5.447   3.315
 4593SOL    HW114678   4.248   5.407   3.404
 4593SOL    HW214679   4.328   5.527   3.327
 4594SOL     OW14680   3.715   1.836   1.379
 4594SOL    HW114681   3.652   1.762   1.404
 4594SOL    HW214682   3.664   1.920   1.365
 4595SOL     OW14683   3.933   2.572   5.868
 4595SOL    HW114684   3.935   2.576   5.768
 4595SOL    HW214685   3.878   2.493   5.896
 4596SOL     OW14686   5.828   6.629   1.544
 4596SOL    HW114687   5.734   6.649   1.573
 4596SOL    HW214688   5.874   6.576   1.615
 4597SOL     OW14689   4.808   4.839   6.772
 4597SOL    HW114690   4.873   4.764   6.757
 4597SOL    HW214691   4.768   4.866   6.684
 4598SOL     OW14692   1.120   4.933   6.552
 4598SOL    HW114693   1.178   4.942   6.471
 4598SOL    HW214694   1.100   4.836   6.567
 4599SOL     OW14695   1.196   4.075   1.313
 4599SOL    HW114696   1.294   4.061   1.326
 4599SOL    HW214697   1.144   4.010   1.368
 4600SOL     OW14698   2.929   5.183   6.093
 4600SOL    HW114699   2.906   5.234   6.009
 4600SOL    HW214700   2.908   5.086   6.080
 4601SOL     OW14701   2.103   1.167   5.162
 4601SOL    HW114702   2.201   1.152   5.145
 4601SOL    HW214703   2.085   1.161   5.260
 4602SOL     OW14704   1.220   6.520   0.682
 4602SOL    HW114705   1.149   6.449   0.687
 4602SOL    HW214706   1.271   6.522   0.768
 4603SOL     OW14707   3.812   6.515   0.980
 4603SOL    HW114708   3.883   6.466   0.929
 4603SOL    HW214709   3.765   6.578   0.919
 4604SOL     OW14710   4.260   0.845   1.481
 4604SOL    HW114711   4.214   0.883   1.401
 4604SOL    HW214712   4.354   0.880   1.485
 4605SOL     OW14713   4.766   0.707   4.006
 4605SOL    HW114714   4.828   0.716   3.928
 4605SOL    HW214715   4.727   0.615   4.007
 4606SOL     OW14716   0.270   6.680   2.290
 4606SOL    HW114717   0.258   6.718   2.198
 4606SOL    HW214718   0.366   6.687   2.317
 4607SOL     OW14719   2.445   2.307   0.481
 4607SOL    HW114720   2.496   2.329   0.397
 4607SOL    HW214721   2.399   2.219   0.469
 4608SOL     OW14722   1.284   5.218   4.642
 4608SOL    HW114723   1.200   5.272   4.644
 4608SOL    HW214724   1.280   5.154   4.565
 4609SOL     OW14725   4.217   5.048   6.179
 4609SOL    HW114726   4.267   4.981   6.123
 4609SOL    HW214727   4.272   5.071   6.260
 4610SOL     OW14728   6.902   2.554   0.451
 4610SOL    HW114729   6.953   2.536   0.535
 4610SOL    HW214730   6.891   2.653   0.439
 4611SOL     OW14731   6.220   4.428   5.816
 4611SOL    HW114732   6.242   4.525   5.828
 4611SOL    HW214733   6.136   4.420   5.761
 4612SOL     OW14734   1.779   6.603   6.918
 4612SOL    HW114735   1.851   6.644   6.974
 4612SOL    HW214736   1.693   6.600   6.970
 4613SOL     OW14737   2.142   5.672   2.948
 4613SOL    HW114738   2.112   5.742   2.883
 4613SOL    HW214739   2.145   5.584   2.902
 4614SOL     OW14740   1.502   5.128   6.022
 4614SOL    HW114741   1.433   5.198   6.042
 4614SOL    HW214742   1.457   5.045   5.989
 4615SOL     OW14743   1.831   1.252   6.510
 4615SOL    HW114744   1.833   1.154   6.531
 4615SOL    HW214745   1.872   1.303   6.585
 4616SOL     OW14746   7.018   0.310   6.036
 4616SOL    HW114747   6.976   0.398   6.055
 4616SOL    HW214748   0.045   0.314   5.951
 4617SOL     OW14749   1.251   2.177   2.622
 4617SOL    HW114750   1.309   2.208   2.546
 4617SOL    HW214751   1.189   2.105   2.589
 4618SOL     OW14752   1.882   2.653   4.519
 4618SOL    HW114753   1.916   2.569   4.475
 4618SOL    HW214754   1.945   2.681   4.591
 4619SOL     OW14755   4.798   6.666   3.571
 4619SOL    HW114756   4.819   6.594   3.505
 4619SOL    HW214757   4.883   6.700   3.611
 4620SOL     OW14758   3.281   3.910   6.796
 4620SOL    HW114759   3.202   3.915   6.734
 4620SOL    HW214760   3.335   3.829   6.775
 4621SOL     OW14761   5.872   2.145   4.096
 4621SOL    HW114762   5.808   2.200   4.150
 4621SOL    HW214763   5.826   2.063   4.063
 4622SOL     OW14764   0.891   2.834   1.294
 4622SOL    HW114765   0.870   2.900   1.366
 4622SOL    HW214766   0.812   2.825   1.234
 4623SOL     OW14767   0.069   5.386   0.955
 4623SOL    HW114768   0.055   5.390   0.856
 4623SOL    HW214769   0.150   5.438   0.980
 4624SOL     OW14770   4.338   0.015   3.128
 4624SOL    HW114771   4.334   6.982   3.209
 4624SOL    HW214772   4.429   0.008   3.086
 4625SOL     OW14773   1.368   4.517   0.064
 4625SOL    HW114774   1.408   4.456   0.132
 4625SOL    HW214775   1.423   4.601   0.058
 4626SOL     OW14776   5.857   4.707   0.919
 4626SOL    HW114777   5.835   4.782   0.857
 4626SOL    HW214778   5.776   4.681   0.971
 4627SOL     OW14779   3.168   5.600   5.288
 4627SOL    HW114780   3.134   5.517   5.333
 4627SOL    HW214781   3.190   5.669   5.357
 4628SOL     OW14782   6.339   4.092   3.135
 4628SOL    HW114783   6.319   4.089   3.037
 4628SOL    HW214784   6.337   3.999   3.173
 4629SOL     OW14785   1.916   4.913   6.365
 4629SOL    HW114786   1.993   4.863   6.403
 4629SOL    HW214787   1.857   4.851   6.314
 4630SOL     OW14788   3.491   5.811   3.426
 4630SOL    HW114789   3.547   5.765   3.358
 4630SOL    HW214790   3.542   5.887   3.467
 4631SOL     OW14791   2.563   0.138   3.148
 4631SOL    HW114792   2.507   0.151   3.230
 4631SOL    HW214793   2.659   0.149   3.172
 4632SOL     OW14794   4.102   5.109   3.053
 4632SOL    HW114795   4.041   5.031   3.061
 4632SOL    HW214796   4.167   5.110   3.129
 4633SOL     OW14797   6.444   2.092   4.281
 4633SOL    HW114798   6.428   2.145   4.198
 4633SOL    HW214799   6.396   2.004   4.274
 4634SOL     OW14800   2.522   4.179   6.347
 4634SOL    HW114801   2.560   4.194   6.439
 4634SOL    HW214802   2.595   4.152   6.285
 4635SOL     OW14803   6.294   3.734   2.215
 4635SOL    HW114804   6.279   3.662   2.148
 4635SOL    HW214805   6.318   3.693   2.303
 4636SOL     OW14806   2.696   4.789   6.969
 4636SOL    HW114807   2.622   4.755   0.001
 4636SOL    HW214808   2.659   4.841   6.893
 4637SOL     OW14809   1.661   0.758   0.002
 4637SOL    HW114810   1.684   0.754   6.929
 4637SOL    HW214811   1.562   0.771   0.012
 4638SOL     OW14812   3.768   2.832   6.425
 4638SOL    HW114813   3.866   2.812   6.423
 4638SOL    HW214814   3.724   2.776   6.495
 4639SOL     OW14815   1.719   4.834   5.145
 4639SOL    HW114816   1.763   4.748   5.119
 4639SOL    HW214817   1.659   4.818   5.224
 4640SOL     OW14818   4.580   5.421   3.511
 4640SOL    HW114819   4.653   5.468   3.462
 4640SOL    HW214820   4.547   5.344   3.456
 4641SOL     OW14821   2.823   5.175   3.746
 4641SOL    HW114822   2.810   5.161   3.845
 4641SOL    HW214823   2.817   5.087   3.699
 4642SOL     OW14824   7.024   6.532   5.487
 4642SOL    HW114825   6.999   6.608   5.547
 4642SOL    HW214826   7.002   6.446   5.532
 4643SOL     OW14827   4.918   2.604   0.616
 4643SOL    HW114828   4.832   2.654   0.625
 4643SOL    HW214829   4.925   2.535   0.687
 4644SOL     OW14830   1.360   4.981   5.154
 4644SOL    HW114831   1.376   4.971   5.056
 4644SOL    HW214832   1.354   4.891   5.197
 4645SOL     OW14833   1.942   0.190   4.570
 4645SOL    HW114834   1.888   0.254   4.515
 4645SOL    HW214835   2.039   0.211   4.560
 4646SOL     OW14836   2.165   6.299   2.605
 4646SOL    HW114837   2.142   6.246   2.523
 4646SOL    HW214838   2.216   6.241   2.668
 4647SOL     OW14839   0.503   6.557   3.257
 4647SOL    HW114840   0.433   6.621   3.288
 4647SOL    HW214841   0.570   6.543   3.329
 4648SOL     OW14842   3.986   0.137   1.023
 4648SOL    HW114843   4.053   0.138   1.097
 4648SOL    HW214844   3.899   0.101   1.057
 4649SOL     OW14845   5.245   0.166   5.735
 4649SOL    HW114846   5.278   0.078   5.768
 4649SOL    HW214847   5.154   0.156   5.696
 4650SOL     OW14848   3.628   6.132   3.081
 4650SOL    HW114849   3.576   6.178   3.009
 4650SOL    HW214850   3.565   6.095   3.149
 4651SOL     OW14851   0.277   1.923   1.462
 4651SOL    HW114852   0.230   1.899   1.376
 4651SOL    HW214853   0.224   1.993   1.509
 4652SOL     OW14854   0.796   0.112   3.575
 4652SOL    HW114855   0.755   0.133   3.664
 4652SOL    HW214856   0.860   0.184   3.550
 4653SOL     OW14857   6.885   5.335   0.163
 4653SOL    HW114858   6.832   5.416   0.187
 4653SOL    HW214859   6.839   5.253   0.197
 4654SOL     OW14860   0.936   0.250   6.960
 4654SOL    HW114861   0.999   0.172   6.954
 4654SOL    HW214862   0.872   0.247   6.883
 4655SOL     OW14863   6.804   4.664   2.055
 4655SOL    HW114864   6.835   4.588   2.111
 4655SOL    HW214865   6.847   4.659   1.964
 4656SOL     OW14866   0.966   0.110   3.079
 4656SOL    HW114867   0.956   0.018   3.117
 4656SOL    HW214868   0.936   0.110   2.984
 4657SOL     OW14869   5.349   0.031   1.870
 4657SOL    HW114870   5.426   0.092   1.855
 4657SOL    HW214871   5.381   6.968   1.904
 4658SOL     OW14872   3.412   0.580   2.706
 4658SOL    HW114873   3.476   0.568   2.782
 4658SOL    HW214874   3.395   0.491   2.663
 4659SOL     OW14875   2.419   3.623   5.408
 4659SOL    HW114876   2.350   3.685   5.370
 4659SOL    HW214877   2.406   3.531   5.369
 4660SOL     OW14878   1.357   2.789   4.811
 4660SOL    HW114879   1.456   2.801   4.824
 4660SOL    HW214880   1.340   2.741   4.725
 4661SOL     OW14881   4.144   3.997   5.318
 4661SOL    HW114882   4.210   3.950   5.377
 4661SOL    HW214883   4.116   3.936   5.244
 4662SOL     OW14884   4.880   0.329   5.166
 4662SOL    HW114885   4.859   0.393   5.092
 4662SOL    HW214886   4.894   0.379   5.251
 4663SOL     OW14887   6.908   1.445   2.583
 4663SOL    HW114888   6.939   1.480   2.671
 4663SOL    HW214889   6.828   1.496   2.553
 4664SOL     OW14890   2.204   2.250   6.603
 4664SOL    HW114891   2.280   2.300   6.563
 4664SOL    HW214892   2.127   2.313   6.619
 4665SOL     OW14893   4.705   0.008   6.948
 4665SOL    HW114894   4.727   6.945   6.992
 4665SOL    HW214895   4.609   0.008   6.919
 4666SOL     OW14896   2.162   1.447   6.959
 4666SOL    HW114897   2.072   1.428   6.998
 4666SOL    HW214898   2.229   1.459   0.008
 4667SOL     OW14899   6.464   5.390   0.248
 4667SOL    HW114900   6.418   5.303   0.263
 4667SOL    HW214901   6.560   5.383   0.277
 4668SOL     OW14902   0.048   1.899   3.943
 4668SOL    HW114903   6.999   1.929   3.882
 4668SOL    HW214904   0.021   1.915   4.038
 4669SOL     OW14905   3.666   6.660   0.801
 4669SOL    HW114906   3.661   6.575   0.748
 4669SOL    HW214907   3.589   6.719   0.777
 4670SOL     OW14908   3.489   1.217   5.030
 4670SOL    HW114909   3.417   1.185   4.968
 4670SOL    HW214910   3.482   1.169   5.117
 4671SOL     OW14911   6.155   3.155   1.575
 4671SOL    HW114912   6.182   3.068   1.617
 4671SOL    HW214913   6.090   3.202   1.635
 4672SOL     OW14914   2.935   4.569   6.021
 4672SOL    HW114915   2.874   4.635   5.978
 4672SOL    HW214916   2.905   4.552   6.115
 4673SOL     OW14917   4.013   0.180   1.331
 4673SOL    HW114918   4.085   0.115   1.307
 4673SOL    HW214919   4.045   0.273   1.312
 4674SOL     OW14920   5.439   6.024   6.554
 4674SOL    HW114921   5.400   6.096   6.495
 4674SOL    HW214922   5.474   5.950   6.497
 4675SOL     OW14923   0.541   3.541   0.552
 4675SOL    HW114924   0.541   3.446   0.521
 4675SOL    HW214925   0.590   3.598   0.485
 4676SOL     OW14926   0.678   5.752   4.041
 4676SOL    HW114927   0.760   5.788   3.996
 4676SOL    HW214928   0.619   5.708   3.973
 4677SOL     OW14929   1.843   2.252   0.945
 4677SOL    HW114930   1.916   2.194   0.910
 4677SOL    HW214931   1.883   2.323   1.003
 4678SOL     OW14932   2.888   4.786   2.936
 4678SOL    HW114933   2.817   4.851   2.907
 4678SOL    HW214934   2.891   4.709   2.871
 4679SOL     OW14935   4.287   6.888   2.289
 4679SOL    HW114936   4.189   6.867   2.301
 4679SOL    HW214937   4.313   6.871   2.194
 4680SOL     OW14938   4.086   1.778   0.758
 4680SOL    HW114939   4.014   1.847   0.766
 4680SOL    HW214940   4.126   1.782   0.667
 4681SOL     OW14941   4.435   5.067   6.866
 4681SOL    HW114942   4.489   5.125   6.805
 4681SOL    HW214943   4.469   5.074   6.959
 4682SOL     OW14944   5.807   3.396   6.167
 4682SOL    HW114945   5.806   3.297   6.181
 4682SOL    HW214946   5.862   3.439   6.238
 4683SOL     OW14947   5.851   5.491   2.493
 4683SOL    HW114948   5.847   5.415   2.557
 4683SOL    HW214949   5.932   5.482   2.434
 4684SOL     OW14950   4.556   6.338   5.976
 4684SOL    HW114951   4.479   6.355   6.038
 4684SOL    HW214952   4.631   6.297   6.027
 4685SOL     OW14953   1.724   4.497   6.147
 4685SOL    HW114954   1.769   4.431   6.207
 4685SOL    HW214955   1.627   4.474   6.138
 4686SOL     OW14956   4.079   5.159   0.639
 4686SOL    HW114957   4.076   5.241   0.697
 4686SOL    HW214958   4.160   5.105   0.661
 4687SOL     OW14959   4.736   2.322   4.268
 4687SOL    HW114960   4.785   2.235   4.260
 4687SOL    HW214961   4.674   2.332   4.190
 4688SOL     OW14962   5.644   2.429   5.389
 4688SOL    HW114963   5.688   2.387   5.310
 4688SOL    HW214964   5.568   2.486   5.359
 4689SOL     OW14965   5.792   0.643   1.303
 4689SOL    HW114966   5.773   0.697   1.221
 4689SOL    HW214967   5.879   0.597   1.293
 4690SOL     OW14968   1.488   1.524   0.713
 4690SOL    HW114969   1.520   1.562   0.626
 4690SOL    HW214970   1.485   1.597   0.781
 4691SOL     OW14971   4.426   3.585   0.157
 4691SOL    HW114972   4.500   3.584   0.090
 4691SOL    HW214973   4.417   3.677   0.196
 4692SOL     OW14974   6.010   5.098   3.281
 4692SOL    HW114975   6.064   5.028   3.329
 4692SOL    HW214976   5.924   5.058   3.250
 4693SOL     OW14977   1.188   0.858   3.884
 4693SOL    HW114978   1.239   0.943   3.872
 4693SOL    HW214979   1.216   0.791   3.815
 4694SOL     OW14980   2.193   2.378   0.683
 4694SOL    HW114981   2.259   2.354   0.612
 4694SOL    HW214982   2.163   2.472   0.672
 4695SOL     OW14983   1.658   5.910   0.741
 4695SOL    HW114984   1.746   5.875   0.709
 4695SOL    HW214985   1.673   5.978   0.813
 4696SOL     OW14986   0.520   5.663   6.945
 4696SOL    HW114987   0.420   5.654   6.950
 4696SOL    HW214988   0.562   5.611   7.019
 4697SOL     OW14989   1.201   3.632   1.965
 4697SOL    HW114990   1.140   3.675   1.897
 4697SOL    HW214991   1.152   3.559   2.012
 4698SOL     OW14992   3.828   0.039   3.248
 4698SOL    HW114993   3.817   6.998   3.322
 4698SOL    HW214994   3.766   0.116   3.262
 4699SOL     OW14995   0.529   6.603   2.853
 4699SOL    HW114996   0.458   6.674   2.855
 4699SOL    HW214997   0.618   6.646   2.835
 4700SOL     OW14998   6.447   1.574   2.363
 4700SOL    HW114999   6.397   1.503   2.311
 4700SOL    HW215000   6.507   1.530   2.429
 4701SOL     OW15001   3.433   1.903   1.144
 4701SOL    HW115002   3.369   1.836   1.181
 4701SOL    HW215003   3.469   1.959   1.219
 4702SOL     OW15004   4.665   4.985   0.319
 4702SOL    HW115005   4.661   4.889   0.292
 4702SOL    HW215006   4.740   4.999   0.384
 4703SOL     OW15007   1.094   5.871   2.856
 4703SOL    HW115008   1.093   5.782   2.810
 4703SOL    HW215009   1.033   5.868   2.936
 4704SOL     OW15010   0.413   5.941   6.210
 4704SOL    HW115011   0.381   5.847   6.224
 4704SOL    HW215012   0.488   5.941   6.143
 4705SOL     OW15013   3.258   2.409   0.488
 4705SOL    HW115014   3.276   2.498   0.446
 4705SOL    HW215015   3.174   2.371   0.450
 4706SOL     OW15016   1.290   0.418   0.658
 4706SOL    HW115017   1.209   0.434   0.715
 4706SOL    HW215018   1.343   0.502   0.651
 4707SOL     OW15019   1.168   5.905   1.245
 4707SOL    HW115020   1.071   5.918   1.265
 4707SOL    HW215021   1.187   5.807   1.237
 4708SOL     OW15022   0.632   2.331   5.764
 4708SOL    HW115023   0.585   2.246   5.743
 4708SOL    HW215024   0.672   2.369   5.680
 4709SOL     OW15025   4.566   4.957   4.338
 4709SOL    HW115026   4.663   4.950   4.361
 4709SOL    HW215027   4.515   4.885   4.384
 4710SOL     OW15028   5.779   6.958   5.724
 4710SOL    HW115029   5.743   6.869   5.696
 4710SOL    HW215030   5.784   6.962   5.824
 4711SOL     OW15031   6.876   2.053   2.618
 4711SOL    HW115032   6.950   2.055   2.551
 4711SOL    HW215033   6.817   1.974   2.601
 4712SOL     OW15034   3.962   4.840   6.498
 4712SOL    HW115035   3.983   4.894   6.417
 4712SOL    HW215036   3.862   4.830   6.507
 4713SOL     OW15037   5.139   5.588   1.202
 4713SOL    HW115038   5.079   5.546   1.134
 4713SOL    HW215039   5.219   5.627   1.157
 4714SOL     OW15040   0.316   1.523   6.431
 4714SOL    HW115041   0.254   1.490   6.502
 4714SOL    HW215042   0.295   1.619   6.410
 4715SOL     OW15043   5.787   2.346   1.125
 4715SOL    HW115044   5.772   2.250   1.149
 4715SOL    HW215045   5.827   2.394   1.203
 4716SOL     OW15046   4.994   6.068   5.923
 4716SOL    HW115047   5.028   6.000   5.858
 4716SOL    HW215048   4.947   6.141   5.873
 4717SOL     OW15049   2.264   5.148   5.388
 4717SOL    HW115050   2.249   5.071   5.450
 4717SOL    HW215051   2.178   5.197   5.375
 4718SOL     OW15052   4.898   2.686   1.153
 4718SOL    HW115053   4.983   2.716   1.109
 4718SOL    HW215054   4.823   2.693   1.088
 4719SOL     OW15055   4.817   4.019   2.879
 4719SOL    HW115056   4.906   4.047   2.844
 4719SOL    HW215057   4.747   4.082   2.845
 4720SOL     OW15058   2.045   4.548   6.298
 4720SOL    HW115059   2.007   4.613   6.232
 4720SOL    HW215060   2.143   4.540   6.284
 4721SOL     OW15061   5.751   2.374   1.605
 4721SOL    HW115062   5.786   2.423   1.685
 4721SOL    HW215063   5.664   2.415   1.577
 4722SOL     OW15064   0.656   6.231   0.025
 4722SOL    HW115065   0.623   6.138   0.042
 4722SOL    HW215066   0.741   6.228   6.997
 4723SOL     OW15067   3.612   3.964   5.449
 4723SOL    HW115068   3.542   3.946   5.380
 4723SOL    HW215069   3.702   3.970   5.405
 4724SOL     OW15070   0.242   0.101   3.919
 4724SOL    HW115071   0.236   0.013   3.873
 4724SOL    HW215072   0.175   0.165   3.881
 4725SOL     OW15073   5.508   5.047   6.924
 4725SOL    HW115074   5.536   5.136   6.959
 4725SOL    HW215075   5.428   5.058   6.866
 4726SOL     OW15076   1.064   3.398   5.778
 4726SOL    HW115077   1.035   3.315   5.730
 4726SOL    HW215078   1.141   3.440   5.729
 4727SOL     OW15079   0.186   6.203   1.064
 4727SOL    HW115080   0.260   6.223   0.999
 4727SOL    HW215081   0.189   6.269   1.139
 4728SOL     OW15082   6.670   1.561   2.783
 4728SOL    HW115083   6.622   1.532   2.700
 4728SOL    HW215084   6.618   1.633   2.828
 4729SOL     OW15085   4.954   0.339   0.542
 4729SOL    HW115086   4.907   0.251   0.544
 4729SOL    HW215087   4.905   0.401   0.481
 4730SOL     OW15088   4.175   5.913   5.616
 4730SOL    HW115089   4.173   5.852   5.536
 4730SOL    HW215090   4.087   5.959   5.625
 4731SOL     OW15091   3.176   0.803   0.659
 4731SOL    HW115092   3.103   0.735   0.669
 4731SOL    HW215093   3.233   0.802   0.741
 4732SOL     OW15094   0.294   3.616   5.304
 4732SOL    HW115095   0.245   3.698   5.276
 4732SOL    HW215096   0.337   3.631   5.393
 4733SOL     OW15097   1.181   4.268   2.651
 4733SOL    HW115098   1.148   4.178   2.622
 4733SOL    HW215099   1.105   4.322   2.685
 4734SOL     OW15100   5.256   3.279   0.082
 4734SOL    HW115101   5.215   3.229   0.006
 4734SOL    HW215102   5.218   3.372   0.086
 4735SOL     OW15103   6.697   5.223   4.402
 4735SOL    HW115104   6.695   5.277   4.486
 4735SOL    HW215105   6.612   5.171   4.393
 4736SOL     OW15106   5.581   1.958   4.193
 4736SOL    HW115107   5.609   2.052   4.209
 4736SOL    HW215108   5.544   1.949   4.100
 4737SOL     OW15109   2.531   4.261   1.010
 4737SOL    HW115110   2.597   4.187   0.997
 4737SOL    HW215111   2.473   4.241   1.089
 4738SOL     OW15112   3.100   6.682   3.924
 4738SOL    HW115113   3.083   6.763   3.980
 4738SOL    HW215114   3.041   6.684   3.843
 4739SOL     OW15115   5.643   1.974   3.903
 4739SOL    HW115116   5.588   2.055   3.921
 4739SOL    HW215117   5.697   1.988   3.820
 4740SOL     OW15118   0.690   0.435   0.673
 4740SOL    HW115119   0.652   0.347   0.702
 4740SOL    HW215120   0.617   0.492   0.634
 4741SOL     OW15121   4.800   4.407   0.959
 4741SOL    HW115122   4.837   4.315   0.948
 4741SOL    HW215123   4.874   4.471   0.977
 4742SOL     OW15124   3.384   5.754   1.598
 4742SOL    HW115125   3.446   5.691   1.645
 4742SOL    HW215126   3.430   5.842   1.584
 4743SOL     OW15127   1.434   1.894   6.021
 4743SOL    HW115128   1.441   1.846   6.108
 4743SOL    HW215129   1.526   1.920   5.990
 4744SOL     OW15130   2.314   3.207   5.628
 4744SOL    HW115131   2.294   3.156   5.545
 4744SOL    HW215132   2.279   3.300   5.619
 4745SOL     OW15133   2.533   5.103   5.378
 4745SOL    HW115134   2.438   5.133   5.382
 4745SOL    HW215135   2.555   5.075   5.285
 4746SOL     OW15136   6.018   6.612   1.331
 4746SOL    HW115137   5.960   6.631   1.410
 4746SOL    HW215138   6.112   6.644   1.350
 4747SOL     OW15139   1.588   3.590   5.689
 4747SOL    HW115140   1.544   3.550   5.768
 4747SOL    HW215141   1.559   3.543   5.606
 4748SOL     OW15142   1.739   6.101   1.201
 4748SOL    HW115143   1.717   6.006   1.176
 4748SOL    HW215144   1.676   6.132   1.272
 4749SOL     OW15145   2.934   6.488   5.745
 4749SOL    HW115146   2.982   6.574   5.755
 4749SOL    HW215147   2.850   6.490   5.801
 4750SOL     OW15148   0.251   1.847   3.770
 4750SOL    HW115149   0.175   1.858   3.834
 4750SOL    HW215150   0.331   1.896   3.805
 4751SOL     OW15151   2.122   3.390   0.070
 4751SOL    HW115152   2.190   3.459   0.044
 4751SOL    HW215153   2.152   3.300   0.038
 4752SOL     OW15154   2.916   6.956   0.643
 4752SOL    HW115155   2.927   6.976   0.546
 4752SOL    HW215156   2.856   6.876   0.654
 4753SOL     OW15157   5.229   0.183   4.115
 4753SOL    HW115158   5.314   0.207   4.068
 4753SOL    HW215159   5.244   0.103   4.174
 4754SOL     OW15160   5.858   0.253   5.525
 4754SOL    HW115161   5.896   0.184   5.588
 4754SOL    HW215162   5.917   0.261   5.445
 4755SOL     OW15163   2.349   0.668   7.006
 4755SOL    HW115164   2.331   0.570   6.996
 4755SOL    HW215165   2.428   0.681   0.041
 4756SOL     OW15166   5.781   1.839   1.686
 4756SOL    HW115167   5.763   1.932   1.720
 4756SOL    HW215168   5.698   1.784   1.696
 4757SOL     OW15169   1.405   2.024   2.376
 4757SOL    HW115170   1.404   2.123   2.394
 4757SOL    HW215171   1.313   1.994   2.351
 4758SOL     OW15172   3.519   5.734   5.090
 4758SOL    HW115173   3.586   5.662   5.073
 4758SOL    HW215174   3.427   5.699   5.077
 4759SOL     OW15175   5.463   5.320   5.160
 4759SOL    HW115176   5.505   5.295   5.073
 4759SOL    HW215177   5.506   5.270   5.234
 4760SOL     OW15178   3.498   2.338   0.856
 4760SOL    HW115179   3.492   2.437   0.850
 4760SOL    HW215180   3.450   2.296   0.779
 4761SOL     OW15181   6.759   0.903   0.195
 4761SOL    HW115182   6.779   0.861   0.284
 4761SOL    HW215183   6.661   0.896   0.176
 4762SOL     OW15184   2.931   5.260   3.069
 4762SOL    HW115185   2.995   5.309   3.010
 4762SOL    HW215186   2.964   5.167   3.084
 4763SOL     OW15187   5.936   6.193   3.210
 4763SOL    HW115188   5.913   6.233   3.299
 4763SOL    HW215189   5.898   6.101   3.205
 4764SOL     OW15190   5.024   3.850   5.510
 4764SOL    HW115191   4.962   3.829   5.435
 4764SOL    HW215192   5.064   3.766   5.545
 4765SOL     OW15193   5.301   6.487   4.343
 4765SOL    HW115194   5.394   6.490   4.380
 4765SOL    HW215195   5.305   6.496   4.243
 4766SOL     OW15196   4.335   0.604   3.555
 4766SOL    HW115197   4.314   0.655   3.472
 4766SOL    HW215198   4.249   0.577   3.601
 4767SOL     OW15199   4.313   5.842   6.653
 4767SOL    HW115200   4.218   5.811   6.655
 4767SOL    HW215201   4.364   5.793   6.582
 4768SOL     OW15202   5.317   1.647   5.218
 4768SOL    HW115203   5.237   1.686   5.172
 4768SOL    HW215204   5.372   1.597   5.151
 4769SOL     OW15205   4.461   5.116   1.205
 4769SOL    HW115206   4.388   5.129   1.138
 4769SOL    HW215207   4.508   5.029   1.187
 4770SOL     OW15208   1.819   0.053   3.820
 4770SOL    HW115209   1.811   0.093   3.911
 4770SOL    HW215210   1.912   0.017   3.808
 4771SOL     OW15211   3.645   5.308   6.157
 4771SOL    HW115212   3.548   5.328   6.143
 4771SOL    HW215213   3.695   5.327   6.073
 4772SOL     OW15214   2.007   5.632   2.205
 4772SOL    HW115215   2.025   5.549   2.256
 4772SOL    HW215216   2.010   5.711   2.266
 4773SOL     OW15217   6.904   5.311   4.971
 4773SOL    HW115218   6.924   5.235   5.033
 4773SOL    HW215219   6.860   5.385   5.021
 4774SOL     OW15220   1.089   2.334   1.997
 4774SOL    HW115221   1.156   2.371   2.062
 4774SOL    HW215222   1.084   2.234   2.008
 4775SOL     OW15223   5.874   0.423   3.204
 4775SOL    HW115224   5.818   0.363   3.261
 4775SOL    HW215225   5.868   0.517   3.239
 4776SOL     OW15226   2.237   6.527   4.281
 4776SOL    HW115227   2.189   6.468   4.346
 4776SOL    HW215228   2.175   6.598   4.248
 4777SOL     OW15229   2.916   4.824   1.238
 4777SOL    HW115230   2.969   4.740   1.226
 4777SOL    HW215231   2.858   4.815   1.319
 4778SOL     OW15232   5.120   2.554   2.137
 4778SOL    HW115233   5.120   2.472   2.195
 4778SOL    HW215234   5.025   2.577   2.113
 4779SOL     OW15235   6.894   6.798   2.432
 4779SOL    HW115236   6.821   6.794   2.364
 4779SOL    HW215237   6.955   6.719   2.420
 4780SOL     OW15238   0.529   0.031   6.916
 4780SOL    HW115239   0.546   7.023   6.823
 4780SOL    HW215240   0.519   6.978   6.977
 4781SOL     OW15241   2.918   5.923   1.057
 4781SOL    HW115242   3.000   5.938   1.001
 4781SOL    HW215243   2.945   5.891   1.147
 4782SOL     OW15244   4.574   6.978   0.231
 4782SOL    HW115245   4.658   0.001   0.257
 4782SOL    HW215246   4.511   0.018   0.188
 4783SOL     OW15247   4.941   4.274   0.105
 4783SOL    HW115248   5.035   4.268   0.139
 4783SOL    HW215249   4.935   4.229   0.016
 4784SOL     OW15250   6.767   4.072   0.020
 4784SOL    HW115251   6.722   4.135   6.982
 4784SOL    HW215252   6.716   3.986   0.023
 4785SOL     OW15253   0.000   5.752   1.673
 4785SOL    HW115254   6.947   5.732   1.613
 4785SOL    HW215255   0.085   5.720   1.630
 4786SOL     OW15256   2.092   2.365   1.804
 4786SOL    HW115257   2.148   2.438   1.764
 4786SOL    HW215258   2.128   2.343   1.895
 4787SOL     OW15259   3.358   2.122   3.312
 4787SOL    HW115260   3.439   2.129   3.254
 4787SOL    HW215261   3.290   2.189   3.282
 4788SOL     OW15262   1.574   5.775   6.061
 4788SOL    HW115263   1.662   5.821   6.058
 4788SOL    HW215264   1.584   5.680   6.030
 4789SOL     OW15265   5.277   0.967   0.600
 4789SOL    HW115266   5.198   1.014   0.640
 4789SOL    HW215267   5.329   1.030   0.543
 4790SOL     OW15268   6.454   3.431   6.281
 4790SOL    HW115269   6.490   3.411   6.373
 4790SOL    HW215270   6.517   3.493   6.234
 4791SOL     OW15271   5.807   2.130   2.213
 4791SOL    HW115272   5.853   2.078   2.286
 4791SOL    HW215273   5.780   2.219   2.248
 4792SOL     OW15274   1.387   3.372   2.243
 4792SOL    HW115275   1.440   3.333   2.168
 4792SOL    HW215276   1.446   3.385   2.323
 4793SOL     OW15277   0.867   2.959   5.809
 4793SOL    HW115278   0.826   2.917   5.728
 4793SOL    HW215279   0.801   2.958   5.884
 4794SOL     OW15280   3.881   0.826   3.617
 4794SOL    HW115281   3.907   0.874   3.701
 4794SOL    HW215282   3.902   0.729   3.626
 4795SOL     OW15283   6.428   2.094   3.302
 4795SOL    HW115284   6.350   2.150   3.330
 4795SOL    HW215285   6.447   2.026   3.373
 4796SOL     OW15286   4.809   2.252   6.513
 4796SOL    HW115287   4.852   2.163   6.527
 4796SOL    HW215288   4.879   2.320   6.493
 4797SOL     OW15289   1.421   6.315   5.106
 4797SOL    HW115290   1.517   6.314   5.132
 4797SOL    HW215291   1.372   6.242   5.155
 4798SOL     OW15292   0.137   3.352   5.389
 4798SOL    HW115293   0.176   3.435   5.348
 4798SOL    HW215294   0.205   3.279   5.387
 4799SOL     OW15295   4.946   2.011   6.535
 4799SOL    HW115296   4.934   1.932   6.474
 4799SOL    HW215297   5.040   2.044   6.528
 4800SOL     OW15298   3.088   3.209   5.789
 4800SOL    HW115299   3.070   3.248   5.699
 4800SOL    HW215300   3.179   3.168   5.791
 4801SOL     OW15301   2.288   2.201   0.037
 4801SOL    HW115302   2.265   2.156   6.976
 4801SOL    HW215303   2.375   2.165   0.071
 4802SOL     OW15304   1.237   6.843   2.596
 4802SOL    HW115305   1.232   6.748   2.626
 4802SOL    HW215306   1.178   6.856   2.516
 4803SOL     OW15307   1.404   6.770   0.475
 4803SOL    HW115308   1.320   6.717   0.464
 4803SOL    HW215309   1.382   6.858   0.517
 4804SOL     OW15310   4.613   5.115   6.365
 4804SOL    HW115311   4.545   5.056   6.322
 4804SOL    HW215312   4.673   5.153   6.294
 4805SOL     OW15313   6.681   6.801   1.468
 4805SOL    HW115314   6.645   6.740   1.539
 4805SOL    HW215315   6.717   6.747   1.392
 4806SOL     OW15316   7.024   4.024   3.164
 4806SOL    HW115317   0.086   3.978   3.144
 4806SOL    HW215318   0.017   4.105   3.220
 4807SOL     OW15319   1.386   5.210   0.768
 4807SOL    HW115320   1.343   5.167   0.847
 4807SOL    HW215321   1.481   5.179   0.760
 4808SOL     OW15322   6.354   4.125   6.868
 4808SOL    HW115323   6.304   4.061   6.809
 4808SOL    HW215324   6.301   4.209   6.879
 4809SOL     OW15325   3.816   3.689   6.629
 4809SOL    HW115326   3.771   3.774   6.656
 4809SOL    HW215327   3.811   3.623   6.704
 4810SOL     OW15328   1.318   4.529   2.506
 4810SOL    HW115329   1.392   4.488   2.451
 4810SOL    HW215330   1.231   4.519   2.457
 4811SOL     OW15331   2.160   4.792   2.264
 4811SOL    HW115332   2.143   4.880   2.218
 4811SOL    HW215333   2.219   4.807   2.343
 4812SOL     OW15334   6.974   5.360   5.706
 4812SOL    HW115335   6.914   5.346   5.628
 4812SOL    HW215336   7.020   5.274   5.728
 4813SOL     OW15337   5.206   1.445   1.928
 4813SOL    HW115338   5.302   1.425   1.947
 4813SOL    HW215339   5.153   1.360   1.934
 4814SOL     OW15340   6.144   4.302   0.208
 4814SOL    HW115341   6.186   4.366   0.144
 4814SOL    HW215342   6.201   4.220   0.215
 4815SOL     OW15343   5.249   4.578   2.394
 4815SOL    HW115344   5.212   4.669   2.375
 4815SOL    HW215345   5.226   4.516   2.320
 4816SOL     OW15346   6.183   5.194   2.651
 4816SOL    HW115347   6.185   5.105   2.695
 4816SOL    HW215348   6.150   5.185   2.557
 4817SOL     OW15349   0.424   2.459   6.492
 4817SOL    HW115350   0.498   2.392   6.499
 4817SOL    HW215351   0.338   2.412   6.475
 4818SOL     OW15352   0.508   0.147   4.430
 4818SOL    HW115353   0.447   0.154   4.351
 4818SOL    HW215354   0.602   0.168   4.402
 4819SOL     OW15355   1.638   3.065   0.772
 4819SOL    HW115356   1.655   3.128   0.847
 4819SOL    HW215357   1.540   3.047   0.765
 4820SOL     OW15358   7.019   2.886   1.465
 4820SOL    HW115359   0.004   2.977   1.423
 4820SOL    HW215360   6.962   2.893   1.547
 4821SOL     OW15361   0.652   5.990   2.969
 4821SOL    HW115362   0.680   5.945   2.884
 4821SOL    HW215363   0.722   6.057   2.995
 4822SOL     OW15364   1.381   3.426   4.444
 4822SOL    HW115365   1.385   3.447   4.541
 4822SOL    HW215366   1.293   3.383   4.422
 4823SOL     OW15367   1.681   2.060   3.225
 4823SOL    HW115368   1.635   1.972   3.214
 4823SOL    HW215369   1.615   2.129   3.256
 4824SOL     OW15370   5.395   2.076   5.480
 4824SOL    HW115371   5.296   2.082   5.493
 4824SOL    HW215372   5.415   2.070   5.382
 4825SOL     OW15373   1.378   2.141   4.221
 4825SOL    HW115374   1.363   2.048   4.254
 4825SOL    HW215375   1.300   2.199   4.246
 4826SOL     OW15376   5.695   0.432   0.853
 4826SOL    HW115377   5.685   0.401   0.758
 4826SOL    HW215378   5.605   0.439   0.896
 4827SOL     OW15379   6.081   2.244   0.511
 4827SOL    HW115380   6.113   2.311   0.579
 4827SOL    HW215381   6.124   2.264   0.423
 4828SOL     OW15382   4.890   0.697   1.461
 4828SOL    HW115383   4.848   0.611   1.489
 4828SOL    HW215384   4.892   0.703   1.361
 4829SOL     OW15385   3.963   0.098   6.450
 4829SOL    HW115386   4.003   0.012   6.481
 4829SOL    HW215387   4.032   0.170   6.453
 4830SOL     OW15388   3.545   5.582   4.079
 4830SOL    HW115389   3.579   5.592   4.172
 4830SOL    HW215390   3.537   5.485   4.056
 4831SOL     OW15391   2.583   5.286   5.107
 4831SOL    HW115392   2.629   5.341   5.037
 4831SOL    HW215393   2.508   5.339   5.146
 4832SOL     OW15394   2.920   3.454   4.228
 4832SOL    HW115395   3.011   3.470   4.189
 4832SOL    HW215396   2.896   3.530   4.288
 4833SOL     OW15397   5.789   2.064   2.876
 4833SOL    HW115398   5.691   2.083   2.885
 4833SOL    HW215399   5.826   2.037   2.965
 4834SOL     OW15400   2.105   6.117   2.398
 4834SOL    HW115401   2.031   6.155   2.343
 4834SOL    HW215402   2.192   6.134   2.351
 4835SOL     OW15403   5.913   2.846   5.941
 4835SOL    HW115404   6.004   2.839   5.901
 4835SOL    HW215405   5.915   2.811   6.035
 4836SOL     OW15406   5.668   1.366   4.933
 4836SOL    HW115407   5.622   1.284   4.900
 4836SOL    HW215408   5.710   1.348   5.023
 4837SOL     OW15409   6.462   3.506   3.037
 4837SOL    HW115410   6.474   3.590   2.984
 4837SOL    HW215411   6.505   3.517   3.126
 4838SOL     OW15412   2.396   5.362   6.678
 4838SOL    HW115413   2.370   5.458   6.690
 4838SOL    HW215414   2.443   5.352   6.590
 4839SOL     OW15415   1.555   3.644   7.008
 4839SOL    HW115416   1.631   3.649   6.943
 4839SOL    HW215417   1.590   3.659   0.076
 4840SOL     OW15418   5.815   4.005   5.477
 4840SOL    HW115419   5.824   4.055   5.564
 4840SOL    HW215420   5.890   4.030   5.416
 4841SOL     OW15421   3.261   5.611   2.965
 4841SOL    HW115422   3.264   5.704   2.928
 4841SOL    HW215423   3.324   5.603   3.042
 4842SOL     OW15424   2.903   5.665   3.186
 4842SOL    HW115425   2.885   5.721   3.266
 4842SOL    HW215426   2.835   5.591   3.181
 4843SOL     OW15427   6.578   2.149   2.058
 4843SOL    HW115428   6.565   2.199   1.972
 4843SOL    HW215429   6.567   2.211   2.135
 4844SOL     OW15430   0.621   4.244   5.387
 4844SOL    HW115431   0.566   4.247   5.470
 4844SOL    HW215432   0.705   4.298   5.400
 4845SOL     OW15433   4.375   4.939   5.417
 4845SOL    HW115434   4.440   5.015   5.425
 4845SOL    HW215435   4.360   4.919   5.320
 4846SOL     OW15436   0.068   1.805   3.392
 4846SOL    HW115437   7.005   1.825   3.435
 4846SOL    HW215438   0.055   1.742   3.316
 4847SOL     OW15439   2.632   1.317   5.142
 4847SOL    HW115440   2.596   1.308   5.049
 4847SOL    HW215441   2.560   1.347   5.204
 4848SOL     OW15442   2.711   1.115   4.237
 4848SOL    HW115443   2.789   1.080   4.187
 4848SOL    HW215444   2.633   1.053   4.225
 4849SOL     OW15445   1.791   0.073   0.551
 4849SOL    HW115446   1.695   0.065   0.580
 4849SOL    HW215447   1.836   7.009   0.563
 4850SOL     OW15448   4.527   0.734   1.793
 4850SOL    HW115449   4.576   0.647   1.779
 4850SOL    HW215450   4.548   0.769   1.884
 4851SOL     OW15451   4.188   5.665   6.408
 4851SOL    HW115452   4.286   5.661   6.428
 4851SOL    HW215453   4.173   5.719   6.325
 4852SOL     OW15454   3.009   5.879   4.734
 4852SOL    HW115455   2.914   5.910   4.731
 4852SOL    HW215456   3.049   5.889   4.643
 4853SOL     OW15457   3.841   1.331   3.196
 4853SOL    HW115458   3.791   1.299   3.116
 4853SOL    HW215459   3.779   1.376   3.260
 4854SOL     OW15460   5.259   6.731   1.856
 4854SOL    HW115461   5.196   6.793   1.809
 4854SOL    HW215462   5.282   6.770   1.945
 4855SOL     OW15463   6.488   3.618   5.098
 4855SOL    HW115464   6.535   3.543   5.051
 4855SOL    HW215465   6.426   3.663   5.034
 4856SOL     OW15466   0.669   2.771   2.519
 4856SOL    HW115467   0.669   2.749   2.421
 4856SOL    HW215468   0.755   2.740   2.560
 4857SOL     OW15469   3.624   1.824   3.431
 4857SOL    HW115470   3.608   1.841   3.334
 4857SOL    HW215471   3.642   1.910   3.478
 4858SOL     OW15472   1.136   0.106   4.947
 4858SOL    HW115473   1.143   0.160   5.031
 4858SOL    HW215474   1.191   0.023   4.956
 4859SOL     OW15475   1.364   4.858   1.755
 4859SOL    HW115476   1.455   4.861   1.797
 4859SOL    HW215477   1.311   4.782   1.794
 4860SOL     OW15478   4.407   4.629   0.260
 4860SOL    HW115479   4.378   4.636   0.165
 4860SOL    HW215480   4.494   4.675   0.273
 4861SOL     OW15481   6.180   5.463   6.359
 4861SOL    HW115482   6.211   5.402   6.287
 4861SOL    HW215483   6.258   5.512   6.398
 4862SOL     OW15484   3.186   4.922   4.583
 4862SOL    HW115485   3.110   4.875   4.539
 4862SOL    HW215486   3.179   4.913   4.682
 4863SOL     OW15487   4.876   3.262   2.795
 4863SOL    HW115488   4.853   3.176   2.841
 4863SOL    HW215489   4.965   3.253   2.750
 4864SOL     OW15490   3.309   1.630   1.811
 4864SOL    HW115491   3.211   1.648   1.802
 4864SOL    HW215492   3.344   1.679   1.891
 4865SOL     OW15493   2.594   4.816   5.802
 4865SOL    HW115494   2.554   4.798   5.712
 4865SOL    HW215495   2.575   4.739   5.863
 4866SOL     OW15496   6.099   5.087   1.413
 4866SOL    HW115497   6.125   5.053   1.323
 4866SOL    HW215498   6.060   5.012   1.467
 4867SOL     OW15499   4.367   5.742   3.343
 4867SOL    HW115500   4.327   5.743   3.251
 4867SOL    HW215501   4.467   5.736   3.335
 4868SOL     OW15502   0.916   5.781   1.656
 4868SOL    HW115503   0.941   5.693   1.697
 4868SOL    HW215504   0.847   5.766   1.585
 4869SOL     OW15505   6.754   2.081   0.954
 4869SOL    HW115506   6.705   1.995   0.965
 4869SOL    HW215507   6.753   2.132   1.041
 4870SOL     OW15508   4.382   5.211   1.848
 4870SOL    HW115509   4.419   5.300   1.874
 4870SOL    HW215510   4.300   5.224   1.792
 4871SOL     OW15511   1.209   1.012   3.258
 4871SOL    HW115512   1.212   1.025   3.159
 4871SOL    HW215513   1.132   0.952   3.282
 4872SOL     OW15514   1.109   0.208   3.283
 4872SOL    HW115515   1.032   0.219   3.346
 4872SOL    HW215516   1.075   0.205   3.189
 4873SOL     OW15517   0.104   4.916   4.314
 4873SOL    HW115518   0.053   5.002   4.327
 4873SOL    HW215519   0.097   4.861   4.397
 4874SOL     OW15520   5.934   3.570   2.221
 4874SOL    HW115521   5.869   3.610   2.157
 4874SOL    HW215522   5.900   3.482   2.252
 4875SOL     OW15523   5.358   2.307   1.076
 4875SOL    HW115524   5.373   2.209   1.084
 4875SOL    HW215525   5.267   2.324   1.039
 4876SOL     OW15526   5.835   0.651   5.684
 4876SOL    HW115527   5.851   0.557   5.717
 4876SOL    HW215528   5.885   0.664   5.598
 4877SOL     OW15529   0.167   1.503   1.226
 4877SOL    HW115530   0.163   1.537   1.320
 4877SOL    HW215531   0.113   1.563   1.167
 4878SOL     OW15532   0.378   1.846   2.050
 4878SOL    HW115533   0.311   1.889   1.990
 4878SOL    HW215534   0.351   1.859   2.145
 4879SOL     OW15535   4.601   4.535   2.819
 4879SOL    HW115536   4.571   4.596   2.745
 4879SOL    HW215537   4.601   4.441   2.786
 4880SOL     OW15538   5.463   2.315   6.856
 4880SOL    HW115539   5.451   2.229   6.806
 4880SOL    HW215540   5.388   2.326   6.922
 4881SOL     OW15541   2.554   6.218   6.476
 4881SOL    HW115542   2.604   6.194   6.560
 4881SOL    HW215543   2.547   6.138   6.417
 4882SOL     OW15544   6.256   1.606   5.711
 4882SOL    HW115545   6.345   1.561   5.710
 4882SOL    HW215546   6.198   1.567   5.640
 4883SOL     OW15547   4.995   4.917   2.547
 4883SOL    HW115548   5.028   4.863   2.625
 4883SOL    HW215549   4.921   4.867   2.502
 4884SOL     OW15550   4.454   0.013   1.528
 4884SOL    HW115551   4.511   0.082   1.484
 4884SOL    HW215552   4.500   6.949   1.524
 4885SOL     OW15553   2.125   6.542   2.279
 4885SOL    HW115554   2.100   6.570   2.372
 4885SOL    HW215555   2.165   6.619   2.230
 4886SOL     OW15556   0.271   6.659   6.721
 4886SOL    HW115557   0.249   6.732   6.786
 4886SOL    HW215558   0.245   6.688   6.629
 4887SOL     OW15559   6.810   2.139   3.187
 4887SOL    HW115560   6.754   2.169   3.264
 4887SOL    HW215561   6.753   2.090   3.121
 4888SOL     OW15562   1.650   6.658   3.916
 4888SOL    HW115563   1.601   6.737   3.879
 4888SOL    HW215564   1.728   6.689   3.970
 4889SOL     OW15565   0.370   1.644   0.283
 4889SOL    HW115566   0.436   1.685   0.346
 4889SOL    HW215567   0.277   1.655   0.321
 4890SOL     OW15568   0.251   1.444   4.235
 4890SOL    HW115569   0.265   1.370   4.301
 4890SOL    HW215570   0.329   1.450   4.173
 4891SOL     OW15571   0.821   5.387   0.059
 4891SOL    HW115572   0.902   5.438   0.028
 4891SOL    HW215573   0.832   5.364   0.156
 4892SOL     OW15574   1.192   5.572   3.028
 4892SOL    HW115575   1.110   5.615   2.990
 4892SOL    HW215576   1.223   5.624   3.108
 4893SOL     OW15577   6.494   4.583   6.931
 4893SOL    HW115578   6.436   4.659   6.903
 4893SOL    HW215579   6.577   4.581   6.875
 4894SOL     OW15580   2.230   0.072   2.451
 4894SOL    HW115581   2.213   7.014   2.505
 4894SOL    HW215582   2.213   0.152   2.508
 4895SOL     OW15583   0.672   3.851   0.843
 4895SOL    HW115584   0.666   3.942   0.802
 4895SOL    HW215585   0.767   3.834   0.871
 4896SOL     OW15586   3.378   5.483   3.183
 4896SOL    HW115587   3.379   5.402   3.125
 4896SOL    HW215588   3.461   5.485   3.239
 4897SOL     OW15589   3.616   5.264   6.542
 4897SOL    HW115590   3.584   5.359   6.545
 4897SOL    HW215591   3.702   5.259   6.492
 4898SOL     OW15592   5.669   2.168   5.603
 4898SOL    HW115593   5.570   2.174   5.589
 4898SOL    HW215594   5.711   2.119   5.526
 4899SOL     OW15595   6.295   4.740   2.840
 4899SOL    HW115596   6.346   4.655   2.849
 4899SOL    HW215597   6.295   4.789   2.928
 4900SOL     OW15598   0.341   6.210   5.941
 4900SOL    HW115599   0.314   6.162   6.024
 4900SOL    HW215600   0.260   6.240   5.892
 4901SOL     OW15601   1.849   6.736   4.125
 4901SOL    HW115602   1.866   6.710   4.220
 4901SOL    HW215603   1.854   6.836   4.116
 4902SOL     OW15604   1.401   3.482   2.673
 4902SOL    HW115605   1.440   3.419   2.740
 4902SOL    HW215606   1.463   3.491   2.595
 4903SOL     OW15607   3.762   6.476   6.778
 4903SOL    HW115608   3.720   6.394   6.739
 4903SOL    HW215609   3.835   6.448   6.841
 4904SOL     OW15610   2.092   5.839   4.604
 4904SOL    HW115611   2.012   5.799   4.561
 4904SOL    HW215612   2.063   5.898   4.680
 4905SOL     OW15613   4.586   2.158   2.340
 4905SOL    HW115614   4.628   2.150   2.250
 4905SOL    HW215615   4.653   2.136   2.410
 4906SOL     OW15616   4.136   0.263   0.100
 4906SOL    HW115617   4.085   0.310   0.172
 4906SOL    HW215618   4.075   0.198   0.054
 4907SOL     OW15619   3.825   6.360   3.072
 4907SOL    HW115620   3.899   6.385   3.134
 4907SOL    HW215621   3.785   6.273   3.101
 4908SOL     OW15622   4.097   5.860   0.065
 4908SOL    HW115623   4.157   5.937   0.089
 4908SOL    HW215624   4.062   5.818   0.149
 4909SOL     OW15625   6.024   1.056   6.183
 4909SOL    HW115626   5.971   0.978   6.151
 4909SOL    HW215627   6.053   1.111   6.105
 4910SOL     OW15628   5.423   0.301   5.574
 4910SOL    HW115629   5.350   0.262   5.630
 4910SOL    HW215630   5.512   0.278   5.614
 4911SOL     OW15631   6.720   2.158   5.820
 4911SOL    HW115632   6.784   2.212   5.765
 4911SOL    HW215633   6.662   2.104   5.759
 4912SOL     OW15634   5.033   0.853   1.794
 4912SOL    HW115635   4.937   0.880   1.783
 4912SOL    HW215636   5.063   0.807   1.711
 4913SOL     OW15637   3.265   4.135   3.964
 4913SOL    HW115638   3.195   4.063   3.967
 4913SOL    HW215639   3.238   4.204   3.897
 4914SOL     OW15640   2.553   1.401   4.655
 4914SOL    HW115641   2.638   1.443   4.623
 4914SOL    HW215642   2.483   1.409   4.584
 4915SOL     OW15643   4.511   6.671   4.180
 4915SOL    HW115644   4.462   6.623   4.107
 4915SOL    HW215645   4.445   6.710   4.244
 4916SOL     OW15646   2.396   1.939   2.876
 4916SOL    HW115647   2.347   2.026   2.876
 4916SOL    HW215648   2.385   1.893   2.964
 4917SOL     OW15649   1.094   4.089   0.624
 4917SOL    HW115650   1.145   4.070   0.540
 4917SOL    HW215651   1.019   4.024   0.633
 4918SOL     OW15652   2.611   0.256   2.783
 4918SOL    HW115653   2.557   0.185   2.829
 4918SOL    HW215654   2.557   0.295   2.708
 4919SOL     OW15655   1.550   2.038   2.968
 4919SOL    HW115656   1.607   2.069   3.044
 4919SOL    HW215657   1.533   2.114   2.906
 4920SOL     OW15658   4.373   0.410   6.814
 4920SOL    HW115659   4.297   0.398   6.750
 4920SOL    HW215660   4.435   0.332   6.806
 4921SOL     OW15661   2.373   4.088   1.864
 4921SOL    HW115662   2.390   4.020   1.792
 4921SOL    HW215663   2.412   4.176   1.837
 4922SOL     OW15664   1.177   3.355   5.326
 4922SOL    HW115665   1.177   3.268   5.376
 4922SOL    HW215666   1.210   3.341   5.233
 4923SOL     OW15667   4.881   0.243   1.956
 4923SOL    HW115668   4.786   0.244   1.987
 4923SOL    HW215669   4.938   0.292   2.021
 4924SOL     OW15670   2.140   3.382   4.927
 4924SOL    HW115671   2.115   3.294   4.967
 4924SOL    HW215672   2.187   3.366   4.840
 4925SOL     OW15673   5.924   6.148   1.019
 4925SOL    HW115674   5.986   6.192   1.084
 4925SOL    HW215675   5.957   6.056   0.999
 4926SOL     OW15676   4.693   2.795   1.783
 4926SOL    HW115677   4.696   2.813   1.684
 4926SOL    HW215678   4.695   2.882   1.832
 4927SOL     OW15679   3.779   2.937   3.110
 4927SOL    HW115680   3.766   3.034   3.087
 4927SOL    HW215681   3.807   2.887   3.029
 4928SOL     OW15682   0.077   7.008   6.433
 4928SOL    HW115683   0.052   6.989   6.338
 4928SOL    HW215684   0.108   0.078   6.442
 4929SOL     OW15685   1.476   4.461   5.108
 4929SOL    HW115686   1.460   4.363   5.094
 4929SOL    HW215687   1.472   4.508   5.020
 4930SOL     OW15688   1.086   1.442   0.325
 4930SOL    HW115689   1.094   1.352   0.367
 4930SOL    HW215690   1.018   1.439   0.252
 4931SOL     OW15691   1.058   0.378   0.130
 4931SOL    HW115692   1.025   0.340   0.217
 4931SOL    HW215693   1.004   0.341   0.055
 4932SOL     OW15694   2.151   3.166   1.906
 4932SOL    HW115695   2.092   3.236   1.947
 4932SOL    HW215696   2.228   3.209   1.860
 4933SOL     OW15697   2.182   1.114   4.135
 4933SOL    HW115698   2.203   1.209   4.155
 4933SOL    HW215699   2.088   1.107   4.102
 4934SOL     OW15700   0.722   4.989   4.541
 4934SOL    HW115701   0.745   4.892   4.531
 4934SOL    HW215702   0.683   5.022   4.455
 4935SOL     OW15703   1.218   0.935   6.816
 4935SOL    HW115704   1.124   0.909   6.794
 4935SOL    HW215705   1.218   1.010   6.883
 4936SOL     OW15706   2.432   5.913   1.212
 4936SOL    HW115707   2.387   5.957   1.290
 4936SOL    HW215708   2.487   5.981   1.163
 4937SOL     OW15709   1.198   3.784   5.926
 4937SOL    HW115710   1.213   3.869   5.877
 4937SOL    HW215711   1.106   3.749   5.907
 4938SOL     OW15712   3.249   4.830   1.988
 4938SOL    HW115713   3.157   4.816   2.026
 4938SOL    HW215714   3.311   4.760   2.024
 4939SOL     OW15715   1.289   2.610   2.056
 4939SOL    HW115716   1.340   2.524   2.057
 4939SOL    HW215717   1.350   2.686   2.037
 4940SOL     OW15718   0.113   1.765   5.107
 4940SOL    HW115719   0.020   1.735   5.126
 4940SOL    HW215720   0.178   1.698   5.145
 4941SOL     OW15721   3.969   2.641   5.341
 4941SOL    HW115722   3.886   2.584   5.345
 4941SOL    HW215723   4.040   2.591   5.291
 4942SOL     OW15724   5.792   3.122   3.583
 4942SOL    HW115725   5.769   3.209   3.540
 4942SOL    HW215726   5.891   3.111   3.586
 4943SOL     OW15727   5.826   3.723   6.149
 4943SOL    HW115728   5.753   3.739   6.216
 4943SOL    HW215729   5.905   3.681   6.195
 4944SOL     OW15730   2.115   4.087   0.623
 4944SOL    HW115731   2.061   4.026   0.680
 4944SOL    HW215732   2.083   4.081   0.528
 4945SOL     OW15733   1.809   0.821   4.964
 4945SOL    HW115734   1.817   0.916   4.995
 4945SOL    HW215735   1.736   0.815   4.896
 4946SOL     OW15736   1.247   4.774   6.984
 4946SOL    HW115737   1.154   4.788   6.950
 4946SOL    HW215738   1.274   4.679   6.970
 4947SOL     OW15739   2.819   0.777   1.915
 4947SOL    HW115740   2.783   0.778   2.008
 4947SOL    HW215741   2.746   0.800   1.851
 4948SOL     OW15742   1.888   2.411   2.565
 4948SOL    HW115743   1.843   2.468   2.634
 4948SOL    HW215744   1.938   2.470   2.501
 4949SOL     OW15745   6.481   3.914   5.669
 4949SOL    HW115746   6.510   3.912   5.765
 4949SOL    HW215747   6.382   3.907   5.664
 4950SOL     OW15748   2.001   4.065   5.193
 4950SOL    HW115749   2.092   4.106   5.198
 4950SOL    HW215750   1.935   4.136   5.167
 4951SOL     OW15751   5.877   6.349   4.391
 4951SOL    HW115752   5.953   6.333   4.454
 4951SOL    HW215753   5.879   6.444   4.360
 4952SOL     OW15754   0.108   0.523   6.920
 4952SOL    HW115755   0.205   0.541   6.937
 4952SOL    HW215756   0.053   0.591   6.969
 4953SOL     OW15757   2.108   1.911   3.957
 4953SOL    HW115758   2.126   1.826   4.008
 4953SOL    HW215759   2.187   1.972   3.967
 4954SOL     OW15760   2.236   4.013   6.120
 4954SOL    HW115761   2.199   4.095   6.076
 4954SOL    HW215762   2.279   3.955   6.051
 4955SOL     OW15763   3.271   5.429   0.340
 4955SOL    HW115764   3.308   5.348   0.385
 4955SOL    HW215765   3.172   5.418   0.327
 4956SOL     OW15766   3.135   0.859   6.123
 4956SOL    HW115767   3.050   0.854   6.070
 4956SOL    HW215768   3.114   0.873   6.219
 4957SOL     OW15769   5.851   3.378   0.336
 4957SOL    HW115770   5.786   3.303   0.336
 4957SOL    HW215771   5.944   3.342   0.349
 4958SOL     OW15772   2.065   6.068   5.729
 4958SOL    HW115773   2.102   5.986   5.685
 4958SOL    HW215774   2.108   6.080   5.818
 4959SOL     OW15775   6.466   1.854   1.311
 4959SOL    HW115776   6.388   1.795   1.332
 4959SOL    HW215777   6.434   1.938   1.267
 4960SOL     OW15778   4.092   4.836   3.616
 4960SOL    HW115779   3.994   4.849   3.634
 4960SOL    HW215780   4.104   4.799   3.524
 4961SOL     OW15781   3.304   0.611   6.386
 4961SOL    HW115782   3.366   0.557   6.443
 4961SOL    HW215783   3.289   0.700   6.428
 4962SOL     OW15784   5.221   2.603   0.837
 4962SOL    HW115785   5.191   2.655   0.757
 4962SOL    HW215786   5.321   2.596   0.836
 4963SOL     OW15787   2.037   5.692   1.129
 4963SOL    HW115788   2.130   5.729   1.133
 4963SOL    HW215789   2.040   5.601   1.089
 4964SOL     OW15790   2.039   6.519   5.281
 4964SOL    HW115791   1.993   6.526   5.192
 4964SOL    HW215792   2.138   6.524   5.267
 4965SOL     OW15793   0.687   6.866   2.795
 4965SOL    HW115794   0.639   6.897   2.714
 4965SOL    HW215795   0.680   6.935   2.867
 4966SOL     OW15796   1.923   6.461   4.704
 4966SOL    HW115797   1.863   6.481   4.626
 4966SOL    HW215798   1.868   6.420   4.777
 4967SOL     OW15799   3.368   5.358   6.106
 4967SOL    HW115800   3.333   5.303   6.182
 4967SOL    HW215801   3.351   5.455   6.125
 4968SOL     OW15802   6.960   1.238   3.978
 4968SOL    HW115803   6.918   1.202   4.062
 4968SOL    HW215804   7.021   1.314   4.002
 4969SOL     OW15805   0.243   5.869   2.475
 4969SOL    HW115806   0.173   5.817   2.523
 4969SOL    HW215807   0.201   5.923   2.402
 4970SOL     OW15808   2.336   0.875   1.498
 4970SOL    HW115809   2.392   0.796   1.476
 4970SOL    HW215810   2.354   0.948   1.433
 4971SOL     OW15811   6.342   5.991   2.948
 4971SOL    HW115812   6.257   6.033   2.916
 4971SOL    HW215813   6.370   5.919   2.884
 4972SOL     OW15814   1.193   4.513   0.297
 4972SOL    HW115815   1.206   4.551   0.205
 4972SOL    HW215816   1.208   4.415   0.296
 4973SOL     OW15817   0.638   0.440   1.737
 4973SOL    HW115818   0.671   0.471   1.648
 4973SOL    HW215819   0.539   0.425   1.733
 4974SOL     OW15820   5.446   4.320   0.876
 4974SOL    HW115821   5.483   4.284   0.790
 4974SOL    HW215822   5.346   4.311   0.875
 4975SOL     OW15823   5.724   4.048   0.451
 4975SOL    HW115824   5.747   3.962   0.406
 4975SOL    HW215825   5.625   4.056   0.460
 4976SOL     OW15826   1.529   0.281   4.535
 4976SOL    HW115827   1.574   0.254   4.620
 4976SOL    HW215828   1.596   0.323   4.473
 4977SOL     OW15829   3.566   4.012   6.954
 4977SOL    HW115830   3.505   3.952   7.005
 4977SOL    HW215831   3.575   4.099   7.001
 4978SOL     OW15832   4.866   4.904   4.812
 4978SOL    HW115833   4.962   4.893   4.786
 4978SOL    HW215834   4.860   4.965   4.891
 4979SOL     OW15835   0.191   6.377   0.102
 4979SOL    HW115836   0.157   6.471   0.108
 4979SOL    HW215837   0.140   6.327   0.032
 4980SOL     OW15838   5.553   4.846   2.775
 4980SOL    HW115839   5.645   4.883   2.789
 4980SOL    HW215840   5.500   4.908   2.717
 4981SOL     OW15841   3.559   5.905   1.873
 4981SOL    HW115842   3.659   5.913   1.868
 4981SOL    HW215843   3.535   5.819   1.919
 4982SOL     OW15844   3.792   1.917   6.666
 4982SOL    HW115845   3.822   1.842   6.726
 4982SOL    HW215846   3.867   1.983   6.656
 4983SOL     OW15847   5.988   4.720   4.434
 4983SOL    HW115848   6.016   4.778   4.511
 4983SOL    HW215849   5.891   4.699   4.441
 4984SOL     OW15850   4.645   4.304   2.661
 4984SOL    HW115851   4.575   4.350   2.607
 4984SOL    HW215852   4.682   4.227   2.610
 4985SOL     OW15853   5.314   6.194   2.509
 4985SOL    HW115854   5.258   6.116   2.536
 4985SOL    HW215855   5.404   6.163   2.481
 4986SOL     OW15856   6.486   4.872   0.763
 4986SOL    HW115857   6.571   4.823   0.786
 4986SOL    HW215858   6.408   4.812   0.779
 4987SOL     OW15859   1.272   6.361   2.832
 4987SOL    HW115860   1.317   6.278   2.798
 4987SOL    HW215861   1.235   6.344   2.923
 4988SOL     OW15862   6.259   1.394   3.416
 4988SOL    HW115863   6.227   1.318   3.472
 4988SOL    HW215864   6.195   1.411   3.341
 4989SOL     OW15865   5.192   0.278   1.893
 4989SOL    HW115866   5.257   0.202   1.885
 4989SOL    HW215867   5.100   0.241   1.907
 4990SOL     OW15868   3.358   2.294   6.546
 4990SOL    HW115869   3.434   2.240   6.582
 4990SOL    HW215870   3.283   2.234   6.520
 4991SOL     OW15871   7.008   5.594   3.508
 4991SOL    HW115872   7.019   5.591   3.409
 4991SOL    HW215873   6.991   5.502   3.543
 4992SOL     OW15874   5.273   1.149   3.108
 4992SOL    HW115875   5.179   1.173   3.085
 4992SOL    HW215876   5.332   1.229   3.097
 4993SOL     OW15877   3.993   6.396   5.172
 4993SOL    HW115878   3.914   6.347   5.210
 4993SOL    HW215879   3.977   6.416   5.075
 4994SOL     OW15880   2.542   5.769   4.639
 4994SOL    HW115881   2.562   5.866   4.623
 4994SOL    HW215882   2.625   5.722   4.669
 4995SOL     OW15883   1.124   1.001   5.302
 4995SOL    HW115884   1.186   0.963   5.371
 4995SOL    HW215885   1.172   1.068   5.247
 4996SOL     OW15886   6.498   1.466   3.763
 4996SOL    HW115887   6.450   1.553   3.775
 4996SOL    HW215888   6.597   1.482   3.760
 4997SOL     OW15889   3.717   2.711   1.175
 4997SOL    HW115890   3.625   2.726   1.211
 4997SOL    HW215891   3.741   2.615   1.186
 4998SOL     OW15892   1.684   3.161   4.157
 4998SOL    HW115893   1.739   3.194   4.081
 4998SOL    HW215894   1.700   3.218   4.238
 4999SOL     OW15895   0.014   3.472   4.687
 4999SOL    HW115896   0.068   3.517   4.616
 4999SOL    HW215897   6.943   3.498   4.678
 5000SOL     OW15898   3.186   6.803   3.550
 5000SOL    HW115899   3.220   6.712   3.573
 5000SOL    HW215900   3.152   6.848   3.633
 5001SOL     OW15901   0.705   5.874   2.723
 5001SOL    HW115902   0.786   5.817   2.707
 5001SOL    HW215903   0.631   5.845   2.662
 5002SOL     OW15904   0.346   4.950   1.989
 5002SOL    HW115905   0.404   5.020   2.032
 5002SOL    HW215906   0.378   4.933   1.896
 5003SOL     OW15907   4.682   6.496   2.823
 5003SOL    HW115908   4.591   6.537   2.815
 5003SOL    HW215909   4.686   6.411   2.771
 5004SOL     OW15910   2.121   4.616   5.644
 5004SOL    HW115911   2.058   4.619   5.721
 5004SOL    HW215912   2.075   4.650   5.562
 5005SOL     OW15913   2.673   2.779   6.631
 5005SOL    HW115914   2.744   2.804   6.565
 5005SOL    HW215915   2.583   2.805   6.595
 5006SOL     OW15916   6.081   1.192   2.606
 5006SOL    HW115917   6.083   1.226   2.512
 5006SOL    HW215918   6.046   1.262   2.667
 5007SOL     OW15919   0.053   0.059   1.506
 5007SOL    HW115920   6.979   0.047   1.512
 5007SOL    HW215921   0.074   0.149   1.468
 5008SOL     OW15922   6.084   5.465   1.035
 5008SOL    HW115923   6.141   5.530   1.084
 5008SOL    HW215924   6.017   5.425   1.097
 5009SOL     OW15925   0.214   2.456   0.403
 5009SOL    HW115926   0.182   2.407   0.321
 5009SOL    HW215927   0.185   2.551   0.398
 5010SOL     OW15928   3.958   2.499   1.115
 5010SOL    HW115929   4.026   2.568   1.140
 5010SOL    HW215930   3.994   2.442   1.042
 5011SOL     OW15931   2.060   4.295   1.448
 5011SOL    HW115932   2.097   4.382   1.481
 5011SOL    HW215933   2.132   4.225   1.449
 5012SOL     OW15934   6.335   2.418   5.280
 5012SOL    HW115935   6.337   2.499   5.221
 5012SOL    HW215936   6.287   2.440   5.364
 5013SOL     OW15937   5.471   1.214   6.327
 5013SOL    HW115938   5.555   1.220   6.273
 5013SOL    HW215939   5.478   1.273   6.407
 5014SOL     OW15940   6.599   4.250   6.905
 5014SOL    HW115941   6.502   4.226   6.894
 5014SOL    HW215942   6.611   4.306   6.987
 5015SOL     OW15943   4.499   0.827   4.705
 5015SOL    HW115944   4.440   0.801   4.781
 5015SOL    HW215945   4.584   0.867   4.740
 5016SOL     OW15946   0.909   2.838   4.837
 5016SOL    HW115947   0.992   2.889   4.860
 5016SOL    HW215948   0.929   2.772   4.764
 5017SOL     OW15949   1.845   2.020   1.143
 5017SOL    HW115950   1.935   1.980   1.158
 5017SOL    HW215951   1.852   2.120   1.146
 5018SOL     OW15952   0.992   5.169   2.912
 5018SOL    HW115953   0.985   5.154   3.011
 5018SOL    HW215954   1.010   5.082   2.867
 5019SOL     OW15955   2.361   6.253   5.864
 5019SOL    HW115956   2.373   6.169   5.812
 5019SOL    HW215957   2.428   6.256   5.938
 5020SOL     OW15958   6.452   0.134   5.928
 5020SOL    HW115959   6.545   0.106   5.951
 5020SOL    HW215960   6.414   0.072   5.860
 5021SOL     OW15961   1.103   1.033   1.053
 5021SOL    HW115962   1.139   1.084   1.131
 5021SOL    HW215963   1.039   0.963   1.086
 5022SOL     OW15964   1.339   2.319   1.708
 5022SOL    HW115965   1.320   2.394   1.645
 5022SOL    HW215966   1.260   2.305   1.768
 5023SOL     OW15967   0.156   4.139   1.383
 5023SOL    HW115968   0.183   4.230   1.416
 5023SOL    HW215969   0.227   4.105   1.320
 5024SOL     OW15970   5.805   5.069   1.203
 5024SOL    HW115971   5.857   4.989   1.232
 5024SOL    HW215972   5.767   5.053   1.112
 5025SOL     OW15973   4.148   2.204   4.155
 5025SOL    HW115974   4.089   2.281   4.131
 5025SOL    HW215975   4.119   2.123   4.103
 5026SOL     OW15976   0.152   5.709   5.366
 5026SOL    HW115977   0.096   5.663   5.435
 5026SOL    HW215978   0.221   5.645   5.332
 5027SOL     OW15979   6.531   0.084   2.076
 5027SOL    HW115980   6.480   0.140   2.011
 5027SOL    HW215981   6.468   0.047   2.144
 5028SOL     OW15982   6.594   1.987   3.087
 5028SOL    HW115983   6.657   1.921   3.129
 5028SOL    HW215984   6.530   2.021   3.155
 5029SOL     OW15985   6.388   2.607   2.293
 5029SOL    HW115986   6.364   2.678   2.226
 5029SOL    HW215987   6.344   2.627   2.380
 5030SOL     OW15988   6.507   6.256   6.780
 5030SOL    HW115989   6.412   6.270   6.750
 5030SOL    HW215990   6.557   6.343   6.772
 5031SOL     OW15991   6.457   1.453   5.636
 5031SOL    HW115992   6.556   1.467   5.640
 5031SOL    HW215993   6.434   1.367   5.680
 5032SOL     OW15994   3.191   1.592   6.107
 5032SOL    HW115995   3.234   1.541   6.033
 5032SOL    HW215996   3.236   1.681   6.118
 5033SOL     OW15997   1.877   0.523   6.766
 5033SOL    HW115998   1.917   0.495   6.854
 5033SOL    HW215999   1.872   0.623   6.763
 5034SOL     OW16000   5.962   0.206   3.376
 5034SOL    HW116001   5.927   0.113   3.366
 5034SOL    HW216002   6.042   0.218   3.318
 5035SOL     OW16003   0.288   4.246   5.503
 5035SOL    HW116004   0.217   4.190   5.547
 5035SOL    HW216005   0.277   4.242   5.404
 5036SOL     OW16006   6.776   4.949   6.700
 5036SOL    HW116007   6.827   4.969   6.783
 5036SOL    HW216008   6.840   4.931   6.625
 5037SOL     OW16009   5.164   4.784   1.917
 5037SOL    HW116010   5.133   4.702   1.965
 5037SOL    HW216011   5.140   4.777   1.820
 5038SOL     OW16012   3.526   3.198   5.013
 5038SOL    HW116013   3.462   3.131   4.976
 5038SOL    HW216014   3.551   3.263   4.942
 5039SOL     OW16015   2.122   3.164   5.302
 5039SOL    HW116016   2.029   3.131   5.316
 5039SOL    HW216017   2.129   3.206   5.211
 5040SOL     OW16018   0.934   6.631   5.394
 5040SOL    HW116019   0.930   6.674   5.304
 5040SOL    HW216020   0.886   6.543   5.392
 5041SOL     OW16021   1.894   1.630   2.016
 5041SOL    HW116022   1.919   1.722   1.986
 5041SOL    HW216023   1.933   1.563   1.953
 5042SOL     OW16024   6.796   3.351   0.208
 5042SOL    HW116025   6.724   3.295   0.167
 5042SOL    HW216026   6.755   3.416   0.273
 5043SOL     OW16027   4.419   0.192   6.491
 5043SOL    HW116028   4.325   0.225   6.488
 5043SOL    HW216029   4.452   0.193   6.586
 5044SOL     OW16030   0.984   6.188   0.944
 5044SOL    HW116031   0.893   6.209   0.978
 5044SOL    HW216032   0.978   6.124   0.867
 5045SOL     OW16033   6.210   5.737   6.177
 5045SOL    HW116034   6.207   5.836   6.176
 5045SOL    HW216035   6.186   5.703   6.268
 5046SOL     OW16036   3.934   3.880   2.998
 5046SOL    HW116037   3.882   3.801   2.966
 5046SOL    HW216038   3.870   3.951   3.031
 5047SOL     OW16039   1.693   4.121   2.974
 5047SOL    HW116040   1.630   4.044   2.963
 5047SOL    HW216041   1.701   4.143   3.071
 5048SOL     OW16042   1.316   1.160   3.479
 5048SOL    HW116043   1.389   1.113   3.529
 5048SOL    HW216044   1.301   1.114   3.391
 5049SOL     OW16045   5.077   1.723   0.097
 5049SOL    HW116046   5.028   1.708   0.011
 5049SOL    HW216047   5.045   1.659   0.166
 5050SOL     OW16048   1.485   0.962   0.210
 5050SOL    HW116049   1.525   1.034   0.152
 5050SOL    HW216050   1.494   0.874   0.163
 5051SOL     OW16051   4.869   4.524   1.412
 5051SOL    HW116052   4.837   4.503   1.505
 5051SOL    HW216053   4.893   4.440   1.365
 5052SOL     OW16054   3.017   1.578   5.638
 5052SOL    HW116055   2.957   1.499   5.648
 5052SOL    HW216056   3.021   1.627   5.725
 5053SOL     OW16057   1.047   4.909   3.387
 5053SOL    HW116058   1.114   4.872   3.322
 5053SOL    HW216059   1.053   4.858   3.473
 5054SOL     OW16060   2.499   4.932   4.580
 5054SOL    HW116061   2.537   4.974   4.497
 5054SOL    HW216062   2.472   4.838   4.560
 5055SOL     OW16063   0.509   2.597   6.037
 5055SOL    HW116064   0.470   2.598   5.945
 5055SOL    HW216065   0.556   2.509   6.052
 5056SOL     OW16066   5.676   4.016   6.083
 5056SOL    HW116067   5.637   4.101   6.117
 5056SOL    HW216068   5.737   3.977   6.153
 5057SOL     OW16069   0.051   6.816   3.436
 5057SOL    HW116070   0.010   6.725   3.442
 5057SOL    HW216071   7.007   6.886   3.457
 5058SOL     OW16072   3.730   3.567   5.665
 5058SOL    HW116073   3.683   3.585   5.751
 5058SOL    HW216074   3.675   3.602   5.589
 5059SOL     OW16075   6.404   0.994   3.522
 5059SOL    HW116076   6.324   0.950   3.562
 5059SOL    HW216077   6.439   1.064   3.585
 5060SOL     OW16078   0.094   2.621   6.135
 5060SOL    HW116079   0.189   2.616   6.166
 5060SOL    HW216080   0.037   2.657   6.209
 5061SOL     OW16081   5.132   2.773   0.598
 5061SOL    HW116082   5.104   2.849   0.657
 5061SOL    HW216083   5.067   2.698   0.606
 5062SOL     OW16084   6.155   6.863   2.840
 5062SOL    HW116085   6.203   6.902   2.918
 5062SOL    HW216086   6.214   6.795   2.795
 5063SOL     OW16087   0.502   0.259   2.665
 5063SOL    HW116088   0.533   0.176   2.619
 5063SOL    HW216089   0.534   0.339   2.614
 5064SOL     OW16090   5.087   3.506   0.985
 5064SOL    HW116091   5.035   3.467   1.061
 5064SOL    HW216092   5.139   3.585   1.018
 5065SOL     OW16093   2.913   0.704   5.550
 5065SOL    HW116094   2.838   0.757   5.511
 5065SOL    HW216095   2.900   0.696   5.649
 5066SOL     OW16096   5.081   4.524   1.956
 5066SOL    HW116097   5.135   4.454   1.908
 5066SOL    HW216098   5.048   4.487   2.042
 5067SOL     OW16099   5.048   1.434   1.045
 5067SOL    HW116100   5.140   1.432   1.083
 5067SOL    HW216101   5.010   1.341   1.042
 5068SOL     OW16102   3.075   4.341   1.018
 5068SOL    HW116103   3.077   4.241   1.019
 5068SOL    HW216104   3.095   4.373   0.926
 5069SOL     OW16105   1.279   4.007   3.657
 5069SOL    HW116106   1.234   4.081   3.609
 5069SOL    HW216107   1.364   3.982   3.610
 5070SOL     OW16108   5.113   3.541   3.880
 5070SOL    HW116109   5.040   3.593   3.925
 5070SOL    HW216110   5.141   3.466   3.939
 5071SOL     OW16111   5.197   2.078   4.623
 5071SOL    HW116112   5.199   2.158   4.683
 5071SOL    HW216113   5.102   2.052   4.605
 5072SOL     OW16114   1.124   6.713   0.529
 5072SOL    HW116115   1.156   6.638   0.587
 5072SOL    HW216116   1.106   6.793   0.586
 5073SOL     OW16117   6.820   6.647   3.237
 5073SOL    HW116118   6.725   6.614   3.232
 5073SOL    HW216119   6.829   6.732   3.185
 5074SOL     OW16120   3.381   3.126   6.755
 5074SOL    HW116121   3.450   3.144   6.684
 5074SOL    HW216122   3.300   3.182   6.737
 5075SOL     OW16123   0.387   2.120   6.456
 5075SOL    HW116124   0.333   2.204   6.447
 5075SOL    HW216125   0.450   2.112   6.379
 5076SOL     OW16126   3.421   0.710   0.840
 5076SOL    HW116127   3.484   0.681   0.768
 5076SOL    HW216128   3.463   0.784   0.893
 5077SOL     OW16129   0.365   2.711   4.592
 5077SOL    HW116130   0.428   2.658   4.650
 5077SOL    HW216131   0.398   2.805   4.586
 5078SOL     OW16132   0.872   1.621   3.791
 5078SOL    HW116133   0.968   1.635   3.814
 5078SOL    HW216134   0.839   1.700   3.739
 5079SOL     OW16135   2.335   4.931   6.368
 5079SOL    HW116136   2.426   4.928   6.410
 5079SOL    HW216137   2.277   4.862   6.411
 5080SOL     OW16138   5.746   6.274   5.690
 5080SOL    HW116139   5.686   6.316   5.759
 5080SOL    HW216140   5.696   6.201   5.643
 5081SOL     OW16141   3.999   3.106   3.459
 5081SOL    HW116142   4.008   3.106   3.559
 5081SOL    HW216143   3.937   3.033   3.431
 5082SOL     OW16144   5.862   5.128   5.752
 5082SOL    HW116145   5.881   5.132   5.851
 5082SOL    HW216146   5.944   5.098   5.704
 5083SOL     OW16147   1.917   6.407   2.894
 5083SOL    HW116148   1.822   6.399   2.864
 5083SOL    HW216149   1.969   6.458   2.825
 5084SOL     OW16150   1.246   5.038   4.447
 5084SOL    HW116151   1.179   5.022   4.375
 5084SOL    HW216152   1.255   4.956   4.503
 5085SOL     OW16153   5.382   2.585   6.570
 5085SOL    HW116154   5.459   2.637   6.531
 5085SOL    HW216155   5.303   2.591   6.509
 5086SOL     OW16156   6.453   5.641   3.575
 5086SOL    HW116157   6.357   5.612   3.571
 5086SOL    HW216158   6.510   5.561   3.595
 5087SOL     OW16159   6.371   6.078   3.808
 5087SOL    HW116160   6.458   6.106   3.848
 5087SOL    HW216161   6.295   6.114   3.862
 5088SOL     OW16162   5.239   1.831   4.709
 5088SOL    HW116163   5.255   1.927   4.687
 5088SOL    HW216164   5.207   1.783   4.627
 5089SOL     OW16165   6.029   3.164   3.200
 5089SOL    HW116166   6.028   3.072   3.161
 5089SOL    HW216167   6.087   3.223   3.144
 5090SOL     OW16168   1.901   3.937   2.527
 5090SOL    HW116169   1.829   3.974   2.468
 5090SOL    HW216170   1.870   3.850   2.566
 5091SOL     OW16171   1.629   6.112   3.099
 5091SOL    HW116172   1.561   6.126   3.027
 5091SOL    HW216173   1.583   6.084   3.183
 5092SOL     OW16174   2.861   2.470   1.370
 5092SOL    HW116175   2.920   2.523   1.309
 5092SOL    HW216176   2.861   2.512   1.461
 5093SOL     OW16177   2.563   1.334   1.803
 5093SOL    HW116178   2.575   1.404   1.732
 5093SOL    HW216179   2.647   1.280   1.811
 5094SOL     OW16180   0.763   6.733   4.494
 5094SOL    HW116181   0.724   6.673   4.424
 5094SOL    HW216182   0.709   6.726   4.578
 5095SOL     OW16183   0.865   1.560   4.207
 5095SOL    HW116184   0.930   1.498   4.162
 5095SOL    HW216185   0.796   1.589   4.141
 5096SOL     OW16186   4.363   4.150   0.453
 5096SOL    HW116187   4.272   4.156   0.493
 5096SOL    HW216188   4.423   4.099   0.514
 5097SOL     OW16189   2.042   0.303   6.742
 5097SOL    HW116190   1.967   0.363   6.711
 5097SOL    HW216191   2.004   0.226   6.792
 5098SOL     OW16192   0.721   0.254   1.524
 5098SOL    HW116193   0.764   0.283   1.610
 5098SOL    HW216194   0.624   0.281   1.526
 5099SOL     OW16195   0.619   0.539   6.434
 5099SOL    HW116196   0.629   0.444   6.462
 5099SOL    HW216197   0.583   0.544   6.341
 5100SOL     OW16198   4.727   6.679   5.611
 5100SOL    HW116199   4.764   6.615   5.543
 5100SOL    HW216200   4.687   6.626   5.686
 5101SOL     OW16201   4.766   6.515   0.372
 5101SOL    HW116202   4.771   6.497   0.470
 5101SOL    HW216203   4.728   6.607   0.357
 5102SOL     OW16204   5.971   0.426   5.787
 5102SOL    HW116205   6.005   0.434   5.694
 5102SOL    HW216206   6.046   0.403   5.848
 5103SOL     OW16207   0.223   1.171   4.043
 5103SOL    HW116208   0.323   1.166   4.051
 5103SOL    HW216209   0.198   1.254   3.993
 5104SOL     OW16210   1.914   6.233   2.208
 5104SOL    HW116211   1.845   6.284   2.259
 5104SOL    HW216212   1.954   6.293   2.138
 5105SOL     OW16213   4.090   3.522   0.367
 5105SOL    HW116214   4.103   3.619   0.387
 5105SOL    HW216215   4.177   3.481   0.339
 5106SOL     OW16216   3.549   0.381   2.133
 5106SOL    HW116217   3.641   0.346   2.113
 5106SOL    HW216218   3.553   0.481   2.144
 5107SOL     OW16219   3.236   1.035   0.471
 5107SOL    HW116220   3.252   0.936   0.469
 5107SOL    HW216221   3.163   1.058   0.407
 5108SOL     OW16222   3.100   3.055   3.360
 5108SOL    HW116223   3.033   3.028   3.429
 5108SOL    HW216224   3.191   3.055   3.401
 5109SOL     OW16225   0.770   1.445   1.086
 5109SOL    HW116226   0.855   1.395   1.067
 5109SOL    HW216227   0.747   1.504   1.009
 5110SOL     OW16228   0.552   6.925   6.669
 5110SOL    HW116229   0.555   6.838   6.621
 5110SOL    HW216230   0.606   6.993   6.619
 5111SOL     OW16231   0.320   1.396   5.928
 5111SOL    HW116232   0.380   1.450   5.868
 5111SOL    HW216233   0.299   1.309   5.884
 5112SOL     OW16234   0.377   0.138   3.224
 5112SOL    HW116235   0.345   0.231   3.206
 5112SOL    HW216236   0.477   0.136   3.223
 5113SOL     OW16237   1.657   6.753   1.163
 5113SOL    HW116238   1.713   6.833   1.187
 5113SOL    HW216239   1.717   6.675   1.143
 5114SOL     OW16240   3.630   2.967   0.507
 5114SOL    HW116241   3.545   2.950   0.457
 5114SOL    HW216242   3.614   2.953   0.605
 5115SOL     OW16243   2.028   4.669   5.354
 5115SOL    HW116244   2.014   4.572   5.337
 5115SOL    HW216245   2.068   4.711   5.273
 5116SOL     OW16246   5.683   6.332   6.189
 5116SOL    HW116247   5.748   6.407   6.181
 5116SOL    HW216248   5.732   6.245   6.190
 5117SOL     OW16249   2.043   4.536   4.167
 5117SOL    HW116250   2.080   4.539   4.260
 5117SOL    HW216251   2.028   4.630   4.134
 5118SOL     OW16252   4.850   6.124   0.698
 5118SOL    HW116253   4.935   6.157   0.656
 5118SOL    HW216254   4.839   6.027   0.678
 5119SOL     OW16255   5.250   0.509   1.728
 5119SOL    HW116256   5.214   0.425   1.768
 5119SOL    HW216257   5.350   0.505   1.728
 5120SOL     OW16258   5.640   1.574   3.784
 5120SOL    HW116259   5.548   1.542   3.763
 5120SOL    HW216260   5.707   1.522   3.731
 5121SOL     OW16261   1.639   2.612   6.713
 5121SOL    HW116262   1.654   2.530   6.657
 5121SOL    HW216263   1.580   2.590   6.790
 5122SOL     OW16264   3.135   0.450   4.384
 5122SOL    HW116265   3.120   0.542   4.349
 5122SOL    HW216266   3.087   0.440   4.472
 5123SOL     OW16267   5.739   3.737   4.607
 5123SOL    HW116268   5.707   3.736   4.513
 5123SOL    HW216269   5.747   3.832   4.639
 5124SOL     OW16270   2.580   5.005   6.486
 5124SOL    HW116271   2.662   4.988   6.430
 5124SOL    HW216272   2.586   5.096   6.527
 5125SOL     OW16273   6.771   3.530   4.593
 5125SOL    HW116274   6.742   3.436   4.612
 5125SOL    HW216275   6.700   3.594   4.623
 5126SOL     OW16276   5.925   4.781   5.550
 5126SOL    HW116277   5.872   4.714   5.497
 5126SOL    HW216278   6.018   4.786   5.514
 5127SOL     OW16279   5.942   3.531   0.124
 5127SOL    HW116280   6.032   3.571   0.143
 5127SOL    HW216281   5.910   3.482   0.205
 5128SOL     OW16282   1.017   0.569   0.429
 5128SOL    HW116283   0.964   0.562   0.513
 5128SOL    HW216284   1.044   0.477   0.399
 5129SOL     OW16285   4.783   1.151   2.686
 5129SOL    HW116286   4.733   1.103   2.758
 5129SOL    HW216287   4.866   1.101   2.663
 5130SOL     OW16288   1.310   5.818   4.481
 5130SOL    HW116289   1.374   5.809   4.404
 5130SOL    HW216290   1.349   5.774   4.562
 5131SOL     OW16291   3.133   4.911   3.297
 5131SOL    HW116292   3.198   4.899   3.372
 5131SOL    HW216293   3.043   4.876   3.325
 5132SOL     OW16294   3.404   1.171   5.867
 5132SOL    HW116295   3.497   1.135   5.874
 5132SOL    HW216296   3.339   1.096   5.876
 5133SOL     OW16297   2.904   5.492   6.084
 5133SOL    HW116298   2.805   5.497   6.095
 5133SOL    HW216299   2.926   5.442   6.000
 5134SOL     OW16300   6.654   0.248   2.498
 5134SOL    HW116301   6.596   0.305   2.555
 5134SOL    HW216302   6.646   0.278   2.402
 5135SOL     OW16303   6.395   3.820   3.211
 5135SOL    HW116304   6.488   3.846   3.237
 5135SOL    HW216305   6.398   3.739   3.153
 5136SOL     OW16306   6.577   1.961   5.699
 5136SOL    HW116307   6.634   1.913   5.633
 5136SOL    HW216308   6.491   1.911   5.711
 5137SOL     OW16309   5.108   2.966   5.620
 5137SOL    HW116310   5.138   2.935   5.710
 5137SOL    HW216311   5.011   2.946   5.609
 5138SOL     OW16312   3.597   4.059   3.651
 5138SOL    HW116313   3.619   4.016   3.563
 5138SOL    HW216314   3.498   4.063   3.662
 5139SOL     OW16315   1.113   0.314   5.153
 5139SOL    HW116316   1.144   0.290   5.245
 5139SOL    HW216317   1.036   0.377   5.159
 5140SOL     OW16318   3.808   1.613   6.159
 5140SOL    HW116319   3.852   1.570   6.080
 5140SOL    HW216320   3.718   1.647   6.132
 5141SOL     OW16321   6.310   2.568   1.242
 5141SOL    HW116322   6.349   2.657   1.268
 5141SOL    HW216323   6.367   2.527   1.171
 5142SOL     OW16324   6.094   6.996   4.836
 5142SOL    HW116325   6.128   6.946   4.915
 5142SOL    HW216326   6.040   6.935   4.778
 5143SOL     OW16327   1.452   4.590   4.848
 5143SOL    HW116328   1.547   4.604   4.817
 5143SOL    HW216329   1.420   4.500   4.817
 5144SOL     OW16330   1.941   3.922   6.388
 5144SOL    HW116331   1.853   3.911   6.342
 5144SOL    HW216332   1.997   3.987   6.336
 5145SOL     OW16333   3.169   6.374   6.510
 5145SOL    HW116334   3.102   6.302   6.492
 5145SOL    HW216335   3.211   6.360   6.599
 5146SOL     OW16336   3.829   3.975   5.276
 5146SOL    HW116337   3.907   3.923   5.241
 5146SOL    HW216338   3.845   4.072   5.263
 5147SOL     OW16339   5.756   4.683   3.438
 5147SOL    HW116340   5.685   4.683   3.509
 5147SOL    HW216341   5.725   4.627   3.361
 5148SOL     OW16342   0.561   0.467   2.517
 5148SOL    HW116343   0.488   0.465   2.449
 5148SOL    HW216344   0.551   0.548   2.575
 5149SOL     OW16345   5.417   4.719   4.383
 5149SOL    HW116346   5.502   4.769   4.369
 5149SOL    HW216347   5.437   4.621   4.391
 5150SOL     OW16348   1.721   4.795   3.861
 5150SOL    HW116349   1.731   4.704   3.901
 5150SOL    HW216350   1.811   4.839   3.857
 5151SOL     OW16351   5.817   4.082   1.794
 5151SOL    HW116352   5.903   4.056   1.750
 5151SOL    HW216353   5.837   4.141   1.872
 5152SOL     OW16354   1.069   5.708   6.794
 5152SOL    HW116355   1.060   5.718   6.695
 5152SOL    HW216356   1.022   5.783   6.840
 5153SOL     OW16357   1.309   1.513   1.059
 5153SOL    HW116358   1.248   1.537   1.134
 5153SOL    HW216359   1.367   1.591   1.037
 5154SOL     OW16360   1.553   2.981   6.708
 5154SOL    HW116361   1.562   2.979   6.807
 5154SOL    HW216362   1.624   3.039   6.669
 5155SOL     OW16363   3.009   1.846   0.773
 5155SOL    HW116364   2.981   1.751   0.757
 5155SOL    HW216365   3.090   1.847   0.831
 5156SOL     OW16366   5.319   4.720   4.669
 5156SOL    HW116367   5.288   4.651   4.734
 5156SOL    HW216368   5.318   4.682   4.576
 5157SOL     OW16369   3.150   1.355   2.125
 5157SOL    HW116370   3.100   1.403   2.052
 5157SOL    HW216371   3.214   1.418   2.169
 5158SOL     OW16372   3.117   2.080   1.228
 5158SOL    HW116373   3.106   1.998   1.284
 5158SOL    HW216374   3.027   2.108   1.192
 5159SOL     OW16375   6.247   3.881   5.925
 5159SOL    HW116376   6.242   3.981   5.932
 5159SOL    HW216377   6.224   3.853   5.832
 5160SOL     OW16378   6.423   6.360   3.421
 5160SOL    HW116379   6.508   6.359   3.474
 5160SOL    HW216380   6.345   6.349   3.483
 5161SOL     OW16381   1.208   3.430   0.138
 5161SOL    HW116382   1.148   3.437   0.218
 5161SOL    HW216383   1.258   3.344   0.141
 5162SOL     OW16384   0.492   5.135   2.162
 5162SOL    HW116385   0.473   5.233   2.159
 5162SOL    HW216386   0.446   5.095   2.242
 5163SOL     OW16387   3.424   6.657   1.190
 5163SOL    HW116388   3.400   6.631   1.283
 5163SOL    HW216389   3.520   6.688   1.189
 5164SOL     OW16390   2.703   3.216   0.362
 5164SOL    HW116391   2.722   3.120   0.387
 5164SOL    HW216392   2.741   3.276   0.432
 5165SOL     OW16393   1.040   4.054   6.507
 5165SOL    HW116394   1.064   3.979   6.445
 5165SOL    HW216395   1.078   4.035   6.598
 5166SOL     OW16396   1.681   5.466   2.183
 5166SOL    HW116397   1.595   5.423   2.155
 5166SOL    HW216398   1.713   5.527   2.110
 5167SOL     OW16399   6.046   4.373   4.969
 5167SOL    HW116400   6.000   4.419   5.045
 5167SOL    HW216401   6.033   4.274   4.977
 5168SOL     OW16402   4.403   1.937   2.376
 5168SOL    HW116403   4.317   1.913   2.332
 5168SOL    HW216404   4.451   2.005   2.320
 5169SOL     OW16405   4.614   1.681   3.859
 5169SOL    HW116406   4.650   1.728   3.778
 5169SOL    HW216407   4.624   1.582   3.846
 5170SOL     OW16408   1.398   3.897   5.596
 5170SOL    HW116409   1.442   3.810   5.572
 5170SOL    HW216410   1.337   3.924   5.521
 5171SOL     OW16411   1.168   5.015   5.481
 5171SOL    HW116412   1.096   5.001   5.413
 5171SOL    HW216413   1.211   4.927   5.502
 5172SOL     OW16414   1.260   4.982   3.764
 5172SOL    HW116415   1.333   4.928   3.806
 5172SOL    HW216416   1.298   5.064   3.722
 5173SOL     OW16417   4.433   3.945   6.058
 5173SOL    HW116418   4.376   4.008   6.111
 5173SOL    HW216419   4.526   3.947   6.094
 5174SOL     OW16420   2.111   6.696   4.077
 5174SOL    HW116421   2.013   6.712   4.074
 5174SOL    HW216422   2.136   6.626   4.011
 5175SOL     OW16423   2.798   4.128   6.485
 5175SOL    HW116424   2.792   4.209   6.426
 5175SOL    HW216425   2.802   4.046   6.427
 5176SOL     OW16426   5.048   5.324   6.087
 5176SOL    HW116427   4.950   5.303   6.091
 5176SOL    HW216428   5.070   5.395   6.154
 5177SOL     OW16429   5.230   6.443   1.121
 5177SOL    HW116430   5.329   6.437   1.112
 5177SOL    HW216431   5.187   6.411   1.036
 5178SOL     OW16432   0.479   4.610   1.602
 5178SOL    HW116433   0.404   4.670   1.575
 5178SOL    HW216434   0.502   4.626   1.698
 5179SOL     OW16435   4.903   4.302   3.272
 5179SOL    HW116436   4.884   4.378   3.335
 5179SOL    HW216437   4.820   4.281   3.221
 5180SOL     OW16438   3.374   0.110   1.170
 5180SOL    HW116439   3.331   0.171   1.237
 5180SOL    HW216440   3.318   0.028   1.158
 5181SOL     OW16441   0.280   0.702   0.248
 5181SOL    HW116442   0.297   0.705   0.150
 5181SOL    HW216443   0.235   0.616   0.272
 5182SOL     OW16444   4.572   4.491   2.206
 5182SOL    HW116445   4.659   4.471   2.161
 5182SOL    HW216446   4.497   4.463   2.146
 5183SOL     OW16447   3.936   1.545   2.999
 5183SOL    HW116448   3.951   1.477   3.071
 5183SOL    HW216449   3.881   1.504   2.926
 5184SOL     OW16450   1.897   2.166   3.108
 5184SOL    HW116451   1.909   2.129   3.016
 5184SOL    HW216452   1.813   2.129   3.147
 5185SOL     OW16453   4.704   0.219   3.197
 5185SOL    HW116454   4.727   0.238   3.102
 5185SOL    HW216455   4.669   0.126   3.205
 5186SOL     OW16456   5.843   2.711   5.689
 5186SOL    HW116457   5.883   2.713   5.780
 5186SOL    HW216458   5.759   2.657   5.689
 5187SOL     OW16459   2.407   5.317   4.686
 5187SOL    HW116460   2.470   5.299   4.610
 5187SOL    HW216461   2.450   5.379   4.751
 5188SOL     OW16462   6.990   6.119   1.532
 5188SOL    HW116463   6.904   6.070   1.537
 5188SOL    HW216464   0.003   6.112   1.440
 5189SOL     OW16465   5.585   6.081   7.019
 5189SOL    HW116466   5.654   6.033   0.050
 5189SOL    HW216467   5.603   6.063   6.922
 5190SOL     OW16468   1.910   3.135   2.282
 5190SOL    HW116469   1.992   3.193   2.287
 5190SOL    HW216470   1.863   3.135   2.370
 5191SOL     OW16471   3.106   5.784   2.660
 5191SOL    HW116472   3.103   5.835   2.746
 5191SOL    HW216473   3.119   5.847   2.584
 5192SOL     OW16474   1.904   5.754   1.579
 5192SOL    HW116475   1.838   5.775   1.507
 5192SOL    HW216476   1.879   5.802   1.663
 5193SOL     OW16477   4.878   0.137   6.380
 5193SOL    HW116478   4.944   0.111   6.451
 5193SOL    HW216479   4.918   0.208   6.323
 5194SOL     OW16480   2.566   1.888   6.528
 5194SOL    HW116481   2.605   1.949   6.459
 5194SOL    HW216482   2.543   1.801   6.485
 5195SOL     OW16483   0.294   0.394   3.673
 5195SOL    HW116484   0.380   0.441   3.650
 5195SOL    HW216485   0.314   0.299   3.696
 5196SOL     OW16486   4.391   6.755   2.047
 5196SOL    HW116487   4.374   6.675   2.105
 5196SOL    HW216488   4.474   6.741   1.994
 5197SOL     OW16489   1.457   3.642   6.375
 5197SOL    HW116490   1.393   3.566   6.384
 5197SOL    HW216491   1.528   3.619   6.309
 5198SOL     OW16492   4.271   5.407   3.044
 5198SOL    HW116493   4.282   5.425   3.141
 5198SOL    HW216494   4.175   5.420   3.018
 5199SOL     OW16495   0.527   5.445   1.232
 5199SOL    HW116496   0.534   5.544   1.241
 5199SOL    HW216497   0.601   5.412   1.172
 5200SOL     OW16498   6.793   3.668   4.937
 5200SOL    HW116499   6.701   3.652   4.974
 5200SOL    HW216500   6.824   3.586   4.890
 5201SOL     OW16501   0.686   6.796   3.420
 5201SOL    HW116502   0.710   6.715   3.366
 5201SOL    HW216503   0.643   6.767   3.506
 5202SOL     OW16504   6.447   2.707   5.961
 5202SOL    HW116505   6.446   2.718   5.861
 5202SOL    HW216506   6.526   2.754   5.999
 5203SOL     OW16507   2.013   2.459   6.673
 5203SOL    HW116508   2.023   2.558   6.683
 5203SOL    HW216509   2.005   2.417   6.763
 5204SOL     OW16510   3.790   4.813   0.435
 5204SOL    HW116511   3.694   4.824   0.409
 5204SOL    HW216512   3.819   4.895   0.485
 5205SOL     OW16513   1.857   0.003   0.985
 5205SOL    HW116514   1.956   7.022   0.976
 5205SOL    HW216515   1.831   7.018   1.081
 5206SOL     OW16516   0.491   4.082   6.262
 5206SOL    HW116517   0.403   4.086   6.308
 5206SOL    HW216518   0.525   4.176   6.248
 5207SOL     OW16519   0.930   5.406   4.202
 5207SOL    HW116520   0.911   5.343   4.278
 5207SOL    HW216521   1.025   5.395   4.173
 5208SOL     OW16522   3.599   1.197   0.797
 5208SOL    HW116523   3.604   1.255   0.716
 5208SOL    HW216524   3.511   1.149   0.799
 5209SOL     OW16525   5.887   5.851   4.329
 5209SOL    HW116526   5.801   5.804   4.345
 5209SOL    HW216527   5.912   5.905   4.409
 5210SOL     OW16528   5.717   3.412   5.882
 5210SOL    HW116529   5.783   3.396   5.809
 5210SOL    HW216530   5.765   3.412   5.970
 5211SOL     OW16531   3.477   2.963   4.497
 5211SOL    HW116532   3.501   3.005   4.410
 5211SOL    HW216533   3.395   2.907   4.486
 5212SOL     OW16534   6.758   2.218   1.217
 5212SOL    HW116535   6.791   2.310   1.238
 5212SOL    HW216536   6.659   2.212   1.233
 5213SOL     OW16537   5.277   1.909   0.042
 5213SOL    HW116538   5.220   1.827   0.045
 5213SOL    HW216539   5.253   1.969   0.118
 5214SOL     OW16540   4.992   1.402   6.682
 5214SOL    HW116541   5.075   1.363   6.722
 5214SOL    HW216542   5.016   1.483   6.628
 5215SOL     OW16543   5.179   5.365   3.355
 5215SOL    HW116544   5.252   5.403   3.298
 5215SOL    HW216545   5.219   5.329   3.440
 5216SOL     OW16546   4.876   6.146   1.255
 5216SOL    HW116547   4.864   6.048   1.271
 5216SOL    HW216548   4.898   6.162   1.159
 5217SOL     OW16549   3.227   5.227   4.195
 5217SOL    HW116550   3.184   5.140   4.220
 5217SOL    HW216551   3.311   5.240   4.248
 5218SOL     OW16552   1.589   0.056   3.388
 5218SOL    HW116553   1.623   7.024   3.313
 5218SOL    HW216554   1.588   0.152   3.360
 5219SOL     OW16555   3.767   0.536   6.553
 5219SOL    HW116556   3.737   0.444   6.579
 5219SOL    HW216557   3.769   0.594   6.635
 5220SOL     OW16558   1.476   5.350   2.891
 5220SOL    HW116559   1.402   5.313   2.949
 5220SOL    HW216560   1.436   5.411   2.822
 5221SOL     OW16561   5.606   2.407   4.581
 5221SOL    HW116562   5.687   2.466   4.585
 5221SOL    HW216563   5.547   2.427   4.659
 5222SOL     OW16564   2.663   0.257   4.381
 5222SOL    HW116565   2.751   0.233   4.422
 5222SOL    HW216566   2.678   0.315   4.301
 5223SOL     OW16567   4.776   0.947   1.480
 5223SOL    HW116568   4.780   0.997   1.393
 5223SOL    HW216569   4.841   0.872   1.479
 5224SOL     OW16570   7.020   1.612   3.208
 5224SOL    HW116571   6.929   1.586   3.175
 5224SOL    HW216572   0.059   1.615   3.131
 5225SOL     OW16573   6.643   0.991   3.369
 5225SOL    HW116574   6.547   0.995   3.395
 5225SOL    HW216575   6.700   1.006   3.449
 5226SOL     OW16576   0.309   6.104   5.408
 5226SOL    HW116577   0.367   6.102   5.326
 5226SOL    HW216578   0.336   6.182   5.465
 5227SOL     OW16579   1.447   4.897   3.945
 5227SOL    HW116580   1.467   4.945   4.031
 5227SOL    HW216581   1.527   4.843   3.918
 5228SOL     OW16582   6.221   2.713   0.977
 5228SOL    HW116583   6.146   2.699   1.041
 5228SOL    HW216584   6.279   2.632   0.975
 5229SOL     OW16585   1.469   4.413   6.851
 5229SOL    HW116586   1.565   4.441   6.846
 5229SOL    HW216587   1.426   4.457   6.931
 5230SOL     OW16588   0.404   0.055   0.833
 5230SOL    HW116589   0.409   0.057   0.933
 5230SOL    HW216590   0.457   7.002   0.799
 5231SOL     OW16591   2.957   3.354   4.537
 5231SOL    HW116592   2.943   3.297   4.456
 5231SOL    HW216593   2.910   3.441   4.525
 5232SOL     OW16594   3.184   2.075   6.442
 5232SOL    HW116595   3.159   2.059   6.346
 5232SOL    HW216596   3.112   2.040   6.501
 5233SOL     OW16597   6.808   0.040   1.397
 5233SOL    HW116598   6.787   0.068   1.303
 5233SOL    HW216599   6.771   6.973   1.413
 5234SOL     OW16600   3.087   0.276   6.626
 5234SOL    HW116601   3.034   0.206   6.672
 5234SOL    HW216602   3.083   0.263   6.527
 5235SOL     OW16603   1.698   3.021   1.207
 5235SOL    HW116604   1.760   2.955   1.165
 5235SOL    HW216605   1.716   3.112   1.169
 5236SOL     OW16606   5.811   2.791   1.809
 5236SOL    HW116607   5.874   2.869   1.809
 5236SOL    HW216608   5.722   2.821   1.843
 5237SOL     OW16609   2.410   1.722   5.340
 5237SOL    HW116610   2.509   1.719   5.356
 5237SOL    HW216611   2.367   1.783   5.407
 5238SOL     OW16612   2.254   5.009   0.371
 5238SOL    HW116613   2.161   4.975   0.356
 5238SOL    HW216614   2.251   5.108   0.386
 5239SOL     OW16615   3.879   3.817   3.538
 5239SOL    HW116616   3.884   3.913   3.564
 5239SOL    HW216617   3.936   3.801   3.458
 5240SOL     OW16618   2.967   2.187   5.806
 5240SOL    HW116619   2.961   2.167   5.708
 5240SOL    HW216620   3.060   2.169   5.838
 5241SOL     OW16621   1.472   5.959   6.468
 5241SOL    HW116622   1.395   5.920   6.417
 5241SOL    HW216623   1.481   6.056   6.446
 5242SOL     OW16624   6.200   6.593   5.492
 5242SOL    HW116625   6.119   6.604   5.435
 5242SOL    HW216626   6.224   6.681   5.533
 5243SOL     OW16627   1.932   6.318   1.472
 5243SOL    HW116628   1.962   6.289   1.381
 5243SOL    HW216629   1.945   6.417   1.481
 5244SOL     OW16630   4.338   3.708   5.936
 5244SOL    HW116631   4.349   3.801   5.971
 5244SOL    HW216632   4.281   3.655   5.999
 5245SOL     OW16633   4.273   4.474   6.756
 5245SOL    HW116634   4.290   4.376   6.745
 5245SOL    HW216635   4.182   4.497   6.721
 5246SOL     OW16636   5.765   4.463   2.897
 5246SOL    HW116637   5.759   4.384   2.837
 5246SOL    HW216638   5.726   4.543   2.851
 5247SOL     OW16639   1.759   5.918   0.337
 5247SOL    HW116640   1.699   5.938   0.414
 5247SOL    HW216641   1.708   5.869   0.266
 5248SOL     OW16642   6.006   0.733   5.891
 5248SOL    HW116643   5.938   0.695   5.828
 5248SOL    HW216644   5.996   0.690   5.981
 5249SOL     OW16645   0.684   5.620   5.094
 5249SOL    HW116646   0.694   5.657   5.002
 5249SOL    HW216647   0.587   5.624   5.120
 5250SOL     OW16648   6.754   1.461   5.799
 5250SOL    HW116649   6.809   1.378   5.787
 5250SOL    HW216650   6.764   1.494   5.893
 5251SOL     OW16651   0.485   2.874   1.278
 5251SOL    HW116652   0.464   2.850   1.373
 5251SOL    HW216653   0.407   2.922   1.237
 5252SOL     OW16654   1.900   5.733   0.722
 5252SOL    HW116655   1.930   5.639   0.741
 5252SOL    HW216656   1.958   5.772   0.650
 5253SOL     OW16657   5.122   3.622   5.621
 5253SOL    HW116658   5.159   3.579   5.538
 5253SOL    HW216659   5.064   3.557   5.669
 5254SOL     OW16660   5.486   1.706   3.557
 5254SOL    HW116661   5.417   1.666   3.496
 5254SOL    HW216662   5.441   1.754   3.632
 5255SOL     OW16663   4.224   6.885   4.728
 5255SOL    HW116664   4.216   6.826   4.809
 5255SOL    HW216665   4.277   6.967   4.751
 5256SOL     OW16666   4.950   1.193   3.248
 5256SOL    HW116667   4.942   1.248   3.164
 5256SOL    HW216668   5.029   1.225   3.300
 5257SOL     OW16669   4.296   0.231   2.108
 5257SOL    HW116670   4.340   0.300   2.051
 5257SOL    HW216671   4.278   0.149   2.054
 5258SOL     OW16672   4.982   4.005   1.653
 5258SOL    HW116673   4.909   3.939   1.637
 5258SOL    HW216674   4.960   4.060   1.734
 5259SOL     OW16675   4.420   6.247   0.990
 5259SOL    HW116676   4.475   6.317   1.036
 5259SOL    HW216677   4.325   6.254   1.020
 5260SOL     OW16678   5.342   2.912   0.909
 5260SOL    HW116679   5.249   2.877   0.921
 5260SOL    HW216680   5.338   3.009   0.883
 5261SOL     OW16681   1.057   3.033   6.007
 5261SOL    HW116682   1.053   2.975   6.088
 5261SOL    HW216683   0.999   2.995   5.935
 5262SOL     OW16684   2.645   0.113   2.482
 5262SOL    HW116685   2.591   0.029   2.472
 5262SOL    HW216686   2.725   0.108   2.423
 5263SOL     OW16687   1.011   0.398   6.281
 5263SOL    HW116688   0.937   0.396   6.214
 5263SOL    HW216689   1.007   0.317   6.339
 5264SOL     OW16690   6.116   0.819   1.842
 5264SOL    HW116691   6.091   0.754   1.770
 5264SOL    HW216692   6.045   0.820   1.912
 5265SOL     OW16693   5.055   4.347   2.472
 5265SOL    HW116694   5.125   4.382   2.411
 5265SOL    HW216695   5.072   4.250   2.492
 5266SOL     OW16696   2.357   6.415   1.689
 5266SOL    HW116697   2.314   6.332   1.727
 5266SOL    HW216698   2.386   6.397   1.595
 5267SOL     OW16699   4.753   4.374   5.995
 5267SOL    HW116700   4.693   4.439   6.041
 5267SOL    HW216701   4.812   4.329   6.062
 5268SOL     OW16702   0.027   5.601   5.623
 5268SOL    HW116703   0.003   5.506   5.644
 5268SOL    HW216704   0.011   5.657   5.704
 5269SOL     OW16705   2.404   5.988   3.887
 5269SOL    HW116706   2.416   6.023   3.794
 5269SOL    HW216707   2.494   5.970   3.927
 5270SOL     OW16708   4.283   2.080   1.914
 5270SOL    HW116709   4.311   2.150   1.848
 5270SOL    HW216710   4.192   2.103   1.949
 5271SOL     OW16711   4.463   5.227   4.349
 5271SOL    HW116712   4.367   5.233   4.322
 5271SOL    HW216713   4.490   5.131   4.359
 5272SOL     OW16714   1.466   5.789   3.495
 5272SOL    HW116715   1.529   5.740   3.555
 5272SOL    HW216716   1.438   5.874   3.539
 5273SOL     OW16717   0.672   2.967   3.034
 5273SOL    HW116718   0.721   2.888   2.998
 5273SOL    HW216719   0.714   3.051   3.000
 5274SOL     OW16720   6.293   4.879   3.076
 5274SOL    HW116721   6.194   4.893   3.078
 5274SOL    HW216722   6.340   4.967   3.084
 5275SOL     OW16723   3.147   1.575   6.373
 5275SOL    HW116724   3.153   1.596   6.275
 5275SOL    HW216725   3.056   1.539   6.394
 5276SOL     OW16726   0.241   5.921   0.678
 5276SOL    HW116727   0.241   5.994   0.610
 5276SOL    HW216728   0.334   5.884   0.687
 5277SOL     OW16729   1.716   2.481   2.763
 5277SOL    HW116730   1.733   2.426   2.845
 5277SOL    HW216731   1.653   2.432   2.703
 5278SOL     OW16732   5.399   6.887   5.210
 5278SOL    HW116733   5.436   6.946   5.282
 5278SOL    HW216734   5.335   6.940   5.154
 5279SOL     OW16735   1.705   6.325   7.015
 5279SOL    HW116736   1.727   6.241   0.039
 5279SOL    HW216737   1.736   6.318   6.920
 5280SOL     OW16738   3.486   5.621   5.561
 5280SOL    HW116739   3.467   5.524   5.546
 5280SOL    HW216740   3.585   5.637   5.560
 5281SOL     OW16741   1.710   1.357   3.839
 5281SOL    HW116742   1.622   1.402   3.848
 5281SOL    HW216743   1.764   1.402   3.767
 5282SOL     OW16744   1.811   0.052   1.753
 5282SOL    HW116745   1.906   0.037   1.782
 5282SOL    HW216746   1.775   0.132   1.801
 5283SOL     OW16747   1.725   0.301   3.233
 5283SOL    HW116748   1.796   0.238   3.202
 5283SOL    HW216749   1.654   0.307   3.163
 5284SOL     OW16750   4.708   2.767   3.589
 5284SOL    HW116751   4.662   2.818   3.662
 5284SOL    HW216752   4.756   2.832   3.529
 5285SOL     OW16753   0.571   3.482   4.358
 5285SOL    HW116754   0.529   3.530   4.281
 5285SOL    HW216755   0.612   3.549   4.420
 5286SOL     OW16756   6.705   3.372   1.047
 5286SOL    HW116757   6.731   3.332   1.134
 5286SOL    HW216758   6.786   3.386   0.990
 5287SOL     OW16759   3.084   5.577   1.383
 5287SOL    HW116760   3.018   5.523   1.436
 5287SOL    HW216761   3.123   5.647   1.442
 5288SOL     OW16762   3.590   0.264   2.598
 5288SOL    HW116763   3.500   0.304   2.579
 5288SOL    HW216764   3.597   0.174   2.556
 5289SOL     OW16765   2.123   5.518   5.812
 5289SOL    HW116766   2.178   5.463   5.874
 5289SOL    HW216767   2.081   5.460   5.743
 5290SOL     OW16768   1.822   3.675   5.277
 5290SOL    HW116769   1.773   3.758   5.305
 5290SOL    HW216770   1.877   3.641   5.354
 5291SOL     OW16771   3.280   4.511   6.340
 5291SOL    HW116772   3.191   4.465   6.345
 5291SOL    HW216773   3.347   4.449   6.300
 5292SOL     OW16774   5.891   4.393   5.845
 5292SOL    HW116775   5.892   4.374   5.747
 5292SOL    HW216776   5.924   4.486   5.862
 5293SOL     OW16777   2.420   6.813   4.988
 5293SOL    HW116778   2.446   6.852   4.900
 5293SOL    HW216779   2.502   6.805   5.046
 5294SOL     OW16780   4.948   2.141   5.672
 5294SOL    HW116781   4.966   2.053   5.628
 5294SOL    HW216782   4.996   2.145   5.760
 5295SOL     OW16783   3.699   1.251   2.700
 5295SOL    HW116784   3.698   1.264   2.799
 5295SOL    HW216785   3.606   1.239   2.666
 5296SOL     OW16786   3.150   4.281   6.963
 5296SOL    HW116787   3.090   4.207   6.934
 5296SOL    HW216788   3.129   4.364   6.912
 5297SOL     OW16789   1.475   3.869   0.400
 5297SOL    HW116790   1.549   3.934   0.414
 5297SOL    HW216791   1.512   3.779   0.381
 5298SOL     OW16792   1.298   5.999   0.173
 5298SOL    HW116793   1.374   5.979   0.112
 5298SOL    HW216794   1.212   5.991   0.123
 5299SOL     OW16795   2.853   2.728   1.007
 5299SOL    HW116796   2.884   2.813   0.963
 5299SOL    HW216797   2.758   2.738   1.036
 5300SOL     OW16798   0.546   5.897   0.994
 5300SOL    HW116799   0.480   5.942   1.053
 5300SOL    HW216800   0.602   5.966   0.948
 5301SOL     OW16801   4.116   1.557   6.435
 5301SOL    HW116802   4.077   1.649   6.428
 5301SOL    HW216803   4.164   1.535   6.350
 5302SOL     OW16804   6.244   5.835   3.722
 5302SOL    HW116805   6.269   5.927   3.750
 5302SOL    HW216806   6.322   5.773   3.738
 5303SOL     OW16807   0.320   5.207   4.524
 5303SOL    HW116808   0.346   5.139   4.593
 5303SOL    HW216809   0.223   5.229   4.534
 5304SOL     OW16810   6.058   0.632   0.878
 5304SOL    HW116811   6.149   0.673   0.878
 5304SOL    HW216812   6.065   0.535   0.855
 5305SOL     OW16813   0.473   4.742   3.359
 5305SOL    HW116814   0.444   4.686   3.281
 5305SOL    HW216815   0.495   4.834   3.327
 5306SOL     OW16816   1.051   4.663   5.019
 5306SOL    HW116817   1.033   4.659   5.117
 5306SOL    HW216818   1.132   4.720   5.003
 5307SOL     OW16819   4.175   1.742   0.164
 5307SOL    HW116820   4.262   1.753   0.116
 5307SOL    HW216821   4.162   1.645   0.187
 5308SOL     OW16822   1.152   4.573   2.747
 5308SOL    HW116823   1.204   4.550   2.830
 5308SOL    HW216824   1.213   4.571   2.668
 5309SOL     OW16825   4.021   4.721   1.891
 5309SOL    HW116826   4.033   4.647   1.825
 5309SOL    HW216827   3.939   4.773   1.870
 5310SOL     OW16828   5.981   3.419   1.660
 5310SOL    HW116829   6.043   3.375   1.725
 5310SOL    HW216830   6.026   3.498   1.619
 5311SOL     OW16831   6.733   0.058   0.031
 5311SOL    HW116832   6.753   7.002   7.000
 5311SOL    HW216833   6.751   0.141   7.002
 5312SOL     OW16834   1.104   5.486   1.450
 5312SOL    HW116835   1.059   5.412   1.399
 5312SOL    HW216836   1.059   5.497   1.538
 5313SOL     OW16837   1.322   3.077   6.089
 5313SOL    HW116838   1.306   3.063   6.187
 5313SOL    HW216839   1.235   3.086   6.042
 5314SOL     OW16840   3.828   6.626   0.356
 5314SOL    HW116841   3.923   6.606   0.331
 5314SOL    HW216842   3.806   6.720   0.331
 5315SOL     OW16843   4.935   3.428   1.828
 5315SOL    HW116844   4.997   3.429   1.750
 5315SOL    HW216845   4.872   3.351   1.820
 5316SOL     OW16846   1.207   3.390   5.014
 5316SOL    HW116847   1.150   3.470   4.994
 5316SOL    HW216848   1.148   3.310   5.029
 5317SOL     OW16849   6.038   1.550   5.106
 5317SOL    HW116850   5.970   1.495   5.154
 5317SOL    HW216851   6.083   1.494   5.036
 5318SOL     OW16852   0.838   2.566   0.046
 5318SOL    HW116853   0.901   2.542   0.121
 5318SOL    HW216854   0.754   2.603   0.085
 5319SOL     OW16855   4.225   6.130   0.087
 5319SOL    HW116856   4.222   6.149   0.185
 5319SOL    HW216857   4.321   6.119   0.059
 5320SOL     OW16858   4.550   4.781   0.559
 5320SOL    HW116859   4.588   4.737   0.641
 5320SOL    HW216860   4.475   4.727   0.523
 5321SOL     OW16861   2.016   5.187   4.564
 5321SOL    HW116862   1.988   5.153   4.474
 5321SOL    HW216863   2.090   5.130   4.599
 5322SOL     OW16864   5.642   6.059   6.731
 5322SOL    HW116865   5.668   6.147   6.692
 5322SOL    HW216866   5.593   6.005   6.663
 5323SOL     OW16867   4.255   1.469   6.648
 5323SOL    HW116868   4.198   1.476   6.566
 5323SOL    HW216869   4.280   1.561   6.678
 5324SOL     OW16870   2.969   2.223   0.679
 5324SOL    HW116871   2.916   2.307   0.673
 5324SOL    HW216872   2.987   2.189   0.586
 5325SOL     OW16873   4.437   0.232   4.396
 5325SOL    HW116874   4.350   0.240   4.445
 5325SOL    HW216875   4.512   0.264   4.455
 5326SOL     OW16876   6.401   5.135   3.029
 5326SOL    HW116877   6.465   5.126   2.953
 5326SOL    HW216878   6.331   5.202   3.006
 5327SOL     OW16879   5.590   2.612   5.648
 5327SOL    HW116880   5.608   2.526   5.601
 5327SOL    HW216881   5.518   2.662   5.600
 5328SOL     OW16882   3.783   3.270   5.109
 5328SOL    HW116883   3.795   3.333   5.032
 5328SOL    HW216884   3.693   3.227   5.102
 5329SOL     OW16885   0.227   4.251   6.844
 5329SOL    HW116886   0.235   4.177   6.910
 5329SOL    HW216887   0.314   4.262   6.795
 5330SOL     OW16888   3.851   4.222   6.676
 5330SOL    HW116889   3.896   4.216   6.587
 5330SOL    HW216890   3.757   4.252   6.664
 5331SOL     OW16891   5.188   1.131   0.281
 5331SOL    HW116892   5.266   1.169   0.330
 5331SOL    HW216893   5.170   1.038   0.312
 5332SOL     OW16894   0.682   2.800   1.111
 5332SOL    HW116895   0.599   2.842   1.147
 5332SOL    HW216896   0.670   2.700   1.108
 5333SOL     OW16897   0.646   0.300   3.332
 5333SOL    HW116898   0.636   0.204   3.356
 5333SOL    HW216899   0.575   0.353   3.378
 5334SOL     OW16900   2.959   0.119   4.466
 5334SOL    HW116901   2.933   0.040   4.522
 5334SOL    HW216902   2.985   0.087   4.374
 5335SOL     OW16903   6.723   6.094   1.670
 5335SOL    HW116904   6.679   6.091   1.580
 5335SOL    HW216905   6.659   6.129   1.737
 5336SOL     OW16906   1.697   3.197   3.286
 5336SOL    HW116907   1.683   3.136   3.208
 5336SOL    HW216908   1.747   3.278   3.255
 5337SOL     OW16909   5.023   4.094   1.234
 5337SOL    HW116910   4.979   4.016   1.279
 5337SOL    HW216911   4.965   4.175   1.244
 5338SOL     OW16912   6.199   1.540   6.931
 5338SOL    HW116913   6.190   1.604   6.855
 5338SOL    HW216914   6.251   1.460   6.901
 5339SOL     OW16915   6.507   2.167   4.031
 5339SOL    HW116916   6.574   2.222   3.981
 5339SOL    HW216917   6.521   2.070   4.011
 5340SOL     OW16918   4.878   4.131   0.888
 5340SOL    HW116919   4.951   4.063   0.897
 5340SOL    HW216920   4.795   4.097   0.933
 5341SOL     OW16921   3.176   2.860   6.242
 5341SOL    HW116922   3.209   2.885   6.334
 5341SOL    HW216923   3.077   2.850   6.244
 5342SOL     OW16924   2.964   6.881   4.083
 5342SOL    HW116925   2.982   6.815   4.156
 5342SOL    HW216926   2.904   6.953   4.117
 5343SOL     OW16927   3.919   3.952   4.170
 5343SOL    HW116928   3.893   4.032   4.117
 5343SOL    HW216929   3.959   3.982   4.257
 5344SOL     OW16930   2.178   3.152   2.668
 5344SOL    HW116931   2.206   3.067   2.713
 5344SOL    HW216932   2.170   3.225   2.737
 5345SOL     OW16933   3.658   6.408   1.428
 5345SOL    HW116934   3.589   6.351   1.384
 5345SOL    HW216935   3.619   6.450   1.510
 5346SOL     OW16936   3.261   6.188   4.072
 5346SOL    HW116937   3.257   6.288   4.068
 5346SOL    HW216938   3.175   6.150   4.036
 5347SOL     OW16939   0.830   2.329   1.785
 5347SOL    HW116940   0.913   2.276   1.769
 5347SOL    HW216941   0.852   2.413   1.834
 5348SOL     OW16942   0.305   2.402   0.988
 5348SOL    HW116943   0.324   2.384   0.892
 5348SOL    HW216944   0.325   2.498   1.008
 5349SOL     OW16945   1.827   2.688   0.323
 5349SOL    HW116946   1.756   2.635   0.276
 5349SOL    HW216947   1.867   2.632   0.396
 5350SOL     OW16948   2.162   0.226   5.261
 5350SOL    HW116949   2.080   0.173   5.240
 5350SOL    HW216950   2.214   0.180   5.334
 5351SOL     OW16951   6.156   6.014   2.082
 5351SOL    HW116952   6.098   5.955   2.026
 5351SOL    HW216953   6.141   5.994   2.179
 5352SOL     OW16954   2.149   4.857   3.181
 5352SOL    HW116955   2.110   4.949   3.183
 5352SOL    HW216956   2.189   4.836   3.270
 5353SOL     OW16957   4.011   5.156   3.472
 5353SOL    HW116958   3.945   5.230   3.487
 5353SOL    HW216959   3.985   5.077   3.527
 5354SOL     OW16960   2.827   5.408   1.820
 5354SOL    HW116961   2.749   5.407   1.883
 5354SOL    HW216962   2.866   5.316   1.813
 5355SOL     OW16963   5.704   3.361   3.475
 5355SOL    HW116964   5.753   3.432   3.423
 5355SOL    HW216965   5.619   3.339   3.428
 5356SOL     OW16966   5.662   4.506   1.874
 5356SOL    HW116967   5.690   4.449   1.797
 5356SOL    HW216968   5.588   4.461   1.924
 5357SOL     OW16969   4.538   6.618   0.673
 5357SOL    HW116970   4.606   6.563   0.624
 5357SOL    HW216971   4.492   6.680   0.609
 5358SOL     OW16972   4.646   1.726   0.180
 5358SOL    HW116973   4.610   1.682   0.097
 5358SOL    HW216974   4.714   1.795   0.154
 5359SOL     OW16975   1.274   1.884   6.440
 5359SOL    HW116976   1.362   1.836   6.433
 5359SOL    HW216977   1.287   1.970   6.490
 5360SOL     OW16978   4.421   6.775   5.582
 5360SOL    HW116979   4.332   6.814   5.562
 5360SOL    HW216980   4.432   6.689   5.533
 5361SOL     OW16981   2.631   0.861   5.156
 5361SOL    HW116982   2.613   0.934   5.090
 5361SOL    HW216983   2.605   0.890   5.247
 5362SOL     OW16984   5.800   5.221   3.492
 5362SOL    HW116985   5.713   5.207   3.444
 5362SOL    HW216986   5.875   5.218   3.426
 5363SOL     OW16987   0.396   0.212   6.757
 5363SOL    HW116988   0.443   0.164   6.832
 5363SOL    HW216989   0.305   0.240   6.787
 5364SOL     OW16990   6.189   6.555   1.568
 5364SOL    HW116991   6.113   6.490   1.570
 5364SOL    HW216992   6.252   6.531   1.494
 5365SOL     OW16993   3.485   3.728   6.761
 5365SOL    HW116994   3.447   3.636   6.753
 5365SOL    HW216995   3.567   3.725   6.818
 5366SOL     OW16996   5.411   5.769   1.550
 5366SOL    HW116997   5.357   5.789   1.632
 5366SOL    HW216998   5.508   5.779   1.572
 5367SOL     OW16999   0.861   6.433   0.410
 5367SOL    HW117000   0.774   6.423   0.361
 5367SOL    HW217001   0.936   6.402   0.350
 5368SOL     OW17002   5.370   0.356   2.943
 5368SOL    HW117003   5.303   0.398   2.883
 5368SOL    HW217004   5.435   0.426   2.974
 5369SOL     OW17005   2.884   6.430   2.098
 5369SOL    HW117006   2.955   6.486   2.055
 5369SOL    HW217007   2.838   6.375   2.029
 5370SOL     OW17008   4.284   2.867   1.594
 5370SOL    HW117009   4.204   2.908   1.551
 5370SOL    HW217010   4.260   2.779   1.634
 5371SOL     OW17011   1.538   3.890   4.811
 5371SOL    HW117012   1.578   3.827   4.878
 5371SOL    HW217013   1.492   3.838   4.739
 5372SOL     OW17014   2.777   5.794   3.528
 5372SOL    HW117015   2.712   5.774   3.455
 5372SOL    HW217016   2.735   5.775   3.617
 5373SOL     OW17017   3.807   6.629   4.038
 5373SOL    HW117018   3.793   6.537   4.075
 5373SOL    HW217019   3.871   6.679   4.096
 5374SOL     OW17020   1.196   3.733   6.785
 5374SOL    HW117021   1.169   3.704   6.693
 5374SOL    HW217022   1.182   3.831   6.795
 5375SOL     OW17023   2.061   5.402   4.731
 5375SOL    HW117024   2.150   5.415   4.688
 5375SOL    HW217025   2.017   5.321   4.691
 5376SOL     OW17026   1.224   3.217   0.926
 5376SOL    HW117027   1.285   3.162   0.869
 5376SOL    HW217028   1.149   3.160   0.959
 5377SOL     OW17029   0.294   6.812   2.048
 5377SOL    HW117030   0.276   6.748   1.972
 5377SOL    HW217031   0.384   6.853   2.035
 5378SOL     OW17032   0.047   0.792   1.969
 5378SOL    HW117033   0.072   0.784   2.066
 5378SOL    HW217034   0.130   0.785   1.913
 5379SOL     OW17035   2.260   5.296   4.959
 5379SOL    HW117036   2.161   5.282   4.957
 5379SOL    HW217037   2.294   5.303   4.865
 5380SOL     OW17038   1.927   2.044   2.880
 5380SOL    HW117039   1.915   2.076   2.786
 5380SOL    HW217040   1.867   1.966   2.898
 5381SOL     OW17041   6.540   3.767   1.284
 5381SOL    HW117042   6.510   3.672   1.283
 5381SOL    HW217043   6.551   3.800   1.190
 5382SOL     OW17044   3.154   0.195   2.014
 5382SOL    HW117045   3.203   0.216   2.099
 5382SOL    HW217046   3.202   0.123   1.965
 5383SOL     OW17047   2.101   2.410   5.851
 5383SOL    HW117048   2.135   2.488   5.903
 5383SOL    HW217049   2.179   2.355   5.821
 5384SOL     OW17050   5.827   6.924   4.928
 5384SOL    HW117051   5.897   6.893   4.864
 5384SOL    HW217052   5.783   6.844   4.970
 5385SOL     OW17053   3.118   3.075   3.957
 5385SOL    HW117054   3.136   3.065   3.859
 5385SOL    HW217055   3.049   3.146   3.971
 5386SOL     OW17056   4.601   6.903   4.587
 5386SOL    HW117057   4.684   6.914   4.532
 5386SOL    HW217058   4.523   6.884   4.527
 5387SOL     OW17059   2.573   6.457   3.484
 5387SOL    HW117060   2.498   6.496   3.431
 5387SOL    HW217061   2.554   6.466   3.581
 5388SOL     OW17062   6.617   0.146   4.537
 5388SOL    HW117063   6.557   0.068   4.520
 5388SOL    HW217064   6.621   0.205   4.457
 5389SOL     OW17065   4.645   1.197   2.172
 5389SOL    HW117066   4.608   1.253   2.099
 5389SOL    HW217067   4.570   1.170   2.234
 5390SOL     OW17068   4.686   4.222   3.114
 5390SOL    HW117069   4.698   4.123   3.121
 5390SOL    HW217070   4.727   4.254   3.028
 5391SOL     OW17071   2.088   1.944   1.231
 5391SOL    HW117072   2.116   1.862   1.280
 5391SOL    HW217073   2.166   1.982   1.181
 5392SOL     OW17074   5.563   3.413   1.640
 5392SOL    HW117075   5.617   3.467   1.704
 5392SOL    HW217076   5.540   3.470   1.560
 5393SOL     OW17077   5.052   0.081   6.589
 5393SOL    HW117078   5.144   0.101   6.623
 5393SOL    HW217079   5.033   7.008   6.601
 5394SOL     OW17080   6.896   5.193   6.622
 5394SOL    HW117081   6.894   5.221   6.527
 5394SOL    HW217082   6.991   5.172   6.649
 5395SOL     OW17083   4.738   0.763   1.983
 5395SOL    HW117084   4.758   0.837   2.047
 5395SOL    HW217085   4.809   0.693   1.991
 5396SOL     OW17086   4.721   4.889   2.888
 5396SOL    HW117087   4.689   4.984   2.887
 5396SOL    HW217088   4.645   4.828   2.912
 5397SOL     OW17089   0.164   2.479   1.677
 5397SOL    HW117090   0.133   2.522   1.761
 5397SOL    HW217091   0.125   2.527   1.598
 5398SOL     OW17092   3.296   2.112   3.010
 5398SOL    HW117093   3.203   2.103   2.973
 5398SOL    HW217094   3.361   2.071   2.946
 5399SOL     OW17095   2.310   5.506   0.611
 5399SOL    HW117096   2.377   5.445   0.654
 5399SOL    HW217097   2.233   5.521   0.674
 5400SOL     OW17098   2.870   4.202   0.743
 5400SOL    HW117099   2.870   4.152   0.657
 5400SOL    HW217100   2.962   4.235   0.763
 5401SOL     OW17101   5.735   3.558   1.774
 5401SOL    HW117102   5.720   3.656   1.758
 5401SOL    HW217103   5.826   3.545   1.814
 5402SOL     OW17104   2.200   4.858   1.417
 5402SOL    HW117105   2.202   4.819   1.325
 5402SOL    HW217106   2.149   4.943   1.416
 5403SOL     OW17107   6.109   2.175   6.136
 5403SOL    HW117108   6.207   2.173   6.157
 5403SOL    HW217109   6.068   2.088   6.165
 5404SOL     OW17110   0.983   0.637   2.435
 5404SOL    HW117111   1.035   0.632   2.349
 5404SOL    HW217112   0.978   0.732   2.466
 5405SOL     OW17113   6.255   6.022   0.251
 5405SOL    HW117114   6.310   5.938   0.253
 5405SOL    HW217115   6.159   5.999   0.260
 5406SOL     OW17116   2.704   0.353   6.468
 5406SOL    HW117117   2.737   0.403   6.548
 5406SOL    HW217118   2.712   0.255   6.484
 5407SOL     OW17119   4.451   2.888   1.311
 5407SOL    HW117120   4.352   2.894   1.329
 5407SOL    HW217121   4.466   2.857   1.217
 5408SOL     OW17122   3.424   1.096   6.224
 5408SOL    HW117123   3.339   1.083   6.173
 5408SOL    HW217124   3.442   1.015   6.280
 5409SOL     OW17125   5.662   1.451   4.101
 5409SOL    HW117126   5.630   1.544   4.081
 5409SOL    HW217127   5.702   1.411   4.018
 5410SOL     OW17128   1.747   3.492   0.936
 5410SOL    HW117129   1.667   3.549   0.920
 5410SOL    HW217130   1.737   3.442   1.022
 5411SOL     OW17131   6.727   5.180   5.940
 5411SOL    HW117132   6.629   5.159   5.946
 5411SOL    HW217133   6.761   5.206   6.031
 5412SOL     OW17134   4.289   0.735   6.952
 5412SOL    HW117135   4.360   0.703   7.014
 5412SOL    HW217136   4.318   0.719   6.857
 5413SOL     OW17137   2.115   0.761   1.203
 5413SOL    HW117138   2.050   0.831   1.176
 5413SOL    HW217139   2.067   0.681   1.238
 5414SOL     OW17140   6.144   3.028   4.954
 5414SOL    HW117141   6.173   3.069   5.040
 5414SOL    HW217142   6.078   3.088   4.910
 5415SOL     OW17143   1.485   5.922   1.517
 5415SOL    HW117144   1.420   5.990   1.483
 5415SOL    HW217145   1.541   5.962   1.589
 5416SOL     OW17146   4.123   4.629   6.468
 5416SOL    HW117147   4.099   4.545   6.516
 5416SOL    HW217148   4.057   4.701   6.490
 5417SOL     OW17149   4.418   6.511   5.442
 5417SOL    HW117150   4.334   6.476   5.401
 5417SOL    HW217151   4.489   6.519   5.371
 5418SOL     OW17152   4.087   6.467   4.207
 5418SOL    HW117153   4.106   6.423   4.295
 5418SOL    HW217154   4.046   6.557   4.222
 5419SOL     OW17155   3.307   5.152   0.417
 5419SOL    HW117156   3.252   5.076   0.383
 5419SOL    HW217157   3.390   5.161   0.361
 5420SOL     OW17158   1.742   2.074   1.825
 5420SOL    HW117159   1.755   2.142   1.897
 5420SOL    HW217160   1.714   2.120   1.740
 5421SOL     OW17161   2.085   3.892   2.210
 5421SOL    HW117162   2.135   3.909   2.125
 5421SOL    HW217163   2.034   3.806   2.203
 5422SOL     OW17164   0.597   5.961   7.006
 5422SOL    HW117165   0.582   5.862   7.001
 5422SOL    HW217166   0.560   6.004   6.924
 5423SOL     OW17167   5.407   2.700   6.840
 5423SOL    HW117168   5.308   2.692   6.854
 5423SOL    HW217169   5.434   2.650   6.758
 5424SOL     OW17170   4.874   3.236   4.376
 5424SOL    HW117171   4.909   3.167   4.441
 5424SOL    HW217172   4.820   3.190   4.306
 5425SOL     OW17173   4.277   1.324   4.141
 5425SOL    HW117174   4.274   1.262   4.220
 5425SOL    HW217175   4.314   1.412   4.169
 5426SOL     OW17176   6.607   5.258   3.867
 5426SOL    HW117177   6.640   5.179   3.815
 5426SOL    HW217178   6.576   5.228   3.957
 5427SOL     OW17179   5.372   4.647   0.795
 5427SOL    HW117180   5.353   4.550   0.810
 5427SOL    HW217181   5.428   4.657   0.713
 5428SOL     OW17182   0.219   0.301   1.775
 5428SOL    HW117183   0.239   0.206   1.798
 5428SOL    HW217184   0.123   0.309   1.747
 5429SOL     OW17185   0.854   1.844   5.688
 5429SOL    HW117186   0.844   1.933   5.733
 5429SOL    HW217187   0.918   1.787   5.741
 5430SOL     OW17188   0.963   3.540   5.395
 5430SOL    HW117189   0.911   3.480   5.455
 5430SOL    HW217190   1.050   3.496   5.371
 5431SOL     OW17191   3.450   6.057   7.002
 5431SOL    HW117192   3.369   6.022   6.954
 5431SOL    HW217193   3.431   6.149   0.011
 5432SOL     OW17194   4.346   6.594   6.400
 5432SOL    HW117195   4.316   6.686   6.425
 5432SOL    HW217196   4.415   6.563   6.467
 5433SOL     OW17197   0.153   1.436   3.967
 5433SOL    HW117198   0.215   1.427   3.889
 5433SOL    HW217199   0.205   1.465   4.047
 5434SOL     OW17200   4.010   0.818   4.743
 5434SOL    HW117201   4.061   0.857   4.667
 5434SOL    HW217202   3.991   0.889   4.811
 5435SOL     OW17203   5.249   1.142   1.888
 5435SOL    HW117204   5.181   1.070   1.870
 5435SOL    HW217205   5.335   1.117   1.845
 5436SOL     OW17206   4.972   3.810   4.185
 5436SOL    HW117207   4.906   3.880   4.213
 5436SOL    HW217208   5.060   3.853   4.168
 5437SOL     OW17209   2.876   4.998   6.392
 5437SOL    HW117210   2.884   4.961   6.299
 5437SOL    HW217211   2.968   5.011   6.431
 5438SOL     OW17212   5.555   4.017   2.721
 5438SOL    HW117213   5.614   3.961   2.779
 5438SOL    HW217214   5.607   4.095   2.687
 5439SOL     OW17215   1.143   2.440   1.094
 5439SOL    HW117216   1.194   2.382   1.030
 5439SOL    HW217217   1.123   2.388   1.177
 5440SOL     OW17218   0.873   0.104   2.028
 5440SOL    HW117219   0.812   0.067   1.959
 5440SOL    HW217220   0.929   0.177   1.988
 5441SOL     OW17221   5.054   2.845   3.400
 5441SOL    HW117222   5.023   2.754   3.426
 5441SOL    HW217223   4.978   2.909   3.405
 5442SOL     OW17224   3.630   6.495   3.447
 5442SOL    HW117225   3.640   6.511   3.348
 5442SOL    HW217226   3.575   6.568   3.487
 5443SOL     OW17227   2.773   0.735   3.615
 5443SOL    HW117228   2.857   0.789   3.610
 5443SOL    HW217229   2.759   0.687   3.528
 5444SOL     OW17230   1.667   0.396   3.772
 5444SOL    HW117231   1.697   0.335   3.698
 5444SOL    HW217232   1.746   0.441   3.812
 5445SOL     OW17233   5.380   4.032   4.389
 5445SOL    HW117234   5.328   4.073   4.465
 5445SOL    HW217235   5.398   3.936   4.410
 5446SOL     OW17236   6.527   5.066   5.145
 5446SOL    HW117237   6.465   5.088   5.220
 5446SOL    HW217238   6.556   5.150   5.099
 5447SOL     OW17239   2.147   1.686   6.796
 5447SOL    HW117240   2.126   1.604   6.850
 5447SOL    HW217241   2.112   1.766   6.843
 5448SOL     OW17242   5.612   3.326   4.718
 5448SOL    HW117243   5.654   3.417   4.724
 5448SOL    HW217244   5.526   3.326   4.769
 5449SOL     OW17245   1.647   2.376   6.593
 5449SOL    HW117246   1.643   2.375   6.493
 5449SOL    HW217247   1.725   2.321   6.624
 5450SOL     OW17248   1.877   0.624   1.961
 5450SOL    HW117249   1.814   0.690   2.002
 5450SOL    HW217250   1.835   0.584   1.879
 5451SOL     OW17251   1.640   5.676   3.676
 5451SOL    HW117252   1.714   5.662   3.610
 5451SOL    HW217253   1.668   5.640   3.765
 5452SOL     OW17254   2.066   4.258   6.662
 5452SOL    HW117255   2.126   4.262   6.742
 5452SOL    HW217256   1.975   4.226   6.690
 5453SOL     OW17257   5.443   4.388   1.967
 5453SOL    HW117258   5.394   4.339   1.894
 5453SOL    HW217259   5.401   4.367   2.055
 5454SOL     OW17260   0.192   3.790   6.143
 5454SOL    HW117261   0.149   3.700   6.146
 5454SOL    HW217262   0.232   3.805   6.052
 5455SOL     OW17263   6.247   3.163   1.090
 5455SOL    HW117264   6.157   3.183   1.052
 5455SOL    HW217265   6.317   3.205   1.032
 5456SOL     OW17266   2.462   0.470   6.498
 5456SOL    HW117267   2.409   0.414   6.561
 5456SOL    HW217268   2.541   0.418   6.466
 5457SOL     OW17269   6.587   2.699   0.257
 5457SOL    HW117270   6.664   2.704   0.320
 5457SOL    HW217271   6.503   2.725   0.305
 5458SOL     OW17272   0.687   4.139   0.787
 5458SOL    HW117273   0.704   4.147   0.689
 5458SOL    HW217274   0.770   4.163   0.837
 5459SOL     OW17275   1.819   4.160   0.204
 5459SOL    HW117276   1.874   4.187   0.125
 5459SOL    HW217277   1.724   4.146   0.176
 5460SOL     OW17278   3.992   0.851   3.310
 5460SOL    HW117279   3.956   0.900   3.231
 5460SOL    HW217280   3.932   0.867   3.389
 5461SOL     OW17281   5.943   0.134   5.914
 5461SOL    HW117282   5.843   0.139   5.923
 5461SOL    HW217283   5.967   0.123   5.818
 5462SOL     OW17284   0.086   6.984   0.049
 5462SOL    HW117285   0.063   6.988   6.976
 5462SOL    HW217286   0.086   0.052   0.087
 5463SOL     OW17287   0.351   1.804   1.077
 5463SOL    HW117288   0.352   1.903   1.068
 5463SOL    HW217289   0.266   1.776   1.122
 5464SOL     OW17290   1.194   1.210   4.271
 5464SOL    HW117291   1.208   1.227   4.368
 5464SOL    HW217292   1.210   1.114   4.251
 5465SOL     OW17293   3.599   0.101   3.629
 5465SOL    HW117294   3.671   0.032   3.632
 5465SOL    HW217295   3.589   0.135   3.536
 5466SOL     OW17296   5.319   2.823   5.167
 5466SOL    HW117297   5.313   2.908   5.219
 5466SOL    HW217298   5.414   2.792   5.166
 5467SOL     OW17299   5.204   3.125   3.138
 5467SOL    HW117300   5.236   3.089   3.050
 5467SOL    HW217301   5.245   3.073   3.213
 5468SOL     OW17302   5.967   2.781   4.276
 5468SOL    HW117303   5.871   2.792   4.250
 5468SOL    HW217304   6.021   2.759   4.195
 5469SOL     OW17305   3.692   6.073   6.218
 5469SOL    HW117306   3.709   6.152   6.160
 5469SOL    HW217307   3.628   6.098   6.291
 5470SOL     OW17308   3.090   5.930   2.890
 5470SOL    HW117309   3.049   6.021   2.888
 5470SOL    HW217310   3.083   5.892   2.982
 5471SOL     OW17311   5.312   0.023   2.576
 5471SOL    HW117312   5.271   6.958   2.561
 5471SOL    HW217313   5.261   0.073   2.646
 5472SOL     OW17314   4.709   3.986   6.163
 5472SOL    HW117315   4.731   3.948   6.074
 5472SOL    HW217316   4.715   3.914   6.233
 5473SOL     OW17317   0.210   2.817   2.089
 5473SOL    HW117318   0.201   2.827   1.990
 5473SOL    HW217319   0.190   2.722   2.114
 5474SOL     OW17320   1.011   4.939   4.302
 5474SOL    HW117321   0.929   4.940   4.245
 5474SOL    HW217322   1.039   4.844   4.320
 5475SOL     OW17323   2.307   3.167   1.645
 5475SOL    HW117324   2.274   3.261   1.644
 5475SOL    HW217325   2.405   3.166   1.665
 5476SOL     OW17326   1.628   4.566   5.564
 5476SOL    HW117327   1.539   4.526   5.545
 5476SOL    HW217328   1.695   4.533   5.498
 5477SOL     OW17329   2.534   4.771   3.287
 5477SOL    HW117330   2.571   4.863   3.272
 5477SOL    HW217331   2.438   4.778   3.314
 5478SOL     OW17332   3.484   5.226   5.087
 5478SOL    HW117333   3.402   5.268   5.050
 5478SOL    HW217334   3.508   5.146   5.033
 5479SOL     OW17335   4.706   1.678   6.548
 5479SOL    HW117336   4.680   1.582   6.541
 5479SOL    HW217337   4.682   1.713   6.639
 5480SOL     OW17338   6.178   4.328   2.822
 5480SOL    HW117339   6.117   4.348   2.898
 5480SOL    HW217340   6.229   4.244   2.841
 5481SOL     OW17341   4.068   1.241   4.385
 5481SOL    HW117342   4.139   1.174   4.365
 5481SOL    HW217343   4.098   1.332   4.355
 5482SOL     OW17344   3.442   4.477   1.666
 5482SOL    HW117345   3.487   4.524   1.742
 5482SOL    HW217346   3.421   4.542   1.594
 5483SOL     OW17347   0.343   1.862   5.563
 5483SOL    HW117348   0.429   1.848   5.614
 5483SOL    HW217349   0.359   1.928   5.490
 5484SOL     OW17350   3.612   1.205   4.352
 5484SOL    HW117351   3.674   1.281   4.368
 5484SOL    HW217352   3.571   1.213   4.260
 5485SOL     OW17353   4.501   0.283   5.574
 5485SOL    HW117354   4.543   0.215   5.513
 5485SOL    HW217355   4.569   0.317   5.638
 5486SOL     OW17356   2.469   6.003   5.124
 5486SOL    HW117357   2.555   5.982   5.077
 5486SOL    HW217358   2.395   5.950   5.084
 5487SOL     OW17359   4.226   2.898   6.490
 5487SOL    HW117360   4.252   2.981   6.440
 5487SOL    HW217361   4.213   2.823   6.425
 5488SOL     OW17362   6.126   0.022   1.019
 5488SOL    HW117363   6.149   6.988   1.096
 5488SOL    HW217364   6.031   0.007   0.992
 5489SOL     OW17365   0.323   3.891   1.705
 5489SOL    HW117366   0.388   3.967   1.700
 5489SOL    HW217367   0.272   3.885   1.619
 5490SOL     OW17368   3.041   0.633   2.484
 5490SOL    HW117369   2.958   0.587   2.517
 5490SOL    HW217370   3.101   0.566   2.440
 5491SOL     OW17371   0.903   2.949   0.076
 5491SOL    HW117372   0.898   2.881   0.004
 5491SOL    HW217373   0.812   2.967   0.113
 5492SOL     OW17374   0.906   3.572   6.708
 5492SOL    HW117375   0.983   3.578   6.646
 5492SOL    HW217376   0.937   3.539   6.797
 5493SOL     OW17377   3.469   3.117   4.264
 5493SOL    HW117378   3.493   3.210   4.237
 5493SOL    HW217379   3.503   3.053   4.195
 5494SOL     OW17380   6.884   3.693   5.380
 5494SOL    HW117381   6.889   3.601   5.340
 5494SOL    HW217382   6.793   3.706   5.419
 5495SOL     OW17383   5.945   1.042   1.552
 5495SOL    HW117384   5.895   1.031   1.466
 5495SOL    HW217385   6.041   1.064   1.533
 5496SOL     OW17386   3.854   0.584   3.359
 5496SOL    HW117387   3.908   0.666   3.342
 5496SOL    HW217388   3.910   0.517   3.408
 5497SOL     OW17389   0.953   1.274   5.255
 5497SOL    HW117390   0.863   1.232   5.256
 5497SOL    HW217391   1.003   1.248   5.338
 5498SOL     OW17392   6.969   5.142   2.109
 5498SOL    HW117393   7.000   5.073   2.044
 5498SOL    HW217394   6.889   5.107   2.158
 5499SOL     OW17395   0.875   0.610   4.491
 5499SOL    HW117396   0.776   0.605   4.479
 5499SOL    HW217397   0.921   0.561   4.417
 5500SOL     OW17398   0.706   0.691   6.844
 5500SOL    HW117399   0.666   0.703   6.753
 5500SOL    HW217400   0.665   0.611   6.888
 5501SOL     OW17401   3.712   2.206   0.512
 5501SOL    HW117402   3.745   2.268   0.583
 5501SOL    HW217403   3.703   2.114   0.550
 5502SOL     OW17404   5.462   3.477   6.452
 5502SOL    HW117405   5.410   3.523   6.380
 5502SOL    HW217406   5.400   3.425   6.511
 5503SOL     OW17407   0.005   4.804   0.499
 5503SOL    HW117408   0.076   4.760   0.443
 5503SOL    HW217409   6.974   4.734   0.543
 5504SOL     OW17410   4.447   1.060   5.206
 5504SOL    HW117411   4.522   1.105   5.157
 5504SOL    HW217412   4.475   0.967   5.231
 5505SOL     OW17413   1.964   4.311   3.159
 5505SOL    HW117414   1.980   4.331   3.062
 5505SOL    HW217415   1.968   4.397   3.211
 5506SOL     OW17416   0.156   2.980   0.662
 5506SOL    HW117417   0.201   2.911   0.605
 5506SOL    HW217418   0.099   3.039   0.604
 5507SOL     OW17419   3.626   0.716   4.964
 5507SOL    HW117420   3.534   0.681   4.946
 5507SOL    HW217421   3.688   0.687   4.891
 5508SOL     OW17422   1.129   1.630   0.503
 5508SOL    HW117423   1.160   1.592   0.590
 5508SOL    HW217424   1.112   1.556   0.438
 5509SOL     OW17425   0.795   5.808   0.403
 5509SOL    HW117426   0.846   5.884   0.362
 5509SOL    HW217427   0.728   5.773   0.337
 5510SOL     OW17428   4.334   5.462   0.023
 5510SOL    HW117429   4.326   5.368   0.058
 5510SOL    HW217430   4.419   5.470   6.995
 5511SOL     OW17431   1.930   1.099   4.973
 5511SOL    HW117432   1.961   1.122   4.881
 5511SOL    HW217433   2.007   1.105   5.037
 5512SOL     OW17434   4.037   1.426   0.796
 5512SOL    HW117435   3.973   1.473   0.857
 5512SOL    HW217436   4.129   1.461   0.812
 5513SOL     OW17437   3.850   5.623   6.122
 5513SOL    HW117438   3.849   5.618   6.222
 5513SOL    HW217439   3.835   5.532   6.084
 5514SOL     OW17440   3.286   0.646   4.555
 5514SOL    HW117441   3.377   0.687   4.550
 5514SOL    HW217442   3.280   0.570   4.491
 5515SOL     OW17443   1.157   5.383   1.901
 5515SOL    HW117444   1.246   5.363   1.860
 5515SOL    HW217445   1.095   5.418   1.830
 5516SOL     OW17446   1.998   2.402   4.707
 5516SOL    HW117447   2.020   2.307   4.727
 5516SOL    HW217448   1.991   2.454   4.792
 5517SOL     OW17449   2.146   3.714   1.803
 5517SOL    HW117450   2.075   3.689   1.738
 5517SOL    HW217451   2.171   3.634   1.859
 5518SOL     OW17452   6.249   5.323   6.076
 5518SOL    HW117453   6.209   5.233   6.095
 5518SOL    HW217454   6.183   5.380   6.027
 5519SOL     OW17455   5.996   2.905   3.078
 5519SOL    HW117456   6.093   2.882   3.080
 5519SOL    HW217457   5.942   2.822   3.088
 5520SOL     OW17458   5.582   6.980   2.326
 5520SOL    HW117459   5.598   6.962   2.422
 5520SOL    HW217460   5.500   0.012   2.316
 5521SOL     OW17461   5.561   6.320   1.969
 5521SOL    HW117462   5.468   6.356   1.980
 5521SOL    HW217463   5.581   6.308   1.872
 5522SOL     OW17464   6.598   5.292   1.284
 5522SOL    HW117465   6.620   5.246   1.197
 5522SOL    HW217466   6.510   5.259   1.318
 5523SOL     OW17467   4.461   0.828   2.182
 5523SOL    HW117468   4.528   0.872   2.122
 5523SOL    HW217469   4.438   0.890   2.257
 5524SOL     OW17470   3.530   6.848   5.033
 5524SOL    HW117471   3.602   6.820   5.096
 5524SOL    HW217472   3.548   6.940   5.000
 5525SOL     OW17473   1.499   2.546   6.957
 5525SOL    HW117474   1.525   2.642   6.966
 5525SOL    HW217475   1.403   2.535   6.982
 5526SOL     OW17476   5.155   4.893   2.786
 5526SOL    HW117477   5.227   4.862   2.848
 5526SOL    HW217478   5.094   4.956   2.833
 5527SOL     OW17479   5.008   3.580   3.546
 5527SOL    HW117480   4.948   3.514   3.591
 5527SOL    HW217481   5.098   3.580   3.590
 5528SOL     OW17482   1.944   0.998   0.822
 5528SOL    HW117483   1.928   0.988   0.920
 5528SOL    HW217484   2.041   1.015   0.805
 5529SOL     OW17485   3.408   0.167   4.498
 5529SOL    HW117486   3.356   0.250   4.518
 5529SOL    HW217487   3.365   0.118   4.423
 5530SOL     OW17488   6.122   1.991   1.421
 5530SOL    HW117489   6.116   2.073   1.478
 5530SOL    HW217490   6.178   1.923   1.467
 5531SOL     OW17491   3.912   3.443   1.464
 5531SOL    HW117492   3.826   3.483   1.430
 5531SOL    HW217493   3.892   3.359   1.514
 5532SOL     OW17494   1.026   3.051   0.984
 5532SOL    HW117495   0.972   2.990   0.927
 5532SOL    HW217496   0.968   3.089   1.056
 5533SOL     OW17497   5.008   1.179   3.678
 5533SOL    HW117498   4.958   1.266   3.674
 5533SOL    HW217499   4.952   1.111   3.724
 5534SOL     OW17500   0.904   1.521   6.745
 5534SOL    HW117501   0.954   1.514   6.832
 5534SOL    HW217502   0.852   1.437   6.730
 5535SOL     OW17503   0.938   1.148   3.189
 5535SOL    HW117504   0.932   1.060   3.141
 5535SOL    HW217505   0.935   1.132   3.288
 5536SOL     OW17506   4.128   0.313   4.329
 5536SOL    HW117507   4.161   0.309   4.423
 5536SOL    HW217508   4.158   0.232   4.279
 5537SOL     OW17509   3.194   1.020   2.631
 5537SOL    HW117510   3.095   1.010   2.639
 5537SOL    HW217511   3.237   0.930   2.639
 5538SOL     OW17512   3.761   6.097   5.030
 5538SOL    HW117513   3.691   6.039   4.988
 5538SOL    HW217514   3.810   6.147   4.959
 5539SOL     OW17515   1.448   4.016   1.391
 5539SOL    HW117516   1.513   4.091   1.389
 5539SOL    HW217517   1.401   4.014   1.480
 5540SOL     OW17518   5.013   4.760   3.925
 5540SOL    HW117519   4.930   4.806   3.895
 5540SOL    HW217520   5.066   4.822   3.983
 5541SOL     OW17521   5.237   0.464   6.593
 5541SOL    HW117522   5.229   0.467   6.692
 5541SOL    HW217523   5.334   0.461   6.567
 5542SOL     OW17524   4.124   3.270   6.198
 5542SOL    HW117525   4.195   3.271   6.128
 5542SOL    HW217526   4.034   3.284   6.155
 5543SOL     OW17527   5.407   3.777   6.472
 5543SOL    HW117528   5.353   3.757   6.390
 5543SOL    HW217529   5.399   3.873   6.495
 5544SOL     OW17530   5.312   6.692   6.697
 5544SOL    HW117531   5.338   6.740   6.781
 5544SOL    HW217532   5.253   6.751   6.642
 5545SOL     OW17533   4.360   1.360   2.699
 5545SOL    HW117534   4.419   1.312   2.635
 5545SOL    HW217535   4.331   1.298   2.772
 5546SOL     OW17536   1.073   5.280   5.113
 5546SOL    HW117537   1.055   5.288   5.211
 5546SOL    HW217538   1.172   5.282   5.097
 5547SOL     OW17539   2.697   6.268   4.928
 5547SOL    HW117540   2.786   6.307   4.906
 5547SOL    HW217541   2.636   6.275   4.848
 5548SOL     OW17542   6.210   3.600   5.522
 5548SOL    HW117543   6.268   3.601   5.440
 5548SOL    HW217544   6.119   3.564   5.499
 5549SOL     OW17545   3.473   4.608   0.246
 5549SOL    HW117546   3.547   4.555   0.205
 5549SOL    HW217547   3.388   4.556   0.242
 5550SOL     OW17548   2.741   5.764   2.025
 5550SOL    HW117549   2.777   5.720   1.943
 5550SOL    HW217550   2.763   5.709   2.105
 5551SOL     OW17551   1.773   0.554   2.745
 5551SOL    HW117552   1.707   0.501   2.692
 5551SOL    HW217553   1.730   0.638   2.778
 5552SOL     OW17554   0.116   1.711   0.336
 5552SOL    HW117555   0.093   1.796   0.383
 5552SOL    HW217556   0.034   1.672   0.295
 5553SOL     OW17557   4.234   6.360   6.959
 5553SOL    HW117558   4.211   6.346   6.863
 5553SOL    HW217559   4.213   6.276   7.010
 5554SOL     OW17560   2.928   2.471   5.824
 5554SOL    HW117561   3.005   2.506   5.770
 5554SOL    HW217562   2.919   2.373   5.810
 5555SOL     OW17563   0.534   5.677   3.599
 5555SOL    HW117564   0.593   5.752   3.629
 5555SOL    HW217565   0.438   5.706   3.603
 5556SOL     OW17566   0.623   2.257   4.571
 5556SOL    HW117567   0.539   2.290   4.530
 5556SOL    HW217568   0.682   2.335   4.594
 5557SOL     OW17569   2.640   5.543   4.050
 5557SOL    HW117570   2.565   5.595   4.010
 5557SOL    HW217571   2.710   5.526   3.981
 5558SOL     OW17572   4.851   3.153   5.158
 5558SOL    HW117573   4.938   3.146   5.109
 5558SOL    HW217574   4.781   3.100   5.110
 5559SOL     OW17575   2.231   0.104   1.149
 5559SOL    HW117576   2.179   0.117   1.234
 5559SOL    HW217577   2.325   0.078   1.170
 5560SOL     OW17578   6.814   6.923   3.445
 5560SOL    HW117579   6.812   6.823   3.438
 5560SOL    HW217580   6.784   6.962   3.358
 5561SOL     OW17581   1.372   2.943   4.103
 5561SOL    HW117582   1.336   2.890   4.180
 5561SOL    HW217583   1.340   2.903   4.017
 5562SOL     OW17584   1.840   2.841   6.431
 5562SOL    HW117585   1.786   2.924   6.442
 5562SOL    HW217586   1.879   2.815   6.520
 5563SOL     OW17587   4.468   6.146   2.079
 5563SOL    HW117588   4.518   6.161   1.993
 5563SOL    HW217589   4.487   6.221   2.142
 5564SOL     OW17590   5.258   3.600   1.789
 5564SOL    HW117591   5.215   3.560   1.708
 5564SOL    HW217592   5.278   3.527   1.854
 5565SOL     OW17593   4.203   2.574   5.567
 5565SOL    HW117594   4.108   2.594   5.544
 5565SOL    HW217595   4.232   2.633   5.642
 5566SOL     OW17596   1.443   5.743   0.779
 5566SOL    HW117597   1.476   5.682   0.707
 5566SOL    HW217598   1.517   5.803   0.808
 5567SOL     OW17599   1.649   5.436   0.889
 5567SOL    HW117600   1.599   5.505   0.942
 5567SOL    HW217601   1.713   5.387   0.950
 5568SOL     OW17602   4.577   2.276   0.880
 5568SOL    HW117603   4.500   2.214   0.896
 5568SOL    HW217604   4.579   2.346   0.951
 5569SOL     OW17605   3.842   1.390   1.823
 5569SOL    HW117606   3.790   1.324   1.769
 5569SOL    HW217607   3.931   1.406   1.780
 5570SOL     OW17608   5.725   4.666   4.627
 5570SOL    HW117609   5.809   4.689   4.677
 5570SOL    HW217610   5.722   4.568   4.611
 5571SOL     OW17611   0.465   5.774   0.749
 5571SOL    HW117612   0.460   5.676   0.730
 5571SOL    HW217613   0.495   5.789   0.843
 5572SOL     OW17614   4.060   2.534   6.508
 5572SOL    HW117615   3.966   2.501   6.495
 5572SOL    HW217616   4.066   2.580   6.597
 5573SOL     OW17617   1.218   4.012   0.393
 5573SOL    HW117618   1.161   3.945   0.345
 5573SOL    HW217619   1.312   3.978   0.398
 5574SOL     OW17620   0.123   0.056   4.264
 5574SOL    HW117621   0.073   0.063   4.350
 5574SOL    HW217622   0.210   0.104   4.272
 5575SOL     OW17623   1.506   0.988   1.214
 5575SOL    HW117624   1.558   1.000   1.299
 5575SOL    HW217625   1.514   0.893   1.184
 5576SOL     OW17626   6.102   5.000   1.118
 5576SOL    HW117627   6.107   4.925   1.052
 5576SOL    HW217628   6.130   5.085   1.074
 5577SOL     OW17629   2.050   3.328   5.522
 5577SOL    HW117630   2.045   3.421   5.488
 5577SOL    HW217631   2.072   3.266   5.447
 5578SOL     OW17632   3.747   2.364   6.910
 5578SOL    HW117633   3.652   2.381   6.881
 5578SOL    HW217634   3.773   2.433   6.978
 5579SOL     OW17635   5.222   3.750   6.680
 5579SOL    HW117636   5.303   3.736   6.624
 5579SOL    HW217637   5.148   3.786   6.623
 5580SOL     OW17638   4.701   2.029   0.707
 5580SOL    HW117639   4.723   1.931   0.714
 5580SOL    HW217640   4.784   2.080   0.686
 5581SOL     OW17641   2.089   0.631   6.358
 5581SOL    HW117642   2.166   0.606   6.417
 5581SOL    HW217643   2.110   0.605   6.264
 5582SOL     OW17644   3.115   3.524   4.024
 5582SOL    HW117645   3.158   3.452   3.969
 5582SOL    HW217646   3.182   3.595   4.045
 5583SOL     OW17647   3.556   6.389   1.913
 5583SOL    HW117648   3.641   6.341   1.891
 5583SOL    HW217649   3.509   6.414   1.829
 5584SOL     OW17650   5.751   4.370   3.401
 5584SOL    HW117651   5.689   4.436   3.359
 5584SOL    HW217652   5.780   4.404   3.491
 5585SOL     OW17653   6.055   0.692   3.589
 5585SOL    HW117654   6.104   0.632   3.651
 5585SOL    HW217655   5.960   0.702   3.619
 5586SOL     OW17656   1.976   1.899   6.285
 5586SOL    HW117657   2.037   1.875   6.209
 5586SOL    HW217658   2.030   1.933   6.362
 5587SOL     OW17659   3.629   0.619   3.569
 5587SOL    HW117660   3.554   0.571   3.525
 5587SOL    HW217661   3.712   0.610   3.513
 5588SOL     OW17662   2.222   6.958   5.179
 5588SOL    HW117663   2.266   6.947   5.268
 5588SOL    HW217664   2.276   6.914   5.109
 5589SOL     OW17665   5.091   2.905   6.234
 5589SOL    HW117666   5.070   2.957   6.151
 5589SOL    HW217667   5.005   2.875   6.276
 5590SOL     OW17668   6.536   6.100   4.795
 5590SOL    HW117669   6.551   6.008   4.831
 5590SOL    HW217670   6.617   6.156   4.814
 5591SOL     OW17671   6.183   0.586   0.367
 5591SOL    HW117672   6.131   0.601   0.283
 5591SOL    HW217673   6.281   0.593   0.349
 5592SOL     OW17674   1.047   4.277   3.041
 5592SOL    HW117675   1.023   4.360   3.091
 5592SOL    HW217676   1.127   4.234   3.083
 5593SOL     OW17677   0.592   2.866   6.022
 5593SOL    HW117678   0.554   2.774   6.021
 5593SOL    HW217679   0.576   2.911   5.934
 5594SOL     OW17680   2.239   0.305   6.975
 5594SOL    HW117681   2.257   0.270   0.042
 5594SOL    HW217682   2.320   0.353   6.941
 5595SOL     OW17683   6.460   0.769   5.682
 5595SOL    HW117684   6.558   0.782   5.694
 5595SOL    HW217685   6.418   0.742   5.769
 5596SOL     OW17686   5.388   0.690   2.821
 5596SOL    HW117687   5.369   0.776   2.869
 5596SOL    HW217688   5.440   0.629   2.881
 5597SOL     OW17689   5.801   1.369   6.593
 5597SOL    HW117690   5.734   1.352   6.666
 5597SOL    HW217691   5.761   1.347   6.505
 5598SOL     OW17692   5.191   1.456   3.996
 5598SOL    HW117693   5.194   1.369   4.044
 5598SOL    HW217694   5.238   1.526   4.051
 5599SOL     OW17695   5.204   3.891   1.481
 5599SOL    HW117696   5.109   3.910   1.456
 5599SOL    HW217697   5.226   3.940   1.565
 5600SOL     OW17698   1.664   0.755   2.874
 5600SOL    HW117699   1.629   0.833   2.925
 5600SOL    HW217700   1.762   0.768   2.858
 5601SOL     OW17701   5.201   2.868   5.873
 5601SOL    HW117702   5.294   2.880   5.838
 5601SOL    HW217703   5.182   2.937   5.943
 5602SOL     OW17704   0.953   2.191   3.193
 5602SOL    HW117705   0.992   2.156   3.278
 5602SOL    HW217706   0.857   2.217   3.209
 5603SOL     OW17707   4.626   2.478   5.287
 5603SOL    HW117708   4.696   2.479   5.358
 5603SOL    HW217709   4.538   2.505   5.326
 5604SOL     OW17710   1.080   0.140   4.578
 5604SOL    HW117711   1.117   0.111   4.667
 5604SOL    HW217712   1.155   0.149   4.513
 5605SOL     OW17713   1.855   0.015   4.215
 5605SOL    HW117714   1.824   0.091   4.159
 5605SOL    HW217715   1.790   7.023   4.289
 5606SOL     OW17716   5.238   1.712   1.070
 5606SOL    HW117717   5.261   1.619   1.098
 5606SOL    HW217718   5.163   1.746   1.128
 5607SOL     OW17719   6.223   2.626   2.535
 5607SOL    HW117720   6.140   2.593   2.580
 5607SOL    HW217721   6.300   2.617   2.597
 5608SOL     OW17722   5.529   0.772   4.019
 5608SOL    HW117723   5.464   0.834   4.064
 5608SOL    HW217724   5.620   0.785   4.056
 5609SOL     OW17725   5.673   6.630   0.892
 5609SOL    HW117726   5.671   6.727   0.918
 5609SOL    HW217727   5.766   6.595   0.903
 5610SOL     OW17728   5.400   4.088   0.203
 5610SOL    HW117729   5.436   4.100   0.296
 5610SOL    HW217730   5.413   3.993   0.174
 5611SOL     OW17731   0.437   4.904   1.733
 5611SOL    HW117732   0.417   4.999   1.709
 5611SOL    HW217733   0.384   4.843   1.674
 5612SOL     OW17734   2.966   1.508   0.492
 5612SOL    HW117735   3.017   1.481   0.410
 5612SOL    HW217736   2.896   1.440   0.513
 5613SOL     OW17737   0.138   5.370   4.871
 5613SOL    HW117738   0.190   5.320   4.940
 5613SOL    HW217739   0.042   5.374   4.898
 5614SOL     OW17740   5.746   1.764   4.596
 5614SOL    HW117741   5.781   1.670   4.599
 5614SOL    HW217742   5.650   1.765   4.626
 5615SOL     OW17743   0.228   2.390   2.380
 5615SOL    HW117744   0.132   2.416   2.363
 5615SOL    HW217745   0.288   2.465   2.351
 5616SOL     OW17746   1.644   2.895   3.918
 5616SOL    HW117747   1.737   2.881   3.951
 5616SOL    HW217748   1.601   2.969   3.972
 5617SOL     OW17749   1.830   5.347   5.835
 5617SOL    HW117750   1.892   5.317   5.762
 5617SOL    HW217751   1.872   5.331   5.924
 5618SOL     OW17752   6.916   5.069   4.357
 5618SOL    HW117753   6.871   5.019   4.430
 5618SOL    HW217754   6.854   5.139   4.321
 5619SOL     OW17755   3.731   3.343   4.109
 5619SOL    HW117756   3.636   3.313   4.104
 5619SOL    HW217757   3.737   3.438   4.078
 5620SOL     OW17758   4.371   4.390   5.997
 5620SOL    HW117759   4.418   4.329   5.934
 5620SOL    HW217760   4.317   4.337   6.062
 5621SOL     OW17761   1.650   2.637   5.007
 5621SOL    HW117762   1.657   2.684   4.919
 5621SOL    HW217763   1.597   2.553   4.996
 5622SOL     OW17764   4.495   5.464   5.050
 5622SOL    HW117765   4.552   5.477   4.968
 5622SOL    HW217766   4.429   5.392   5.033
 5623SOL     OW17767   4.713   5.898   4.339
 5623SOL    HW117768   4.643   5.956   4.379
 5623SOL    HW217769   4.708   5.807   4.380
 5624SOL     OW17770   6.816   5.591   3.927
 5624SOL    HW117771   6.904   5.543   3.929
 5624SOL    HW217772   6.758   5.551   3.856
 5625SOL     OW17773   1.462   5.641   4.634
 5625SOL    HW117774   1.540   5.624   4.575
 5625SOL    HW217775   1.447   5.560   4.692
 5626SOL     OW17776   2.194   3.923   4.044
 5626SOL    HW117777   2.200   3.833   4.000
 5626SOL    HW217778   2.159   3.912   4.137
 5627SOL     OW17779   1.470   5.637   0.392
 5627SOL    HW117780   1.499   5.730   0.418
 5627SOL    HW217781   1.548   5.587   0.355
 5628SOL     OW17782   3.201   2.891   0.623
 5628SOL    HW117783   3.226   2.965   0.560
 5628SOL    HW217784   3.229   2.915   0.716
 5629SOL     OW17785   4.759   3.313   0.959
 5629SOL    HW117786   4.697   3.244   0.996
 5629SOL    HW217787   4.744   3.400   1.007
 5630SOL     OW17788   1.520   4.318   6.326
 5630SOL    HW117789   1.437   4.274   6.361
 5630SOL    HW217790   1.581   4.339   6.403
 5631SOL     OW17791   4.441   0.559   2.137
 5631SOL    HW117792   4.421   0.526   2.045
 5631SOL    HW217793   4.433   0.659   2.139
 5632SOL     OW17794   6.046   0.620   6.137
 5632SOL    HW117795   6.058   0.681   6.216
 5632SOL    HW217796   6.125   0.559   6.130
 5633SOL     OW17797   0.281   4.674   5.490
 5633SOL    HW117798   0.274   4.579   5.520
 5633SOL    HW217799   0.375   4.694   5.463
 5634SOL     OW17800   2.994   5.715   5.903
 5634SOL    HW117801   2.931   5.778   5.857
 5634SOL    HW217802   2.944   5.662   5.971
 5635SOL     OW17803   2.442   0.017   6.410
 5635SOL    HW117804   2.422   0.074   6.330
 5635SOL    HW217805   2.367   0.026   6.476
 5636SOL     OW17806   6.272   0.653   5.523
 5636SOL    HW117807   6.322   0.713   5.586
 5636SOL    HW217808   6.188   0.699   5.494
 5637SOL     OW17809   5.349   6.002   5.096
 5637SOL    HW117810   5.270   5.972   5.150
 5637SOL    HW217811   5.411   6.055   5.153
 5638SOL     OW17812   4.980   5.943   1.052
 5638SOL    HW117813   4.989   5.884   1.133
 5638SOL    HW217814   4.884   5.943   1.023
 5639SOL     OW17815   1.797   6.996   1.236
 5639SOL    HW117816   1.865   6.953   1.296
 5639SOL    HW217817   1.741   0.035   1.289
 5640SOL     OW17818   2.300   6.322   3.176
 5640SOL    HW117819   2.225   6.299   3.114
 5640SOL    HW217820   2.382   6.270   3.151
 5641SOL     OW17821   1.468   5.406   4.761
 5641SOL    HW117822   1.418   5.323   4.739
 5641SOL    HW217823   1.563   5.383   4.784
 5642SOL     OW17824   0.665   4.706   5.870
 5642SOL    HW117825   0.571   4.706   5.836
 5642SOL    HW217826   0.727   4.688   5.794
 5643SOL     OW17827   4.148   2.122   4.589
 5643SOL    HW117828   4.139   2.156   4.683
 5643SOL    HW217829   4.232   2.159   4.548
 5644SOL     OW17830   4.949   1.521   4.760
 5644SOL    HW117831   4.921   1.616   4.771
 5644SOL    HW217832   5.045   1.511   4.786
 5645SOL     OW17833   5.218   5.202   2.030
 5645SOL    HW117834   5.309   5.187   2.068
 5645SOL    HW217835   5.225   5.255   1.945
 5646SOL     OW17836   0.172   6.093   3.726
 5646SOL    HW117837   0.186   6.070   3.630
 5646SOL    HW217838   0.091   6.046   3.760
 5647SOL     OW17839   6.579   5.794   0.046
 5647SOL    HW117840   6.622   5.884   0.050
 5647SOL    HW217841   6.591   5.747   0.133
 5648SOL     OW17842   1.727   1.586   3.356
 5648SOL    HW117843   1.710   1.531   3.273
 5648SOL    HW217844   1.824   1.611   3.359
 5649SOL     OW17845   2.067   0.562   4.754
 5649SOL    HW117846   1.977   0.557   4.798
 5649SOL    HW217847   2.138   0.571   4.824
 5650SOL     OW17848   6.955   5.099   1.118
 5650SOL    HW117849   6.953   5.017   1.175
 5650SOL    HW217850   6.944   5.180   1.175
 5651SOL     OW17851   0.790   2.023   1.638
 5651SOL    HW117852   0.747   2.086   1.574
 5651SOL    HW217853   0.721   1.982   1.697
 5652SOL     OW17854   5.676   5.851   1.585
 5652SOL    HW117855   5.714   5.882   1.498
 5652SOL    HW217856   5.680   5.925   1.651
 5653SOL     OW17857   6.792   6.034   6.024
 5653SOL    HW117858   6.771   6.118   5.973
 5653SOL    HW217859   6.732   6.028   6.103
 5654SOL     OW17860   0.348   0.167   6.069
 5654SOL    HW117861   0.312   0.175   6.162
 5654SOL    HW217862   0.301   0.232   6.010
 5655SOL     OW17863   1.443   3.179   4.022
 5655SOL    HW117864   1.389   3.106   4.065
 5655SOL    HW217865   1.531   3.187   4.070
 5656SOL     OW17866   3.382   4.206   0.830
 5656SOL    HW117867   3.421   4.133   0.886
 5656SOL    HW217868   3.448   4.280   0.820
 5657SOL     OW17869   5.089   6.559   1.317
 5657SOL    HW117870   5.135   6.499   1.252
 5657SOL    HW217871   5.075   6.510   1.404
 5658SOL     OW17872   3.420   6.868   5.410
 5658SOL    HW117873   3.358   6.865   5.489
 5658SOL    HW217874   3.514   6.860   5.442
 5659SOL     OW17875   2.914   3.316   2.811
 5659SOL    HW117876   2.953   3.407   2.816
 5659SOL    HW217877   2.986   3.249   2.797
 5660SOL     OW17878   5.660   0.212   0.627
 5660SOL    HW117879   5.656   0.128   0.573
 5660SOL    HW217880   5.703   0.284   0.573
 5661SOL     OW17881   6.542   6.305   5.183
 5661SOL    HW117882   6.478   6.247   5.132
 5661SOL    HW217883   6.490   6.375   5.233
 5662SOL     OW17884   2.745   4.681   3.750
 5662SOL    HW117885   2.677   4.652   3.817
 5662SOL    HW217886   2.710   4.666   3.658
 5663SOL     OW17887   0.843   3.923   0.190
 5663SOL    HW117888   0.925   3.877   0.225
 5663SOL    HW217889   0.774   3.855   0.166
 5664SOL     OW17890   0.427   5.008   3.209
 5664SOL    HW117891   0.353   4.946   3.186
 5664SOL    HW217892   0.506   4.988   3.151
 5665SOL     OW17893   1.579   2.432   6.331
 5665SOL    HW117894   1.649   2.494   6.295
 5665SOL    HW217895   1.499   2.485   6.359
 5666SOL     OW17896   4.703   5.554   0.977
 5666SOL    HW117897   4.630   5.537   0.912
 5666SOL    HW217898   4.679   5.515   1.066
 5667SOL     OW17899   0.709   4.843   3.170
 5667SOL    HW117900   0.699   4.747   3.145
 5667SOL    HW217901   0.767   4.851   3.251
 5668SOL     OW17902   4.637   1.408   6.528
 5668SOL    HW117903   4.558   1.380   6.583
 5668SOL    HW217904   4.694   1.328   6.508
 5669SOL     OW17905   0.040   5.111   5.724
 5669SOL    HW117906   6.999   5.046   5.761
 5669SOL    HW217907   0.126   5.065   5.704
 5670SOL     OW17908   0.126   3.117   3.716
 5670SOL    HW117909   0.221   3.093   3.696
 5670SOL    HW217910   0.097   3.070   3.800
 5671SOL     OW17911   1.930   6.364   6.550
 5671SOL    HW117912   2.024   6.376   6.583
 5671SOL    HW217913   1.930   6.315   6.463
 5672SOL     OW17914   4.824   3.935   5.912
 5672SOL    HW117915   4.824   3.933   5.812
 5672SOL    HW217916   4.879   3.860   5.947
 5673SOL     OW17917   0.352   0.496   2.300
 5673SOL    HW117918   0.418   0.492   2.225
 5673SOL    HW217919   0.275   0.435   2.280
 5674SOL     OW17920   7.013   3.834   1.747
 5674SOL    HW117921   0.025   3.752   1.704
 5674SOL    HW217922   6.918   3.818   1.775
 5675SOL     OW17923   4.274   2.313   5.475
 5675SOL    HW117924   4.332   2.265   5.541
 5675SOL    HW217925   4.257   2.406   5.507
 5676SOL     OW17926   1.839   1.255   0.828
 5676SOL    HW117927   1.744   1.264   0.796
 5676SOL    HW217928   1.879   1.172   0.791
 5677SOL     OW17929   7.024   1.302   2.931
 5677SOL    HW117930   6.926   1.282   2.932
 5677SOL    HW217931   0.020   1.364   2.855
 5678SOL     OW17932   3.060   6.435   3.034
 5678SOL    HW117933   3.053   6.394   3.125
 5678SOL    HW217934   3.116   6.518   3.039
 5679SOL     OW17935   1.493   6.854   4.928
 5679SOL    HW117936   1.572   6.875   4.986
 5679SOL    HW217937   1.493   6.756   4.906
 5680SOL     OW17938   1.847   5.517   7.018
 5680SOL    HW117939   1.905   5.437   0.009
 5680SOL    HW217940   1.757   5.487   6.988
 5681SOL     OW17941   0.517   2.993   6.465
 5681SOL    HW117942   0.469   2.945   6.392
 5681SOL    HW217943   0.608   2.952   6.478
 5682SOL     OW17944   1.591   2.889   5.458
 5682SOL    HW117945   1.584   2.848   5.549
 5682SOL    HW217946   1.606   2.817   5.390
 5683SOL     OW17947   3.900   2.523   6.126
 5683SOL    HW117948   3.949   2.581   6.191
 5683SOL    HW217949   3.916   2.557   6.033
 5684SOL     OW17950   3.926   3.213   4.287
 5684SOL    HW117951   3.877   3.183   4.369
 5684SOL    HW217952   3.865   3.268   4.231
 5685SOL     OW17953   0.202   4.730   2.005
 5685SOL    HW117954   0.266   4.805   1.990
 5685SOL    HW217955   0.108   4.762   1.991
 5686SOL     OW17956   3.405   0.514   0.222
 5686SOL    HW117957   3.321   0.547   0.178
 5686SOL    HW217958   3.387   0.499   0.320
 5687SOL     OW17959   6.619   4.683   4.684
 5687SOL    HW117960   6.552   4.653   4.616
 5687SOL    HW217961   6.580   4.673   4.775
 5688SOL     OW17962   6.456   1.998   0.886
 5688SOL    HW117963   6.505   1.978   0.801
 5688SOL    HW217964   6.406   1.917   0.916
 5689SOL     OW17965   4.293   1.569   0.880
 5689SOL    HW117966   4.383   1.607   0.858
 5689SOL    HW217967   4.277   1.575   0.978
 5690SOL     OW17968   3.631   6.051   0.811
 5690SOL    HW117969   3.570   6.105   0.753
 5690SOL    HW217970   3.629   5.956   0.782
 5691SOL     OW17971   2.914   6.105   2.354
 5691SOL    HW117972   2.897   6.200   2.329
 5691SOL    HW217973   2.896   6.046   2.276
 5692SOL     OW17974   6.354   1.943   6.376
 5692SOL    HW117975   6.380   2.020   6.317
 5692SOL    HW217976   6.311   1.978   6.459
 5693SOL     OW17977   5.052   2.525   2.466
 5693SOL    HW117978   5.125   2.593   2.467
 5693SOL    HW217979   4.967   2.569   2.436
 5694SOL     OW17980   0.707   1.378   3.649
 5694SOL    HW117981   0.673   1.432   3.572
 5694SOL    HW217982   0.718   1.437   3.729
 5695SOL     OW17983   1.084   2.464   2.863
 5695SOL    HW117984   1.058   2.478   2.958
 5695SOL    HW217985   1.183   2.460   2.855
 5696SOL     OW17986   3.013   1.038   4.582
 5696SOL    HW117987   3.008   1.138   4.594
 5696SOL    HW217988   3.102   1.015   4.541
 5697SOL     OW17989   6.893   2.491   1.302
 5697SOL    HW117990   6.946   2.543   1.369
 5697SOL    HW217991   6.899   2.535   1.212
 5698SOL     OW17992   0.161   2.103   2.154
 5698SOL    HW117993   0.212   2.083   2.238
 5698SOL    HW217994   0.189   2.038   2.083
 5699SOL     OW17995   5.925   1.846   3.848
 5699SOL    HW117996   5.994   1.919   3.851
 5699SOL    HW217997   5.892   1.827   3.940
 5700SOL     OW17998   0.002   6.405   4.698
 5700SOL    HW117999   0.019   6.474   4.767
 5700SOL    HW218000   0.015   6.314   4.738
 5701SOL     OW18001   0.628   5.756   3.134
 5701SOL    HW118002   0.637   5.832   3.070
 5701SOL    HW218003   0.537   5.757   3.174
 5702SOL     OW18004   2.065   0.059   6.157
 5702SOL    HW118005   2.065   0.020   6.249
 5702SOL    HW218006   2.150   0.034   6.110
 5703SOL     OW18007   4.816   5.154   6.893
 5703SOL    HW118008   4.892   5.115   6.944
 5703SOL    HW218009   4.736   5.095   6.901
 5704SOL     OW18010   4.291   5.701   2.756
 5704SOL    HW118011   4.211   5.644   2.736
 5704SOL    HW218012   4.265   5.772   2.823
 5705SOL     OW18013   6.308   0.822   1.072
 5705SOL    HW118014   6.263   0.759   1.135
 5705SOL    HW218015   6.387   0.864   1.116
 5706SOL     OW18016   1.654   1.657   0.169
 5706SOL    HW118017   1.599   1.719   0.225
 5706SOL    HW218018   1.642   1.681   0.072
 5707SOL     OW18019   1.101   0.029   6.654
 5707SOL    HW118020   1.104   0.060   6.750
 5707SOL    HW218021   1.050   6.968   6.649
 5708SOL     OW18022   5.549   0.347   2.231
 5708SOL    HW118023   5.471   0.400   2.197
 5708SOL    HW218024   5.602   0.312   2.153
 5709SOL     OW18025   0.575   6.043   3.245
 5709SOL    HW118026   0.578   6.072   3.149
 5709SOL    HW218027   0.511   5.967   3.255
 5710SOL     OW18028   2.731   3.582   5.545
 5710SOL    HW118029   2.820   3.627   5.541
 5710SOL    HW218030   2.682   3.597   5.459
 5711SOL     OW18031   4.572   0.388   3.702
 5711SOL    HW118032   4.617   0.342   3.626
 5711SOL    HW218033   4.475   0.362   3.703
 5712SOL     OW18034   0.857   6.811   5.578
 5712SOL    HW118035   0.923   6.870   5.623
 5712SOL    HW218036   0.903   6.730   5.542
 5713SOL     OW18037   1.110   2.293   1.317
 5713SOL    HW118038   1.053   2.271   1.396
 5713SOL    HW218039   1.186   2.229   1.311
 5714SOL     OW18040   1.154   6.593   6.693
 5714SOL    HW118041   1.214   6.557   6.622
 5714SOL    HW218042   1.189   6.567   6.783
 5715SOL     OW18043   1.225   6.057   3.464
 5715SOL    HW118044   1.180   6.095   3.545
 5715SOL    HW218045   1.297   6.120   3.434
 5716SOL     OW18046   0.931   4.109   5.085
 5716SOL    HW118047   0.843   4.119   5.038
 5716SOL    HW218048   0.954   4.195   5.130
 5717SOL     OW18049   2.038   4.889   0.613
 5717SOL    HW118050   2.076   4.892   0.705
 5717SOL    HW218051   1.938   4.890   0.618
 5718SOL     OW18052   1.724   4.529   6.937
 5718SOL    HW118053   1.773   4.460   6.991
 5718SOL    HW218054   1.784   4.564   6.865
 5719SOL     OW18055   3.068   1.063   5.800
 5719SOL    HW118056   3.068   1.156   5.763
 5719SOL    HW218057   3.158   1.022   5.785
 5720SOL     OW18058   0.588   5.137   5.051
 5720SOL    HW118059   0.635   5.191   5.121
 5720SOL    HW218060   0.565   5.196   4.973
 5721SOL     OW18061   0.846   3.365   7.010
 5721SOL    HW118062   0.917   3.429   6.980
 5721SOL    HW218063   0.863   3.275   6.971
 5722SOL     OW18064   5.294   1.071   4.796
 5722SOL    HW118065   5.209   1.122   4.781
 5722SOL    HW218066   5.283   0.978   4.760
 5723SOL     OW18067   4.286   4.644   0.645
 5723SOL    HW118068   4.230   4.605   0.572
 5723SOL    HW218069   4.326   4.571   0.700
 5724SOL     OW18070   3.856   2.553   5.596
 5724SOL    HW118071   3.790   2.485   5.565
 5724SOL    HW218072   3.819   2.645   5.583
 5725SOL     OW18073   4.797   5.601   3.442
 5725SOL    HW118074   4.896   5.590   3.429
 5725SOL    HW218075   4.763   5.671   3.379
 5726SOL     OW18076   6.723   3.378   3.681
 5726SOL    HW118077   6.740   3.471   3.711
 5726SOL    HW218078   6.744   3.370   3.584
 5727SOL     OW18079   5.736   3.569   2.727
 5727SOL    HW118080   5.694   3.519   2.651
 5727SOL    HW218081   5.797   3.508   2.778
 5728SOL     OW18082   5.240   1.349   6.779
 5728SOL    HW118083   5.273   1.263   6.819
 5728SOL    HW218084   5.283   1.426   6.827
 5729SOL     OW18085   0.992   1.630   1.046
 5729SOL    HW118086   1.017   1.727   1.053
 5729SOL    HW218087   0.908   1.622   0.993
 5730SOL     OW18088   3.864   5.549   5.503
 5730SOL    HW118089   3.826   5.626   5.554
 5730SOL    HW218090   3.886   5.577   5.410
 5731SOL     OW18091   1.333   6.424   3.909
 5731SOL    HW118092   1.340   6.498   3.842
 5731SOL    HW218093   1.289   6.345   3.867
 5732SOL     OW18094   5.873   4.814   4.821
 5732SOL    HW118095   5.886   4.910   4.847
 5732SOL    HW218096   5.897   4.755   4.897
 5733SOL     OW18097   3.745   1.103   6.126
 5733SOL    HW118098   3.708   1.012   6.140
 5733SOL    HW218099   3.754   1.122   6.028
 5734SOL     OW18100   0.967   0.142   5.412
 5734SOL    HW118101   0.994   0.080   5.338
 5734SOL    HW218102   0.868   0.155   5.410
 5735SOL     OW18103   3.797   0.876   2.628
 5735SOL    HW118104   3.802   0.777   2.617
 5735SOL    HW218105   3.701   0.903   2.635
 5736SOL     OW18106   5.346   4.600   6.398
 5736SOL    HW118107   5.432   4.633   6.360
 5736SOL    HW218108   5.297   4.546   6.329
 5737SOL     OW18109   5.191   6.111   1.008
 5737SOL    HW118110   5.217   6.080   0.916
 5737SOL    HW218111   5.128   6.045   1.049
 5738SOL     OW18112   3.636   1.460   6.597
 5738SOL    HW118113   3.634   1.416   6.507
 5738SOL    HW218114   3.640   1.559   6.585
 5739SOL     OW18115   1.865   6.710   5.324
 5739SOL    HW118116   1.771   6.676   5.331
 5739SOL    HW218117   1.925   6.635   5.293
 5740SOL     OW18118   4.972   3.795   0.825
 5740SOL    HW118119   4.877   3.789   0.793
 5740SOL    HW218120   5.014   3.704   0.820
 5741SOL     OW18121   0.104   3.416   3.707
 5741SOL    HW118122   0.043   3.450   3.635
 5741SOL    HW218123   0.108   3.317   3.702
 5742SOL     OW18124   3.964   0.325   3.585
 5742SOL    HW118125   4.015   0.336   3.500
 5742SOL    HW218126   3.936   0.229   3.595
 5743SOL     OW18127   3.614   4.509   5.992
 5743SOL    HW118128   3.610   4.504   6.092
 5743SOL    HW218129   3.710   4.516   5.963
 5744SOL     OW18130   6.335   1.074   2.913
 5744SOL    HW118131   6.364   0.999   2.973
 5744SOL    HW218132   6.271   1.133   2.961
 5745SOL     OW18133   2.559   1.714   3.759
 5745SOL    HW118134   2.462   1.697   3.776
 5745SOL    HW218135   2.581   1.689   3.664
 5746SOL     OW18136   4.346   0.279   3.412
 5746SOL    HW118137   4.330   0.183   3.434
 5746SOL    HW218138   4.371   0.329   3.495
 5747SOL     OW18139   0.844   6.044   2.135
 5747SOL    HW118140   0.931   6.019   2.177
 5747SOL    HW218141   0.861   6.077   2.042
 5748SOL     OW18142   0.892   0.198   0.876
 5748SOL    HW118143   0.924   0.175   0.784
 5748SOL    HW218144   0.794   0.220   0.873
 5749SOL     OW18145   1.964   6.567   5.027
 5749SOL    HW118146   2.043   6.592   4.971
 5749SOL    HW218147   1.894   6.525   4.969
 5750SOL     OW18148   6.096   4.938   5.726
 5750SOL    HW118149   6.043   4.883   5.661
 5750SOL    HW218150   6.071   4.912   5.819
 5751SOL     OW18151   1.543   3.536   4.739
 5751SOL    HW118152   1.520   3.468   4.809
 5751SOL    HW218153   1.632   3.576   4.760
 5752SOL     OW18154   5.863   6.962   1.286
 5752SOL    HW118155   5.785   6.945   1.347
 5752SOL    HW218156   5.829   6.994   1.198
 5753SOL     OW18157   3.286   3.495   4.827
 5753SOL    HW118158   3.384   3.489   4.846
 5753SOL    HW218159   3.268   3.461   4.735
 5754SOL     OW18160   1.128   6.009   2.221
 5754SOL    HW118161   1.156   6.070   2.295
 5754SOL    HW218162   1.156   6.049   2.133
 5755SOL     OW18163   1.482   2.170   5.827
 5755SOL    HW118164   1.418   2.108   5.781
 5755SOL    HW218165   1.431   2.242   5.874
 5756SOL     OW18166   6.820   0.662   3.287
 5756SOL    HW118167   6.750   0.704   3.230
 5756SOL    HW218168   6.884   0.733   3.319
 5757SOL     OW18169   0.585   5.580   3.866
 5757SOL    HW118170   0.574   5.581   3.767
 5757SOL    HW218171   0.517   5.520   3.907
 5758SOL     OW18172   2.439   0.741   3.514
 5758SOL    HW118173   2.387   0.677   3.571
 5758SOL    HW218174   2.473   0.816   3.570
 5759SOL     OW18175   4.656   0.270   1.654
 5759SOL    HW118176   4.685   0.194   1.713
 5759SOL    HW218177   4.649   0.239   1.560
 5760SOL     OW18178   6.794   2.679   2.025
 5760SOL    HW118179   6.775   2.710   2.118
 5760SOL    HW218180   6.722   2.711   1.964
 5761SOL     OW18181   5.281   5.531   5.093
 5761SOL    HW118182   5.361   5.480   5.127
 5761SOL    HW218183   5.293   5.628   5.112
 5762SOL     OW18184   4.765   4.157   0.303
 5762SOL    HW118185   4.820   4.190   0.226
 5762SOL    HW218186   4.679   4.121   0.269
 5763SOL     OW18187   5.569   6.128   0.615
 5763SOL    HW118188   5.569   6.028   0.615
 5763SOL    HW218189   5.647   6.160   0.560
 5764SOL     OW18190   4.342   5.372   3.951
 5764SOL    HW118191   4.337   5.458   4.001
 5764SOL    HW218192   4.335   5.295   4.014
 5765SOL     OW18193   6.618   3.547   0.803
 5765SOL    HW118194   6.715   3.568   0.790
 5765SOL    HW218195   6.585   3.592   0.886
 5766SOL     OW18196   2.249   2.073   4.725
 5766SOL    HW118197   2.150   2.084   4.713
 5766SOL    HW218198   2.278   1.986   4.686
 5767SOL     OW18199   2.614   0.120   6.609
 5767SOL    HW118200   2.602   0.043   6.672
 5767SOL    HW218201   2.583   0.093   6.517
 5768SOL     OW18202   0.262   6.836   3.587
 5768SOL    HW118203   0.334   6.767   3.577
 5768SOL    HW218204   0.184   6.811   3.530
 5769SOL     OW18205   2.951   5.594   5.020
 5769SOL    HW118206   2.859   5.561   5.040
 5769SOL    HW218207   3.016   5.518   5.028
 5770SOL     OW18208   6.982   6.247   6.951
 5770SOL    HW118209   6.993   6.162   6.900
 5770SOL    HW218210   6.980   6.324   6.887
 5771SOL     OW18211   2.044   0.339   4.300
 5771SOL    HW118212   2.043   0.417   4.363
 5771SOL    HW218213   2.000   0.261   4.343
 5772SOL     OW18214   5.009   1.265   1.665
 5772SOL    HW118215   4.967   1.346   1.624
 5772SOL    HW218216   4.954   1.235   1.743
 5773SOL     OW18217   4.171   0.906   2.691
 5773SOL    HW118218   4.255   0.887   2.743
 5773SOL    HW218219   4.166   0.842   2.614
 5774SOL     OW18220   1.776   0.473   4.500
 5774SOL    HW118221   1.864   0.520   4.493
 5774SOL    HW218222   1.702   0.540   4.493
 5775SOL     OW18223   0.997   6.728   2.847
 5775SOL    HW118224   1.065   6.771   2.907
 5775SOL    HW218225   0.928   6.795   2.820
 5776SOL     OW18226   1.128   0.322   3.772
 5776SOL    HW118227   1.226   0.340   3.759
 5776SOL    HW218228   1.115   0.266   3.854
 5777SOL     OW18229   0.608   0.109   3.838
 5777SOL    HW118230   0.599   0.034   3.904
 5777SOL    HW218231   0.524   0.165   3.839
 5778SOL     OW18232   1.632   1.036   0.536
 5778SOL    HW118233   1.589   0.962   0.483
 5778SOL    HW218234   1.596   1.035   0.629
 5779SOL     OW18235   4.658   2.343   0.302
 5779SOL    HW118236   4.712   2.423   0.278
 5779SOL    HW218237   4.634   2.346   0.399
 5780SOL     OW18238   5.010   6.046   4.808
 5780SOL    HW118239   5.048   6.048   4.716
 5780SOL    HW218240   5.022   5.955   4.847
 5781SOL     OW18241   6.294   4.897   4.107
 5781SOL    HW118242   6.351   4.857   4.178
 5781SOL    HW218243   6.198   4.887   4.132
 5782SOL     OW18244   1.512   1.883   0.302
 5782SOL    HW118245   1.567   1.857   0.382
 5782SOL    HW218246   1.505   1.982   0.298
 5783SOL     OW18247   1.086   0.688   2.174
 5783SOL    HW118248   1.186   0.685   2.178
 5783SOL    HW218249   1.057   0.777   2.137
 5784SOL     OW18250   0.581   6.681   5.271
 5784SOL    HW118251   0.641   6.602   5.280
 5784SOL    HW218252   0.489   6.656   5.302
 5785SOL     OW18253   1.871   1.887   0.227
 5785SOL    HW118254   1.903   1.800   0.190
 5785SOL    HW218255   1.843   1.947   0.152
 5786SOL     OW18256   6.839   4.275   0.605
 5786SOL    HW118257   6.744   4.306   0.616
 5786SOL    HW218258   6.871   4.297   0.513
 5787SOL     OW18259   2.009   2.666   5.359
 5787SOL    HW118260   1.936   2.622   5.412
 5787SOL    HW218261   2.063   2.595   5.313
 5788SOL     OW18262   3.054   1.234   2.367
 5788SOL    HW118263   3.080   1.251   2.272
 5788SOL    HW218264   3.109   1.159   2.404
 5789SOL     OW18265   3.324   4.916   6.712
 5789SOL    HW118266   3.323   5.011   6.681
 5789SOL    HW218267   3.399   4.902   6.777
 5790SOL     OW18268   1.847   4.128   4.064
 5790SOL    HW118269   1.917   4.193   4.036
 5790SOL    HW218270   1.882   4.035   4.052
 5791SOL     OW18271   4.068   0.266   2.252
 5791SOL    HW118272   4.162   0.261   2.217
 5791SOL    HW218273   4.022   0.344   2.209
 5792SOL     OW18274   6.759   2.506   2.963
 5792SOL    HW118275   6.795   2.575   3.025
 5792SOL    HW218276   6.792   2.524   2.870
 5793SOL     OW18277   5.335   0.368   4.306
 5793SOL    HW118278   5.302   0.461   4.324
 5793SOL    HW218279   5.260   0.313   4.271
 5794SOL     OW18280   3.783   2.316   0.759
 5794SOL    HW118281   3.742   2.240   0.810
 5794SOL    HW218282   3.721   2.394   0.760
 5795SOL     OW18283   6.652   5.842   6.602
 5795SOL    HW118284   6.628   5.905   6.676
 5795SOL    HW218285   6.569   5.812   6.556
 5796SOL     OW18286   3.983   1.022   7.011
 5796SOL    HW118287   3.993   0.923   6.999
 5796SOL    HW218288   3.886   1.047   7.003
 5797SOL     OW18289   4.492   1.843   5.632
 5797SOL    HW118290   4.533   1.755   5.655
 5797SOL    HW218291   4.393   1.837   5.640
 5798SOL     OW18292   0.841   4.832   4.915
 5798SOL    HW118293   0.907   4.769   4.956
 5798SOL    HW218294   0.769   4.851   4.981
 5799SOL     OW18295   5.324   1.157   3.770
 5799SOL    HW118296   5.231   1.179   3.741
 5799SOL    HW218297   5.326   1.066   3.810
 5800SOL     OW18298   6.171   5.934   1.177
 5800SOL    HW118299   6.161   5.902   1.271
 5800SOL    HW218300   6.266   5.925   1.148
 5801SOL     OW18301   1.579   2.323   4.291
 5801SOL    HW118302   1.524   2.242   4.273
 5801SOL    HW218303   1.521   2.396   4.328
 5802SOL     OW18304   1.163   4.708   1.108
 5802SOL    HW118305   1.260   4.724   1.096
 5802SOL    HW218306   1.122   4.679   1.021
 5803SOL     OW18307   1.430   4.598   2.246
 5803SOL    HW118308   1.506   4.651   2.284
 5803SOL    HW218309   1.466   4.525   2.188
 5804SOL     OW18310   0.385   5.451   3.986
 5804SOL    HW118311   0.319   5.491   4.050
 5804SOL    HW218312   0.363   5.354   3.972
 5805SOL     OW18313   2.409   3.353   5.948
 5805SOL    HW118314   2.457   3.365   5.861
 5805SOL    HW218315   2.347   3.275   5.942
 5806SOL     OW18316   0.022   6.002   5.932
 5806SOL    HW118317   6.953   5.997   5.968
 5806SOL    HW218318   0.057   5.910   5.917
 5807SOL     OW18319   0.799   3.776   1.752
 5807SOL    HW118320   0.766   3.791   1.846
 5807SOL    HW218321   0.899   3.778   1.751
 5808SOL     OW18322   6.039   4.515   4.271
 5808SOL    HW118323   6.006   4.585   4.334
 5808SOL    HW218324   6.133   4.490   4.295
 5809SOL     OW18325   6.814   2.071   4.719
 5809SOL    HW118326   6.887   2.084   4.652
 5809SOL    HW218327   6.726   2.075   4.673
 5810SOL     OW18328   3.920   1.504   3.913
 5810SOL    HW118329   3.935   1.574   3.843
 5810SOL    HW218330   3.892   1.418   3.869
 5811SOL     OW18331   3.097   0.555   5.850
 5811SOL    HW118332   3.120   0.468   5.807
 5811SOL    HW218333   3.155   0.627   5.813
 5812SOL     OW18334   6.148   1.635   4.049
 5812SOL    HW118335   6.186   1.619   4.140
 5812SOL    HW218336   6.053   1.666   4.058
 5813SOL     OW18337   1.786   1.583   0.911
 5813SOL    HW118338   1.688   1.600   0.919
 5813SOL    HW218339   1.810   1.502   0.965
 5814SOL     OW18340   6.323   4.832   1.425
 5814SOL    HW118341   6.414   4.804   1.456
 5814SOL    HW218342   6.253   4.779   1.473
 5815SOL     OW18343   4.774   2.626   4.115
 5815SOL    HW118344   4.691   2.582   4.081
 5815SOL    HW218345   4.773   2.626   4.215
 5816SOL     OW18346   4.634   5.990   0.175
 5816SOL    HW118347   4.689   5.998   0.259
 5816SOL    HW218348   4.569   6.065   0.170
 5817SOL     OW18349   5.572   3.571   6.100
 5817SOL    HW118350   5.636   3.647   6.096
 5817SOL    HW218351   5.622   3.485   6.106
 5818SOL     OW18352   6.692   5.634   4.759
 5818SOL    HW118353   6.683   5.534   4.756
 5818SOL    HW218354   6.653   5.673   4.676
 5819SOL     OW18355   4.106   6.327   6.677
 5819SOL    HW118356   4.027   6.347   6.620
 5819SOL    HW218357   4.190   6.337   6.623
 5820SOL     OW18358   4.079   5.843   4.172
 5820SOL    HW118359   4.059   5.863   4.076
 5820SOL    HW218360   4.178   5.834   4.183
 5821SOL     OW18361   0.211   0.101   2.406
 5821SOL    HW118362   0.197   0.016   2.458
 5821SOL    HW218363   0.125   0.128   2.363
 5822SOL     OW18364   0.757   2.398   2.246
 5822SOL    HW118365   0.681   2.364   2.301
 5822SOL    HW218366   0.842   2.355   2.277
 5823SOL     OW18367   0.895   1.371   5.829
 5823SOL    HW118368   0.980   1.321   5.811
 5823SOL    HW218369   0.848   1.329   5.907
 5824SOL     OW18370   6.334   4.942   2.377
 5824SOL    HW118371   6.327   4.867   2.442
 5824SOL    HW218372   6.385   4.912   2.296
 5825SOL     OW18373   2.112   2.384   5.379
 5825SOL    HW118374   2.066   2.314   5.324
 5825SOL    HW218375   2.210   2.382   5.360
 5826SOL     OW18376   6.952   5.385   5.371
 5826SOL    HW118377   6.992   5.406   5.282
 5826SOL    HW218378   6.877   5.320   5.359
 5827SOL     OW18379   2.479   4.586   4.713
 5827SOL    HW118380   2.425   4.638   4.647
 5827SOL    HW218381   2.428   4.578   4.798
 5828SOL     OW18382   6.832   2.710   1.698
 5828SOL    HW118383   6.921   2.694   1.740
 5828SOL    HW218384   6.774   2.761   1.762
 5829SOL     OW18385   2.269   1.223   3.080
 5829SOL    HW118386   2.307   1.162   3.150
 5829SOL    HW218387   2.278   1.180   2.990
 5830SOL     OW18388   4.543   0.240   5.229
 5830SOL    HW118389   4.460   0.216   5.178
 5830SOL    HW218390   4.573   0.332   5.202
 5831SOL     OW18391   0.092   0.862   4.358
 5831SOL    HW118392   0.187   0.893   4.360
 5831SOL    HW218393   0.083   0.779   4.413
 5832SOL     OW18394   3.890   4.483   6.063
 5832SOL    HW118395   3.950   4.542   6.117
 5832SOL    HW218396   3.944   4.428   6.000
 5833SOL     OW18397   4.059   3.244   5.065
 5833SOL    HW118398   3.970   3.272   5.102
 5833SOL    HW218399   4.062   3.145   5.056
 5834SOL     OW18400   6.505   3.071   0.496
 5834SOL    HW118401   6.587   3.040   0.447
 5834SOL    HW218402   6.435   2.999   0.493
 5835SOL     OW18403   4.897   3.426   3.730
 5835SOL    HW118404   4.951   3.486   3.788
 5835SOL    HW218405   4.854   3.355   3.785
 5836SOL     OW18406   2.575   6.587   2.585
 5836SOL    HW118407   2.497   6.604   2.646
 5836SOL    HW218408   2.551   6.514   2.521
 5837SOL     OW18409   4.136   5.027   5.773
 5837SOL    HW118410   4.190   4.975   5.840
 5837SOL    HW218411   4.186   5.110   5.748
 5838SOL     OW18412   2.675   1.615   5.852
 5838SOL    HW118413   2.730   1.608   5.935
 5838SOL    HW218414   2.587   1.569   5.867
 5839SOL     OW18415   0.294   1.943   2.628
 5839SOL    HW118416   0.226   1.998   2.676
 5839SOL    HW218417   0.386   1.968   2.659
 5840SOL     OW18418   0.901   5.278   6.604
 5840SOL    HW118419   0.887   5.216   6.528
 5840SOL    HW218420   0.813   5.312   6.637
 5841SOL     OW18421   5.097   1.519   2.509
 5841SOL    HW118422   5.138   1.610   2.522
 5841SOL    HW218423   5.097   1.496   2.412
 5842SOL     OW18424   5.078   3.166   1.244
 5842SOL    HW118425   5.169   3.130   1.265
 5842SOL    HW218426   5.011   3.092   1.248
 5843SOL     OW18427   2.189   4.016   2.580
 5843SOL    HW118428   2.105   3.981   2.540
 5843SOL    HW218429   2.207   4.108   2.546
 5844SOL     OW18430   0.842   6.893   5.986
 5844SOL    HW118431   0.762   6.899   6.046
 5844SOL    HW218432   0.858   6.797   5.963
 5845SOL     OW18433   0.897   0.086   2.712
 5845SOL    HW118434   0.892   0.085   2.612
 5845SOL    HW218435   0.821   0.138   2.749
 5846SOL     OW18436   6.739   3.039   3.489
 5846SOL    HW118437   6.688   3.040   3.575
 5846SOL    HW218438   6.835   3.061   3.506
 5847SOL     OW18439   2.025   2.121   1.719
 5847SOL    HW118440   1.934   2.087   1.744
 5847SOL    HW218441   2.037   2.213   1.755
 5848SOL     OW18442   2.721   5.252   2.885
 5848SOL    HW118443   2.675   5.337   2.860
 5848SOL    HW218444   2.790   5.271   2.955
 5849SOL     OW18445   0.237   6.778   6.966
 5849SOL    HW118446   0.167   6.715   7.000
 5849SOL    HW218447   0.217   6.871   6.998
 5850SOL     OW18448   0.456   3.967   2.425
 5850SOL    HW118449   0.509   3.907   2.365
 5850SOL    HW218450   0.363   3.931   2.434
 5851SOL     OW18451   5.352   3.372   2.818
 5851SOL    HW118452   5.270   3.323   2.787
 5851SOL    HW218453   5.329   3.468   2.833
 5852SOL     OW18454   5.166   6.494   3.004
 5852SOL    HW118455   5.096   6.507   2.934
 5852SOL    HW218456   5.155   6.403   3.045
 5853SOL     OW18457   3.265   5.458   3.956
 5853SOL    HW118458   3.256   5.360   3.941
 5853SOL    HW218459   3.281   5.476   4.053
 5854SOL     OW18460   5.765   4.556   5.426
 5854SOL    HW118461   5.670   4.538   5.452
 5854SOL    HW218462   5.825   4.492   5.474
 5855SOL     OW18463   0.445   0.673   5.411
 5855SOL    HW118464   0.464   0.577   5.433
 5855SOL    HW218465   0.520   0.711   5.358
 5856SOL     OW18466   1.702   6.245   4.095
 5856SOL    HW118467   1.680   6.295   4.011
 5856SOL    HW218468   1.787   6.282   4.133
 5857SOL     OW18469   6.199   2.550   5.761
 5857SOL    HW118470   6.277   2.487   5.756
 5857SOL    HW218471   6.131   2.514   5.825
 5858SOL     OW18472   2.610   2.354   2.134
 5858SOL    HW118473   2.556   2.410   2.197
 5858SOL    HW218474   2.684   2.410   2.096
 5859SOL     OW18475   5.512   6.657   1.405
 5859SOL    HW118476   5.420   6.692   1.393
 5859SOL    HW218477   5.510   6.557   1.406
 5860SOL     OW18478   1.636   3.904   1.754
 5860SOL    HW118479   1.594   3.934   1.839
 5860SOL    HW218480   1.655   3.806   1.759
 5861SOL     OW18481   4.644   1.773   4.785
 5861SOL    HW118482   4.587   1.854   4.798
 5861SOL    HW218483   4.645   1.747   4.689
 5862SOL     OW18484   4.930   5.240   3.370
 5862SOL    HW118485   4.945   5.165   3.306
 5862SOL    HW218486   5.012   5.297   3.374
 5863SOL     OW18487   2.869   0.894   4.364
 5863SOL    HW118488   2.910   0.973   4.408
 5863SOL    HW218489   2.935   0.819   4.360
 5864SOL     OW18490   4.244   3.591   1.834
 5864SOL    HW118491   4.209   3.553   1.749
 5864SOL    HW218492   4.194   3.554   1.911
 5865SOL     OW18493   6.026   0.073   5.638
 5865SOL    HW118494   6.082   0.090   5.557
 5865SOL    HW218495   6.023   6.999   5.657
 5866SOL     OW18496   4.756   5.586   0.209
 5866SOL    HW118497   4.798   5.665   0.252
 5866SOL    HW218498   4.668   5.613   0.169
 5867SOL     OW18499   0.279   3.884   0.815
 5867SOL    HW118500   0.306   3.958   0.876
 5867SOL    HW218501   0.282   3.797   0.864
 5868SOL     OW18502   0.254   0.839   5.505
 5868SOL    HW118503   0.335   0.804   5.458
 5868SOL    HW218504   0.248   0.938   5.491
 5869SOL     OW18505   3.076   5.862   3.161
 5869SOL    HW118506   3.069   5.894   3.255
 5869SOL    HW218507   3.027   5.775   3.151
 5870SOL     OW18508   5.317   5.787   4.661
 5870SOL    HW118509   5.292   5.726   4.585
 5870SOL    HW218510   5.381   5.856   4.627
 5871SOL     OW18511   3.837   2.977   0.051
 5871SOL    HW118512   3.833   2.910   0.125
 5871SOL    HW218513   3.836   3.070   0.089
 5872SOL     OW18514   3.978   5.604   0.219
 5872SOL    HW118515   3.962   5.644   0.129
 5872SOL    HW218516   3.962   5.674   0.290
 5873SOL     OW18517   2.312   2.688   1.207
 5873SOL    HW118518   2.291   2.597   1.172
 5873SOL    HW218519   2.229   2.731   1.242
 5874SOL     OW18520   3.182   3.270   0.774
 5874SOL    HW118521   3.090   3.255   0.738
 5874SOL    HW218522   3.191   3.365   0.804
 5875SOL     OW18523   3.830   0.864   0.896
 5875SOL    HW118524   3.827   0.924   0.816
 5875SOL    HW218525   3.847   0.770   0.867
 5876SOL     OW18526   2.722   3.254   0.085
 5876SOL    HW118527   2.673   3.169   0.065
 5876SOL    HW218528   2.733   3.264   0.184
 5877SOL     OW18529   0.556   6.606   1.192
 5877SOL    HW118530   0.624   6.542   1.155
 5877SOL    HW218531   0.467   6.589   1.149
 5878SOL     OW18532   5.067   5.295   3.094
 5878SOL    HW118533   5.082   5.310   3.192
 5878SOL    HW218534   5.078   5.382   3.045
 5879SOL     OW18535   2.535   3.787   6.475
 5879SOL    HW118536   2.440   3.813   6.462
 5879SOL    HW218537   2.594   3.853   6.428
 5880SOL     OW18538   4.797   4.412   6.690
 5880SOL    HW118539   4.706   4.421   6.731
 5880SOL    HW218540   4.791   4.429   6.591
 5881SOL     OW18541   1.298   0.018   2.078
 5881SOL    HW118542   1.377   7.012   2.025
 5881SOL    HW218543   1.271   0.109   2.046
 5882SOL     OW18544   1.310   6.752   6.062
 5882SOL    HW118545   1.294   6.743   6.160
 5882SOL    HW218546   1.408   6.750   6.043
 5883SOL     OW18547   0.912   1.289   0.662
 5883SOL    HW118548   0.971   1.251   0.591
 5883SOL    HW218549   0.948   1.265   0.752
 5884SOL     OW18550   5.647   0.974   4.925
 5884SOL    HW118551   5.600   0.887   4.907
 5884SOL    HW218552   5.689   1.007   4.840
 5885SOL     OW18553   0.731   5.763   1.474
 5885SOL    HW118554   0.653   5.739   1.416
 5885SOL    HW218555   0.795   5.819   1.421
 5886SOL     OW18556   1.065   3.289   3.537
 5886SOL    HW118557   1.022   3.343   3.609
 5886SOL    HW218558   1.164   3.291   3.548
 5887SOL     OW18559   2.773   1.970   2.071
 5887SOL    HW118560   2.680   2.002   2.054
 5887SOL    HW218561   2.832   2.048   2.093
 5888SOL     OW18562   2.108   6.542   1.407
 5888SOL    HW118563   2.101   6.625   1.352
 5888SOL    HW218564   2.201   6.506   1.403
 5889SOL     OW18565   6.768   1.197   0.522
 5889SOL    HW118566   6.858   1.154   0.527
 5889SOL    HW218567   6.771   1.272   0.456
 5890SOL     OW18568   1.512   6.615   2.782
 5890SOL    HW118569   1.426   6.633   2.734
 5890SOL    HW218570   1.579   6.685   2.758
 5891SOL     OW18571   1.983   4.189   0.000
 5891SOL    HW118572   2.081   4.205   0.010
 5891SOL    HW218573   1.967   4.102   6.979
 5892SOL     OW18574   6.837   4.958   1.724
 5892SOL    HW118575   6.779   4.902   1.664
 5892SOL    HW218576   6.810   5.054   1.716
 5893SOL     OW18577   2.299   4.881   2.018
 5893SOL    HW118578   2.209   4.895   1.977
 5893SOL    HW218579   2.370   4.915   1.955
 5894SOL     OW18580   0.423   5.574   5.370
 5894SOL    HW118581   0.408   5.643   5.298
 5894SOL    HW218582   0.409   5.616   5.460
 5895SOL     OW18583   6.095   4.085   3.356
 5895SOL    HW118584   6.043   4.162   3.321
 5895SOL    HW218585   6.123   4.103   3.450
 5896SOL     OW18586   5.311   1.457   1.145
 5896SOL    HW118587   5.292   1.467   1.243
 5896SOL    HW218588   5.332   1.361   1.126
 5897SOL     OW18589   3.577   0.956   1.895
 5897SOL    HW118590   3.607   0.961   1.990
 5897SOL    HW218591   3.656   0.945   1.835
 5898SOL     OW18592   2.562   1.446   5.569
 5898SOL    HW118593   2.562   1.451   5.469
 5898SOL    HW218594   2.656   1.447   5.603
 5899SOL     OW18595   0.037   5.548   6.592
 5899SOL    HW118596   0.104   5.621   6.581
 5899SOL    HW218597   6.969   5.586   6.589
 5900SOL     OW18598   6.677   5.408   2.655
 5900SOL    HW118599   6.754   5.346   2.670
 5900SOL    HW218600   6.619   5.410   2.736
 5901SOL     OW18601   2.752   1.169   0.403
 5901SOL    HW118602   2.776   1.212   0.490
 5901SOL    HW218603   2.747   1.239   0.332
 5902SOL     OW18604   5.732   3.341   5.314
 5902SOL    HW118605   5.729   3.279   5.392
 5902SOL    HW218606   5.646   3.391   5.307
 5903SOL     OW18607   4.842   2.851   6.891
 5903SOL    HW118608   4.855   2.752   6.883
 5903SOL    HW218609   4.922   2.890   6.937
 5904SOL     OW18610   1.075   4.340   0.726
 5904SOL    HW118611   0.985   4.376   0.700
 5904SOL    HW218612   1.074   4.240   0.721
 5905SOL     OW18613   5.754   0.851   4.151
 5905SOL    HW118614   5.745   0.890   4.242
 5905SOL    HW218615   5.834   0.790   4.148
 5906SOL     OW18616   4.910   1.882   5.528
 5906SOL    HW118617   4.829   1.926   5.489
 5906SOL    HW218618   4.906   1.783   5.512
 5907SOL     OW18619   1.397   0.491   0.306
 5907SOL    HW118620   1.307   0.456   0.334
 5907SOL    HW218621   1.438   0.429   0.240
 5908SOL     OW18622   5.920   4.026   0.162
 5908SOL    HW118623   5.991   3.977   0.213
 5908SOL    HW218624   5.952   4.044   0.069
 5909SOL     OW18625   0.582   5.329   6.468
 5909SOL    HW118626   0.547   5.407   6.519
 5909SOL    HW218627   0.510   5.291   6.410
 5910SOL     OW18628   0.778   5.159   0.482
 5910SOL    HW118629   0.797   5.256   0.497
 5910SOL    HW218630   0.805   5.133   0.390
 5911SOL     OW18631   0.349   5.544   5.934
 5911SOL    HW118632   0.370   5.447   5.925
 5911SOL    HW218633   0.425   5.591   5.979
 5912SOL     OW18634   6.042   3.361   6.716
 5912SOL    HW118635   5.978   3.313   6.656
 5912SOL    HW218636   6.133   3.359   6.676
 5913SOL     OW18637   2.213   2.866   5.956
 5913SOL    HW118638   2.133   2.867   5.896
 5913SOL    HW218639   2.229   2.773   5.989
 5914SOL     OW18640   2.858   5.442   6.549
 5914SOL    HW118641   2.883   5.366   6.490
 5914SOL    HW218642   2.839   5.408   6.641
 5915SOL     OW18643   6.063   3.674   1.643
 5915SOL    HW118644   6.015   3.682   1.730
 5915SOL    HW218645   6.116   3.757   1.626
 5916SOL     OW18646   4.298   0.090   5.564
 5916SOL    HW118647   4.381   0.138   5.592
 5916SOL    HW218648   4.272   0.024   5.635
 5917SOL     OW18649   4.127   3.602   3.720
 5917SOL    HW118650   4.143   3.691   3.679
 5917SOL    HW218651   4.084   3.541   3.654
 5918SOL     OW18652   2.119   4.016   4.871
 5918SOL    HW118653   2.043   3.952   4.876
 5918SOL    HW218654   2.174   4.009   4.954
 5919SOL     OW18655   3.049   2.326   6.764
 5919SOL    HW118656   2.982   2.319   6.838
 5919SOL    HW218657   3.141   2.321   6.802
 5920SOL     OW18658   3.574   6.876   0.026
 5920SOL    HW118659   3.567   6.965   7.005
 5920SOL    HW218660   3.604   6.807   6.985
 5921SOL     OW18661   3.517   5.376   5.475
 5921SOL    HW118662   3.581   5.361   5.550
 5921SOL    HW218663   3.478   5.289   5.446
 5922SOL     OW18664   6.204   5.297   4.012
 5922SOL    HW118665   6.299   5.320   4.033
 5922SOL    HW218666   6.200   5.207   3.969
 5923SOL     OW18667   6.010   1.296   2.853
 5923SOL    HW118668   5.944   1.363   2.886
 5923SOL    HW218669   6.076   1.276   2.925
 5924SOL     OW18670   5.875   2.752   4.907
 5924SOL    HW118671   5.968   2.718   4.888
 5924SOL    HW218672   5.879   2.824   4.976
 5925SOL     OW18673   4.428   6.514   2.992
 5925SOL    HW118674   4.450   6.610   2.975
 5925SOL    HW218675   4.352   6.487   2.933
 5926SOL     OW18676   3.709   5.150   2.165
 5926SOL    HW118677   3.748   5.068   2.207
 5926SOL    HW218678   3.633   5.124   2.106
 5927SOL     OW18679   2.283   4.257   2.503
 5927SOL    HW118680   2.318   4.285   2.593
 5927SOL    HW218681   2.307   4.325   2.435
 5928SOL     OW18682   3.320   0.267   2.219
 5928SOL    HW118683   3.414   0.290   2.197
 5928SOL    HW218684   3.316   0.221   2.308
 5929SOL     OW18685   0.745   6.621   5.743
 5929SOL    HW118686   0.801   6.616   5.826
 5929SOL    HW218687   0.768   6.704   5.692
 5930SOL     OW18688   6.361   1.905   3.783
 5930SOL    HW118689   6.439   1.943   3.833
 5930SOL    HW218690   6.348   1.810   3.809
 5931SOL     OW18691   5.817   4.907   2.770
 5931SOL    HW118692   5.862   4.904   2.858
 5931SOL    HW218693   5.880   4.876   2.699
 5932SOL     OW18694   2.655   6.040   0.719
 5932SOL    HW118695   2.575   6.083   0.678
 5932SOL    HW218696   2.678   5.957   0.668
 5933SOL     OW18697   6.946   4.586   2.903
 5933SOL    HW118698   6.874   4.580   2.834
 5933SOL    HW218699   6.911   4.638   2.982
 5934SOL     OW18700   3.530   4.103   3.921
 5934SOL    HW118701   3.561   4.080   3.829
 5934SOL    HW218702   3.431   4.097   3.925
 5935SOL     OW18703   4.074   3.692   4.320
 5935SOL    HW118704   3.985   3.705   4.276
 5935SOL    HW218705   4.136   3.766   4.294
 5936SOL     OW18706   4.620   3.495   6.389
 5936SOL    HW118707   4.560   3.553   6.334
 5936SOL    HW218708   4.712   3.536   6.392
 5937SOL     OW18709   0.734   4.290   1.915
 5937SOL    HW118710   0.721   4.191   1.903
 5937SOL    HW218711   0.653   4.328   1.960
 5938SOL     OW18712   1.392   5.290   3.907
 5938SOL    HW118713   1.312   5.348   3.891
 5938SOL    HW218714   1.364   5.195   3.913
 5939SOL     OW18715   3.026   0.410   3.271
 5939SOL    HW118716   3.070   0.498   3.253
 5939SOL    HW218717   3.092   0.337   3.258
 5940SOL     OW18718   4.341   6.529   2.174
 5940SOL    HW118719   4.405   6.456   2.196
 5940SOL    HW218720   4.280   6.545   2.252
 5941SOL     OW18721   6.449   3.916   2.107
 5941SOL    HW118722   6.410   3.849   2.170
 5941SOL    HW218723   6.497   3.868   2.033
 5942SOL     OW18724   5.047   2.521   0.129
 5942SOL    HW118725   5.090   2.609   0.149
 5942SOL    HW218726   4.969   2.507   0.191
 5943SOL     OW18727   3.797   5.024   0.632
 5943SOL    HW118728   3.889   5.024   0.671
 5943SOL    HW218729   3.779   5.113   0.591
 5944SOL     OW18730   5.143   1.706   1.937
 5944SOL    HW118731   5.160   1.609   1.925
 5944SOL    HW218732   5.146   1.729   2.035
 5945SOL     OW18733   0.340   5.297   5.278
 5945SOL    HW118734   0.377   5.378   5.322
 5945SOL    HW218735   0.261   5.264   5.329
 5946SOL     OW18736   3.337   3.105   5.699
 5946SOL    HW118737   3.398   3.131   5.623
 5946SOL    HW218738   3.391   3.072   5.776
 5947SOL     OW18739   3.889   3.398   1.800
 5947SOL    HW118740   3.827   3.475   1.817
 5947SOL    HW218741   3.936   3.374   1.885
 5948SOL     OW18742   4.189   5.352   3.566
 5948SOL    HW118743   4.191   5.392   3.658
 5948SOL    HW218744   4.122   5.278   3.564
 5949SOL     OW18745   3.920   4.092   1.100
 5949SOL    HW118746   3.966   4.086   1.011
 5949SOL    HW218747   3.899   4.001   1.133
 5950SOL     OW18748   5.273   3.035   5.343
 5950SOL    HW118749   5.253   3.114   5.286
 5950SOL    HW218750   5.212   3.034   5.422
 5951SOL     OW18751   1.017   6.046   5.176
 5951SOL    HW118752   1.040   5.954   5.144
 5951SOL    HW218753   0.949   6.040   5.249
 5952SOL     OW18754   5.771   6.021   4.027
 5952SOL    HW118755   5.856   5.991   4.069
 5952SOL    HW218756   5.769   5.992   3.931
 5953SOL     OW18757   6.915   3.065   5.673
 5953SOL    HW118758   6.871   3.152   5.693
 5953SOL    HW218759   6.968   3.073   5.588
 5954SOL     OW18760   6.667   4.970   5.568
 5954SOL    HW118761   6.665   5.062   5.605
 5954SOL    HW218762   6.750   4.957   5.514
 5955SOL     OW18763   5.675   6.157   2.443
 5955SOL    HW118764   5.668   6.199   2.534
 5955SOL    HW218765   5.679   6.058   2.453
 5956SOL     OW18766   3.307   1.965   0.678
 5956SOL    HW118767   3.266   1.980   0.768
 5956SOL    HW218768   3.337   2.053   0.640
 5957SOL     OW18769   5.196   0.460   5.570
 5957SOL    HW118770   5.238   0.551   5.566
 5957SOL    HW218771   5.268   0.390   5.573
 5958SOL     OW18772   5.855   6.614   2.789
 5958SOL    HW118773   5.945   6.570   2.790
 5958SOL    HW218774   5.797   6.574   2.860
 5959SOL     OW18775   3.587   1.459   5.816
 5959SOL    HW118776   3.683   1.489   5.810
 5959SOL    HW218777   3.565   1.404   5.736
 5960SOL     OW18778   3.666   6.466   4.753
 5960SOL    HW118779   3.614   6.433   4.674
 5960SOL    HW218780   3.616   6.541   4.797
 5961SOL     OW18781   4.548   0.855   4.004
 5961SOL    HW118782   4.529   0.870   3.907
 5961SOL    HW218783   4.633   0.804   4.015
 5962SOL     OW18784   4.952   5.822   2.182
 5962SOL    HW118785   4.857   5.845   2.200
 5962SOL    HW218786   4.963   5.723   2.179
 5963SOL     OW18787   3.388   2.975   4.891
 5963SOL    HW118788   3.315   2.936   4.835
 5963SOL    HW218789   3.475   2.936   4.865
 5964SOL     OW18790   0.359   4.877   5.934
 5964SOL    HW118791   0.375   4.788   5.892
 5964SOL    HW218792   0.327   4.941   5.864
 5965SOL     OW18793   1.703   1.958   5.890
 5965SOL    HW118794   1.695   2.057   5.906
 5965SOL    HW218795   1.791   1.926   5.925
 5966SOL     OW18796   2.992   5.358   5.859
 5966SOL    HW118797   3.008   5.441   5.804
 5966SOL    HW218798   3.079   5.316   5.881
 5967SOL     OW18799   4.145   6.195   1.634
 5967SOL    HW118800   4.206   6.144   1.693
 5967SOL    HW218801   4.132   6.287   1.670
 5968SOL     OW18802   5.444   1.424   3.481
 5968SOL    HW118803   5.448   1.410   3.580
 5968SOL    HW218804   5.533   1.453   3.448
 5969SOL     OW18805   6.682   1.567   5.225
 5969SOL    HW118806   6.713   1.485   5.274
 5969SOL    HW218807   6.610   1.612   5.278
 5970SOL     OW18808   0.371   4.947   2.364
 5970SOL    HW118809   0.287   4.926   2.313
 5970SOL    HW218810   0.432   4.869   2.361
 5971SOL     OW18811   2.081   0.719   3.206
 5971SOL    HW118812   2.149   0.791   3.220
 5971SOL    HW218813   2.096   0.645   3.271
 5972SOL     OW18814   4.298   6.565   0.366
 5972SOL    HW118815   4.348   6.558   0.280
 5972SOL    HW218816   4.337   6.638   0.422
 5973SOL     OW18817   1.676   5.064   3.015
 5973SOL    HW118818   1.636   4.977   2.988
 5973SOL    HW218819   1.626   5.100   3.094
 5974SOL     OW18820   5.700   4.271   6.230
 5974SOL    HW118821   5.675   4.308   6.320
 5974SOL    HW218822   5.704   4.345   6.163
 5975SOL     OW18823   3.425   2.226   0.608
 5975SOL    HW118824   3.520   2.228   0.577
 5975SOL    HW218825   3.374   2.301   0.565
 5976SOL     OW18826   2.826   3.587   5.202
 5976SOL    HW118827   2.802   3.495   5.230
 5976SOL    HW218828   2.752   3.650   5.229
 5977SOL     OW18829   1.805   4.868   1.415
 5977SOL    HW118830   1.849   4.794   1.365
 5977SOL    HW218831   1.735   4.911   1.358
 5978SOL     OW18832   5.503   4.799   3.226
 5978SOL    HW118833   5.468   4.831   3.314
 5978SOL    HW218834   5.459   4.850   3.152
 5979SOL     OW18835   6.424   0.644   2.537
 5979SOL    HW118836   6.439   0.657   2.439
 5979SOL    HW218837   6.327   0.660   2.558
 5980SOL     OW18838   4.161   3.690   6.384
 5980SOL    HW118839   4.211   3.605   6.401
 5980SOL    HW218840   4.094   3.676   6.311
 5981SOL     OW18841   6.330   1.344   2.274
 5981SOL    HW118842   6.395   1.274   2.303
 5981SOL    HW218843   6.310   1.333   2.176
 5982SOL     OW18844   6.248   2.327   6.940
 5982SOL    HW118845   6.321   2.284   6.887
 5982SOL    HW218846   6.284   2.355   0.005
 5983SOL     OW18847   2.478   1.244   4.421
 5983SOL    HW118848   2.508   1.294   4.341
 5983SOL    HW218849   2.549   1.178   4.448
 5984SOL     OW18850   6.532   0.181   5.271
 5984SOL    HW118851   6.439   0.199   5.239
 5984SOL    HW218852   6.597   0.204   5.199
 5985SOL     OW18853   5.722   3.155   4.521
 5985SOL    HW118854   5.664   3.100   4.460
 5985SOL    HW218855   5.663   3.207   4.583
 5986SOL     OW18856   2.920   3.283   3.982
 5986SOL    HW118857   2.963   3.369   4.008
 5986SOL    HW218858   2.827   3.280   4.018
 5987SOL     OW18859   4.305   1.620   4.609
 5987SOL    HW118860   4.315   1.710   4.650
 5987SOL    HW218861   4.313   1.550   4.680
 5988SOL     OW18862   4.375   6.056   4.916
 5988SOL    HW118863   4.432   6.138   4.912
 5988SOL    HW218864   4.432   5.975   4.911
 5989SOL     OW18865   2.847   6.149   6.366
 5989SOL    HW118866   2.763   6.120   6.321
 5989SOL    HW218867   2.830   6.165   6.463
 5990SOL     OW18868   4.344   4.380   0.749
 5990SOL    HW118869   4.361   4.283   0.762
 5990SOL    HW218870   4.292   4.415   0.827
 5991SOL     OW18871   4.358   4.792   5.160
 5991SOL    HW118872   4.366   4.810   5.062
 5991SOL    HW218873   4.266   4.760   5.181
 5992SOL     OW18874   3.552   0.665   4.315
 5992SOL    HW118875   3.582   0.745   4.262
 5992SOL    HW218876   3.542   0.691   4.412
 5993SOL     OW18877   3.653   6.719   6.104
 5993SOL    HW118878   3.605   6.631   6.102
 5993SOL    HW218879   3.625   6.774   6.025
 5994SOL     OW18880   6.193   2.179   2.318
 5994SOL    HW118881   6.173   2.250   2.250
 5994SOL    HW218882   6.242   2.220   2.395
 5995SOL     OW18883   6.551   4.679   2.388
 5995SOL    HW118884   6.524   4.651   2.296
 5995SOL    HW218885   6.470   4.705   2.441
 5996SOL     OW18886   0.938   5.343   0.294
 5996SOL    HW118887   1.027   5.298   0.284
 5996SOL    HW218888   0.948   5.421   0.355
 5997SOL     OW18889   0.818   6.761   2.548
 5997SOL    HW118890   0.833   6.671   2.590
 5997SOL    HW218891   0.796   6.827   2.620
 5998SOL     OW18892   5.476   3.226   1.818
 5998SOL    HW118893   5.493   3.297   1.749
 5998SOL    HW218894   5.423   3.152   1.777
 5999SOL     OW18895   0.957   2.169   2.315
 5999SOL    HW118896   1.007   2.130   2.392
 5999SOL    HW218897   1.002   2.145   2.229
 6000SOL     OW18898   3.884   6.220   1.582
 6000SOL    HW118899   3.880   6.242   1.484
 6000SOL    HW218900   3.978   6.198   1.607
 6001SOL     OW18901   0.602   3.998   6.002
 6001SOL    HW118902   0.584   4.035   6.093
 6001SOL    HW218903   0.699   3.972   5.995
 6002SOL     OW18904   0.523   6.574   1.445
 6002SOL    HW118905   0.474   6.645   1.496
 6002SOL    HW218906   0.520   6.596   1.348
 6003SOL     OW18907   6.243   2.290   4.768
 6003SOL    HW118908   6.329   2.326   4.804
 6003SOL    HW218909   6.246   2.289   4.668
 6004SOL     OW18910   0.196   4.686   2.879
 6004SOL    HW118911   0.110   4.638   2.894
 6004SOL    HW218912   0.183   4.759   2.812
 6005SOL     OW18913   4.094   5.295   4.780
 6005SOL    HW118914   3.994   5.295   4.784
 6005SOL    HW218915   4.125   5.251   4.696
 6006SOL     OW18916   3.931   6.689   6.935
 6006SOL    HW118917   3.853   6.679   6.873
 6006SOL    HW218918   3.942   6.605   6.988
 6007SOL     OW18919   4.888   3.199   3.923
 6007SOL    HW118920   4.843   3.133   3.983
 6007SOL    HW218921   4.895   3.288   3.969
 6008SOL     OW18922   2.573   5.315   6.485
 6008SOL    HW118923   2.654   5.373   6.490
 6008SOL    HW218924   2.541   5.309   6.390
 6009SOL     OW18925   2.971   1.345   4.573
 6009SOL    HW118926   3.019   1.432   4.582
 6009SOL    HW218927   2.875   1.362   4.550
 6010SOL     OW18928   1.888   3.971   1.967
 6010SOL    HW118929   1.897   4.008   1.874
 6010SOL    HW218930   1.975   3.930   1.994
 6011SOL     OW18931   4.723   2.470   2.257
 6011SOL    HW118932   4.783   2.541   2.293
 6011SOL    HW218933   4.636   2.510   2.229
 6012SOL     OW18934   6.445   1.740   0.598
 6012SOL    HW118935   6.466   1.650   0.636
 6012SOL    HW218936   6.500   1.809   0.645
 6013SOL     OW18937   5.208   1.838   3.027
 6013SOL    HW118938   5.271   1.774   3.071
 6013SOL    HW218939   5.165   1.794   2.948
 6014SOL     OW18940   4.545   1.658   0.831
 6014SOL    HW118941   4.562   1.746   0.876
 6014SOL    HW218942   4.613   1.591   0.861
 6015SOL     OW18943   5.744   1.882   5.848
 6015SOL    HW118944   5.788   1.792   5.845
 6015SOL    HW218945   5.726   1.913   5.754
 6016SOL     OW18946   0.483   1.352   0.006
 6016SOL    HW118947   0.409   1.419   7.023
 6016SOL    HW218948   0.567   1.399   0.033
 6017SOL     OW18949   6.459   5.130   2.505
 6017SOL    HW118950   6.405   5.150   2.587
 6017SOL    HW218951   6.401   5.082   2.439
 6018SOL     OW18952   3.555   2.269   0.296
 6018SOL    HW118953   3.579   2.225   0.209
 6018SOL    HW218954   3.618   2.237   0.367
 6019SOL     OW18955   4.831   1.367   4.098
 6019SOL    HW118956   4.821   1.467   4.096
 6019SOL    HW218957   4.865   1.339   4.188
 6020SOL     OW18958   1.404   5.968   2.482
 6020SOL    HW118959   1.503   5.960   2.495
 6020SOL    HW218960   1.363   5.877   2.480
 6021SOL     OW18961   3.882   6.850   2.701
 6021SOL    HW118962   3.799   6.838   2.646
 6021SOL    HW218963   3.866   6.814   2.793
 6022SOL     OW18964   4.236   0.572   4.495
 6022SOL    HW118965   4.139   0.590   4.481
 6022SOL    HW218966   4.271   0.632   4.567
 6023SOL     OW18967   6.076   1.465   3.246
 6023SOL    HW118968   6.041   1.537   3.306
 6023SOL    HW218969   6.001   1.405   3.219
 6024SOL     OW18970   0.663   4.394   2.647
 6024SOL    HW118971   0.611   4.311   2.624
 6024SOL    HW218972   0.741   4.370   2.704
 6025SOL     OW18973   3.903   0.091   2.382
 6025SOL    HW118974   3.896   0.118   2.478
 6025SOL    HW218975   3.983   0.135   2.341
 6026SOL     OW18976   0.104   4.314   4.268
 6026SOL    HW118977   0.190   4.301   4.219
 6026SOL    HW218978   0.091   4.240   4.333
 6027SOL     OW18979   2.222   3.983   5.551
 6027SOL    HW118980   2.202   3.934   5.466
 6027SOL    HW218981   2.172   3.941   5.626
 6028SOL     OW18982   1.044   3.795   0.266
 6028SOL    HW118983   1.128   3.791   0.212
 6028SOL    HW218984   1.009   3.703   0.280
 6029SOL     OW18985   1.933   6.579   6.201
 6029SOL    HW118986   2.020   6.574   6.250
 6029SOL    HW218987   1.881   6.495   6.217
 6030SOL     OW18988   2.261   0.247   3.026
 6030SOL    HW118989   2.251   0.339   2.989
 6030SOL    HW218990   2.306   0.188   2.959
 6031SOL     OW18991   3.827   5.149   4.258
 6031SOL    HW118992   3.901   5.118   4.199
 6031SOL    HW218993   3.784   5.070   4.302
 6032SOL     OW18994   1.776   3.557   2.850
 6032SOL    HW118995   1.714   3.562   2.772
 6032SOL    HW218996   1.845   3.628   2.843
 6033SOL     OW18997   2.559   2.534   2.718
 6033SOL    HW118998   2.582   2.463   2.652
 6033SOL    HW218999   2.469   2.571   2.698
 6034SOL     OW19000   1.725   6.012   5.032
 6034SOL    HW119001   1.822   5.991   5.045
 6034SOL    HW219002   1.677   6.002   5.120
 6035SOL     OW19003   6.055   1.665   3.640
 6035SOL    HW119004   6.032   1.750   3.688
 6035SOL    HW219005   6.048   1.681   3.541
 6036SOL     OW19006   0.263   6.815   4.494
 6036SOL    HW119007   0.324   6.769   4.430
 6036SOL    HW219008   0.317   6.864   4.563
 6037SOL     OW19009   4.648   5.512   6.096
 6037SOL    HW119010   4.698   5.591   6.130
 6037SOL    HW219011   4.563   5.502   6.147
 6038SOL     OW19012   1.106   3.509   6.150
 6038SOL    HW119013   1.013   3.475   6.132
 6038SOL    HW219014   1.103   3.607   6.166
 6039SOL     OW19015   3.408   3.311   3.335
 6039SOL    HW119016   3.416   3.290   3.237
 6039SOL    HW219017   3.416   3.226   3.388
 6040SOL     OW19018   0.178   2.348   6.457
 6040SOL    HW119019   0.146   2.302   6.540
 6040SOL    HW219020   0.113   2.333   6.383
 6041SOL     OW19021   1.836   1.435   5.504
 6041SOL    HW119022   1.933   1.421   5.489
 6041SOL    HW219023   1.783   1.372   5.446
 6042SOL     OW19024   5.567   5.266   1.945
 6042SOL    HW119025   5.522   5.212   2.016
 6042SOL    HW219026   5.661   5.285   1.973
 6043SOL     OW19027   1.085   5.082   4.924
 6043SOL    HW119028   1.006   5.047   4.874
 6043SOL    HW219029   1.059   5.164   4.973
 6044SOL     OW19030   1.577   2.296   0.976
 6044SOL    HW119031   1.524   2.214   0.956
 6044SOL    HW219032   1.674   2.277   0.962
 6045SOL     OW19033   6.005   5.892   0.954
 6045SOL    HW119034   6.061   5.875   1.034
 6045SOL    HW219035   5.920   5.840   0.962
 6046SOL     OW19036   2.630   2.308   0.723
 6046SOL    HW119037   2.557   2.320   0.655
 6046SOL    HW219038   2.632   2.388   0.783
 6047SOL     OW19039   6.562   1.803   2.892
 6047SOL    HW119040   6.462   1.805   2.883
 6047SOL    HW219041   6.590   1.859   2.970
 6048SOL     OW19042   4.785   6.488   3.357
 6048SOL    HW119043   4.827   6.400   3.379
 6048SOL    HW219044   4.691   6.473   3.325
 6049SOL     OW19045   5.362   3.705   6.215
 6049SOL    HW119046   5.431   3.644   6.178
 6049SOL    HW219047   5.271   3.668   6.197
 6050SOL     OW19048   3.956   3.722   5.770
 6050SOL    HW119049   3.906   3.663   5.706
 6050SOL    HW219050   4.005   3.792   5.718
 6051SOL     OW19051   3.008   2.181   3.770
 6051SOL    HW119052   2.970   2.120   3.701
 6051SOL    HW219053   3.101   2.151   3.793
 6052SOL     OW19054   6.730   6.865   6.862
 6052SOL    HW119055   6.792   6.824   6.796
 6052SOL    HW219056   6.675   6.793   6.905
 6053SOL     OW19057   3.842   0.660   6.769
 6053SOL    HW119058   3.890   0.634   6.853
 6053SOL    HW219059   3.887   0.739   6.728
 6054SOL     OW19060   2.381   4.037   0.694
 6054SOL    HW119061   2.285   4.053   0.671
 6054SOL    HW219062   2.439   4.099   0.641
 6055SOL     OW19063   5.995   1.047   6.451
 6055SOL    HW119064   6.022   1.127   6.504
 6055SOL    HW219065   6.021   1.060   6.355
 6056SOL     OW19066   5.604   2.839   4.960
 6056SOL    HW119067   5.671   2.870   4.893
 6056SOL    HW219068   5.650   2.819   5.046
 6057SOL     OW19069   5.083   2.801   4.498
 6057SOL    HW119070   5.041   2.760   4.417
 6057SOL    HW219071   5.143   2.876   4.470
 6058SOL     OW19072   5.294   2.446   2.955
 6058SOL    HW119073   5.291   2.349   2.927
 6058SOL    HW219074   5.355   2.456   3.033
 6059SOL     OW19075   4.302   5.266   5.733
 6059SOL    HW119076   4.338   5.351   5.695
 6059SOL    HW219077   4.329   5.258   5.829
 6060SOL     OW19078   3.464   3.928   5.841
 6060SOL    HW119079   3.424   3.952   5.753
 6060SOL    HW219080   3.405   3.961   5.915
 6061SOL     OW19081   4.017   2.650   0.468
 6061SOL    HW119082   3.968   2.581   0.414
 6061SOL    HW219083   3.973   2.739   0.456
 6062SOL     OW19084   2.435   0.829   4.492
 6062SOL    HW119085   2.388   0.849   4.578
 6062SOL    HW219086   2.486   0.909   4.463
 6063SOL     OW19087   3.894   1.447   6.938
 6063SOL    HW119088   3.921   1.525   6.880
 6063SOL    HW219089   3.923   1.362   6.893
 6064SOL     OW19090   2.493   5.774   2.503
 6064SOL    HW119091   2.451   5.809   2.419
 6064SOL    HW219092   2.577   5.725   2.480
 6065SOL     OW19093   5.546   6.591   2.006
 6065SOL    HW119094   5.599   6.508   1.991
 6065SOL    HW219095   5.505   6.589   2.097
 6066SOL     OW19096   3.934   1.266   0.579
 6066SOL    HW119097   3.906   1.185   0.630
 6066SOL    HW219098   3.960   1.339   0.642
 6067SOL     OW19099   5.577   2.010   6.846
 6067SOL    HW119100   5.619   1.919   6.835
 6067SOL    HW219101   5.610   2.052   6.930
 6068SOL     OW19102   6.407   3.179   4.646
 6068SOL    HW119103   6.389   3.087   4.681
 6068SOL    HW219104   6.411   3.177   4.546
 6069SOL     OW19105   0.836   3.873   5.595
 6069SOL    HW119106   0.793   3.784   5.583
 6069SOL    HW219107   0.767   3.944   5.594
 6070SOL     OW19108   2.736   1.735   5.609
 6070SOL    HW119109   2.834   1.748   5.620
 6070SOL    HW219110   2.700   1.680   5.685
 6071SOL     OW19111   4.903   6.029   5.251
 6071SOL    HW119112   4.825   5.983   5.208
 6071SOL    HW219113   4.875   6.067   5.339
 6072SOL     OW19114   0.896   0.731   1.826
 6072SOL    HW119115   0.805   0.693   1.844
 6072SOL    HW219116   0.965   0.661   1.845
 6073SOL     OW19117   6.876   3.647   0.744
 6073SOL    HW119118   6.937   3.721   0.772
 6073SOL    HW219119   6.884   3.633   0.645
 6074SOL     OW19120   1.067   6.827   4.770
 6074SOL    HW119121   1.047   6.832   4.672
 6074SOL    HW219122   1.004   6.887   4.820
 6075SOL     OW19123   6.852   2.326   6.041
 6075SOL    HW119124   6.855   2.421   6.010
 6075SOL    HW219125   6.765   2.285   6.013
 6076SOL     OW19126   2.366   6.260   5.188
 6076SOL    HW119127   2.412   6.331   5.241
 6076SOL    HW219128   2.405   6.171   5.212
 6077SOL     OW19129   4.924   5.372   1.998
 6077SOL    HW119130   5.004   5.364   1.939
 6077SOL    HW219131   4.943   5.437   2.072
 6078SOL     OW19132   4.039   4.748   2.353
 6078SOL    HW119133   4.018   4.809   2.429
 6078SOL    HW219134   4.115   4.688   2.378
 6079SOL     OW19135   3.150   3.261   6.743
 6079SOL    HW119136   3.109   3.254   6.834
 6079SOL    HW219137   3.165   3.357   6.721
 6080SOL     OW19138   0.569   1.172   1.972
 6080SOL    HW119139   0.502   1.215   1.912
 6080SOL    HW219140   0.554   1.202   2.066
 6081SOL     OW19141   6.344   3.776   4.914
 6081SOL    HW119142   6.383   3.782   4.822
 6081SOL    HW219143   6.245   3.785   4.909
 6082SOL     OW19144   3.833   1.318   3.656
 6082SOL    HW119145   3.808   1.381   3.583
 6082SOL    HW219146   3.775   1.236   3.651
 6083SOL     OW19147   0.998   5.736   6.195
 6083SOL    HW119148   0.995   5.816   6.255
 6083SOL    HW219149   1.059   5.667   6.235
 6084SOL     OW19150   0.036   5.493   4.097
 6084SOL    HW119151   0.109   5.512   4.162
 6084SOL    HW219152   7.017   5.579   4.070
 6085SOL     OW19153   0.219   4.410   0.251
 6085SOL    HW119154   0.308   4.423   0.206
 6085SOL    HW219155   0.200   4.313   0.259
 6086SOL     OW19156   3.670   1.502   5.264
 6086SOL    HW119157   3.698   1.575   5.201
 6086SOL    HW219158   3.574   1.478   5.248
 6087SOL     OW19159   5.339   0.061   0.321
 6087SOL    HW119160   5.408   0.124   0.286
 6087SOL    HW219161   5.381   7.020   0.383
 6088SOL     OW19162   6.809   6.258   4.579
 6088SOL    HW119163   6.888   6.312   4.606
 6088SOL    HW219164   6.791   6.273   4.481
 6089SOL     OW19165   0.211   3.882   1.426
 6089SOL    HW119166   0.168   3.972   1.433
 6089SOL    HW219167   0.142   3.811   1.438
 6090SOL     OW19168   1.466   6.248   6.219
 6090SOL    HW119169   1.510   6.338   6.227
 6090SOL    HW219170   1.474   6.216   6.125
 6091SOL     OW19171   0.948   1.489   2.532
 6091SOL    HW119172   0.910   1.574   2.495
 6091SOL    HW219173   0.928   1.414   2.470
 6092SOL     OW19174   2.506   0.530   3.217
 6092SOL    HW119175   2.547   0.500   3.130
 6092SOL    HW219176   2.422   0.478   3.234
 6093SOL     OW19177   1.598   2.726   2.756
 6093SOL    HW119178   1.618   2.629   2.743
 6093SOL    HW219179   1.552   2.738   2.844
 6094SOL     OW19180   3.033   1.341   1.038
 6094SOL    HW119181   3.076   1.345   0.948
 6094SOL    HW219182   2.993   1.430   1.059
 6095SOL     OW19183   4.777   2.569   0.223
 6095SOL    HW119184   4.787   2.646   0.286
 6095SOL    HW219185   4.722   2.597   0.144
 6096SOL     OW19186   5.697   0.519   4.446
 6096SOL    HW119187   5.643   0.569   4.379
 6096SOL    HW219188   5.659   0.427   4.458
 6097SOL     OW19189   1.730   0.067   2.207
 6097SOL    HW119190   1.634   0.093   2.195
 6097SOL    HW219191   1.787   0.149   2.208
 6098SOL     OW19192   1.170   2.381   5.424
 6098SOL    HW119193   1.137   2.301   5.475
 6098SOL    HW219194   1.140   2.464   5.471
 6099SOL     OW19195   5.848   5.774   5.933
 6099SOL    HW119196   5.874   5.831   5.855
 6099SOL    HW219197   5.827   5.833   6.012
 6100SOL     OW19198   5.736   2.928   6.555
 6100SOL    HW119199   5.708   2.909   6.649
 6100SOL    HW219200   5.835   2.920   6.548
 6101SOL     OW19201   6.273   1.862   5.634
 6101SOL    HW119202   6.273   1.764   5.655
 6101SOL    HW219203   6.279   1.874   5.535
 6102SOL     OW19204   3.843   0.780   4.290
 6102SOL    HW119205   3.773   0.830   4.239
 6102SOL    HW219206   3.934   0.808   4.258
 6103SOL     OW19207   0.020   1.530   3.502
 6103SOL    HW119208   0.048   1.572   3.415
 6103SOL    HW219209   7.004   1.440   3.484
 6104SOL     OW19210   6.404   2.137   6.194
 6104SOL    HW119211   6.488   2.191   6.185
 6104SOL    HW219212   6.400   2.070   6.120
 6105SOL     OW19213   3.008   6.744   5.698
 6105SOL    HW119214   2.975   6.730   5.605
 6105SOL    HW219215   2.984   6.836   5.729
 6106SOL     OW19216   1.981   4.953   5.769
 6106SOL    HW119217   2.070   4.909   5.781
 6106SOL    HW219218   1.950   4.941   5.675
 6107SOL     OW19219   2.952   5.456   4.241
 6107SOL    HW119220   3.003   5.492   4.163
 6107SOL    HW219221   2.923   5.532   4.300
 6108SOL     OW19222   1.050   1.889   3.455
 6108SOL    HW119223   1.070   1.987   3.454
 6108SOL    HW219224   1.135   1.838   3.468
 6109SOL     OW19225   5.072   2.965   6.979
 6109SOL    HW119226   5.024   3.019   0.023
 6109SOL    HW219227   5.161   2.937   7.014
 6110SOL     OW19228   3.370   2.976   7.010
 6110SOL    HW119229   3.460   3.002   6.975
 6110SOL    HW219230   3.307   2.962   6.934
 6111SOL     OW19231   1.801   5.101   2.652
 6111SOL    HW119232   1.773   5.056   2.567
 6111SOL    HW219233   1.875   5.166   2.634
 6112SOL     OW19234   2.775   1.559   3.324
 6112SOL    HW119235   2.739   1.506   3.401
 6112SOL    HW219236   2.716   1.546   3.245
 6113SOL     OW19237   0.296   0.925   6.477
 6113SOL    HW119238   0.339   0.923   6.568
 6113SOL    HW219239   0.368   0.924   6.407
 6114SOL     OW19240   5.162   4.452   1.266
 6114SOL    HW119241   5.101   4.443   1.345
 6114SOL    HW219242   5.226   4.527   1.281
 6115SOL     OW19243   5.156   5.954   2.864
 6115SOL    HW119244   5.075   5.937   2.921
 6115SOL    HW219245   5.232   5.984   2.921
 6116SOL     OW19246   2.547   1.373   1.541
 6116SOL    HW119247   2.570   1.410   1.451
 6116SOL    HW219248   2.597   1.288   1.556
 6117SOL     OW19249   0.164   0.452   5.378
 6117SOL    HW119250   0.086   0.395   5.404
 6117SOL    HW219251   0.132   0.546   5.364
 6118SOL     OW19252   6.965   2.126   1.850
 6118SOL    HW119253   6.948   2.187   1.927
 6118SOL    HW219254   6.916   2.040   1.863
 6119SOL     OW19255   0.049   4.162   3.936
 6119SOL    HW119256   0.131   4.148   3.990
 6119SOL    HW219257   0.048   4.255   3.899
 6120SOL     OW19258   3.283   6.999   3.309
 6120SOL    HW119259   3.209   6.970   3.371
 6120SOL    HW219260   3.248   7.002   3.216
 6121SOL     OW19261   6.848   2.413   4.226
 6121SOL    HW119262   6.818   2.462   4.144
 6121SOL    HW219263   6.925   2.461   4.268
 6122SOL     OW19264   3.204   6.390   1.863
 6122SOL    HW119265   3.280   6.380   1.798
 6122SOL    HW219266   3.144   6.310   1.856
 6123SOL     OW19267   6.779   0.492   1.223
 6123SOL    HW119268   6.710   0.438   1.272
 6123SOL    HW219269   6.825   0.553   1.287
 6124SOL     OW19270   3.043   0.009   5.297
 6124SOL    HW119271   3.099   0.069   5.354
 6124SOL    HW219272   3.064   6.938   5.317
 6125SOL     OW19273   2.685   5.827   0.956
 6125SOL    HW119274   2.765   5.869   1.000
 6125SOL    HW219275   2.659   5.880   0.875
 6126SOL     OW19276   5.691   6.237   3.904
 6126SOL    HW119277   5.718   6.162   3.963
 6126SOL    HW219278   5.593   6.256   3.915
 6127SOL     OW19279   2.251   6.864   1.589
 6127SOL    HW119280   2.321   6.935   1.589
 6127SOL    HW219281   2.166   6.901   1.626
 6128SOL     OW19282   6.679   2.986   0.321
 6128SOL    HW119283   6.626   3.016   0.241
 6128SOL    HW219284   6.774   2.969   0.294
 6129SOL     OW19285   6.366   4.249   3.354
 6129SOL    HW119286   6.278   4.278   3.393
 6129SOL    HW219287   6.350   4.207   3.265
 6130SOL     OW19288   6.404   2.577   4.396
 6130SOL    HW119289   6.465   2.589   4.474
 6130SOL    HW219290   6.458   2.579   4.311
 6131SOL     OW19291   6.738   1.562   5.553
 6131SOL    HW119292   6.753   1.485   5.492
 6131SOL    HW219293   6.767   1.538   5.646
 6132SOL     OW19294   4.107   0.515   1.302
 6132SOL    HW119295   4.137   0.545   1.211
 6132SOL    HW219296   4.187   0.496   1.359
 6133SOL     OW19297   0.514   2.466   2.631
 6133SOL    HW119298   0.537   2.370   2.614
 6133SOL    HW219299   0.416   2.475   2.648
 6134SOL     OW19300   4.156   3.545   6.686
 6134SOL    HW119301   4.242   3.595   6.667
 6134SOL    HW219302   4.170   3.448   6.669
 6135SOL     OW19303   6.335   6.671   2.648
 6135SOL    HW119304   6.330   6.709   2.556
 6135SOL    HW219305   6.427   6.682   2.684
 6136SOL     OW19306   0.575   1.815   2.488
 6136SOL    HW119307   0.661   1.776   2.520
 6136SOL    HW219308   0.593   1.897   2.434
 6137SOL     OW19309   4.006   0.653   5.815
 6137SOL    HW119310   4.090   0.650   5.762
 6137SOL    HW219311   4.014   0.593   5.895
 6138SOL     OW19312   3.578   6.803   2.646
 6138SOL    HW119313   3.578   6.746   2.729
 6138SOL    HW219314   3.486   6.805   2.607
 6139SOL     OW19315   2.107   2.943   4.298
 6139SOL    HW119316   2.011   2.916   4.302
 6139SOL    HW219317   2.134   2.956   4.203
 6140SOL     OW19318   0.892   6.105   1.473
 6140SOL    HW119319   0.981   6.145   1.496
 6140SOL    HW219320   0.820   6.155   1.520
 6141SOL     OW19321   5.811   5.942   5.179
 6141SOL    HW119322   5.799   5.897   5.091
 6141SOL    HW219323   5.909   5.954   5.198
 6142SOL     OW19324   0.101   5.289   0.668
 6142SOL    HW119325   0.066   5.197   0.686
 6142SOL    HW219326   0.197   5.294   0.695
 6143SOL     OW19327   5.879   5.311   6.670
 6143SOL    HW119328   5.922   5.235   6.719
 6143SOL    HW219329   5.948   5.378   6.643
 6144SOL     OW19330   6.747   4.860   2.342
 6144SOL    HW119331   6.827   4.812   2.307
 6144SOL    HW219332   6.668   4.798   2.343
 6145SOL     OW19333   4.659   6.168   3.587
 6145SOL    HW119334   4.610   6.218   3.658
 6145SOL    HW219335   4.756   6.192   3.591
 6146SOL     OW19336   4.085   1.087   3.445
 6146SOL    HW119337   4.112   0.992   3.428
 6146SOL    HW219338   4.051   1.096   3.538
 6147SOL     OW19339   1.886   4.020   3.457
 6147SOL    HW119340   1.943   4.097   3.485
 6147SOL    HW219341   1.868   3.961   3.535
 6148SOL     OW19342   6.783   0.385   5.117
 6148SOL    HW119343   6.725   0.413   5.193
 6148SOL    HW219344   6.789   0.285   5.115
 6149SOL     OW19345   3.813   4.974   3.312
 6149SOL    HW119346   3.891   4.919   3.281
 6149SOL    HW219347   3.821   4.991   3.410
 6150SOL     OW19348   4.334   5.069   6.441
 6150SOL    HW119349   4.269   5.054   6.515
 6150SOL    HW219350   4.375   5.160   6.450
 6151SOL     OW19351   6.768   4.179   4.501
 6151SOL    HW119352   6.725   4.267   4.479
 6151SOL    HW219353   6.733   4.146   4.588
 6152SOL     OW19354   4.934   4.753   5.196
 6152SOL    HW119355   4.970   4.713   5.280
 6152SOL    HW219356   5.003   4.811   5.154
 6153SOL     OW19357   4.736   3.880   1.589
 6153SOL    HW119358   4.743   3.796   1.535
 6153SOL    HW219359   4.653   3.878   1.644
 6154SOL     OW19360   4.989   1.239   2.157
 6154SOL    HW119361   5.020   1.146   2.134
 6154SOL    HW219362   4.956   1.284   2.074
 6155SOL     OW19363   1.717   2.847   3.664
 6155SOL    HW119364   1.669   2.871   3.748
 6155SOL    HW219365   1.734   2.749   3.661
 6156SOL     OW19366   4.751   5.293   2.310
 6156SOL    HW119367   4.848   5.316   2.302
 6156SOL    HW219368   4.741   5.196   2.333
 6157SOL     OW19369   1.022   1.820   4.147
 6157SOL    HW119370   1.038   1.907   4.099
 6157SOL    HW219371   1.052   1.744   4.089
 6158SOL     OW19372   4.653   0.818   6.639
 6158SOL    HW119373   4.627   0.866   6.556
 6158SOL    HW219374   4.731   0.865   6.682
 6159SOL     OW19375   4.496   1.857   0.431
 6159SOL    HW119376   4.504   1.817   0.340
 6159SOL    HW219377   4.553   1.805   0.495
 6160SOL     OW19378   5.737   5.743   0.596
 6160SOL    HW119379   5.824   5.757   0.550
 6160SOL    HW219380   5.753   5.732   0.695
 6161SOL     OW19381   5.959   1.995   6.279
 6161SOL    HW119382   5.892   2.052   6.326
 6161SOL    HW219383   6.014   1.946   6.347
 6162SOL     OW19384   0.943   5.197   4.434
 6162SOL    HW119385   0.987   5.115   4.398
 6162SOL    HW219386   0.857   5.172   4.479
 6163SOL     OW19387   5.683   5.455   1.447
 6163SOL    HW119388   5.753   5.522   1.469
 6163SOL    HW219389   5.611   5.498   1.391
 6164SOL     OW19390   1.853   3.043   1.611
 6164SOL    HW119391   1.936   2.996   1.640
 6164SOL    HW219392   1.775   2.982   1.621
 6165SOL     OW19393   3.298   6.601   6.860
 6165SOL    HW119394   3.273   6.695   6.839
 6165SOL    HW219395   3.396   6.596   6.879
 6166SOL     OW19396   3.777   0.952   5.120
 6166SOL    HW119397   3.711   0.901   5.065
 6166SOL    HW219398   3.730   0.999   5.194
 6167SOL     OW19399   6.972   4.869   1.973
 6167SOL    HW119400   6.907   4.808   2.018
 6167SOL    HW219401   6.923   4.924   1.905
 6168SOL     OW19402   0.286   3.712   0.548
 6168SOL    HW119403   0.310   3.748   0.639
 6168SOL    HW219404   0.367   3.675   0.504
 6169SOL     OW19405   0.962   3.380   2.199
 6169SOL    HW119406   0.904   3.438   2.256
 6169SOL    HW219407   0.907   3.340   2.126
 6170SOL     OW19408   0.242   2.755   5.280
 6170SOL    HW119409   0.299   2.825   5.321
 6170SOL    HW219410   0.262   2.748   5.182
 6171SOL     OW19411   0.488   1.779   0.501
 6171SOL    HW119412   0.411   1.762   0.562
 6171SOL    HW219413   0.560   1.826   0.550
 6172SOL     OW19414   1.322   2.799   2.451
 6172SOL    HW119415   1.300   2.751   2.536
 6172SOL    HW219416   1.238   2.812   2.398
 6173SOL     OW19417   6.466   5.414   2.865
 6173SOL    HW119418   6.531   5.417   2.942
 6173SOL    HW219419   6.391   5.352   2.887
 6174SOL     OW19420   4.423   5.137   3.502
 6174SOL    HW119421   4.325   5.125   3.486
 6174SOL    HW219422   4.459   5.207   3.441
 6175SOL     OW19423   3.548   0.714   4.579
 6175SOL    HW119424   3.616   0.655   4.624
 6175SOL    HW219425   3.586   0.805   4.567
 6176SOL     OW19426   4.480   3.524   5.326
 6176SOL    HW119427   4.555   3.531   5.260
 6176SOL    HW219428   4.439   3.433   5.320
 6177SOL     OW19429   4.779   1.926   2.136
 6177SOL    HW119430   4.865   1.922   2.084
 6177SOL    HW219431   4.703   1.940   2.073
 6178SOL     OW19432   4.751   3.918   1.923
 6178SOL    HW119433   4.825   3.865   1.882
 6178SOL    HW219434   4.739   4.004   1.872
 6179SOL     OW19435   6.782   4.170   1.578
 6179SOL    HW119436   6.842   4.250   1.570
 6179SOL    HW219437   6.768   4.148   1.674
 6180SOL     OW19438   3.274   4.567   0.599
 6180SOL    HW119439   3.281   4.666   0.598
 6180SOL    HW219440   3.245   4.535   0.508
 6181SOL     OW19441   4.720   6.170   6.097
 6181SOL    HW119442   4.673   6.082   6.097
 6181SOL    HW219443   4.819   6.155   6.109
 6182SOL     OW19444   4.635   2.294   6.717
 6182SOL    HW119445   4.555   2.235   6.725
 6182SOL    HW219446   4.701   2.254   6.653
 6183SOL     OW19447   1.900   2.004   1.490
 6183SOL    HW119448   1.966   1.997   1.415
 6183SOL    HW219449   1.937   2.064   1.561
 6184SOL     OW19450   2.963   0.398   6.131
 6184SOL    HW119451   3.009   0.483   6.158
 6184SOL    HW219452   2.995   0.370   6.041
 6185SOL     OW19453   2.510   4.228   5.877
 6185SOL    HW119454   2.610   4.232   5.880
 6185SOL    HW219455   2.480   4.192   5.789
 6186SOL     OW19456   0.032   1.380   1.773
 6186SOL    HW119457   6.972   1.431   1.788
 6186SOL    HW219458   0.100   1.407   1.840
 6187SOL     OW19459   4.666   2.858   5.190
 6187SOL    HW119460   4.631   2.826   5.102
 6187SOL    HW219461   4.764   2.876   5.183
 6188SOL     OW19462   1.771   1.699   5.524
 6188SOL    HW119463   1.808   1.606   5.522
 6188SOL    HW219464   1.783   1.737   5.616
 6189SOL     OW19465   4.031   5.600   2.725
 6189SOL    HW119466   3.990   5.552   2.647
 6189SOL    HW219467   3.971   5.676   2.751
 6190SOL     OW19468   6.498   3.287   5.531
 6190SOL    HW119469   6.519   3.330   5.443
 6190SOL    HW219470   6.442   3.205   5.516
 6191SOL     OW19471   2.298   2.755   5.440
 6191SOL    HW119472   2.293   2.845   5.483
 6191SOL    HW219473   2.205   2.720   5.426
 6192SOL     OW19474   2.411   2.218   6.227
 6192SOL    HW119475   2.436   2.126   6.196
 6192SOL    HW219476   2.493   2.275   6.229
 6193SOL     OW19477   4.895   5.816   0.630
 6193SOL    HW119478   4.991   5.830   0.654
 6193SOL    HW219479   4.876   5.718   0.623
 6194SOL     OW19480   6.659   0.656   6.234
 6194SOL    HW119481   6.594   0.654   6.158
 6194SOL    HW219482   6.648   0.741   6.285
 6195SOL     OW19483   5.754   6.672   5.060
 6195SOL    HW119484   5.656   6.658   5.045
 6195SOL    HW219485   5.806   6.604   5.009
 6196SOL     OW19486   4.853   4.661   2.790
 6196SOL    HW119487   4.782   4.595   2.813
 6196SOL    HW219488   4.820   4.753   2.810
 6197SOL     OW19489   2.438   5.102   2.789
 6197SOL    HW119490   2.492   5.052   2.722
 6197SOL    HW219491   2.468   5.197   2.792
 6198SOL     OW19492   5.349   6.231   0.037
 6198SOL    HW119493   5.314   6.191   6.978
 6198SOL    HW219494   5.445   6.207   0.049
 6199SOL     OW19495   0.560   0.799   0.734
 6199SOL    HW119496   0.657   0.788   0.759
 6199SOL    HW219497   0.527   0.714   0.693
 6200SOL     OW19498   0.888   0.893   2.458
 6200SOL    HW119499   0.802   0.944   2.463
 6200SOL    HW219500   0.925   0.901   2.365
 6201SOL     OW19501   0.601   4.281   4.272
 6201SOL    HW119502   0.603   4.376   4.304
 6201SOL    HW219503   0.681   4.263   4.215
 6202SOL     OW19504   5.740   1.650   3.130
 6202SOL    HW119505   5.782   1.591   3.061
 6202SOL    HW219506   5.768   1.745   3.114
 6203SOL     OW19507   6.116   5.553   2.039
 6203SOL    HW119508   6.082   5.596   1.955
 6203SOL    HW219509   6.191   5.490   2.017
 6204SOL     OW19510   1.268   6.029   4.959
 6204SOL    HW119511   1.326   6.026   4.878
 6204SOL    HW219512   1.325   6.035   5.041
 6205SOL     OW19513   4.725   4.803   1.949
 6205SOL    HW119514   4.641   4.771   1.992
 6205SOL    HW219515   4.792   4.729   1.947
 6206SOL     OW19516   4.892   2.161   3.546
 6206SOL    HW119517   4.895   2.190   3.641
 6206SOL    HW219518   4.809   2.108   3.530
 6207SOL     OW19519   1.830   6.229   4.533
 6207SOL    HW119520   1.789   6.198   4.618
 6207SOL    HW219521   1.765   6.288   4.484
 6208SOL     OW19522   3.301   2.135   5.753
 6208SOL    HW119523   3.362   2.196   5.803
 6208SOL    HW219524   3.287   2.170   5.661
 6209SOL     OW19525   3.289   4.417   1.162
 6209SOL    HW119526   3.204   4.390   1.116
 6209SOL    HW219527   3.299   4.366   1.246
 6210SOL     OW19528   5.313   3.633   2.807
 6210SOL    HW119529   5.354   3.704   2.864
 6210SOL    HW219530   5.268   3.675   2.728
 6211SOL     OW19531   4.226   5.651   5.937
 6211SOL    HW119532   4.235   5.592   5.856
 6211SOL    HW219533   4.133   5.685   5.943
 6212SOL     OW19534   2.604   4.676   4.483
 6212SOL    HW119535   2.633   4.588   4.445
 6212SOL    HW219536   2.675   4.712   4.544
 6213SOL     OW19537   5.016   6.513   0.714
 6213SOL    HW119538   5.027   6.609   0.740
 6213SOL    HW219539   5.062   6.455   0.781
 6214SOL     OW19540   5.332   5.475   6.055
 6214SOL    HW119541   5.399   5.509   5.989
 6214SOL    HW219542   5.241   5.511   6.031
 6215SOL     OW19543   4.830   2.970   6.593
 6215SOL    HW119544   4.755   2.907   6.610
 6215SOL    HW219545   4.905   2.921   6.549
 6216SOL     OW19546   6.248   2.796   3.110
 6216SOL    HW119547   6.283   2.705   3.086
 6216SOL    HW219548   6.319   2.864   3.092
 6217SOL     OW19549   0.457   4.610   2.030
 6217SOL    HW119550   0.367   4.643   2.003
 6217SOL    HW219551   0.459   4.510   2.028
 6218SOL     OW19552   4.570   6.715   0.272
 6218SOL    HW119553   4.578   6.813   0.257
 6218SOL    HW219554   4.545   6.670   0.186
 6219SOL     OW19555   1.811   0.627   5.155
 6219SOL    HW119556   1.806   0.694   5.080
 6219SOL    HW219557   1.870   0.551   5.127
 6220SOL     OW19558   3.303   0.824   0.152
 6220SOL    HW119559   3.240   0.780   0.087
 6220SOL    HW219560   3.280   0.795   0.245
 6221SOL     OW19561   6.362   6.259   0.033
 6221SOL    HW119562   6.284   6.221   0.082
 6221SOL    HW219563   6.421   6.184   0.002
 6222SOL     OW19564   5.728   1.053   2.378
 6222SOL    HW119565   5.693   1.025   2.289
 6222SOL    HW219566   5.699   0.988   2.448
 6223SOL     OW19567   0.809   4.991   4.092
 6223SOL    HW119568   0.771   4.943   4.013
 6223SOL    HW219569   0.874   5.060   4.061
 6224SOL     OW19570   4.449   0.699   6.035
 6224SOL    HW119571   4.464   0.684   5.938
 6224SOL    HW219572   4.530   0.673   6.086
 6225SOL     OW19573   3.752   1.394   6.338
 6225SOL    HW119574   3.757   1.478   6.284
 6225SOL    HW219575   3.814   1.400   6.416
 6226SOL     OW19576   1.490   1.517   3.929
 6226SOL    HW119577   1.494   1.585   4.003
 6226SOL    HW219578   1.439   1.437   3.959
 6227SOL     OW19579   3.131   4.491   5.328
 6227SOL    HW119580   3.057   4.525   5.269
 6227SOL    HW219581   3.185   4.568   5.361
 6228SOL     OW19582   1.186   2.375   3.884
 6228SOL    HW119583   1.218   2.453   3.938
 6228SOL    HW219584   1.248   2.298   3.897
 6229SOL     OW19585   7.023   3.037   4.997
 6229SOL    HW119586   6.949   3.004   4.938
 6229SOL    HW219587   0.014   3.135   4.979
 6230SOL     OW19588   0.704   1.553   3.451
 6230SOL    HW119589   0.686   1.645   3.484
 6230SOL    HW219590   0.797   1.548   3.415
 6231SOL     OW19591   5.422   4.924   0.416
 6231SOL    HW119592   5.460   4.999   0.471
 6231SOL    HW219593   5.497   4.871   0.376
 6232SOL     OW19594   6.289   0.764   0.781
 6232SOL    HW119595   6.336   0.796   0.699
 6232SOL    HW219596   6.322   0.815   0.860
 6233SOL     OW19597   0.300   3.252   1.985
 6233SOL    HW119598   0.279   3.180   1.918
 6233SOL    HW219599   0.399   3.262   1.993
 6234SOL     OW19600   0.156   0.536   5.029
 6234SOL    HW119601   0.143   0.553   5.127
 6234SOL    HW219602   0.185   0.441   5.016
 6235SOL     OW19603   6.906   0.877   2.302
 6235SOL    HW119604   7.005   0.867   2.293
 6235SOL    HW219605   6.872   0.815   2.373
 6236SOL     OW19606   0.321   4.074   0.594
 6236SOL    HW119607   0.319   4.038   0.687
 6236SOL    HW219608   0.305   4.173   0.597
 6237SOL     OW19609   3.551   6.879   0.473
 6237SOL    HW119610   3.474   6.819   0.492
 6237SOL    HW219611   3.559   6.947   0.546
 6238SOL     OW19612   3.490   6.694   3.585
 6238SOL    HW119613   3.413   6.637   3.614
 6238SOL    HW219614   3.491   6.778   3.640
 6239SOL     OW19615   3.369   6.856   1.794
 6239SOL    HW119616   3.365   6.942   1.742
 6239SOL    HW219617   3.440   6.797   1.755
 6240SOL     OW19618   3.081   3.852   5.039
 6240SOL    HW119619   3.046   3.880   5.128
 6240SOL    HW219620   3.100   3.932   4.983
 6241SOL     OW19621   3.805   0.114   3.945
 6241SOL    HW119622   3.778   0.179   3.874
 6241SOL    HW219623   3.899   0.083   3.927
 6242SOL     OW19624   2.200   2.122   2.941
 6242SOL    HW119625   2.128   2.068   2.897
 6242SOL    HW219626   2.200   2.104   3.039
 6243SOL     OW19627   6.721   0.754   5.789
 6243SOL    HW119628   6.806   0.756   5.738
 6243SOL    HW219629   6.731   0.810   5.872
 6244SOL     OW19630   5.030   4.100   2.522
 6244SOL    HW119631   5.050   4.108   2.620
 6244SOL    HW219632   5.016   4.003   2.499
 6245SOL     OW19633   0.928   5.112   2.236
 6245SOL    HW119634   0.966   5.058   2.311
 6245SOL    HW219635   0.836   5.080   2.216
 6246SOL     OW19636   1.298   6.873   4.491
 6246SOL    HW119637   1.356   6.905   4.416
 6246SOL    HW219638   1.205   6.906   4.478
 6247SOL     OW19639   0.792   5.178   3.477
 6247SOL    HW119640   0.872   5.143   3.526
 6247SOL    HW219641   0.749   5.250   3.532
 6248SOL     OW19642   3.715   3.440   6.787
 6248SOL    HW119643   3.667   3.435   6.700
 6248SOL    HW219644   3.789   3.373   6.789
 6249SOL     OW19645   0.072   2.636   1.466
 6249SOL    HW119646   0.042   2.725   1.431
 6249SOL    HW219647   0.105   2.580   1.390
 6250SOL     OW19648   0.239   7.002   0.478
 6250SOL    HW119649   0.167   0.042   0.504
 6250SOL    HW219650   0.204   6.940   0.408
 6251SOL     OW19651   3.446   6.402   4.577
 6251SOL    HW119652   3.412   6.349   4.500
 6251SOL    HW219653   3.370   6.448   4.622
 6252SOL     OW19654   2.906   4.882   0.125
 6252SOL    HW119655   2.822   4.864   0.074
 6252SOL    HW219656   2.981   4.897   0.061
 6253SOL     OW19657   2.624   4.937   4.850
 6253SOL    HW119658   2.580   4.934   4.761
 6253SOL    HW219659   2.656   4.846   4.875
 6254SOL     OW19660   0.925   5.866   0.924
 6254SOL    HW119661   0.982   5.784   0.929
 6254SOL    HW219662   0.877   5.868   0.836
 6255SOL     OW19663   1.977   2.461   1.103
 6255SOL    HW119664   2.069   2.429   1.129
 6255SOL    HW219665   1.947   2.532   1.167
 6256SOL     OW19666   4.781   5.751   2.748
 6256SOL    HW119667   4.690   5.763   2.709
 6256SOL    HW219668   4.849   5.796   2.690
 6257SOL     OW19669   4.402   3.486   0.769
 6257SOL    HW119670   4.319   3.541   0.778
 6257SOL    HW219671   4.440   3.498   0.677
 6258SOL     OW19672   3.805   0.095   5.835
 6258SOL    HW119673   3.799   0.113   5.933
 6258SOL    HW219674   3.739   0.024   5.810
 6259SOL     OW19675   1.058   1.084   5.926
 6259SOL    HW119676   1.061   1.039   6.016
 6259SOL    HW219677   1.079   1.181   5.937
 6260SOL     OW19678   1.844   0.832   0.587
 6260SOL    HW119679   1.864   0.930   0.583
 6260SOL    HW219680   1.925   0.783   0.618
 6261SOL     OW19681   5.491   0.346   1.283
 6261SOL    HW119682   5.579   0.328   1.240
 6261SOL    HW219683   5.437   0.408   1.226
 6262SOL     OW19684   6.784   6.238   2.724
 6262SOL    HW119685   6.855   6.196   2.781
 6262SOL    HW219686   6.772   6.184   2.641
 6263SOL     OW19687   6.891   6.790   4.709
 6263SOL    HW119688   6.812   6.750   4.663
 6263SOL    HW219689   6.938   6.719   4.762
 6264SOL     OW19690   1.251   6.860   1.358
 6264SOL    HW119691   1.260   6.895   1.265
 6264SOL    HW219692   1.169   6.898   1.400
 6265SOL     OW19693   4.029   2.846   0.837
 6265SOL    HW119694   4.112   2.836   0.783
 6265SOL    HW219695   3.971   2.766   0.825
 6266SOL     OW19696   3.376   6.512   3.119
 6266SOL    HW119697   3.294   6.569   3.116
 6266SOL    HW219698   3.455   6.567   3.145
 6267SOL     OW19699   1.347   6.598   5.113
 6267SOL    HW119700   1.250   6.621   5.105
 6267SOL    HW219701   1.360   6.501   5.093
 6268SOL     OW19702   3.703   0.063   2.166
 6268SOL    HW119703   3.760   0.072   2.248
 6268SOL    HW219704   3.717   0.143   2.107
 6269SOL     OW19705   5.770   5.949   1.345
 6269SOL    HW119706   5.684   5.994   1.369
 6269SOL    HW219707   5.836   6.017   1.315
 6270SOL     OW19708   0.808   6.702   0.163
 6270SOL    HW119709   0.889   6.666   0.209
 6270SOL    HW219710   0.726   6.670   0.210
 6271SOL     OW19711   5.649   2.506   6.812
 6271SOL    HW119712   5.583   2.434   6.833
 6271SOL    HW219713   5.647   2.526   6.714
 6272SOL     OW19714   6.845   0.606   6.707
 6272SOL    HW119715   6.881   0.634   6.618
 6272SOL    HW219716   6.893   0.523   6.738
 6273SOL     OW19717   0.187   6.053   2.973
 6273SOL    HW119718   0.195   6.125   3.042
 6273SOL    HW219719   0.264   6.060   2.909
 6274SOL     OW19720   3.131   6.586   4.732
 6274SOL    HW119721   3.146   6.522   4.656
 6274SOL    HW219722   3.122   6.679   4.696
 6275SOL     OW19723   2.450   5.715   0.382
 6275SOL    HW119724   2.395   5.673   0.454
 6275SOL    HW219725   2.537   5.746   0.420
 6276SOL     OW19726   3.558   5.747   3.153
 6276SOL    HW119727   3.583   5.659   3.193
 6276SOL    HW219728   3.506   5.731   3.069
 6277SOL     OW19729   4.884   1.974   1.535
 6277SOL    HW119730   4.794   1.955   1.496
 6277SOL    HW219731   4.900   1.913   1.613
 6278SOL     OW19732   3.095   0.163   5.541
 6278SOL    HW119733   3.058   0.255   5.540
 6278SOL    HW219734   3.060   0.113   5.620
 6279SOL     OW19735   3.497   5.512   0.636
 6279SOL    HW119736   3.556   5.506   0.555
 6279SOL    HW219737   3.508   5.429   0.691
 6280SOL     OW19738   6.515   1.809   0.141
 6280SOL    HW119739   6.529   1.729   0.199
 6280SOL    HW219740   6.517   1.781   0.045
 6281SOL     OW19741   5.912   4.257   4.230
 6281SOL    HW119742   5.857   4.221   4.306
 6281SOL    HW219743   5.954   4.343   4.257
 6282SOL     OW19744   6.642   3.825   5.450
 6282SOL    HW119745   6.669   3.900   5.390
 6282SOL    HW219746   6.569   3.856   5.511
 6283SOL     OW19747   0.847   5.403   4.994
 6283SOL    HW119748   0.935   5.368   5.026
 6283SOL    HW219749   0.797   5.444   5.070
 6284SOL     OW19750   0.895   4.500   6.839
 6284SOL    HW119751   0.884   4.554   6.923
 6284SOL    HW219752   0.810   4.498   6.788
 6285SOL     OW19753   1.805   3.697   3.476
 6285SOL    HW119754   1.813   3.597   3.476
 6285SOL    HW219755   1.712   3.723   3.499
 6286SOL     OW19756   7.000   3.841   4.962
 6286SOL    HW119757   6.924   3.776   4.963
 6286SOL    HW219758   0.041   3.815   4.891
 6287SOL     OW19759   4.227   4.265   5.715
 6287SOL    HW119760   4.268   4.174   5.721
 6287SOL    HW219761   4.148   4.270   5.776
 6288SOL     OW19762   4.246   3.708   7.010
 6288SOL    HW119763   4.261   3.650   0.065
 6288SOL    HW219764   4.158   3.686   6.969
 6289SOL     OW19765   2.668   4.184   6.723
 6289SOL    HW119766   2.727   4.187   6.643
 6289SOL    HW219767   2.624   4.094   6.728
 6290SOL     OW19768   6.072   5.492   6.601
 6290SOL    HW119769   6.022   5.578   6.613
 6290SOL    HW219770   6.115   5.491   6.511
 6291SOL     OW19771   3.273   3.042   3.040
 6291SOL    HW119772   3.188   3.087   3.067
 6291SOL    HW219773   3.305   3.082   2.954
 6292SOL     OW19774   1.728   2.374   4.764
 6292SOL    HW119775   1.796   2.435   4.723
 6292SOL    HW219776   1.704   2.303   4.698
 6293SOL     OW19777   4.624   1.647   0.569
 6293SOL    HW119778   4.677   1.700   0.636
 6293SOL    HW219779   4.543   1.609   0.614
 6294SOL     OW19780   3.267   0.402   3.700
 6294SOL    HW119781   3.273   0.304   3.719
 6294SOL    HW219782   3.345   0.431   3.645
 6295SOL     OW19783   5.001   5.282   4.789
 6295SOL    HW119784   4.915   5.233   4.804
 6295SOL    HW219785   4.990   5.346   4.713
 6296SOL     OW19786   0.630   3.691   5.986
 6296SOL    HW119787   0.607   3.668   5.891
 6296SOL    HW219788   0.707   3.755   5.987
 6297SOL     OW19789   5.971   0.222   4.841
 6297SOL    HW119790   6.007   0.130   4.854
 6297SOL    HW219791   5.934   0.256   4.928
 6298SOL     OW19792   5.663   4.349   6.733
 6298SOL    HW119793   5.702   4.437   6.759
 6298SOL    HW219794   5.693   4.279   6.798
 6299SOL     OW19795   5.355   2.626   2.488
 6299SOL    HW119796   5.366   2.651   2.584
 6299SOL    HW219797   5.377   2.530   2.476
 6300SOL     OW19798   4.242   0.960   6.341
 6300SOL    HW119799   4.186   0.985   6.263
 6300SOL    HW219800   4.213   0.870   6.375
 6301SOL     OW19801   3.066   6.821   6.596
 6301SOL    HW119802   3.163   6.833   6.619
 6301SOL    HW219803   3.010   6.835   6.678
 6302SOL     OW19804   2.180   1.598   5.664
 6302SOL    HW119805   2.102   1.588   5.725
 6302SOL    HW219806   2.264   1.573   5.712
 6303SOL     OW19807   1.132   6.594   5.552
 6303SOL    HW119808   1.066   6.601   5.477
 6303SOL    HW219809   1.218   6.556   5.517
 6304SOL     OW19810   4.002   1.378   3.433
 6304SOL    HW119811   3.941   1.329   3.370
 6304SOL    HW219812   4.000   1.333   3.522
 6305SOL     OW19813   6.456   5.868   6.044
 6305SOL    HW119814   6.429   5.774   6.068
 6305SOL    HW219815   6.430   5.887   5.949
 6306SOL     OW19816   0.558   3.737   3.554
 6306SOL    HW119817   0.513   3.655   3.588
 6306SOL    HW219818   0.494   3.814   3.557
 6307SOL     OW19819   3.864   4.039   3.667
 6307SOL    HW119820   3.766   4.057   3.681
 6307SOL    HW219821   3.903   4.003   3.751
 6308SOL     OW19822   0.210   2.184   5.700
 6308SOL    HW119823   0.234   2.281   5.694
 6308SOL    HW219824   0.147   2.161   5.626
 6309SOL     OW19825   0.470   6.739   4.347
 6309SOL    HW119826   0.509   6.660   4.299
 6309SOL    HW219827   0.531   6.818   4.337
 6310SOL     OW19828   1.649   6.941   3.183
 6310SOL    HW119829   1.572   6.898   3.137
 6310SOL    HW219830   1.735   6.910   3.141
 6311SOL     OW19831   5.050   0.803   6.737
 6311SOL    HW119832   5.057   0.740   6.660
 6311SOL    HW219833   4.954   0.832   6.749
 6312SOL     OW19834   2.743   6.783   6.349
 6312SOL    HW119835   2.717   6.691   6.379
 6312SOL    HW219836   2.740   6.787   6.249
 6313SOL     OW19837   5.493   6.227   3.419
 6313SOL    HW119838   5.526   6.318   3.446
 6313SOL    HW219839   5.510   6.162   3.492
 6314SOL     OW19840   3.105   6.821   1.355
 6314SOL    HW119841   3.045   6.893   1.319
 6314SOL    HW219842   3.179   6.862   1.408
 6315SOL     OW19843   1.938   2.416   4.412
 6315SOL    HW119844   1.860   2.364   4.378
 6315SOL    HW219845   1.968   2.378   4.499
 6316SOL     OW19846   4.773   1.858   5.861
 6316SOL    HW119847   4.855   1.811   5.829
 6316SOL    HW219848   4.777   1.954   5.835
 6317SOL     OW19849   5.345   4.467   2.646
 6317SOL    HW119850   5.259   4.470   2.697
 6317SOL    HW219851   5.343   4.536   2.573
 6318SOL     OW19852   6.494   0.285   6.864
 6318SOL    HW119853   6.584   0.323   6.886
 6318SOL    HW219854   6.500   0.232   6.779
 6319SOL     OW19855   5.848   2.481   4.889
 6319SOL    HW119856   5.772   2.541   4.861
 6319SOL    HW219857   5.904   2.459   4.810
 6320SOL     OW19858   0.113   0.564   3.514
 6320SOL    HW119859   0.175   0.531   3.584
 6320SOL    HW219860   0.060   0.488   3.476
 6321SOL     OW19861   5.041   2.983   0.733
 6321SOL    HW119862   5.026   3.037   0.815
 6321SOL    HW219863   5.082   3.041   0.662
 6322SOL     OW19864   2.352   2.031   0.776
 6322SOL    HW119865   2.340   2.063   0.682
 6322SOL    HW219866   2.425   2.084   0.820
 6323SOL     OW19867   2.509   3.260   0.932
 6323SOL    HW119868   2.487   3.167   0.963
 6323SOL    HW219869   2.535   3.316   1.010
 6324SOL     OW19870   4.484   1.599   1.233
 6324SOL    HW119871   4.391   1.620   1.204
 6324SOL    HW219872   4.548   1.662   1.189
 6325SOL     OW19873   2.011   2.650   2.383
 6325SOL    HW119874   2.070   2.711   2.435
 6325SOL    HW219875   1.924   2.696   2.364
 6326SOL     OW19876   4.507   4.622   5.702
 6326SOL    HW119877   4.561   4.628   5.786
 6326SOL    HW219878   4.520   4.531   5.661
 6327SOL     OW19879   0.303   1.784   3.519
 6327SOL    HW119880   0.212   1.779   3.480
 6327SOL    HW219881   0.296   1.808   3.616
 6328SOL     OW19882   5.361   4.234   6.238
 6328SOL    HW119883   5.306   4.318   6.242
 6328SOL    HW219884   5.410   4.222   6.324
 6329SOL     OW19885   1.158   2.952   4.856
 6329SOL    HW119886   1.240   2.898   4.839
 6329SOL    HW219887   1.162   2.991   4.948
 6330SOL     OW19888   5.776   0.725   3.655
 6330SOL    HW119889   5.692   0.776   3.675
 6330SOL    HW219890   5.771   0.635   3.699
 6331SOL     OW19891   6.439   3.018   4.917
 6331SOL    HW119892   6.368   2.991   4.852
 6331SOL    HW219893   6.404   3.086   4.980
 6332SOL     OW19894   1.937   1.569   1.627
 6332SOL    HW119895   1.845   1.609   1.626
 6332SOL    HW219896   2.000   1.631   1.581
 6333SOL     OW19897   4.796   0.110   0.300
 6333SOL    HW119898   4.777   0.181   0.231
 6333SOL    HW219899   4.894   0.091   0.303
 6334SOL     OW19900   2.717   1.719   1.923
 6334SOL    HW119901   2.745   1.800   1.975
 6334SOL    HW219902   2.617   1.720   1.912
 6335SOL     OW19903   5.416   0.963   1.091
 6335SOL    HW119904   5.417   1.021   1.009
 6335SOL    HW219905   5.372   1.012   1.166
 6336SOL     OW19906   7.006   5.156   6.206
 6336SOL    HW119907   0.054   5.141   6.139
 6336SOL    HW219908   6.937   5.085   6.197
 6337SOL     OW19909   3.928   5.597   4.771
 6337SOL    HW119910   3.928   5.498   4.789
 6337SOL    HW219911   4.023   5.628   4.760
 6338SOL     OW19912   3.156   2.173   4.250
 6338SOL    HW119913   3.243   2.152   4.205
 6338SOL    HW219914   3.088   2.199   4.180
 6339SOL     OW19915   0.950   3.081   2.556
 6339SOL    HW119916   0.850   3.074   2.559
 6339SOL    HW219917   0.980   3.085   2.461
 6340SOL     OW19918   2.693   3.844   1.566
 6340SOL    HW119919   2.597   3.854   1.539
 6340SOL    HW219920   2.743   3.795   1.495
 6341SOL     OW19921   0.893   3.511   3.439
 6341SOL    HW119922   0.942   3.424   3.440
 6341SOL    HW219923   0.847   3.521   3.350
 6342SOL     OW19924   2.392   1.054   1.313
 6342SOL    HW119925   2.339   1.137   1.328
 6342SOL    HW219926   2.489   1.075   1.313
 6343SOL     OW19927   3.352   6.591   0.266
 6343SOL    HW119928   3.315   6.665   0.210
 6343SOL    HW219929   3.294   6.510   0.257
 6344SOL     OW19930   6.011   2.539   4.060
 6344SOL    HW119931   5.952   2.619   4.071
 6344SOL    HW219932   6.080   2.539   4.132
 6345SOL     OW19933   5.115   3.288   2.017
 6345SOL    HW119934   5.207   3.323   1.997
 6345SOL    HW219935   5.052   3.319   1.946
 6346SOL     OW19936   0.070   4.104   5.597
 6346SOL    HW119937   0.039   4.016   5.559
 6346SOL    HW219938   7.023   4.173   5.584
 6347SOL     OW19939   2.860   2.254   2.425
 6347SOL    HW119940   2.945   2.229   2.471
 6347SOL    HW219941   2.863   2.225   2.330
 6348SOL     OW19942   0.189   1.861   5.813
 6348SOL    HW119943   0.096   1.857   5.775
 6348SOL    HW219944   0.254   1.881   5.740
 6349SOL     OW19945   1.563   0.331   0.032
 6349SOL    HW119946   1.473   0.313   0.072
 6349SOL    HW219947   1.554   0.348   6.959
 6350SOL     OW19948   0.824   5.377   2.848
 6350SOL    HW119949   0.862   5.299   2.898
 6350SOL    HW219950   0.751   5.419   2.902
 6351SOL     OW19951   6.249   4.436   3.690
 6351SOL    HW119952   6.210   4.494   3.618
 6351SOL    HW219953   6.201   4.349   3.693
 6352SOL     OW19954   2.603   0.940   3.969
 6352SOL    HW119955   2.530   0.968   4.031
 6352SOL    HW219956   2.689   0.931   4.020
 6353SOL     OW19957   2.535   4.903   0.325
 6353SOL    HW119958   2.483   4.884   0.241
 6353SOL    HW219959   2.619   4.849   0.324
 6354SOL     OW19960   4.968   5.069   2.910
 6354SOL    HW119961   4.974   5.117   2.998
 6354SOL    HW219962   4.894   5.002   2.914
 6355SOL     OW19963   3.236   5.546   0.742
 6355SOL    HW119964   3.194   5.628   0.702
 6355SOL    HW219965   3.320   5.524   0.692
 6356SOL     OW19966   5.013   4.966   7.018
 6356SOL    HW119967   4.944   4.897   0.018
 6356SOL    HW219968   5.103   4.923   7.016
 6357SOL     OW19969   5.666   2.093   1.152
 6357SOL    HW119970   5.620   2.026   1.093
 6357SOL    HW219971   5.615   2.103   1.237
 6358SOL     OW19972   0.550   1.653   6.754
 6358SOL    HW119973   0.599   1.740   6.749
 6358SOL    HW219974   0.532   1.620   6.661
 6359SOL     OW19975   6.346   6.879   0.722
 6359SOL    HW119976   6.292   6.801   0.692
 6359SOL    HW219977   6.437   6.875   0.681
 6360SOL     OW19978   0.023   2.588   3.619
 6360SOL    HW119979   7.010   2.672   3.580
 6360SOL    HW219980   0.123   2.588   3.607
 6361SOL     OW19981   0.567   0.690   0.344
 6361SOL    HW119982   0.624   0.765   0.310
 6361SOL    HW219983   0.475   0.699   0.306
 6362SOL     OW19984   1.018   6.288   6.463
 6362SOL    HW119985   1.006   6.371   6.516
 6362SOL    HW219986   1.011   6.309   6.365
 6363SOL     OW19987   2.628   5.324   3.568
 6363SOL    HW119988   2.687   5.400   3.542
 6363SOL    HW219989   2.668   5.277   3.647
 6364SOL     OW19990   2.010   2.538   4.954
 6364SOL    HW119991   1.967   2.481   5.025
 6364SOL    HW219992   2.109   2.526   4.958
 6365SOL     OW19993   6.237   5.561   4.844
 6365SOL    HW119994   6.195   5.644   4.806
 6365SOL    HW219995   6.184   5.482   4.814
 6366SOL     OW19996   6.321   6.556   4.673
 6366SOL    HW119997   6.262   6.561   4.754
 6366SOL    HW219998   6.372   6.641   4.664
 6367SOL     OW19999   2.909   1.927   2.836
 6367SOL    HW120000   2.816   1.912   2.802
 6367SOL    HW220001   2.916   2.017   2.878
 6368SOL     OW20002   4.657   4.437   3.992
 6368SOL    HW120003   4.594   4.484   4.053
 6368SOL    HW220004   4.705   4.364   4.041
 6369SOL     OW20005   2.427   5.993   5.783
 6369SOL    HW120006   2.415   5.975   5.685
 6369SOL    HW220007   2.376   5.925   5.835
 6370SOL     OW20008   5.026   3.806   3.357
 6370SOL    HW120009   5.110   3.794   3.303
 6370SOL    HW220010   5.022   3.734   3.427
 6371SOL     OW20011   5.474   4.006   1.970
 6371SOL    HW120012   5.500   3.910   1.975
 6371SOL    HW220013   5.426   4.024   1.884
 6372SOL     OW20014   0.492   0.871   2.913
 6372SOL    HW120015   0.447   0.784   2.895
 6372SOL    HW220016   0.572   0.855   2.971
 6373SOL     OW20017   5.710   4.336   1.678
 6373SOL    HW120018   5.627   4.302   1.633
 6373SOL    HW220019   5.761   4.258   1.715
 6374SOL     OW20020   4.597   3.250   0.338
 6374SOL    HW120021   4.669   3.311   0.368
 6374SOL    HW220022   4.631   3.156   0.335
 6375SOL     OW20023   0.853   2.677   2.237
 6375SOL    HW120024   0.895   2.688   2.147
 6375SOL    HW220025   0.815   2.585   2.245
 6376SOL     OW20026   4.254   0.864   5.961
 6376SOL    HW120027   4.272   0.958   5.989
 6376SOL    HW220028   4.324   0.804   6.000
 6377SOL     OW20029   6.898   0.530   6.146
 6377SOL    HW120030   6.821   0.578   6.186
 6377SOL    HW220031   6.982   0.556   6.194
 6378SOL     OW20032   4.912   5.903   3.022
 6378SOL    HW120033   4.842   5.835   3.003
 6378SOL    HW220034   4.869   5.989   3.050
 6379SOL     OW20035   1.592   5.229   5.785
 6379SOL    HW120036   1.682   5.266   5.809
 6379SOL    HW220037   1.556   5.176   5.861
 6380SOL     OW20038   0.751   3.149   4.603
 6380SOL    HW120039   0.781   3.242   4.625
 6380SOL    HW220040   0.716   3.147   4.509
 6381SOL     OW20041   4.083   3.112   0.448
 6381SOL    HW120042   4.050   3.200   0.483
 6381SOL    HW220043   4.182   3.116   0.433
 6382SOL     OW20044   2.762   1.975   1.369
 6382SOL    HW120045   2.791   2.034   1.444
 6382SOL    HW220046   2.836   1.911   1.347
 6383SOL     OW20047   1.969   2.936   2.591
 6383SOL    HW120048   1.913   3.016   2.573
 6383SOL    HW220049   2.055   2.942   2.540
 6384SOL     OW20050   5.735   2.398   2.254
 6384SOL    HW120051   5.655   2.378   2.198
 6384SOL    HW220052   5.787   2.474   2.213
 6385SOL     OW20053   6.939   3.813   0.999
 6385SOL    HW120054   6.856   3.822   0.943
 6385SOL    HW220055   6.960   3.902   1.040
 6386SOL     OW20056   1.926   3.870   0.013
 6386SOL    HW120057   1.941   3.950   0.071
 6386SOL    HW220058   1.856   3.890   6.970
 6387SOL     OW20059   6.146   0.868   0.175
 6387SOL    HW120060   6.054   0.828   0.174
 6387SOL    HW220061   6.139   0.967   0.161
 6388SOL     OW20062   6.533   5.106   2.787
 6388SOL    HW120063   6.545   5.110   2.688
 6388SOL    HW220064   6.558   5.015   2.821
 6389SOL     OW20065   1.521   6.722   0.049
 6389SOL    HW120066   1.473   6.809   0.046
 6389SOL    HW220067   1.581   6.720   0.129
 6390SOL     OW20068   6.560   0.448   0.445
 6390SOL    HW120069   6.514   0.520   0.394
 6390SOL    HW220070   6.658   0.447   0.421
 6391SOL     OW20071   1.102   0.855   5.751
 6391SOL    HW120072   1.063   0.924   5.812
 6391SOL    HW220073   1.127   0.774   5.804
 6392SOL     OW20074   3.703   5.910   3.642
 6392SOL    HW120075   3.728   5.814   3.632
 6392SOL    HW220076   3.705   5.935   3.739
 6393SOL     OW20077   5.587   6.593   1.711
 6393SOL    HW120078   5.628   6.609   1.800
 6393SOL    HW220079   5.491   6.570   1.722
 6394SOL     OW20080   0.938   4.616   0.926
 6394SOL    HW120081   0.865   4.652   0.984
 6394SOL    HW220082   0.913   4.524   0.896
 6395SOL     OW20083   0.122   3.832   2.753
 6395SOL    HW120084   0.032   3.859   2.786
 6395SOL    HW220085   0.129   3.732   2.754
 6396SOL     OW20086   6.761   3.412   6.684
 6396SOL    HW120087   6.832   3.405   6.613
 6396SOL    HW220088   6.803   3.393   6.773
 6397SOL     OW20089   6.223   1.704   2.868
 6397SOL    HW120090   6.126   1.710   2.846
 6397SOL    HW220091   6.274   1.676   2.787
 6398SOL     OW20092   1.570   6.209   1.406
 6398SOL    HW120093   1.599   6.183   1.498
 6398SOL    HW220094   1.474   6.185   1.394
 6399SOL     OW20095   1.876   0.090   6.800
 6399SOL    HW120096   1.915   0.000   6.777
 6399SOL    HW220097   1.783   0.096   6.764
 6400SOL     OW20098   1.714   5.798   3.118
 6400SOL    HW120099   1.662   5.866   3.170
 6400SOL    HW220100   1.654   5.722   3.094
 6401SOL     OW20101   4.464   4.638   3.070
 6401SOL    HW120102   4.507   4.612   2.983
 6401SOL    HW220103   4.485   4.570   3.140
 6402SOL     OW20104   1.078   3.678   3.234
 6402SOL    HW120105   1.147   3.740   3.195
 6402SOL    HW220106   1.103   3.657   3.329
 6403SOL     OW20107   5.605   6.458   4.914
 6403SOL    HW120108   5.679   6.420   4.858
 6403SOL    HW220109   5.626   6.445   5.011
 6404SOL     OW20110   3.431   1.176   2.669
 6404SOL    HW120111   3.443   1.103   2.737
 6404SOL    HW220112   3.354   1.152   2.609
 6405SOL     OW20113   5.007   1.637   3.630
 6405SOL    HW120114   5.068   1.653   3.553
 6405SOL    HW220115   5.036   1.693   3.708
 6406SOL     OW20116   0.938   2.724   2.606
 6406SOL    HW120117   0.977   2.636   2.578
 6406SOL    HW220118   0.972   2.748   2.697
 6407SOL     OW20119   1.962   6.479   3.333
 6407SOL    HW120120   2.028   6.481   3.408
 6407SOL    HW220121   1.934   6.385   3.315
 6408SOL     OW20122   0.103   0.817   1.450
 6408SOL    HW120123   0.050   0.823   1.535
 6408SOL    HW220124   0.111   0.908   1.410
 6409SOL     OW20125   6.269   4.780   3.864
 6409SOL    HW120126   6.285   4.681   3.875
 6409SOL    HW220127   6.256   4.821   3.954
 6410SOL     OW20128   2.493   1.284   5.774
 6410SOL    HW120129   2.504   1.325   5.683
 6410SOL    HW220130   2.583   1.265   5.813
 6411SOL     OW20131   0.209   3.166   1.739
 6411SOL    HW120132   0.166   3.252   1.711
 6411SOL    HW220133   0.289   3.149   1.681
 6412SOL     OW20134   3.183   0.845   6.855
 6412SOL    HW120135   3.268   0.794   6.870
 6412SOL    HW220136   3.119   0.788   6.803
 6413SOL     OW20137   4.129   5.078   4.598
 6413SOL    HW120138   4.203   5.022   4.558
 6413SOL    HW220139   4.065   5.018   4.646
 6414SOL     OW20140   0.682   6.633   6.905
 6414SOL    HW120141   0.607   6.576   6.873
 6414SOL    HW220142   0.655   6.680   6.989
 6415SOL     OW20143   1.153   3.385   2.547
 6415SOL    HW120144   1.134   3.314   2.479
 6415SOL    HW220145   1.221   3.351   2.612
 6416SOL     OW20146   2.896   0.087   6.762
 6416SOL    HW120147   2.883   7.012   6.768
 6416SOL    HW220148   2.810   0.130   6.734
 6417SOL     OW20149   4.838   2.446   0.828
 6417SOL    HW120150   4.846   2.519   0.895
 6417SOL    HW220151   4.760   2.387   0.852
 6418SOL     OW20152   4.802   4.516   1.901
 6418SOL    HW120153   4.775   4.423   1.929
 6418SOL    HW220154   4.901   4.524   1.902
 6419SOL     OW20155   0.810   6.799   6.370
 6419SOL    HW120156   0.883   6.767   6.309
 6419SOL    HW220157   0.723   6.797   6.321
 6420SOL     OW20158   1.505   2.514   3.657
 6420SOL    HW120159   1.594   2.559   3.664
 6420SOL    HW220160   1.465   2.505   3.748
 6421SOL     OW20161   5.683   0.507   1.520
 6421SOL    HW120162   5.707   0.411   1.507
 6421SOL    HW220163   5.729   0.562   1.451
 6422SOL     OW20164   0.055   2.196   5.467
 6422SOL    HW120165   0.006   2.226   5.549
 6422SOL    HW220166   0.022   2.248   5.388
 6423SOL     OW20167   2.888   5.791   4.294
 6423SOL    HW120168   2.940   5.794   4.209
 6423SOL    HW220169   2.945   5.826   4.369
 6424SOL     OW20170   0.404   3.343   4.669
 6424SOL    HW120171   0.333   3.388   4.615
 6424SOL    HW220172   0.473   3.303   4.609
 6425SOL     OW20173   6.887   5.749   2.432
 6425SOL    HW120174   6.939   5.707   2.357
 6425SOL    HW220175   6.806   5.695   2.451
 6426SOL     OW20176   4.864   4.844   4.305
 6426SOL    HW120177   4.923   4.887   4.374
 6426SOL    HW220178   4.876   4.889   4.217
 6427SOL     OW20179   3.242   3.963   3.029
 6427SOL    HW120180   3.276   3.897   3.096
 6427SOL    HW220181   3.158   4.006   3.064
 6428SOL     OW20182   5.154   2.155   0.748
 6428SOL    HW120183   5.144   2.230   0.813
 6428SOL    HW220184   5.249   2.123   0.748
 6429SOL     OW20185   1.981   0.656   5.356
 6429SOL    HW120186   1.906   0.624   5.298
 6429SOL    HW220187   2.066   0.612   5.328
 6430SOL     OW20188   6.964   0.417   5.725
 6430SOL    HW120189   6.997   0.369   5.644
 6430SOL    HW220190   6.917   0.501   5.697
 6431SOL     OW20191   4.627   5.226   3.326
 6431SOL    HW120192   4.609   5.202   3.230
 6431SOL    HW220193   4.723   5.249   3.337
 6432SOL     OW20194   3.489   3.920   6.518
 6432SOL    HW120195   3.445   3.832   6.533
 6432SOL    HW220196   3.561   3.934   6.586
 6433SOL     OW20197   2.905   5.491   6.841
 6433SOL    HW120198   2.891   5.516   6.936
 6433SOL    HW220199   2.952   5.565   6.793
 6434SOL     OW20200   3.036   6.176   6.175
 6434SOL    HW120201   2.958   6.170   6.237
 6434SOL    HW220202   3.019   6.118   6.095
 6435SOL     OW20203   5.909   6.986   0.782
 6435SOL    HW120204   5.994   6.999   0.731
 6435SOL    HW220205   5.879   0.049   0.820
 6436SOL     OW20206   0.684   3.353   3.590
 6436SOL    HW120207   0.749   3.425   3.564
 6436SOL    HW220208   0.733   3.278   3.633
 6437SOL     OW20209   0.620   1.763   5.117
 6437SOL    HW120210   0.534   1.812   5.104
 6437SOL    HW220211   0.685   1.789   5.046
 6438SOL     OW20212   0.953   5.165   6.114
 6438SOL    HW120213   0.926   5.256   6.083
 6438SOL    HW220214   0.892   5.135   6.188
 6439SOL     OW20215   6.501   0.740   3.689
 6439SOL    HW120216   6.459   0.808   3.749
 6439SOL    HW220217   6.599   0.760   3.679
 6440SOL     OW20218   2.287   0.683   6.597
 6440SOL    HW120219   2.381   0.689   6.629
 6440SOL    HW220220   2.225   0.706   6.672
 6441SOL     OW20221   0.155   0.855   3.167
 6441SOL    HW120222   0.082   0.855   3.235
 6441SOL    HW220223   0.235   0.904   3.203
 6442SOL     OW20224   2.534   2.085   4.721
 6442SOL    HW120225   2.450   2.138   4.736
 6442SOL    HW220226   2.605   2.116   4.784
 6443SOL     OW20227   4.029   2.121   6.979
 6443SOL    HW120228   4.104   2.168   6.933
 6443SOL    HW220229   3.942   2.163   6.954
 6444SOL     OW20230   0.430   2.533   5.286
 6444SOL    HW120231   0.387   2.467   5.348
 6444SOL    HW220232   0.376   2.617   5.283
 6445SOL     OW20233   3.364   3.738   3.350
 6445SOL    HW120234   3.448   3.736   3.403
 6445SOL    HW220235   3.325   3.646   3.346
 6446SOL     OW20236   1.553   1.755   6.696
 6446SOL    HW120237   1.609   1.710   6.627
 6446SOL    HW220238   1.457   1.733   6.682
 6447SOL     OW20239   6.848   3.940   1.477
 6447SOL    HW120240   6.759   3.905   1.507
 6447SOL    HW220241   6.857   4.035   1.505
 6448SOL     OW20242   4.685   5.353   1.549
 6448SOL    HW120243   4.614   5.320   1.486
 6448SOL    HW220244   4.698   5.451   1.536
 6449SOL     OW20245   2.387   5.675   1.335
 6449SOL    HW120246   2.295   5.697   1.368
 6449SOL    HW220247   2.423   5.751   1.281
 6450SOL     OW20248   0.403   4.127   0.904
 6450SOL    HW120249   0.498   4.137   0.876
 6450SOL    HW220250   0.353   4.211   0.884
 6451SOL     OW20251   3.346   1.657   6.813
 6451SOL    HW120252   3.436   1.696   6.835
 6451SOL    HW220253   3.332   1.661   6.714
 6452SOL     OW20254   5.169   3.564   2.457
 6452SOL    HW120255   5.253   3.538   2.409
 6452SOL    HW220256   5.092   3.512   2.419
 6453SOL     OW20257   3.494   0.071   0.640
 6453SOL    HW120258   3.422   0.031   0.697
 6453SOL    HW220259   3.528   0.155   0.684
 6454SOL     OW20260   6.880   1.739   2.657
 6454SOL    HW120261   6.830   1.685   2.725
 6454SOL    HW220262   6.945   1.799   2.704
 6455SOL     OW20263   6.420   4.488   2.909
 6455SOL    HW120264   6.361   4.428   2.856
 6455SOL    HW220265   6.445   4.443   2.995
 6456SOL     OW20266   0.784   0.745   2.695
 6456SOL    HW120267   0.713   0.755   2.625
 6456SOL    HW220268   0.749   0.689   2.770
 6457SOL     OW20269   5.144   6.961   1.734
 6457SOL    HW120270   5.095   7.020   1.668
 6457SOL    HW220271   5.226   7.009   1.767
 6458SOL     OW20272   1.234   5.106   4.100
 6458SOL    HW120273   1.279   5.181   4.149
 6458SOL    HW220274   1.211   5.033   4.165
 6459SOL     OW20275   6.457   2.587   2.733
 6459SOL    HW120276   6.525   2.647   2.691
 6459SOL    HW220277   6.500   2.532   2.804
 6460SOL     OW20278   6.489   5.365   5.119
 6460SOL    HW120279   6.464   5.381   5.214
 6460SOL    HW220280   6.568   5.422   5.096
 6461SOL     OW20281   3.534   4.401   0.655
 6461SOL    HW120282   3.602   4.468   0.685
 6461SOL    HW220283   3.455   4.449   0.617
 6462SOL     OW20284   1.797   3.770   4.371
 6462SOL    HW120285   1.765   3.859   4.340
 6462SOL    HW220286   1.863   3.782   4.445
 6463SOL     OW20287   5.487   0.145   0.813
 6463SOL    HW120288   5.553   0.179   0.747
 6463SOL    HW220289   5.528   0.143   0.904
 6464SOL     OW20290   1.419   6.322   4.826
 6464SOL    HW120291   1.397   6.231   4.791
 6464SOL    HW220292   1.435   6.317   4.925
 6465SOL     OW20293   5.585   2.382   2.019
 6465SOL    HW120294   5.533   2.425   1.946
 6465SOL    HW220295   5.522   2.337   2.083
 6466SOL     OW20296   6.765   2.864   6.446
 6466SOL    HW120297   6.776   2.920   6.529
 6466SOL    HW220298   6.828   2.787   6.450
 6467SOL     OW20299   3.741   1.192   1.134
 6467SOL    HW120300   3.648   1.177   1.100
 6467SOL    HW220301   3.807   1.161   1.065
 6468SOL     OW20302   4.247   6.422   0.642
 6468SOL    HW120303   4.170   6.393   0.586
 6468SOL    HW220304   4.228   6.513   0.681
 6469SOL     OW20305   2.972   2.194   4.055
 6469SOL    HW120306   2.971   2.218   3.958
 6469SOL    HW220307   2.878   2.190   4.089
 6470SOL     OW20308   6.351   2.443   0.531
 6470SOL    HW120309   6.399   2.376   0.475
 6470SOL    HW220310   6.386   2.440   0.625
 6471SOL     OW20311   0.632   6.648   4.984
 6471SOL    HW120312   0.607   6.660   5.081
 6471SOL    HW220313   0.709   6.585   4.977
 6472SOL     OW20314   6.678   6.446   2.400
 6472SOL    HW120315   6.728   6.478   2.480
 6472SOL    HW220316   6.697   6.349   2.386
 6473SOL     OW20317   1.887   1.535   4.281
 6473SOL    HW120318   1.913   1.524   4.185
 6473SOL    HW220319   1.851   1.628   4.295
 6474SOL     OW20320   4.165   5.465   5.363
 6474SOL    HW120321   4.216   5.382   5.386
 6474SOL    HW220322   4.114   5.496   5.444
 6475SOL     OW20323   5.509   5.132   3.323
 6475SOL    HW120324   5.479   5.210   3.268
 6475SOL    HW220325   5.499   5.153   3.420
 6476SOL     OW20326   3.398   2.532   6.684
 6476SOL    HW120327   3.323   2.596   6.697
 6476SOL    HW220328   3.372   2.463   6.616
 6477SOL     OW20329   6.716   5.439   0.925
 6477SOL    HW120330   6.757   5.348   0.929
 6477SOL    HW220331   6.621   5.434   0.958
 6478SOL     OW20332   2.629   6.050   1.527
 6478SOL    HW120333   2.633   5.995   1.611
 6478SOL    HW220334   2.683   6.005   1.456
 6479SOL     OW20335   3.218   5.447   4.407
 6479SOL    HW120336   3.178   5.388   4.337
 6479SOL    HW220337   3.246   5.534   4.366
 6480SOL     OW20338   2.045   1.164   0.281
 6480SOL    HW120339   2.045   1.064   0.287
 6480SOL    HW220340   1.985   1.202   0.351
 6481SOL     OW20341   3.215   2.438   1.705
 6481SOL    HW120342   3.132   2.443   1.759
 6481SOL    HW220343   3.243   2.531   1.678
 6482SOL     OW20344   6.963   2.595   5.757
 6482SOL    HW120345   6.924   2.628   5.671
 6482SOL    HW220346   6.899   2.611   5.832
 6483SOL     OW20347   1.105   5.622   4.145
 6483SOL    HW120348   1.007   5.641   4.158
 6483SOL    HW220349   1.150   5.622   4.235
 6484SOL     OW20350   2.847   1.525   2.700
 6484SOL    HW120351   2.858   1.507   2.602
 6484SOL    HW220352   2.886   1.614   2.723
 6485SOL     OW20353   2.104   6.305   4.852
 6485SOL    HW120354   2.049   6.368   4.796
 6485SOL    HW220355   2.199   6.335   4.850
 6486SOL     OW20356   0.769   4.808   2.556
 6486SOL    HW120357   0.713   4.880   2.598
 6486SOL    HW220358   0.846   4.786   2.616
 6487SOL     OW20359   1.199   5.329   4.322
 6487SOL    HW120360   1.202   5.428   4.332
 6487SOL    HW220361   1.129   5.291   4.383
 6488SOL     OW20362   4.670   5.900   5.174
 6488SOL    HW120363   4.656   5.802   5.163
 6488SOL    HW220364   4.613   5.935   5.247
 6489SOL     OW20365   3.437   2.790   6.014
 6489SOL    HW120366   3.455   2.755   6.105
 6489SOL    HW220367   3.486   2.735   5.947
 6490SOL     OW20368   2.318   1.861   6.643
 6490SOL    HW120369   2.416   1.854   6.622
 6490SOL    HW220370   2.287   1.775   6.683
 6491SOL     OW20371   2.136   0.089   1.426
 6491SOL    HW120372   2.212   0.147   1.456
 6491SOL    HW220373   2.050   0.131   1.451
 6492SOL     OW20374   3.656   4.032   4.264
 6492SOL    HW120375   3.710   4.087   4.200
 6492SOL    HW220376   3.705   4.024   4.351
 6493SOL     OW20377   1.417   4.565   6.286
 6493SOL    HW120378   1.436   4.467   6.299
 6493SOL    HW220379   1.464   4.618   6.356
 6494SOL     OW20380   5.677   6.219   2.714
 6494SOL    HW120381   5.589   6.252   2.748
 6494SOL    HW220382   5.746   6.229   2.784
 6495SOL     OW20383   6.495   6.962   4.957
 6495SOL    HW120384   6.497   0.037   4.958
 6495SOL    HW220385   6.505   6.927   5.050
 6496SOL     OW20386   4.903   6.768   1.586
 6496SOL    HW120387   4.884   6.697   1.653
 6496SOL    HW220388   5.001   6.791   1.589
 6497SOL     OW20389   0.747   1.631   0.890
 6497SOL    HW120390   0.782   1.624   0.797
 6497SOL    HW220391   0.656   1.672   0.888
 6498SOL     OW20392   0.822   4.133   4.131
 6498SOL    HW120393   0.911   4.148   4.174
 6498SOL    HW220394   0.764   4.080   4.192
 6499SOL     OW20395   5.427   3.757   4.406
 6499SOL    HW120396   5.442   3.702   4.488
 6499SOL    HW220397   5.429   3.699   4.325
 6500SOL     OW20398   0.735   3.597   2.325
 6500SOL    HW120399   0.699   3.515   2.281
 6500SOL    HW220400   0.760   3.576   2.419
 6501SOL     OW20401   0.509   1.748   0.878
 6501SOL    HW120402   0.440   1.775   0.945
 6501SOL    HW220403   0.470   1.680   0.815
 6502SOL     OW20404   6.417   3.498   1.274
 6502SOL    HW120405   6.375   3.500   1.364
 6502SOL    HW220406   6.346   3.500   1.204
 6503SOL     OW20407   6.542   2.183   5.403
 6503SOL    HW120408   6.564   2.204   5.308
 6503SOL    HW220409   6.520   2.086   5.411
 6504SOL     OW20410   4.692   6.628   6.770
 6504SOL    HW120411   4.669   6.695   6.699
 6504SOL    HW220412   4.636   6.646   6.852
 6505SOL     OW20413   5.561   6.856   0.208
 6505SOL    HW120414   5.548   6.955   0.200
 6505SOL    HW220415   5.527   6.824   0.297
 6506SOL     OW20416   0.011   3.527   3.463
 6506SOL    HW120417   6.957   3.467   3.447
 6506SOL    HW220418   0.079   3.512   3.392
 6507SOL     OW20419   3.224   5.441   6.468
 6507SOL    HW120420   3.155   5.501   6.429
 6507SOL    HW220421   3.233   5.359   6.412
 6508SOL     OW20422   1.814   6.623   2.398
 6508SOL    HW120423   1.780   6.535   2.365
 6508SOL    HW220424   1.739   6.688   2.403
 6509SOL     OW20425   4.099   1.228   5.197
 6509SOL    HW120426   4.002   1.249   5.204
 6509SOL    HW220427   4.148   1.308   5.163
 6510SOL     OW20428   4.650   6.240   6.487
 6510SOL    HW120429   4.592   6.188   6.426
 6510SOL    HW220430   4.722   6.180   6.523
 6511SOL     OW20431   3.634   0.721   5.819
 6511SOL    HW120432   3.563   0.727   5.890
 6511SOL    HW220433   3.705   0.658   5.849
 6512SOL     OW20434   2.938   6.803   2.277
 6512SOL    HW120435   2.970   6.736   2.344
 6512SOL    HW220436   3.017   6.846   2.233
 6513SOL     OW20437   2.763   5.563   4.416
 6513SOL    HW120438   2.667   5.539   4.400
 6513SOL    HW220439   2.780   5.656   4.384
 6514SOL     OW20440   5.904   0.381   5.072
 6514SOL    HW120441   5.810   0.386   5.106
 6514SOL    HW220442   5.945   0.472   5.075
 6515SOL     OW20443   2.140   4.535   2.175
 6515SOL    HW120444   2.214   4.479   2.213
 6515SOL    HW220445   2.157   4.631   2.195
 6516SOL     OW20446   6.839   3.236   1.851
 6516SOL    HW120447   6.914   3.265   1.910
 6516SOL    HW220448   6.868   3.243   1.755
 6517SOL     OW20449   6.920   1.990   1.239
 6517SOL    HW120450   6.885   2.081   1.216
 6517SOL    HW220451   6.877   1.922   1.181
 6518SOL     OW20452   6.742   1.064   2.170
 6518SOL    HW120453   6.808   1.089   2.099
 6518SOL    HW220454   6.786   1.005   2.237
 6519SOL     OW20455   0.654   0.567   2.848
 6519SOL    HW120456   0.710   0.492   2.814
 6519SOL    HW220457   0.570   0.530   2.887
 6520SOL     OW20458   0.199   5.638   6.924
 6520SOL    HW120459   0.179   5.652   6.827
 6520SOL    HW220460   0.132   5.576   6.964
 6521SOL     OW20461   1.612   2.935   3.163
 6521SOL    HW120462   1.543   2.902   3.227
 6521SOL    HW220463   1.589   2.905   3.070
 6522SOL     OW20464   2.663   4.457   5.677
 6522SOL    HW120465   2.607   4.445   5.595
 6522SOL    HW220466   2.750   4.410   5.665
 6523SOL     OW20467   5.211   7.012   0.075
 6523SOL    HW120468   5.253   7.012   0.166
 6523SOL    HW220469   5.183   0.080   0.051
 6524SOL     OW20470   2.915   2.566   1.625
 6524SOL    HW120471   2.930   2.530   1.717
 6524SOL    HW220472   2.941   2.663   1.622
 6525SOL     OW20473   2.149   5.432   3.402
 6525SOL    HW120474   2.171   5.507   3.339
 6525SOL    HW220475   2.234   5.393   3.436
 6526SOL     OW20476   0.406   6.979   1.125
 6526SOL    HW120477   0.477   6.922   1.167
 6526SOL    HW220478   0.325   6.922   1.106
 6527SOL     OW20479   0.354   2.012   0.274
 6527SOL    HW120480   0.326   2.107   0.289
 6527SOL    HW220481   0.415   1.983   0.348
 6528SOL     OW20482   6.769   1.593   6.402
 6528SOL    HW120483   6.718   1.678   6.418
 6528SOL    HW220484   6.862   1.604   6.437
 6529SOL     OW20485   0.254   0.660   2.835
 6529SOL    HW120486   0.184   0.688   2.900
 6529SOL    HW220487   0.210   0.624   2.752
 6530SOL     OW20488   0.551   2.006   1.866
 6530SOL    HW120489   0.585   2.094   1.899
 6530SOL    HW220490   0.498   1.961   1.938
 6531SOL     OW20491   4.150   3.276   5.619
 6531SOL    HW120492   4.208   3.348   5.582
 6531SOL    HW220493   4.120   3.216   5.545
 6532SOL     OW20494   1.825   1.552   0.366
 6532SOL    HW120495   1.773   1.577   0.285
 6532SOL    HW220496   1.901   1.616   0.378
 6533SOL     OW20497   4.542   5.730   0.085
 6533SOL    HW120498   4.543   5.762   7.015
 6533SOL    HW220499   4.570   5.804   0.146
 6534SOL     OW20500   5.049   5.015   1.879
 6534SOL    HW120501   5.101   5.092   1.914
 6534SOL    HW220502   5.104   4.931   1.886
 6535SOL     OW20503   5.666   4.111   4.401
 6535SOL    HW120504   5.571   4.082   4.393
 6535SOL    HW220505   5.715   4.048   4.461
 6536SOL     OW20506   0.376   2.125   5.106
 6536SOL    HW120507   0.307   2.197   5.116
 6536SOL    HW220508   0.459   2.163   5.065
 6537SOL     OW20509   6.802   4.923   4.556
 6537SOL    HW120510   6.736   4.947   4.627
 6537SOL    HW220511   6.858   4.846   4.586
 6538SOL     OW20512   2.072   3.611   5.471
 6538SOL    HW120513   2.005   3.634   5.541
 6538SOL    HW220514   2.161   3.598   5.513
 6539SOL     OW20515   4.970   0.772   0.064
 6539SOL    HW120516   4.964   0.743   6.993
 6539SOL    HW220517   4.945   0.869   0.070
 6540SOL     OW20518   2.058   3.103   6.070
 6540SOL    HW120519   2.134   3.108   6.006
 6540SOL    HW220520   2.051   3.010   6.106
 6541SOL     OW20521   5.245   2.384   5.835
 6541SOL    HW120522   5.181   2.401   5.910
 6541SOL    HW220523   5.227   2.293   5.797
 6542SOL     OW20524   1.107   3.705   4.612
 6542SOL    HW120525   1.013   3.736   4.621
 6542SOL    HW220526   1.111   3.606   4.628
 6543SOL     OW20527   3.622   2.209   5.326
 6543SOL    HW120528   3.693   2.236   5.260
 6543SOL    HW220529   3.534   2.246   5.297
 6544SOL     OW20530   0.611   6.384   2.366
 6544SOL    HW120531   0.609   6.423   2.274
 6544SOL    HW220532   0.663   6.299   2.365
 6545SOL     OW20533   3.796   6.897   0.878
 6545SOL    HW120534   3.763   6.959   0.950
 6545SOL    HW220535   3.746   6.811   0.883
 6546SOL     OW20536   3.867   4.612   6.895
 6546SOL    HW120537   3.786   4.623   6.953
 6546SOL    HW220538   3.917   4.698   6.893
 6547SOL     OW20539   4.701   0.364   5.739
 6547SOL    HW120540   4.776   0.414   5.694
 6547SOL    HW220541   4.734   0.326   5.825
 6548SOL     OW20542   1.248   2.965   6.360
 6548SOL    HW120543   1.183   2.937   6.430
 6548SOL    HW220544   1.289   3.053   6.387
 6549SOL     OW20545   4.631   0.275   2.041
 6549SOL    HW120546   4.610   0.296   2.137
 6549SOL    HW220547   4.582   0.193   2.013
 6550SOL     OW20548   6.870   0.480   3.770
 6550SOL    HW120549   6.802   0.426   3.820
 6550SOL    HW220550   6.882   0.568   3.816
 6551SOL     OW20551   2.721   3.507   1.449
 6551SOL    HW120552   2.646   3.530   1.512
 6551SOL    HW220553   2.808   3.510   1.499
 6552SOL     OW20554   1.901   6.858   0.608
 6552SOL    HW120555   1.919   6.785   0.541
 6552SOL    HW220556   1.837   6.825   0.676
 6553SOL     OW20557   0.868   1.379   2.973
 6553SOL    HW120558   0.887   1.336   3.062
 6553SOL    HW220559   0.903   1.320   2.900
 6554SOL     OW20560   2.759   1.214   5.484
 6554SOL    HW120561   2.788   1.136   5.540
 6554SOL    HW220562   2.681   1.188   5.427
 6555SOL     OW20563   5.885   1.778   4.138
 6555SOL    HW120564   5.800   1.726   4.126
 6555SOL    HW220565   5.884   1.823   4.227
 6556SOL     OW20566   6.155   3.207   2.353
 6556SOL    HW120567   6.079   3.215   2.288
 6556SOL    HW220568   6.241   3.222   2.305
 6557SOL     OW20569   1.997   0.657   2.377
 6557SOL    HW120570   1.990   0.726   2.305
 6557SOL    HW220571   1.916   0.599   2.375
 6558SOL     OW20572   5.573   5.319   7.019
 6558SOL    HW120573   5.655   5.371   0.016
 6558SOL    HW220574   5.567   5.303   6.920
 6559SOL     OW20575   6.811   3.721   6.451
 6559SOL    HW120576   6.798   3.819   6.443
 6559SOL    HW220577   6.738   3.682   6.508
 6560SOL     OW20578   3.608   4.790   0.697
 6560SOL    HW120579   3.645   4.869   0.648
 6560SOL    HW220580   3.530   4.753   0.646
 6561SOL     OW20581   4.252   4.876   0.955
 6561SOL    HW120582   4.228   4.969   0.984
 6561SOL    HW220583   4.183   4.844   0.889
 6562SOL     OW20584   5.325   2.698   1.283
 6562SOL    HW120585   5.359   2.609   1.313
 6562SOL    HW220586   5.286   2.747   1.361
 6563SOL     OW20587   5.166   0.456   5.864
 6563SOL    HW120588   5.212   0.400   5.932
 6563SOL    HW220589   5.157   0.405   5.779
 6564SOL     OW20590   6.485   3.706   1.866
 6564SOL    HW120591   6.488   3.628   1.803
 6564SOL    HW220592   6.454   3.787   1.817
 6565SOL     OW20593   6.204   6.332   3.195
 6565SOL    HW120594   6.277   6.303   3.258
 6565SOL    HW220595   6.125   6.271   3.207
 6566SOL     OW20596   3.054   5.278   2.177
 6566SOL    HW120597   3.071   5.372   2.149
 6566SOL    HW220598   3.140   5.226   2.176
 6567SOL     OW20599   4.263   0.717   1.850
 6567SOL    HW120600   4.256   0.620   1.872
 6567SOL    HW220601   4.360   0.742   1.842
 6568SOL     OW20602   4.107   1.943   2.530
 6568SOL    HW120603   4.144   1.935   2.438
 6568SOL    HW220604   4.109   1.853   2.574
 6569SOL     OW20605   0.698   3.200   5.940
 6569SOL    HW120606   0.667   3.157   6.024
 6569SOL    HW220607   0.794   3.226   5.949
 6570SOL     OW20608   4.082   1.142   2.760
 6570SOL    HW120609   4.007   1.155   2.695
 6570SOL    HW220610   4.124   1.052   2.744
 6571SOL     OW20611   2.704   4.972   2.869
 6571SOL    HW120612   2.636   4.943   2.801
 6571SOL    HW220613   2.711   5.072   2.868
 6572SOL     OW20614   0.631   3.888   4.208
 6572SOL    HW120615   0.659   3.945   4.285
 6572SOL    HW220616   0.707   3.827   4.183
 6573SOL     OW20617   0.985   1.319   3.704
 6573SOL    HW120618   0.996   1.242   3.641
 6573SOL    HW220619   0.915   1.381   3.669
 6574SOL     OW20620   2.578   6.880   3.439
 6574SOL    HW120621   2.608   6.879   3.344
 6574SOL    HW220622   2.480   6.897   3.443
 6575SOL     OW20623   0.496   6.846   3.086
 6575SOL    HW120624   0.520   6.753   3.114
 6575SOL    HW220625   0.443   6.890   3.158
 6576SOL     OW20626   3.271   5.134   0.702
 6576SOL    HW120627   3.340   5.087   0.756
 6576SOL    HW220628   3.306   5.152   0.610
 6577SOL     OW20629   2.001   1.955   3.262
 6577SOL    HW120630   1.917   2.008   3.258
 6577SOL    HW220631   2.079   2.017   3.251
 6578SOL     OW20632   0.774   5.916   1.846
 6578SOL    HW120633   0.829   5.870   1.776
 6578SOL    HW220634   0.806   6.010   1.857
 6579SOL     OW20635   0.103   2.126   4.261
 6579SOL    HW120636   0.203   2.136   4.255
 6579SOL    HW220637   0.079   2.029   4.253
 6580SOL     OW20638   1.214   1.370   0.846
 6580SOL    HW120639   1.244   1.402   0.935
 6580SOL    HW220640   1.270   1.292   0.817
 6581SOL     OW20641   1.441   1.280   0.509
 6581SOL    HW120642   1.511   1.213   0.534
 6581SOL    HW220643   1.351   1.248   0.539
 6582SOL     OW20644   6.647   0.448   2.870
 6582SOL    HW120645   6.584   0.447   2.793
 6582SOL    HW220646   6.737   0.415   2.840
 6583SOL     OW20647   5.367   6.383   5.258
 6583SOL    HW120648   5.346   6.389   5.160
 6583SOL    HW220649   5.449   6.326   5.270
 6584SOL     OW20650   3.629   2.568   0.731
 6584SOL    HW120651   3.635   2.566   0.631
 6584SOL    HW220652   3.543   2.610   0.759
 6585SOL     OW20653   0.002   6.569   7.022
 6585SOL    HW120654   6.929   6.555   7.010
 6585SOL    HW220655   0.052   6.514   6.954
 6586SOL     OW20656   6.426   1.928   6.007
 6586SOL    HW120657   6.524   1.918   5.997
 6586SOL    HW220658   6.380   1.845   5.977
 6587SOL     OW20659   1.111   4.659   6.137
 6587SOL    HW120660   1.169   4.697   6.208
 6587SOL    HW220661   1.103   4.560   6.148
 6588SOL     OW20662   0.619   2.942   0.815
 6588SOL    HW120663   0.712   2.907   0.822
 6588SOL    HW220664   0.615   3.016   0.749
 6589SOL     OW20665   5.246   0.938   2.303
 6589SOL    HW120666   5.211   0.921   2.395
 6589SOL    HW220667   5.172   0.974   2.246
 6590SOL     OW20668   0.390   0.243   5.303
 6590SOL    HW120669   0.304   0.293   5.310
 6590SOL    HW220670   0.391   0.190   5.218
 6591SOL     OW20671   5.211   5.910   3.441
 6591SOL    HW120672   5.227   6.008   3.425
 6591SOL    HW220673   5.201   5.894   3.539
 6592SOL     OW20674   5.258   0.458   3.222
 6592SOL    HW120675   5.316   0.395   3.169
 6592SOL    HW220676   5.290   0.552   3.209
 6593SOL     OW20677   2.949   2.168   2.144
 6593SOL    HW120678   3.041   2.136   2.121
 6593SOL    HW220679   2.926   2.248   2.090
 6594SOL     OW20680   3.864   1.585   5.784
 6594SOL    HW120681   3.905   1.548   5.700
 6594SOL    HW220682   3.905   1.673   5.806
 6595SOL     OW20683   1.523   3.028   5.091
 6595SOL    HW120684   1.613   2.984   5.093
 6595SOL    HW220685   1.505   3.062   4.999
 6596SOL     OW20686   4.061   6.487   3.286
 6596SOL    HW120687   4.106   6.490   3.375
 6596SOL    HW220688   4.027   6.578   3.262
 6597SOL     OW20689   1.430   5.112   1.947
 6597SOL    HW120690   1.361   5.061   1.998
 6597SOL    HW220691   1.511   5.054   1.935
 6598SOL     OW20692   1.742   4.409   3.667
 6598SOL    HW120693   1.649   4.388   3.696
 6598SOL    HW220694   1.802   4.331   3.687
 6599SOL     OW20695   4.920   6.141   0.154
 6599SOL    HW120696   4.864   6.102   0.226
 6599SOL    HW220697   5.017   6.134   0.180
 6600SOL     OW20698   3.980   6.691   4.269
 6600SOL    HW120699   3.970   6.784   4.234
 6600SOL    HW220700   3.911   6.674   4.339
 6601SOL     OW20701   0.559   2.435   3.026
 6601SOL    HW120702   0.608   2.403   3.107
 6601SOL    HW220703   0.619   2.428   2.946
 6602SOL     OW20704   2.522   0.015   1.199
 6602SOL    HW120705   2.522   6.943   1.226
 6602SOL    HW220706   2.560   0.024   1.107
 6603SOL     OW20707   0.911   3.189   3.823
 6603SOL    HW120708   0.914   3.288   3.811
 6603SOL    HW220709   1.000   3.157   3.854
 6604SOL     OW20710   2.014   0.486   1.284
 6604SOL    HW120711   2.000   0.430   1.202
 6604SOL    HW220712   1.929   0.533   1.307
 6605SOL     OW20713   5.994   5.901   1.930
 6605SOL    HW120714   5.974   5.811   1.892
 6605SOL    HW220715   5.909   5.950   1.948
 6606SOL     OW20716   6.694   4.280   2.778
 6606SOL    HW120717   6.794   4.279   2.766
 6606SOL    HW220718   6.662   4.374   2.776
 6607SOL     OW20719   6.613   5.418   3.634
 6607SOL    HW120720   6.684   5.389   3.570
 6607SOL    HW220721   6.615   5.360   3.715
 6608SOL     OW20722   6.975   0.349   1.106
 6608SOL    HW120723   0.038   0.395   1.118
 6608SOL    HW220724   6.907   0.390   1.167
 6609SOL     OW20725   5.044   1.655   6.204
 6609SOL    HW120726   5.078   1.574   6.252
 6609SOL    HW220727   4.962   1.689   6.249
 6610SOL     OW20728   2.848   6.040   0.093
 6610SOL    HW120729   2.756   6.065   0.120
 6610SOL    HW220730   2.913   6.107   0.129
 6611SOL     OW20731   5.332   2.948   3.375
 6611SOL    HW120732   5.242   2.913   3.398
 6611SOL    HW220733   5.401   2.878   3.391
 6612SOL     OW20734   6.301   2.504   6.095
 6612SOL    HW120735   6.219   2.498   6.037
 6612SOL    HW220736   6.362   2.574   6.059
 6613SOL     OW20737   5.762   0.378   5.991
 6613SOL    HW120738   5.806   0.437   5.923
 6613SOL    HW220739   5.831   0.339   6.051
 6614SOL     OW20740   4.537   6.919   0.872
 6614SOL    HW120741   4.631   6.891   0.892
 6614SOL    HW220742   4.488   6.845   0.827
 6615SOL     OW20743   2.262   5.304   0.383
 6615SOL    HW120744   2.188   5.367   0.359
 6615SOL    HW220745   2.315   5.343   0.458
 6616SOL     OW20746   4.700   6.993   5.626
 6616SOL    HW120747   4.666   6.900   5.641
 6616SOL    HW220748   4.684   7.019   5.531
 6617SOL     OW20749   4.013   6.760   3.223
 6617SOL    HW120750   3.987   6.850   3.259
 6617SOL    HW220751   4.050   6.771   3.131
 6618SOL     OW20752   0.661   1.122   3.180
 6618SOL    HW120753   0.611   1.208   3.194
 6618SOL    HW220754   0.759   1.140   3.177
 6619SOL     OW20755   4.580   6.895   3.837
 6619SOL    HW120756   4.639   6.946   3.776
 6619SOL    HW220757   4.600   6.797   3.829
 6620SOL     OW20758   2.102   3.320   4.000
 6620SOL    HW120759   2.113   3.241   3.941
 6620SOL    HW220760   2.099   3.290   4.096
 6621SOL     OW20761   3.805   2.893   4.997
 6621SOL    HW120762   3.740   2.834   4.949
 6621SOL    HW220763   3.866   2.936   4.931
 6622SOL     OW20764   5.941   6.082   1.596
 6622SOL    HW120765   5.976   6.137   1.520
 6622SOL    HW220766   5.972   5.988   1.586
 6623SOL     OW20767   3.581   4.350   5.257
 6623SOL    HW120768   3.501   4.299   5.288
 6623SOL    HW220769   3.585   4.438   5.305
 6624SOL     OW20770   0.701   3.589   5.708
 6624SOL    HW120771   0.745   3.503   5.683
 6624SOL    HW220772   0.607   3.571   5.735
 6625SOL     OW20773   5.703   1.941   5.133
 6625SOL    HW120774   5.748   1.970   5.049
 6625SOL    HW220775   5.690   1.842   5.131
 6626SOL     OW20776   3.296   6.800   5.652
 6626SOL    HW120777   3.204   6.766   5.673
 6626SOL    HW220778   3.364   6.746   5.702
 6627SOL     OW20779   1.919   6.385   4.225
 6627SOL    HW120780   1.981   6.316   4.264
 6627SOL    HW220781   1.934   6.472   4.272
 6628SOL     OW20782   5.502   4.934   3.767
 6628SOL    HW120783   5.433   4.878   3.813
 6628SOL    HW220784   5.566   4.971   3.834
 6629SOL     OW20785   4.375   5.357   6.486
 6629SOL    HW120786   4.288   5.335   6.530
 6629SOL    HW220787   4.438   5.397   6.553
 6630SOL     OW20788   3.561   1.249   1.556
 6630SOL    HW120789   3.547   1.256   1.655
 6630SOL    HW220790   3.600   1.160   1.534
 6631SOL     OW20791   2.139   5.406   4.258
 6631SOL    HW120792   2.165   5.481   4.319
 6631SOL    HW220793   2.043   5.383   4.272
 6632SOL     OW20794   1.546   1.284   1.139
 6632SOL    HW120795   1.524   1.190   1.166
 6632SOL    HW220796   1.479   1.347   1.180
 6633SOL     OW20797   2.846   4.576   6.269
 6633SOL    HW120798   2.837   4.612   6.362
 6633SOL    HW220799   2.755   4.559   6.230
 6634SOL     OW20800   4.697   1.955   5.091
 6634SOL    HW120801   4.726   1.861   5.103
 6634SOL    HW220802   4.598   1.958   5.075
 6635SOL     OW20803   4.869   3.983   3.168
 6635SOL    HW120804   4.895   3.897   3.213
 6635SOL    HW220805   4.849   3.965   3.071
 6636SOL     OW20806   3.305   1.680   1.288
 6636SOL    HW120807   3.372   1.687   1.362
 6636SOL    HW220808   3.316   1.591   1.243
 6637SOL     OW20809   2.784   0.440   6.712
 6637SOL    HW120810   2.782   0.536   6.742
 6637SOL    HW220811   2.729   0.384   6.773
 6638SOL     OW20812   3.181   3.433   3.110
 6638SOL    HW120813   3.179   3.462   3.206
 6638SOL    HW220814   3.139   3.342   3.103
 6639SOL     OW20815   3.695   3.299   6.467
 6639SOL    HW120816   3.756   3.373   6.441
 6639SOL    HW220817   3.609   3.338   6.502
 6640SOL     OW20818   6.836   2.700   5.538
 6640SOL    HW120819   6.781   2.697   5.455
 6640SOL    HW220820   6.931   2.718   5.514
 6641SOL     OW20821   3.627   1.666   0.120
 6641SOL    HW120822   3.606   1.663   0.023
 6641SOL    HW220823   3.718   1.627   0.136
 6642SOL     OW20824   2.450   5.122   6.036
 6642SOL    HW120825   2.503   5.134   5.952
 6642SOL    HW220826   2.435   5.024   6.052
 6643SOL     OW20827   6.680   6.760   0.827
 6643SOL    HW120828   6.778   6.767   0.812
 6643SOL    HW220829   6.631   6.787   0.743
 6644SOL     OW20830   1.610   6.022   3.622
 6644SOL    HW120831   1.601   6.044   3.719
 6644SOL    HW220832   1.691   5.965   3.608
 6645SOL     OW20833   6.133   3.110   0.436
 6645SOL    HW120834   6.188   3.044   0.385
 6645SOL    HW220835   6.092   3.066   0.515
 6646SOL     OW20836   4.755   0.566   6.083
 6646SOL    HW120837   4.715   0.477   6.060
 6646SOL    HW220838   4.838   0.580   6.028
 6647SOL     OW20839   4.587   6.478   1.139
 6647SOL    HW120840   4.562   6.570   1.171
 6647SOL    HW220841   4.651   6.486   1.063
 6648SOL     OW20842   3.331   5.811   4.462
 6648SOL    HW120843   3.384   5.759   4.529
 6648SOL    HW220844   3.393   5.868   4.407
 6649SOL     OW20845   6.016   2.972   6.603
 6649SOL    HW120846   5.994   3.010   6.693
 6649SOL    HW220847   6.100   3.015   6.568
 6650SOL     OW20848   4.048   1.333   4.931
 6650SOL    HW120849   4.019   1.327   4.836
 6650SOL    HW220850   4.125   1.271   4.946
 6651SOL     OW20851   1.687   1.983   6.815
 6651SOL    HW120852   1.654   1.911   6.753
 6651SOL    HW220853   1.616   2.052   6.826
 6652SOL     OW20854   0.880   4.711   0.018
 6652SOL    HW120855   0.920   4.716   0.109
 6652SOL    HW220856   0.932   4.768   6.979
 6653SOL     OW20857   5.018   3.146   0.920
 6653SOL    HW120858   4.948   3.215   0.940
 6653SOL    HW220859   5.108   3.186   0.934
 6654SOL     OW20860   0.297   5.365   2.459
 6654SOL    HW120861   0.270   5.402   2.370
 6654SOL    HW220862   0.344   5.436   2.512
 6655SOL     OW20863   0.221   5.851   1.926
 6655SOL    HW120864   0.174   5.916   1.867
 6655SOL    HW220865   0.320   5.859   1.914
 6656SOL     OW20866   5.054   1.987   3.201
 6656SOL    HW120867   5.099   1.912   3.153
 6656SOL    HW220868   5.118   2.062   3.213
 6657SOL     OW20869   6.014   2.909   4.504
 6657SOL    HW120870   6.005   2.868   4.413
 6657SOL    HW220871   6.016   2.836   4.573
 6658SOL     OW20872   6.338   6.986   5.774
 6658SOL    HW120873   6.378   6.895   5.782
 6658SOL    HW220874   6.256   6.982   5.718
 6659SOL     OW20875   1.346   3.853   1.765
 6659SOL    HW120876   1.359   3.780   1.832
 6659SOL    HW220877   1.408   3.929   1.785
 6660SOL     OW20878   1.950   5.096   1.638
 6660SOL    HW120879   1.914   5.189   1.640
 6660SOL    HW220880   1.878   5.031   1.661
 6661SOL     OW20881   3.016   0.816   4.736
 6661SOL    HW120882   2.964   0.819   4.821
 6661SOL    HW220883   3.015   0.906   4.692
 6662SOL     OW20884   2.106   0.724   0.706
 6662SOL    HW120885   2.090   0.627   0.683
 6662SOL    HW220886   2.136   0.731   0.801
 6663SOL     OW20887   0.753   6.393   5.259
 6663SOL    HW120888   0.837   6.348   5.228
 6663SOL    HW220889   0.677   6.366   5.200
 6664SOL     OW20890   2.347   0.526   1.129
 6664SOL    HW120891   2.250   0.500   1.129
 6664SOL    HW220892   2.389   0.495   1.215
 6665SOL     OW20893   1.794   6.575   5.640
 6665SOL    HW120894   1.794   6.672   5.616
 6665SOL    HW220895   1.873   6.530   5.599
 6666SOL     OW20896   6.365   5.735   5.016
 6666SOL    HW120897   6.322   5.668   4.955
 6666SOL    HW220898   6.363   5.702   5.110
 6667SOL     OW20899   6.413   6.298   6.123
 6667SOL    HW120900   6.390   6.223   6.062
 6667SOL    HW220901   6.512   6.300   6.139
 6668SOL     OW20902   7.013   6.066   1.252
 6668SOL    HW120903   6.922   6.051   1.211
 6668SOL    HW220904   0.045   6.118   1.188
 6669SOL     OW20905   3.522   2.036   1.342
 6669SOL    HW120906   3.579   2.087   1.406
 6669SOL    HW220907   3.437   2.087   1.325
 6670SOL     OW20908   3.259   0.860   6.508
 6670SOL    HW120909   3.196   0.915   6.453
 6670SOL    HW220910   3.273   0.905   6.597
 6671SOL     OW20911   5.916   6.514   0.644
 6671SOL    HW120912   5.855   6.559   0.579
 6671SOL    HW220913   6.010   6.520   0.611
 6672SOL     OW20914   1.322   2.697   0.140
 6672SOL    HW120915   1.412   2.669   0.174
 6672SOL    HW220916   1.272   2.616   0.107
 6673SOL     OW20917   4.760   4.156   3.641
 6673SOL    HW120918   4.698   4.226   3.606
 6673SOL    HW220919   4.775   4.087   3.571
 6674SOL     OW20920   0.181   3.229   6.845
 6674SOL    HW120921   0.216   3.141   6.876
 6674SOL    HW220922   0.251   3.276   6.792
 6675SOL     OW20923   5.643   2.259   0.337
 6675SOL    HW120924   5.614   2.282   0.430
 6675SOL    HW220925   5.740   2.280   0.327
 6676SOL     OW20926   0.843   3.457   2.957
 6676SOL    HW120927   0.842   3.402   2.873
 6676SOL    HW220928   0.920   3.430   3.014
 6677SOL     OW20929   0.821   1.025   6.931
 6677SOL    HW120930   0.886   1.067   6.868
 6677SOL    HW220931   0.838   0.926   6.935
 6678SOL     OW20932   2.073   4.300   0.987
 6678SOL    HW120933   2.095   4.309   0.889
 6678SOL    HW220934   1.974   4.303   0.999
 6679SOL     OW20935   3.947   0.843   3.890
 6679SOL    HW120936   3.908   0.762   3.934
 6679SOL    HW220937   4.039   0.822   3.858
 6680SOL     OW20938   4.687   5.992   6.690
 6680SOL    HW120939   4.708   5.996   6.788
 6680SOL    HW220940   4.605   6.046   6.671
 6681SOL     OW20941   4.736   5.250   1.167
 6681SOL    HW120942   4.684   5.180   1.118
 6681SOL    HW220943   4.685   5.336   1.167
 6682SOL     OW20944   2.194   4.566   6.899
 6682SOL    HW120945   2.167   4.662   6.889
 6682SOL    HW220946   2.292   4.557   6.881
 6683SOL     OW20947   6.148   3.270   6.096
 6683SOL    HW120948   6.096   3.200   6.144
 6683SOL    HW220949   6.240   3.236   6.076
 6684SOL     OW20950   3.643   6.841   2.039
 6684SOL    HW120951   3.696   6.925   2.050
 6684SOL    HW220952   3.627   6.824   1.942
 6685SOL     OW20953   5.121   2.244   6.290
 6685SOL    HW120954   5.221   2.245   6.298
 6685SOL    HW220955   5.081   2.296   6.365
 6686SOL     OW20956   5.933   5.911   3.781
 6686SOL    HW120957   6.026   5.876   3.768
 6686SOL    HW220958   5.867   5.842   3.752
 6687SOL     OW20959   0.584   2.791   2.254
 6687SOL    HW120960   0.536   2.860   2.199
 6687SOL    HW220961   0.676   2.777   2.217
 6688SOL     OW20962   4.018   4.443   0.545
 6688SOL    HW120963   4.086   4.501   0.500
 6688SOL    HW220964   3.989   4.371   0.482
 6689SOL     OW20965   4.288   3.335   5.992
 6689SOL    HW120966   4.264   3.426   5.957
 6689SOL    HW220967   4.387   3.324   5.990
 6690SOL     OW20968   1.061   6.640   0.267
 6690SOL    HW120969   1.069   6.654   0.366
 6690SOL    HW220970   1.143   6.594   0.233
 6691SOL     OW20971   1.801   0.344   2.150
 6691SOL    HW120972   1.898   0.368   2.142
 6691SOL    HW220973   1.757   0.404   2.217
 6692SOL     OW20974   4.138   3.834   1.955
 6692SOL    HW120975   4.206   3.874   2.017
 6692SOL    HW220976   4.165   3.740   1.933
 6693SOL     OW20977   4.469   2.030   4.823
 6693SOL    HW120978   4.475   2.130   4.819
 6693SOL    HW220979   4.437   2.002   4.914
 6694SOL     OW20980   4.703   6.332   1.357
 6694SOL    HW120981   4.743   6.241   1.346
 6694SOL    HW220982   4.660   6.360   1.272
 6695SOL     OW20983   3.010   1.980   0.013
 6695SOL    HW120984   3.097   1.935   0.034
 6695SOL    HW220985   2.984   1.960   6.944
 6696SOL     OW20986   4.036   3.218   3.204
 6696SOL    HW120987   4.015   3.158   3.282
 6696SOL    HW220988   4.086   3.298   3.236
 6697SOL     OW20989   4.976   2.580   3.471
 6697SOL    HW120990   4.877   2.573   3.484
 6697SOL    HW220991   5.012   2.492   3.442
 6698SOL     OW20992   3.347   3.289   1.256
 6698SOL    HW120993   3.397   3.316   1.338
 6698SOL    HW220994   3.283   3.215   1.278
 6699SOL     OW20995   2.147   6.798   5.449
 6699SOL    HW120996   2.058   6.835   5.424
 6699SOL    HW220997   2.172   6.724   5.386
 6700SOL     OW20998   6.028   1.437   0.859
 6700SOL    HW120999   6.080   1.505   0.910
 6700SOL    HW221000   5.949   1.408   0.912
 6701SOL     OW21001   5.596   6.316   1.674
 6701SOL    HW121002   5.617   6.414   1.675
 6701SOL    HW221003   5.545   6.294   1.591
 6702SOL     OW21004   1.875   2.551   1.943
 6702SOL    HW121005   1.946   2.606   1.899
 6702SOL    HW221006   1.902   2.532   2.038
 6703SOL     OW21007   1.054   1.192   0.426
 6703SOL    HW121008   0.975   1.153   0.378
 6703SOL    HW221009   1.134   1.134   0.412
 6704SOL     OW21010   4.446   2.476   4.637
 6704SOL    HW121011   4.533   2.456   4.592
 6704SOL    HW221012   4.423   2.572   4.624
 6705SOL     OW21013   5.886   2.762   0.762
 6705SOL    HW121014   5.809   2.789   0.703
 6705SOL    HW221015   5.851   2.707   0.838
 6706SOL     OW21016   2.112   6.139   0.493
 6706SOL    HW121017   2.069   6.049   0.499
 6706SOL    HW221018   2.156   6.149   0.404
 6707SOL     OW21019   5.468   6.827   3.164
 6707SOL    HW121020   5.386   6.862   3.209
 6707SOL    HW221021   5.446   6.740   3.119
 6708SOL     OW21022   5.703   5.479   1.020
 6708SOL    HW121023   5.791   5.478   1.068
 6708SOL    HW221024   5.629   5.487   1.087
 6709SOL     OW21025   0.239   5.233   3.127
 6709SOL    HW121026   0.223   5.244   3.029
 6709SOL    HW221027   0.321   5.178   3.142
 6710SOL     OW21028   4.363   1.274   0.880
 6710SOL    HW121029   4.370   1.362   0.928
 6710SOL    HW221030   4.405   1.282   0.790
 6711SOL     OW21031   5.078   6.877   5.973
 6711SOL    HW121032   5.014   6.824   5.917
 6711SOL    HW221033   5.039   6.967   5.990
 6712SOL     OW21034   6.124   3.295   1.331
 6712SOL    HW121035   6.190   3.249   1.272
 6712SOL    HW221036   6.113   3.243   1.416
 6713SOL     OW21037   0.921   0.905   3.023
 6713SOL    HW121038   0.950   0.857   2.940
 6713SOL    HW221039   0.883   0.839   3.088
 6714SOL     OW21040   5.894   1.133   0.525
 6714SOL    HW121041   5.934   1.054   0.572
 6714SOL    HW221042   5.954   1.213   0.537
 6715SOL     OW21043   1.712   0.393   1.479
 6715SOL    HW121044   1.773   0.446   1.538
 6715SOL    HW221045   1.635   0.451   1.450
 6716SOL     OW21046   6.904   5.903   2.080
 6716SOL    HW121047   6.891   5.942   1.989
 6716SOL    HW221048   6.868   5.809   2.081
 6717SOL     OW21049   2.361   2.411   6.401
 6717SOL    HW121050   2.366   2.315   6.372
 6717SOL    HW221051   2.430   2.464   6.352
 6718SOL     OW21052   3.818   0.611   1.223
 6718SOL    HW121053   3.894   0.563   1.268
 6718SOL    HW221054   3.843   0.706   1.208
 6719SOL     OW21055   1.943   6.916   0.294
 6719SOL    HW121056   1.901   6.978   0.228
 6719SOL    HW221057   1.874   6.852   0.329
 6720SOL     OW21058   2.226   1.233   4.533
 6720SOL    HW121059   2.311   1.219   4.482
 6720SOL    HW221060   2.175   1.309   4.494
 6721SOL     OW21061   6.837   6.694   0.479
 6721SOL    HW121062   6.828   6.755   0.557
 6721SOL    HW221063   6.835   6.599   0.510
 6722SOL     OW21064   6.999   2.853   6.906
 6722SOL    HW121065   6.918   2.811   6.947
 6722SOL    HW221066   6.998   2.952   6.922
 6723SOL     OW21067   1.563   6.725   5.443
 6723SOL    HW121068   1.552   6.769   5.532
 6723SOL    HW221069   1.503   6.769   5.376
 6724SOL     OW21070   2.188   2.628   6.315
 6724SOL    HW121071   2.245   2.552   6.347
 6724SOL    HW221072   2.092   2.604   6.325
 6725SOL     OW21073   6.783   2.427   2.150
 6725SOL    HW121074   6.686   2.407   2.160
 6725SOL    HW221075   6.795   2.523   2.125
 6726SOL     OW21076   0.280   2.302   3.674
 6726SOL    HW121077   0.267   2.256   3.586
 6726SOL    HW221078   0.191   2.316   3.718
 6727SOL     OW21079   0.082   4.677   5.769
 6727SOL    HW121080   0.120   4.586   5.760
 6727SOL    HW221081   0.144   4.735   5.821
 6728SOL     OW21082   3.614   1.857   2.847
 6728SOL    HW121083   3.680   1.851   2.923
 6728SOL    HW221084   3.661   1.840   2.761
 6729SOL     OW21085   0.091   1.667   0.964
 6729SOL    HW121086   0.147   1.627   0.890
 6729SOL    HW221087   0.115   1.763   0.975
 6730SOL     OW21088   1.909   0.337   1.058
 6730SOL    HW121089   1.945   0.341   0.964
 6730SOL    HW221090   1.861   0.251   1.072
 6731SOL     OW21091   1.419   6.970   0.866
 6731SOL    HW121092   1.359   6.974   0.786
 6731SOL    HW221093   1.418   6.878   0.905
 6732SOL     OW21094   5.247   4.156   4.603
 6732SOL    HW121095   5.239   4.184   4.699
 6732SOL    HW221096   5.182   4.208   4.547
 6733SOL     OW21097   4.150   5.804   6.172
 6733SOL    HW121098   4.163   5.778   6.076
 6733SOL    HW221099   4.069   5.861   6.180
 6734SOL     OW21100   5.426   2.072   6.129
 6734SOL    HW121101   5.433   2.005   6.202
 6734SOL    HW221102   5.398   2.027   6.044
 6735SOL     OW21103   5.906   3.435   4.038
 6735SOL    HW121104   5.846   3.483   3.975
 6735SOL    HW221105   5.929   3.345   4.000
 6736SOL     OW21106   3.420   3.827   6.190
 6736SOL    HW121107   3.445   3.738   6.151
 6736SOL    HW221108   3.426   3.822   6.289
 6737SOL     OW21109   1.366   3.284   1.145
 6737SOL    HW121110   1.322   3.282   1.055
 6737SOL    HW221111   1.310   3.233   1.210
 6738SOL     OW21112   1.961   5.488   3.982
 6738SOL    HW121113   2.016   5.463   4.062
 6738SOL    HW221114   2.021   5.527   3.912
 6739SOL     OW21115   6.180   5.943   4.046
 6739SOL    HW121116   6.159   6.025   3.992
 6739SOL    HW221117   6.101   5.883   4.049
 6740SOL     OW21118   6.498   0.678   5.314
 6740SOL    HW121119   6.413   0.659   5.362
 6740SOL    HW221120   6.479   0.688   5.216
 6741SOL     OW21121   3.587   1.768   5.441
 6741SOL    HW121122   3.611   1.697   5.375
 6741SOL    HW221123   3.506   1.817   5.410
 6742SOL     OW21124   5.364   5.490   3.214
 6742SOL    HW121125   5.446   5.512   3.267
 6742SOL    HW221126   5.336   5.570   3.161
 6743SOL     OW21127   3.799   3.840   6.340
 6743SOL    HW121128   3.798   3.901   6.419
 6743SOL    HW221129   3.721   3.777   6.345
 6744SOL     OW21130   0.361   6.582   5.418
 6744SOL    HW121131   0.287   6.519   5.392
 6744SOL    HW221132   0.416   6.539   5.489
 6745SOL     OW21133   6.600   6.169   3.922
 6745SOL    HW121134   6.599   6.269   3.928
 6745SOL    HW221135   6.685   6.140   3.877
 6746SOL     OW21136   0.922   0.528   3.814
 6746SOL    HW121137   0.983   0.452   3.790
 6746SOL    HW221138   0.893   0.518   3.909
 6747SOL     OW21139   6.106   0.135   0.230
 6747SOL    HW121140   6.186   0.192   0.247
 6747SOL    HW221141   6.030   0.193   0.200
 6748SOL     OW21142   3.352   1.737   3.281
 6748SOL    HW121143   3.418   1.793   3.231
 6748SOL    HW221144   3.263   1.742   3.236
 6749SOL     OW21145   4.077   4.355   0.825
 6749SOL    HW121146   4.071   4.386   0.730
 6749SOL    HW221147   4.076   4.433   0.887
 6750SOL     OW21148   3.312   1.833   4.185
 6750SOL    HW121149   3.335   1.904   4.118
 6750SOL    HW221150   3.357   1.854   4.272
 6751SOL     OW21151   4.784   0.782   3.280
 6751SOL    HW121152   4.711   0.753   3.218
 6751SOL    HW221153   4.820   0.702   3.328
 6752SOL     OW21154   1.986   0.121   2.703
 6752SOL    HW121155   2.066   0.172   2.673
 6752SOL    HW221156   1.949   0.163   2.786
 6753SOL     OW21157   3.444   1.374   6.399
 6753SOL    HW121158   3.436   1.424   6.313
 6753SOL    HW221159   3.437   1.438   6.476
 6754SOL     OW21160   6.812   1.233   0.819
 6754SOL    HW121161   6.802   1.332   0.817
 6754SOL    HW221162   6.721   1.190   0.823
 6755SOL     OW21163   4.325   4.069   1.122
 6755SOL    HW121164   4.315   4.156   1.171
 6755SOL    HW221165   4.338   3.995   1.189
 6756SOL     OW21166   3.663   6.797   5.497
 6756SOL    HW121167   3.742   6.745   5.466
 6756SOL    HW221168   3.628   6.757   5.582
 6757SOL     OW21169   3.901   2.622   0.753
 6757SOL    HW121170   3.907   2.653   0.658
 6757SOL    HW221171   3.806   2.601   0.775
 6758SOL     OW21172   6.451   2.978   1.398
 6758SOL    HW121173   6.495   2.899   1.355
 6758SOL    HW221174   6.353   2.977   1.379
 6759SOL     OW21175   0.486   3.186   2.344
 6759SOL    HW121176   0.416   3.195   2.415
 6759SOL    HW221177   0.463   3.109   2.284
 6760SOL     OW21178   6.310   3.580   2.449
 6760SOL    HW121179   6.357   3.499   2.413
 6760SOL    HW221180   6.324   3.586   2.548
 6761SOL     OW21181   5.872   3.301   4.754
 6761SOL    HW121182   5.775   3.299   4.729
 6761SOL    HW221183   5.927   3.281   4.673
 6762SOL     OW21184   0.626   5.124   4.266
 6762SOL    HW121185   0.671   5.080   4.189
 6762SOL    HW221186   0.583   5.209   4.236
 6763SOL     OW21187   5.429   5.471   3.950
 6763SOL    HW121188   5.420   5.384   4.000
 6763SOL    HW221189   5.380   5.542   4.000
 6764SOL     OW21190   2.544   5.333   1.654
 6764SOL    HW121191   2.604   5.321   1.574
 6764SOL    HW221192   2.493   5.419   1.644
 6765SOL     OW21193   5.835   5.146   2.934
 6765SOL    HW121194   5.741   5.112   2.926
 6765SOL    HW221195   5.889   5.082   2.988
 6766SOL     OW21196   5.459   6.551   5.620
 6766SOL    HW121197   5.515   6.544   5.702
 6766SOL    HW221198   5.376   6.497   5.632
 6767SOL     OW21199   3.113   0.536   1.156
 6767SOL    HW121200   3.071   0.625   1.138
 6767SOL    HW221201   3.081   0.471   1.087
 6768SOL     OW21202   1.841   0.827   5.534
 6768SOL    HW121203   1.873   0.915   5.498
 6768SOL    HW221204   1.896   0.753   5.496
 6769SOL     OW21205   3.249   1.879   0.413
 6769SOL    HW121206   3.151   1.863   0.423
 6769SOL    HW221207   3.293   1.874   0.503
 6770SOL     OW21208   7.021   1.275   2.194
 6770SOL    HW121209   7.007   1.217   2.113
 6770SOL    HW221210   6.963   1.242   2.268
 6771SOL     OW21211   5.126   2.500   3.689
 6771SOL    HW121212   5.051   2.533   3.633
 6771SOL    HW221213   5.169   2.578   3.737
 6772SOL     OW21214   3.557   2.153   3.107
 6772SOL    HW121215   3.605   2.224   3.057
 6772SOL    HW221216   3.471   2.132   3.061
 6773SOL     OW21217   6.466   5.334   2.177
 6773SOL    HW121218   6.520   5.418   2.175
 6773SOL    HW221219   6.511   5.267   2.236
 6774SOL     OW21220   0.471   2.108   5.724
 6774SOL    HW121221   0.379   2.147   5.714
 6774SOL    HW221222   0.497   2.060   5.641
 6775SOL     OW21223   2.457   2.885   1.733
 6775SOL    HW121224   2.475   2.801   1.681
 6775SOL    HW221225   2.463   2.964   1.671
 6776SOL     OW21226   4.160   4.908   0.398
 6776SOL    HW121227   4.067   4.933   0.373
 6776SOL    HW221228   4.181   4.940   0.490
 6777SOL     OW21229   4.345   4.215   0.002
 6777SOL    HW121230   4.306   4.129   6.993
 6777SOL    HW221231   4.428   4.236   6.975
 6778SOL     OW21232   5.898   4.808   2.194
 6778SOL    HW121233   5.876   4.846   2.104
 6778SOL    HW221234   5.841   4.728   2.211
 6779SOL     OW21235   6.418   5.537   6.449
 6779SOL    HW121236   6.487   5.556   6.379
 6779SOL    HW221237   6.460   5.487   6.525
 6780SOL     OW21238   1.573   2.647   1.969
 6780SOL    HW121239   1.630   2.727   1.951
 6780SOL    HW221240   1.594   2.611   2.060
 6781SOL     OW21241   6.554   0.570   4.682
 6781SOL    HW121242   6.549   0.472   4.700
 6781SOL    HW221243   6.464   0.611   4.697
 6782SOL     OW21244   6.831   0.299   3.556
 6782SOL    HW121245   6.846   0.368   3.627
 6782SOL    HW221246   6.919   0.263   3.525
 6783SOL     OW21247   6.110   1.187   5.732
 6783SOL    HW121248   6.069   1.174   5.642
 6783SOL    HW221249   6.196   1.236   5.723
 6784SOL     OW21250   2.732   4.071   1.048
 6784SOL    HW121251   2.749   4.078   1.146
 6784SOL    HW221252   2.819   4.077   0.999
 6785SOL     OW21253   5.505   5.175   3.611
 6785SOL    HW121254   5.583   5.233   3.635
 6785SOL    HW221255   5.516   5.085   3.655
 6786SOL     OW21256   1.872   2.308   6.864
 6786SOL    HW121257   1.781   2.307   6.907
 6786SOL    HW221258   1.872   2.250   6.783
 6787SOL     OW21259   1.914   2.350   1.415
 6787SOL    HW121260   1.873   2.312   1.332
 6787SOL    HW221261   1.850   2.339   1.491
 6788SOL     OW21262   2.463   3.780   1.436
 6788SOL    HW121263   2.451   3.841   1.357
 6788SOL    HW221264   2.442   3.686   1.409
 6789SOL     OW21265   6.799   5.648   3.194
 6789SOL    HW121266   6.741   5.730   3.200
 6789SOL    HW221267   6.895   5.674   3.207
 6790SOL     OW21268   0.718   3.902   1.227
 6790SOL    HW121269   0.721   3.847   1.310
 6790SOL    HW221270   0.735   3.998   1.249
 6791SOL     OW21271   4.099   2.167   1.580
 6791SOL    HW121272   4.024   2.184   1.644
 6791SOL    HW221273   4.088   2.077   1.539
 6792SOL     OW21274   6.249   5.643   5.260
 6792SOL    HW121275   6.325   5.654   5.325
 6792SOL    HW221276   6.233   5.545   5.244
 6793SOL     OW21277   1.068   1.891   1.029
 6793SOL    HW121278   1.036   1.982   1.055
 6793SOL    HW221279   1.167   1.894   1.013
 6794SOL     OW21280   5.029   1.664   6.593
 6794SOL    HW121281   5.029   1.682   6.691
 6794SOL    HW221282   4.960   1.721   6.549
 6795SOL     OW21283   2.529   6.800   1.335
 6795SOL    HW121284   2.512   6.745   1.253
 6795SOL    HW221285   2.489   6.755   1.414
 6796SOL     OW21286   6.271   1.048   1.922
 6796SOL    HW121287   6.212   0.969   1.912
 6796SOL    HW221288   6.363   1.026   1.888
 6797SOL     OW21289   5.305   2.834   1.888
 6797SOL    HW121290   5.259   2.747   1.867
 6797SOL    HW221291   5.241   2.893   1.938
 6798SOL     OW21292   4.989   6.991   1.981
 6798SOL    HW121293   4.949   0.057   1.987
 6798SOL    HW221294   5.047   6.985   1.899
 6799SOL     OW21295   6.615   6.382   1.181
 6799SOL    HW121296   6.568   6.468   1.162
 6799SOL    HW221297   6.555   6.305   1.156
 6800SOL     OW21298   1.966   3.977   1.263
 6800SOL    HW121299   1.903   4.027   1.203
 6800SOL    HW221300   2.057   3.977   1.222
 6801SOL     OW21301   0.712   0.233   2.854
 6801SOL    HW121302   0.693   0.159   2.918
 6801SOL    HW221303   0.628   0.261   2.809
 6802SOL     OW21304   3.562   5.767   0.783
 6802SOL    HW121305   3.516   5.703   0.721
 6802SOL    HW221306   3.502   5.785   0.861
 6803SOL     OW21307   5.169   3.089   6.036
 6803SOL    HW121308   5.226   3.162   6.072
 6803SOL    HW221309   5.091   3.128   5.986
 6804SOL     OW21310   3.519   5.205   3.833
 6804SOL    HW121311   3.474   5.258   3.760
 6804SOL    HW221312   3.502   5.108   3.818
 6805SOL     OW21313   6.402   4.838   6.541
 6805SOL    HW121314   6.304   4.825   6.528
 6805SOL    HW221315   6.438   4.764   6.598
 6806SOL     OW21316   6.086   0.231   4.013
 6806SOL    HW121317   6.167   0.283   3.986
 6806SOL    HW221318   6.035   0.204   3.932
 6807SOL     OW21319   3.276   3.083   0.227
 6807SOL    HW121320   3.336   3.052   0.153
 6807SOL    HW221321   3.181   3.063   0.204
 6808SOL     OW21322   0.362   1.871   4.992
 6808SOL    HW121323   0.373   1.963   5.029
 6808SOL    HW221324   0.280   1.829   5.031
 6809SOL     OW21325   1.185   3.105   1.264
 6809SOL    HW121326   1.093   3.143   1.257
 6809SOL    HW221327   1.187   3.014   1.222
 6810SOL     OW21328   2.042   0.265   1.773
 6810SOL    HW121329   2.118   0.328   1.788
 6810SOL    HW221330   1.992   0.291   1.690
 6811SOL     OW21331   5.401   3.914   0.649
 6811SOL    HW121332   5.477   3.852   0.631
 6811SOL    HW221333   5.343   3.922   0.568
 6812SOL     OW21334   3.217   3.486   3.359
 6812SOL    HW121335   3.281   3.410   3.373
 6812SOL    HW221336   3.135   3.471   3.415
 6813SOL     OW21337   5.102   2.278   3.145
 6813SOL    HW121338   5.175   2.248   3.084
 6813SOL    HW221339   5.014   2.268   3.098
 6814SOL     OW21340   3.343   1.812   6.135
 6814SOL    HW121341   3.403   1.828   6.057
 6814SOL    HW221342   3.278   1.888   6.143
 6815SOL     OW21343   3.286   0.073   1.672
 6815SOL    HW121344   3.223   0.097   1.599
 6815SOL    HW221345   3.306   0.154   1.727
 6816SOL     OW21346   0.743   6.955   0.205
 6816SOL    HW121347   0.661   6.919   0.159
 6816SOL    HW221348   0.815   6.886   0.204
 6817SOL     OW21349   1.272   2.483   3.493
 6817SOL    HW121350   1.357   2.477   3.545
 6817SOL    HW221351   1.254   2.396   3.448
 6818SOL     OW21352   2.900   5.108   1.847
 6818SOL    HW121353   2.912   5.026   1.791
 6818SOL    HW221354   2.803   5.129   1.856
 6819SOL     OW21355   4.824   0.854   4.555
 6819SOL    HW121356   4.774   0.810   4.630
 6819SOL    HW221357   4.922   0.848   4.572
 6820SOL     OW21358   1.844   5.803   2.875
 6820SOL    HW121359   1.811   5.810   2.969
 6820SOL    HW221360   1.809   5.719   2.833
 6821SOL     OW21361   3.354   1.039   4.491
 6821SOL    HW121362   3.444   1.002   4.516
 6821SOL    HW221363   3.340   1.126   4.539
 6822SOL     OW21364   5.643   2.599   0.051
 6822SOL    HW121365   5.562   2.579   0.106
 6822SOL    HW221366   5.646   2.537   6.997
 6823SOL     OW21367   4.005   3.386   4.674
 6823SOL    HW121368   4.085   3.436   4.708
 6823SOL    HW221369   3.924   3.416   4.724
 6824SOL     OW21370   0.844   2.493   6.519
 6824SOL    HW121371   0.765   2.435   6.501
 6824SOL    HW221372   0.853   2.509   6.617
 6825SOL     OW21373   5.221   6.863   2.151
 6825SOL    HW121374   5.280   6.944   2.147
 6825SOL    HW221375   5.135   6.883   2.105
 6826SOL     OW21376   2.150   4.159   2.282
 6826SOL    HW121377   2.119   4.064   2.274
 6826SOL    HW221378   2.207   4.168   2.364
 6827SOL     OW21379   4.730   5.751   6.223
 6827SOL    HW121380   4.680   5.819   6.170
 6827SOL    HW221381   4.822   5.740   6.185
 6828SOL     OW21382   2.886   2.148   1.534
 6828SOL    HW121383   2.914   2.163   1.629
 6828SOL    HW221384   2.864   2.236   1.492
 6829SOL     OW21385   4.500   6.255   4.151
 6829SOL    HW121386   4.512   6.156   4.149
 6829SOL    HW221387   4.537   6.292   4.237
 6830SOL     OW21388   5.078   1.196   4.046
 6830SOL    HW121389   5.019   1.130   3.999
 6830SOL    HW221390   5.042   1.288   4.034
 6831SOL     OW21391   1.258   0.652   6.763
 6831SOL    HW121392   1.242   0.743   6.801
 6831SOL    HW221393   1.202   0.641   6.681
 6832SOL     OW21394   2.172   4.083   1.118
 6832SOL    HW121395   2.137   4.138   1.041
 6832SOL    HW221396   2.214   4.144   1.186
 6833SOL     OW21397   3.941   3.632   6.204
 6833SOL    HW121398   3.932   3.732   6.207
 6833SOL    HW221399   3.994   3.606   6.124
 6834SOL     OW21400   5.144   6.346   0.880
 6834SOL    HW121401   5.133   6.256   0.922
 6834SOL    HW221402   5.200   6.338   0.797
 6835SOL     OW21403   3.622   0.018   4.414
 6835SOL    HW121404   3.554   0.061   4.473
 6835SOL    HW221405   3.597   0.031   4.318
 6836SOL     OW21406   2.785   5.622   0.031
 6836SOL    HW121407   2.870   5.669   0.052
 6836SOL    HW221408   2.710   5.664   0.082
 6837SOL     OW21409   0.842   1.758   2.478
 6837SOL    HW121410   0.838   1.826   2.551
 6837SOL    HW221411   0.841   1.805   2.389
 6838SOL     OW21412   2.933   6.141   0.476
 6838SOL    HW121413   2.922   6.126   0.574
 6838SOL    HW221414   2.859   6.200   0.443
 6839SOL     OW21415   5.306   0.641   0.083
 6839SOL    HW121416   5.270   0.685   0.165
 6839SOL    HW221417   5.385   0.585   0.107
 6840SOL     OW21418   2.870   1.143   4.871
 6840SOL    HW121419   2.790   1.137   4.812
 6840SOL    HW221420   2.939   1.203   4.829
 6841SOL     OW21421   4.855   4.379   6.426
 6841SOL    HW121422   4.935   4.362   6.483
 6841SOL    HW221423   4.855   4.315   6.349
 6842SOL     OW21424   2.920   4.013   1.333
 6842SOL    HW121425   2.977   4.040   1.411
 6842SOL    HW221426   2.959   3.931   1.290
 6843SOL     OW21427   6.051   6.451   0.918
 6843SOL    HW121428   6.005   6.507   0.987
 6843SOL    HW221429   5.986   6.424   0.847
 6844SOL     OW21430   5.809   0.739   4.578
 6844SOL    HW121431   5.752   0.814   4.612
 6844SOL    HW221432   5.751   0.673   4.529
 6845SOL     OW21433   5.953   3.669   3.079
 6845SOL    HW121434   5.910   3.586   3.115
 6845SOL    HW221435   5.988   3.652   2.987
 6846SOL     OW21436   3.945   3.239   6.832
 6846SOL    HW121437   3.899   3.164   6.879
 6846SOL    HW221438   4.039   3.213   6.812
 6847SOL     OW21439   0.042   3.323   4.942
 6847SOL    HW121440   6.985   3.358   4.989
 6847SOL    HW221441   0.065   3.383   4.866
 6848SOL     OW21442   5.378   4.549   3.496
 6848SOL    HW121443   5.322   4.468   3.480
 6848SOL    HW221444   5.445   4.557   3.422
 6849SOL     OW21445   4.452   3.768   5.413
 6849SOL    HW121446   4.452   3.776   5.513
 6849SOL    HW221447   4.469   3.673   5.388
 6850SOL     OW21448   5.190   2.955   2.937
 6850SOL    HW121449   5.284   2.921   2.946
 6850SOL    HW221450   5.176   2.989   2.844
 6851SOL     OW21451   0.387   2.218   3.074
 6851SOL    HW121452   0.447   2.297   3.066
 6851SOL    HW221453   0.306   2.232   3.018
 6852SOL     OW21454   2.684   4.512   1.238
 6852SOL    HW121455   2.629   4.596   1.243
 6852SOL    HW221456   2.628   4.438   1.201
 6853SOL     OW21457   5.661   4.388   6.464
 6853SOL    HW121458   5.669   4.364   6.561
 6853SOL    HW221459   5.680   4.485   6.452
 6854SOL     OW21460   5.453   0.795   5.753
 6854SOL    HW121461   5.429   0.700   5.774
 6854SOL    HW221462   5.370   0.851   5.756
 6855SOL     OW21463   4.250   5.855   3.566
 6855SOL    HW121464   4.220   5.928   3.505
 6855SOL    HW221465   4.330   5.809   3.526
 6856SOL     OW21466   0.175   2.346   5.162
 6856SOL    HW121467   0.142   2.333   5.069
 6856SOL    HW221468   0.098   2.371   5.221
 6857SOL     OW21469   1.509   2.754   6.496
 6857SOL    HW121470   1.469   2.835   6.537
 6857SOL    HW221471   1.557   2.701   6.567
 6858SOL     OW21472   3.960   4.015   1.667
 6858SOL    HW121473   4.008   4.101   1.651
 6858SOL    HW221474   4.023   3.939   1.653
 6859SOL     OW21475   1.062   1.473   1.248
 6859SOL    HW121476   1.004   1.509   1.320
 6859SOL    HW221477   1.044   1.522   1.163
 6860SOL     OW21478   6.952   4.884   1.300
 6860SOL    HW121479   6.995   4.942   1.370
 6860SOL    HW221480   7.002   4.798   1.293
 6861SOL     OW21481   5.093   3.937   6.400
 6861SOL    HW121482   5.025   3.989   6.451
 6861SOL    HW221483   5.104   3.976   6.309
 6862SOL     OW21484   0.446   5.885   5.529
 6862SOL    HW121485   0.435   5.935   5.443
 6862SOL    HW221486   0.406   5.938   5.604
 6863SOL     OW21487   6.425   6.732   5.769
 6863SOL    HW121488   6.363   6.681   5.829
 6863SOL    HW221489   6.504   6.674   5.746
 6864SOL     OW21490   2.564   4.410   5.437
 6864SOL    HW121491   2.630   4.466   5.387
 6864SOL    HW221492   2.474   4.453   5.433
 6865SOL     OW21493   0.731   6.849   4.800
 6865SOL    HW121494   0.674   6.801   4.866
 6865SOL    HW221495   0.787   6.917   4.847
 6866SOL     OW21496   5.753   5.405   2.966
 6866SOL    HW121497   5.801   5.460   2.898
 6866SOL    HW221498   5.776   5.308   2.954
 6867SOL     OW21499   2.192   3.400   1.640
 6867SOL    HW121500   2.243   3.444   1.714
 6867SOL    HW221501   2.095   3.394   1.665
 6868SOL     OW21502   1.858   6.841   5.803
 6868SOL    HW121503   1.798   6.766   5.831
 6868SOL    HW221504   1.805   6.909   5.753
 6869SOL     OW21505   5.253   1.004   6.060
 6869SOL    HW121506   5.269   1.102   6.048
 6869SOL    HW221507   5.191   0.990   6.138
 6870SOL     OW21508   0.567   4.407   0.800
 6870SOL    HW121509   0.567   4.503   0.775
 6870SOL    HW221510   0.652   4.385   0.849
 6871SOL     OW21511   5.943   4.243   3.244
 6871SOL    HW121512   5.876   4.286   3.305
 6871SOL    HW221513   5.969   4.307   3.172
 6872SOL     OW21514   0.539   2.661   1.589
 6872SOL    HW121515   0.499   2.635   1.677
 6872SOL    HW221516   0.471   2.707   1.533
 6873SOL     OW21517   0.793   3.277   4.292
 6873SOL    HW121518   0.728   3.309   4.361
 6873SOL    HW221519   0.749   3.277   4.202
 6874SOL     OW21520   7.017   5.373   3.725
 6874SOL    HW121521   6.990   5.349   3.818
 6874SOL    HW221522   0.091   5.390   3.722
 6875SOL     OW21523   2.237   1.665   2.446
 6875SOL    HW121524   2.213   1.574   2.414
 6875SOL    HW221525   2.155   1.722   2.449
 6876SOL     OW21526   3.956   0.057   3.593
 6876SOL    HW121527   3.908   7.018   3.533
 6876SOL    HW221528   3.995   0.007   3.671
 6877SOL     OW21529   3.252   4.386   1.422
 6877SOL    HW121530   3.156   4.405   1.403
 6877SOL    HW221531   3.270   4.396   1.520
 6878SOL     OW21532   3.072   1.868   3.784
 6878SOL    HW121533   3.135   1.942   3.762
 6878SOL    HW221534   3.067   1.856   3.883
 6879SOL     OW21535   2.462   2.649   7.005
 6879SOL    HW121536   2.437   2.730   0.033
 6879SOL    HW221537   2.385   2.622   6.947
 6880SOL     OW21538   1.038   6.190   5.737
 6880SOL    HW121539   1.020   6.132   5.816
 6880SOL    HW221540   1.080   6.276   5.767
 6881SOL     OW21541   1.051   3.516   1.518
 6881SOL    HW121542   1.024   3.421   1.505
 6881SOL    HW221543   1.107   3.546   1.440
 6882SOL     OW21544   2.488   0.299   0.522
 6882SOL    HW121545   2.535   0.330   0.440
 6882SOL    HW221546   2.391   0.287   0.502
 6883SOL     OW21547   5.141   1.367   0.140
 6883SOL    HW121548   5.129   1.435   0.212
 6883SOL    HW221549   5.136   1.275   0.180
 6884SOL     OW21550   0.861   4.324   2.807
 6884SOL    HW121551   0.911   4.378   2.875
 6884SOL    HW221552   0.878   4.227   2.823
 6885SOL     OW21553   4.433   4.908   3.143
 6885SOL    HW121554   4.376   4.895   3.224
 6885SOL    HW221555   4.421   4.830   3.081
 6886SOL     OW21556   0.082   1.208   4.650
 6886SOL    HW121557   0.107   1.127   4.703
 6886SOL    HW221558   0.014   1.183   4.581
 6887SOL     OW21559   4.869   5.570   6.414
 6887SOL    HW121560   4.912   5.587   6.503
 6887SOL    HW221561   4.837   5.656   6.375
 6888SOL     OW21562   5.081   5.132   6.668
 6888SOL    HW121563   4.994   5.176   6.693
 6888SOL    HW221564   5.066   5.068   6.593
 6889SOL     OW21565   1.752   2.720   5.967
 6889SOL    HW121566   1.714   2.637   5.927
 6889SOL    HW221567   1.680   2.790   5.973
 6890SOL     OW21568   4.249   6.328   2.015
 6890SOL    HW121569   4.325   6.263   2.020
 6890SOL    HW221570   4.272   6.410   2.066
 6891SOL     OW21571   1.963   3.709   1.327
 6891SOL    HW121572   1.886   3.662   1.285
 6891SOL    HW221573   1.954   3.807   1.313
 6892SOL     OW21574   3.845   1.585   4.174
 6892SOL    HW121575   3.836   1.512   4.242
 6892SOL    HW221576   3.889   1.549   4.091
 6893SOL     OW21577   5.020   3.956   0.010
 6893SOL    HW121578   5.009   4.018   6.957
 6893SOL    HW221579   5.111   3.914   0.007
 6894SOL     OW21580   6.325   4.759   1.153
 6894SOL    HW121581   6.318   4.786   1.249
 6894SOL    HW221582   6.245   4.791   1.104
 6895SOL     OW21583   2.014   5.058   1.383
 6895SOL    HW121584   2.003   5.115   1.465
 6895SOL    HW221585   1.956   4.976   1.392
 6896SOL     OW21586   3.248   1.996   3.559
 6896SOL    HW121587   3.287   1.904   3.563
 6896SOL    HW221588   3.280   2.042   3.476
 6897SOL     OW21589   4.802   3.376   5.309
 6897SOL    HW121590   4.760   3.447   5.252
 6897SOL    HW221591   4.807   3.291   5.258
 6898SOL     OW21592   3.930   1.660   1.439
 6898SOL    HW121593   3.895   1.754   1.446
 6898SOL    HW221594   3.853   1.598   1.426
 6899SOL     OW21595   4.502   5.736   2.306
 6899SOL    HW121596   4.454   5.651   2.328
 6899SOL    HW221597   4.437   5.806   2.279
 6900SOL     OW21598   6.661   5.065   4.751
 6900SOL    HW121599   6.705   5.153   4.734
 6900SOL    HW221600   6.561   5.076   4.745
 6901SOL     OW21601   5.739   6.317   6.651
 6901SOL    HW121602   5.653   6.352   6.614
 6901SOL    HW221603   5.765   6.372   6.730
 6902SOL     OW21604   6.521   5.634   5.791
 6902SOL    HW121605   6.607   5.679   5.817
 6902SOL    HW221606   6.507   5.553   5.848
 6903SOL     OW21607   3.267   4.992   4.913
 6903SOL    HW121608   3.239   5.081   4.877
 6903SOL    HW221609   3.188   4.946   4.954
 6904SOL     OW21610   6.185   0.336   5.927
 6904SOL    HW121611   6.126   0.262   5.958
 6904SOL    HW221612   6.281   0.310   5.939
 6905SOL     OW21613   5.340   5.645   6.327
 6905SOL    HW121614   5.260   5.605   6.280
 6905SOL    HW221615   5.326   5.639   6.426
 6906SOL     OW21616   3.841   1.118   3.963
 6906SOL    HW121617   3.932   1.110   4.002
 6906SOL    HW221618   3.797   1.028   3.962
 6907SOL     OW21619   5.901   1.991   1.164
 6907SOL    HW121620   5.818   2.042   1.142
 6907SOL    HW221621   5.899   1.964   1.260
 6908SOL     OW21622   2.257   5.356   6.344
 6908SOL    HW121623   2.206   5.272   6.358
 6908SOL    HW221624   2.229   5.424   6.411
 6909SOL     OW21625   5.222   3.906   0.427
 6909SOL    HW121626   5.156   3.924   0.354
 6909SOL    HW221627   5.256   3.812   0.419
 6910SOL     OW21628   1.333   3.268   2.987
 6910SOL    HW121629   1.296   3.287   3.078
 6910SOL    HW221630   1.426   3.303   2.981
 6911SOL     OW21631   4.215   0.086   4.196
 6911SOL    HW121632   4.269   0.018   4.247
 6911SOL    HW221633   4.221   0.066   4.098
 6912SOL     OW21634   2.745   3.166   6.141
 6912SOL    HW121635   2.666   3.227   6.150
 6912SOL    HW221636   2.828   3.217   6.162
 6913SOL     OW21637   5.263   6.257   4.680
 6913SOL    HW121638   5.215   6.207   4.608
 6913SOL    HW221639   5.212   6.249   4.765
 6914SOL     OW21640   5.705   4.754   4.010
 6914SOL    HW121641   5.680   4.666   4.050
 6914SOL    HW221642   5.754   4.738   3.924
 6915SOL     OW21643   0.010   2.590   1.876
 6915SOL    HW121644   6.951   2.632   1.912
 6915SOL    HW221645   0.034   2.511   1.933
 6916SOL     OW21646   5.623   0.850   0.676
 6916SOL    HW121647   5.619   0.943   0.712
 6916SOL    HW221648   5.692   0.797   0.725
 6917SOL     OW21649   4.349   6.460   1.549
 6917SOL    HW121650   4.290   6.443   1.628
 6917SOL    HW221651   4.341   6.384   1.485
 6918SOL     OW21652   6.920   2.200   4.049
 6918SOL    HW121653   6.891   2.258   4.125
 6918SOL    HW221654   6.993   2.139   4.079
 6919SOL     OW21655   6.315   5.664   4.105
 6919SOL    HW121656   6.309   5.752   4.060
 6919SOL    HW221657   6.264   5.666   4.191
 6920SOL     OW21658   4.786   6.380   5.138
 6920SOL    HW121659   4.788   6.474   5.102
 6920SOL    HW221660   4.880   6.349   5.154
 6921SOL     OW21661   4.544   6.439   3.250
 6921SOL    HW121662   4.476   6.427   3.323
 6921SOL    HW221663   4.501   6.422   3.161
 6922SOL     OW21664   1.711   6.225   5.876
 6922SOL    HW121665   1.793   6.207   5.931
 6922SOL    HW221666   1.738   6.248   5.783
 6923SOL     OW21667   5.278   5.664   2.426
 6923SOL    HW121668   5.238   5.583   2.469
 6923SOL    HW221669   5.361   5.637   2.377
 6924SOL     OW21670   2.253   4.203   6.947
 6924SOL    HW121671   2.272   4.105   6.943
 6924SOL    HW221672   2.336   4.254   6.924
 6925SOL     OW21673   5.229   5.366   4.447
 6925SOL    HW121674   5.281   5.369   4.531
 6925SOL    HW221675   5.191   5.275   4.434
 6926SOL     OW21676   2.615   1.964   0.469
 6926SOL    HW121677   2.692   1.986   0.530
 6926SOL    HW221678   2.639   1.989   0.375
 6927SOL     OW21679   3.886   2.241   5.866
 6927SOL    HW121680   3.939   2.249   5.782
 6927SOL    HW221681   3.800   2.291   5.856
 6928SOL     OW21682   5.790   5.697   0.875
 6928SOL    HW121683   5.770   5.621   0.936
 6928SOL    HW221684   5.758   5.782   0.917
 6929SOL     OW21685   5.127   5.931   2.409
 6929SOL    HW121686   5.185   5.861   2.450
 6929SOL    HW221687   5.034   5.921   2.443
 6930SOL     OW21688   1.447   0.833   1.622
 6930SOL    HW121689   1.379   0.869   1.558
 6930SOL    HW221690   1.503   0.908   1.657
 6931SOL     OW21691   1.729   1.532   2.613
 6931SOL    HW121692   1.699   1.500   2.703
 6931SOL    HW221693   1.813   1.585   2.623
 6932SOL     OW21694   4.797   6.818   0.817
 6932SOL    HW121695   4.808   6.833   0.718
 6932SOL    HW221696   4.887   6.807   0.859
 6933SOL     OW21697   3.283   6.327   5.438
 6933SOL    HW121698   3.195   6.366   5.463
 6933SOL    HW221699   3.346   6.400   5.412
 6934SOL     OW21700   4.556   3.310   5.983
 6934SOL    HW121701   4.608   3.384   6.025
 6934SOL    HW221702   4.607   3.272   5.907
 6935SOL     OW21703   4.132   5.764   2.476
 6935SOL    HW121704   4.103   5.742   2.569
 6935SOL    HW221705   4.197   5.840   2.479
 6936SOL     OW21706   6.325   2.797   4.049
 6936SOL    HW121707   6.350   2.709   4.090
 6936SOL    HW221708   6.241   2.786   3.995
 6937SOL     OW21709   6.426   6.200   1.099
 6937SOL    HW121710   6.453   6.110   1.135
 6937SOL    HW221711   6.424   6.196   0.999
 6938SOL     OW21712   6.837   2.495   4.604
 6938SOL    HW121713   6.809   2.401   4.586
 6938SOL    HW221714   6.896   2.527   4.530
 6939SOL     OW21715   6.992   5.052   2.476
 6939SOL    HW121716   0.058   5.091   2.494
 6939SOL    HW221717   6.992   5.008   2.387
 6940SOL     OW21718   4.082   0.473   6.882
 6940SOL    HW121719   4.120   0.561   6.913
 6940SOL    HW221720   4.129   0.399   6.929
 6941SOL     OW21721   3.194   3.696   1.974
 6941SOL    HW121722   3.122   3.722   2.038
 6941SOL    HW221723   3.261   3.770   1.966
 6942SOL     OW21724   5.675   6.666   2.408
 6942SOL    HW121725   5.689   6.603   2.484
 6942SOL    HW221726   5.720   6.631   2.326
 6943SOL     OW21727   3.805   5.500   0.931
 6943SOL    HW121728   3.798   5.530   1.026
 6943SOL    HW221729   3.800   5.580   0.871
 6944SOL     OW21730   1.239   5.313   5.881
 6944SOL    HW121731   1.208   5.290   5.974
 6944SOL    HW221732   1.222   5.235   5.821
 6945SOL     OW21733   6.923   1.754   1.552
 6945SOL    HW121734   6.950   1.850   1.560
 6945SOL    HW221735   6.845   1.736   1.612
 6946SOL     OW21736   4.326   6.720   1.398
 6946SOL    HW121737   4.404   6.734   1.337
 6946SOL    HW221738   4.337   6.634   1.447
 6947SOL     OW21739   4.022   5.384   6.388
 6947SOL    HW121740   4.036   5.483   6.397
 6947SOL    HW221741   4.081   5.349   6.315
 6948SOL     OW21742   1.235   6.277   0.856
 6948SOL    HW121743   1.166   6.241   0.918
 6948SOL    HW221744   1.290   6.346   0.902
 6949SOL     OW21745   2.826   0.731   3.219
 6949SOL    HW121746   2.917   0.695   3.197
 6949SOL    HW221747   2.793   0.687   3.302
 6950SOL     OW21748   1.528   0.945   4.871
 6950SOL    HW121749   1.463   0.885   4.918
 6950SOL    HW221750   1.484   0.987   4.792
 6951SOL     OW21751   0.523   6.207   6.237
 6951SOL    HW121752   0.604   6.218   6.179
 6951SOL    HW221753   0.508   6.110   6.255
 6952SOL     OW21754   1.167   5.164   3.568
 6952SOL    HW121755   1.091   5.130   3.623
 6952SOL    HW221756   1.231   5.090   3.549
 6953SOL     OW21757   5.280   6.614   0.773
 6953SOL    HW121758   5.349   6.579   0.710
 6953SOL    HW221759   5.300   6.584   0.866
 6954SOL     OW21760   0.901   4.570   1.494
 6954SOL    HW121761   0.845   4.548   1.574
 6954SOL    HW221762   0.852   4.634   1.435
 6955SOL     OW21763   4.780   0.510   2.747
 6955SOL    HW121764   4.809   0.424   2.788
 6955SOL    HW221765   4.842   0.583   2.776
 6956SOL     OW21766   4.647   5.770   3.237
 6956SOL    HW121767   4.695   5.717   3.167
 6956SOL    HW221768   4.562   5.806   3.198
 6957SOL     OW21769   5.783   5.663   6.961
 6957SOL    HW121770   5.771   5.758   6.932
 6957SOL    HW221771   5.849   5.660   0.011
 6958SOL     OW21772   4.185   3.586   4.788
 6958SOL    HW121773   4.143   3.578   4.879
 6958SOL    HW221774   4.283   3.601   4.798
 6959SOL     OW21775   1.828   3.776   3.145
 6959SOL    HW121776   1.887   3.856   3.133
 6959SOL    HW221777   1.857   3.726   3.227
 6960SOL     OW21778   1.739   4.355   0.636
 6960SOL    HW121779   1.794   4.278   0.607
 6960SOL    HW221780   1.663   4.369   0.572
 6961SOL     OW21781   6.242   1.108   4.971
 6961SOL    HW121782   6.218   1.064   4.884
 6961SOL    HW221783   6.336   1.084   4.995
 6962SOL     OW21784   4.346   5.523   0.936
 6962SOL    HW121785   4.377   5.480   0.851
 6962SOL    HW221786   4.260   5.480   0.966
 6963SOL     OW21787   5.418   5.628   1.037
 6963SOL    HW121788   5.433   5.530   1.046
 6963SOL    HW221789   5.496   5.671   0.992
 6964SOL     OW21790   3.588   0.845   6.305
 6964SOL    HW121791   3.628   0.915   6.364
 6964SOL    HW221792   3.614   0.755   6.337
 6965SOL     OW21793   1.828   1.811   6.514
 6965SOL    HW121794   1.829   1.897   6.565
 6965SOL    HW221795   1.843   1.829   6.417
 6966SOL     OW21796   0.037   0.753   2.943
 6966SOL    HW121797   0.091   0.785   3.022
 6966SOL    HW221798   0.003   0.661   2.962
 6967SOL     OW21799   3.369   1.256   5.513
 6967SOL    HW121800   3.464   1.286   5.518
 6967SOL    HW221801   3.354   1.206   5.427
 6968SOL     OW21802   2.762   1.151   3.766
 6968SOL    HW121803   2.704   1.089   3.819
 6968SOL    HW221804   2.706   1.214   3.714
 6969SOL     OW21805   3.156   2.335   1.371
 6969SOL    HW121806   3.102   2.252   1.357
 6969SOL    HW221807   3.108   2.395   1.436
 6970SOL     OW21808   4.096   3.544   5.283
 6970SOL    HW121809   4.013   3.528   5.335
 6970SOL    HW221810   4.173   3.555   5.346
 6971SOL     OW21811   6.287   4.505   1.059
 6971SOL    HW121812   6.286   4.603   1.079
 6971SOL    HW221813   6.327   4.456   1.136
 6972SOL     OW21814   5.312   4.211   2.684
 6972SOL    HW121815   5.329   4.306   2.658
 6972SOL    HW221816   5.399   4.166   2.704
 6973SOL     OW21817   0.690   2.446   3.495
 6973SOL    HW121818   0.717   2.539   3.519
 6973SOL    HW221819   0.639   2.405   3.571
 6974SOL     OW21820   3.183   3.893   2.776
 6974SOL    HW121821   3.206   3.984   2.742
 6974SOL    HW221822   3.201   3.890   2.875
 6975SOL     OW21823   1.517   6.954   4.669
 6975SOL    HW121824   1.505   6.937   4.767
 6975SOL    HW221825   1.431   6.935   4.621
 6976SOL     OW21826   6.386   4.714   6.285
 6976SOL    HW121827   6.414   4.774   6.360
 6976SOL    HW221828   6.295   4.677   6.304
 6977SOL     OW21829   3.717   3.504   1.115
 6977SOL    HW121830   3.768   3.426   1.152
 6977SOL    HW221831   3.650   3.472   1.048
 6978SOL     OW21832   5.146   2.588   1.855
 6978SOL    HW121833   5.049   2.573   1.832
 6978SOL    HW221834   5.161   2.571   1.952
 6979SOL     OW21835   0.898   3.802   1.029
 6979SOL    HW121836   0.843   3.840   1.103
 6979SOL    HW221837   0.869   3.708   1.010
 6980SOL     OW21838   1.930   0.945   3.511
 6980SOL    HW121839   1.859   1.008   3.478
 6980SOL    HW221840   1.894   0.852   3.511
 6981SOL     OW21841   3.731   3.066   5.872
 6981SOL    HW121842   3.736   3.123   5.789
 6981SOL    HW221843   3.804   3.093   5.935
 6982SOL     OW21844   0.743   0.835   4.566
 6982SOL    HW121845   0.811   0.763   4.578
 6982SOL    HW221846   0.732   0.855   4.469
 6983SOL     OW21847   4.597   1.548   5.004
 6983SOL    HW121848   4.526   1.529   5.072
 6983SOL    HW221849   4.598   1.645   4.983
 6984SOL     OW21850   2.156   1.761   2.792
 6984SOL    HW121851   2.242   1.803   2.762
 6984SOL    HW221852   2.144   1.776   2.890
 6985SOL     OW21853   6.248   5.095   0.517
 6985SOL    HW121854   6.237   4.998   0.492
 6985SOL    HW221855   6.193   5.115   0.597
 6986SOL     OW21856   3.304   6.952   6.688
 6986SOL    HW121857   3.239   6.933   6.761
 6986SOL    HW221858   3.321   0.025   6.683
 6987SOL     OW21859   6.646   1.327   6.667
 6987SOL    HW121860   6.562   1.381   6.661
 6987SOL    HW221861   6.626   1.237   6.703
 6988SOL     OW21862   1.190   0.088   5.922
 6988SOL    HW121863   1.269   0.126   5.874
 6988SOL    HW221864   1.197   7.013   5.923
 6989SOL     OW21865   0.222   4.850   3.136
 6989SOL    HW121866   0.141   4.905   3.116
 6989SOL    HW221867   0.232   4.779   3.066
 6990SOL     OW21868   4.185   3.057   1.416
 6990SOL    HW121869   4.133   3.085   1.335
 6990SOL    HW221870   4.251   3.128   1.440
 6991SOL     OW21871   4.806   3.998   3.442
 6991SOL    HW121872   4.806   4.041   3.353
 6991SOL    HW221873   4.868   3.920   3.441
 6992SOL     OW21874   6.043   6.654   6.881
 6992SOL    HW121875   6.061   6.743   6.838
 6992SOL    HW221876   5.960   6.614   6.843
 6993SOL     OW21877   6.076   0.494   1.996
 6993SOL    HW121878   6.074   0.556   2.074
 6993SOL    HW221879   6.008   0.523   1.929
 6994SOL     OW21880   0.826   1.935   4.310
 6994SOL    HW121881   0.736   1.914   4.272
 6994SOL    HW221882   0.897   1.902   4.248
 6995SOL     OW21883   0.085   3.872   6.619
 6995SOL    HW121884   0.078   3.822   6.532
 6995SOL    HW221885   0.100   3.807   6.693
 6996SOL     OW21886   1.732   0.607   0.204
 6996SOL    HW121887   1.691   0.652   0.125
 6996SOL    HW221888   1.766   0.517   0.177
 6997SOL     OW21889   0.618   4.865   5.082
 6997SOL    HW121890   0.625   4.964   5.074
 6997SOL    HW221891   0.523   4.836   5.072
 6998SOL     OW21892   1.818   1.703   1.372
 6998SOL    HW121893   1.894   1.676   1.314
 6998SOL    HW221894   1.842   1.787   1.422
 6999SOL     OW21895   1.695   2.197   6.163
 6999SOL    HW121896   1.633   2.275   6.155
 6999SOL    HW221897   1.749   2.188   6.080
 7000SOL     OW21898   5.994   0.468   2.950
 7000SOL    HW121899   6.077   0.522   2.938
 7000SOL    HW221900   5.981   0.447   3.047
 7001SOL     OW21901   0.798   2.495   5.210
 7001SOL    HW121902   0.744   2.525   5.289
 7001SOL    HW221903   0.819   2.398   5.221
 7002SOL     OW21904   2.149   5.171   4.078
 7002SOL    HW121905   2.081   5.101   4.100
 7002SOL    HW221906   2.139   5.249   4.139
 7003SOL     OW21907   4.711   5.992   1.582
 7003SOL    HW121908   4.732   5.974   1.486
 7003SOL    HW221909   4.615   6.018   1.591
 7004SOL     OW21910   0.721   6.197   1.057
 7004SOL    HW121911   0.686   6.186   1.150
 7004SOL    HW221912   0.645   6.197   0.992
 7005SOL     OW21913   1.280   1.110   0.667
 7005SOL    HW121914   1.256   1.064   0.582
 7005SOL    HW221915   1.359   1.064   0.709
 7006SOL     OW21916   5.740   5.724   3.681
 7006SOL    HW121917   5.663   5.759   3.626
 7006SOL    HW221918   5.780   5.644   3.636
 7007SOL     OW21919   4.160   0.334   4.721
 7007SOL    HW121920   4.140   0.341   4.819
 7007SOL    HW221921   4.153   0.424   4.679
 7008SOL     OW21922   0.390   4.262   4.473
 7008SOL    HW121923   0.462   4.273   4.404
 7008SOL    HW221924   0.359   4.167   4.474
 7009SOL     OW21925   3.805   6.425   2.600
 7009SOL    HW121926   3.813   6.525   2.604
 7009SOL    HW221927   3.737   6.395   2.667
 7010SOL     OW21928   5.294   4.245   3.601
 7010SOL    HW121929   5.321   4.151   3.580
 7010SOL    HW221930   5.247   4.284   3.522
 7011SOL     OW21931   3.729   6.862   0.270
 7011SOL    HW121932   3.679   6.875   0.185
 7011SOL    HW221933   3.669   6.881   0.348
 7012SOL     OW21934   0.732   1.988   0.979
 7012SOL    HW121935   0.640   2.027   0.987
 7012SOL    HW221936   0.739   1.907   1.037
 7013SOL     OW21937   0.978   6.837   6.607
 7013SOL    HW121938   0.923   6.797   6.533
 7013SOL    HW221939   1.056   6.778   6.625
 7014SOL     OW21940   5.544   2.945   0.320
 7014SOL    HW121941   5.470   3.009   0.300
 7014SOL    HW221942   5.506   2.861   0.357
 7015SOL     OW21943   5.908   4.495   1.567
 7015SOL    HW121944   5.826   4.469   1.618
 7015SOL    HW221945   5.887   4.569   1.503
 7016SOL     OW21946   4.183   4.582   1.677
 7016SOL    HW121947   4.167   4.680   1.683
 7016SOL    HW221948   4.256   4.556   1.741
 7017SOL     OW21949   3.405   5.262   2.989
 7017SOL    HW121950   3.347   5.185   2.961
 7017SOL    HW221951   3.459   5.294   2.911
 7018SOL     OW21952   5.120   3.888   4.607
 7018SOL    HW121953   5.178   3.969   4.598
 7018SOL    HW221954   5.122   3.855   4.702
 7019SOL     OW21955   4.141   4.087   0.891
 7019SOL    HW121956   4.214   4.070   0.957
 7019SOL    HW221957   4.135   4.186   0.874
 7020SOL     OW21958   0.018   4.221   5.841
 7020SOL    HW121959   0.086   4.178   5.901
 7020SOL    HW221960   0.021   4.177   5.752
 7021SOL     OW21961   1.903   2.828   4.017
 7021SOL    HW121962   1.994   2.858   3.988
 7021SOL    HW221963   1.900   2.825   4.117
 7022SOL     OW21964   5.160   0.249   0.024
 7022SOL    HW121965   5.177   0.341   0.060
 7022SOL    HW221966   5.065   0.243   7.017
 7023SOL     OW21967   0.651   3.201   1.617
 7023SOL    HW121968   0.574   3.251   1.576
 7023SOL    HW221969   0.619   3.145   1.693
 7024SOL     OW21970   3.820   3.691   4.204
 7024SOL    HW121971   3.829   3.783   4.165
 7024SOL    HW221972   3.724   3.673   4.225
 7025SOL     OW21973   3.860   0.961   1.402
 7025SOL    HW121974   3.911   0.883   1.439
 7025SOL    HW221975   3.915   1.044   1.411
 7026SOL     OW21976   3.485   2.068   2.131
 7026SOL    HW121977   3.557   2.132   2.105
 7026SOL    HW221978   3.522   2.003   2.197
 7027SOL     OW21979   2.420   5.698   3.912
 7027SOL    HW121980   2.395   5.794   3.926
 7027SOL    HW221981   2.347   5.640   3.949
 7028SOL     OW21982   3.864   0.597   3.973
 7028SOL    HW121983   3.957   0.570   3.998
 7028SOL    HW221984   3.821   0.523   3.921
 7029SOL     OW21985   4.621   3.633   5.764
 7029SOL    HW121986   4.530   3.672   5.752
 7029SOL    HW221987   4.666   3.625   5.674
 7030SOL     OW21988   0.499   1.219   4.582
 7030SOL    HW121989   0.514   1.162   4.663
 7030SOL    HW221990   0.522   1.314   4.603
 7031SOL     OW21991   3.755   6.014   0.191
 7031SOL    HW121992   3.792   6.070   0.117
 7031SOL    HW221993   3.669   5.972   0.161
 7032SOL     OW21994   4.268   1.392   3.410
 7032SOL    HW121995   4.168   1.395   3.408
 7032SOL    HW221996   4.305   1.431   3.325
 7033SOL     OW21997   1.163   2.712   3.386
 7033SOL    HW121998   1.185   2.623   3.424
 7033SOL    HW221999   1.140   2.775   3.460
 7034SOL     OW22000   6.966   1.916   2.961
 7034SOL    HW122001   0.006   1.968   3.016
 7034SOL    HW222002   6.905   1.864   3.021
 7035SOL     OW22003   1.802   0.496   0.598
 7035SOL    HW122004   1.806   0.412   0.544
 7035SOL    HW222005   1.735   0.558   0.557
 7036SOL     OW22006   6.575   1.725   2.190
 7036SOL    HW122007   6.498   1.783   2.165
 7036SOL    HW222008   6.550   1.669   2.270
 7037SOL     OW22009   0.561   1.266   6.538
 7037SOL    HW122010   0.490   1.275   6.607
 7037SOL    HW222011   0.593   1.357   6.511
 7038SOL     OW22012   2.619   4.736   5.067
 7038SOL    HW122013   2.629   4.828   5.106
 7038SOL    HW222014   2.708   4.705   5.033
 7039SOL     OW22015   0.246   6.151   3.426
 7039SOL    HW122016   0.190   6.068   3.431
 7039SOL    HW222017   0.329   6.133   3.373
 7040SOL     OW22018   4.846   2.553   6.036
 7040SOL    HW122019   4.829   2.640   5.990
 7040SOL    HW222020   4.926   2.561   6.096
 7041SOL     OW22021   0.103   1.696   2.960
 7041SOL    HW122022   0.202   1.714   2.959
 7041SOL    HW222023   0.054   1.781   2.941
 7042SOL     OW22024   3.937   6.043   4.286
 7042SOL    HW122025   3.855   6.017   4.336
 7042SOL    HW222026   3.985   5.961   4.255
 7043SOL     OW22027   2.807   5.226   3.319
 7043SOL    HW122028   2.842   5.289   3.388
 7043SOL    HW222029   2.837   5.255   3.228
 7044SOL     OW22030   5.348   5.816   5.533
 7044SOL    HW122031   5.338   5.878   5.455
 7044SOL    HW222032   5.281   5.840   5.603
 7045SOL     OW22033   5.320   5.901   2.067
 7045SOL    HW122034   5.415   5.931   2.068
 7045SOL    HW222035   5.312   5.818   2.012
 7046SOL     OW22036   3.288   1.276   4.064
 7046SOL    HW122037   3.199   1.272   4.109
 7046SOL    HW222038   3.281   1.334   3.982
 7047SOL     OW22039   6.925   0.845   1.638
 7047SOL    HW122040   6.886   0.782   1.705
 7047SOL    HW222041   6.926   0.938   1.676
 7048SOL     OW22042   5.550   6.270   4.625
 7048SOL    HW122043   5.456   6.256   4.655
 7048SOL    HW222044   5.594   6.181   4.611
 7049SOL     OW22045   3.402   1.780   2.017
 7049SOL    HW122046   3.421   1.723   2.097
 7049SOL    HW222047   3.457   1.863   2.021
 7050SOL     OW22048   3.874   3.876   1.256
 7050SOL    HW122049   3.899   3.822   1.336
 7050SOL    HW222050   3.875   3.818   1.174
 7051SOL     OW22051   6.747   6.598   1.302
 7051SOL    HW122052   6.827   6.572   1.355
 7051SOL    HW222053   6.703   6.516   1.264
 7052SOL     OW22054   6.024   0.813   4.358
 7052SOL    HW122055   5.969   0.788   4.438
 7052SOL    HW222056   6.021   0.913   4.346
 7053SOL     OW22057   1.671   4.031   4.284
 7053SOL    HW122058   1.600   4.098   4.263
 7053SOL    HW222059   1.747   4.040   4.219
 7054SOL     OW22060   0.377   6.782   1.513
 7054SOL    HW122061   0.340   6.853   1.572
 7054SOL    HW222062   0.303   6.728   1.473
 7055SOL     OW22063   2.836   0.203   0.230
 7055SOL    HW122064   2.837   0.162   0.139
 7055SOL    HW222065   2.811   0.299   0.223
 7056SOL     OW22066   6.862   5.649   1.208
 7056SOL    HW122067   6.904   5.559   1.201
 7056SOL    HW222068   6.908   5.702   1.280
 7057SOL     OW22069   3.034   5.630   3.773
 7057SOL    HW122070   3.115   5.677   3.806
 7057SOL    HW222071   3.047   5.607   3.676
 7058SOL     OW22072   5.219   2.007   6.557
 7058SOL    HW122073   5.240   1.951   6.478
 7058SOL    HW222074   5.267   2.094   6.551
 7059SOL     OW22075   1.516   0.894   4.116
 7059SOL    HW122076   1.540   0.964   4.049
 7059SOL    HW222077   1.420   0.905   4.143
 7060SOL     OW22078   3.730   6.636   1.235
 7060SOL    HW122079   3.780   6.606   1.153
 7060SOL    HW222080   3.718   6.558   1.297
 7061SOL     OW22081   0.418   2.921   3.082
 7061SOL    HW122082   0.407   2.822   3.075
 7061SOL    HW222083   0.514   2.945   3.068
 7062SOL     OW22084   3.865   2.206   5.157
 7062SOL    HW122085   3.890   2.123   5.207
 7062SOL    HW222086   3.800   2.184   5.084
 7063SOL     OW22087   1.495   0.402   1.749
 7063SOL    HW122088   1.427   0.334   1.721
 7063SOL    HW222089   1.482   0.485   1.695
 7064SOL     OW22090   4.375   1.759   6.668
 7064SOL    HW122091   4.368   1.788   6.573
 7064SOL    HW222092   4.469   1.769   6.699
 7065SOL     OW22093   3.316   4.044   5.188
 7065SOL    HW122094   3.368   4.067   5.106
 7065SOL    HW222095   3.275   4.128   5.225
 7066SOL     OW22096   4.308   6.934   5.798
 7066SOL    HW122097   4.344   6.970   5.884
 7066SOL    HW222098   4.375   6.872   5.758
 7067SOL     OW22099   1.391   3.575   5.976
 7067SOL    HW122100   1.355   3.482   5.967
 7067SOL    HW222101   1.318   3.641   5.960
 7068SOL     OW22102   5.506   4.297   4.238
 7068SOL    HW122103   5.592   4.249   4.261
 7068SOL    HW222104   5.432   4.230   4.234
 7069SOL     OW22105   5.463   2.058   5.204
 7069SOL    HW122106   5.551   2.017   5.179
 7069SOL    HW222107   5.399   2.049   5.128
 7070SOL     OW22108   1.016   6.292   4.447
 7070SOL    HW122109   1.018   6.369   4.511
 7070SOL    HW222110   1.049   6.210   4.493
 7071SOL     OW22111   4.890   5.891   6.519
 7071SOL    HW122112   4.968   5.867   6.577
 7071SOL    HW222113   4.817   5.930   6.575
 7072SOL     OW22114   2.303   4.590   0.189
 7072SOL    HW122115   2.222   4.548   0.231
 7072SOL    HW222116   2.278   4.677   0.147
 7073SOL     OW22117   3.253   0.301   2.991
 7073SOL    HW122118   3.342   0.262   2.965
 7073SOL    HW222119   3.251   0.398   2.970
 7074SOL     OW22120   6.265   3.475   3.361
 7074SOL    HW122121   6.221   3.561   3.333
 7074SOL    HW222122   6.364   3.487   3.362
 7075SOL     OW22123   2.662   5.185   4.771
 7075SOL    HW122124   2.637   5.106   4.827
 7075SOL    HW222125   2.601   5.191   4.692
 7076SOL     OW22126   5.494   2.546   0.721
 7076SOL    HW122127   5.560   2.536   0.647
 7076SOL    HW222128   5.525   2.494   0.801
 7077SOL     OW22129   2.387   4.362   3.259
 7077SOL    HW122130   2.452   4.389   3.189
 7077SOL    HW222131   2.361   4.266   3.245
 7078SOL     OW22132   6.142   6.330   1.203
 7078SOL    HW122133   6.132   6.386   1.120
 7078SOL    HW222134   6.209   6.258   1.186
 7079SOL     OW22135   1.259   6.639   3.731
 7079SOL    HW122136   1.160   6.653   3.731
 7079SOL    HW222137   1.295   6.657   3.640
 7080SOL     OW22138   4.095   1.968   4.037
 7080SOL    HW122139   4.088   1.893   4.102
 7080SOL    HW222140   4.024   1.959   3.967
 7081SOL     OW22141   1.173   5.867   0.494
 7081SOL    HW122142   1.183   5.957   0.453
 7081SOL    HW222143   1.260   5.817   0.489
 7082SOL     OW22144   6.851   4.584   0.528
 7082SOL    HW122145   6.873   4.512   0.462
 7082SOL    HW222146   6.764   4.627   0.503
 7083SOL     OW22147   0.300   1.469   2.258
 7083SOL    HW122148   0.208   1.459   2.297
 7083SOL    HW222149   0.365   1.488   2.331
 7084SOL     OW22150   0.665   5.419   5.403
 7084SOL    HW122151   0.583   5.468   5.373
 7084SOL    HW222152   0.735   5.485   5.428
 7085SOL     OW22153   6.678   2.310   2.547
 7085SOL    HW122154   6.676   2.404   2.512
 7085SOL    HW222155   6.747   2.303   2.619
 7086SOL     OW22156   5.627   0.751   6.481
 7086SOL    HW122157   5.573   0.817   6.532
 7086SOL    HW222158   5.705   0.723   6.536
 7087SOL     OW22159   5.247   3.707   2.145
 7087SOL    HW122160   5.170   3.644   2.158
 7087SOL    HW222161   5.322   3.680   2.205
 7088SOL     OW22162   4.871   2.321   5.451
 7088SOL    HW122163   4.877   2.247   5.519
 7088SOL    HW222164   4.832   2.402   5.494
 7089SOL     OW22165   2.494   4.594   2.891
 7089SOL    HW122166   2.553   4.583   2.971
 7089SOL    HW222167   2.425   4.664   2.909
 7090SOL     OW22168   2.620   1.518   0.477
 7090SOL    HW122169   2.529   1.530   0.517
 7090SOL    HW222170   2.640   1.593   0.415
 7091SOL     OW22171   0.710   0.628   1.496
 7091SOL    HW122172   0.781   0.687   1.457
 7091SOL    HW222173   0.630   0.683   1.520
 7092SOL     OW22174   4.051   2.783   5.972
 7092SOL    HW122175   4.025   2.701   5.921
 7092SOL    HW222176   4.128   2.762   6.032
 7093SOL     OW22177   3.484   3.549   1.706
 7093SOL    HW122178   3.454   3.642   1.689
 7093SOL    HW222179   3.463   3.491   1.627
 7094SOL     OW22180   1.250   0.221   5.399
 7094SOL    HW122181   1.301   0.177   5.473
 7094SOL    HW222182   1.155   0.192   5.401
 7095SOL     OW22183   3.688   4.858   5.977
 7095SOL    HW122184   3.707   4.771   5.931
 7095SOL    HW222185   3.705   4.848   6.075
 7096SOL     OW22186   6.641   0.862   1.992
 7096SOL    HW122187   6.699   0.786   2.020
 7096SOL    HW222188   6.653   0.938   2.056
 7097SOL     OW22189   4.973   0.388   1.676
 7097SOL    HW122190   4.926   0.402   1.763
 7097SOL    HW222191   5.045   0.456   1.665
 7098SOL     OW22192   1.472   6.015   5.600
 7098SOL    HW122193   1.545   5.947   5.605
 7098SOL    HW222194   1.396   5.987   5.658
 7099SOL     OW22195   3.984   2.120   4.375
 7099SOL    HW122196   4.040   2.168   4.307
 7099SOL    HW222197   4.040   2.097   4.454
 7100SOL     OW22198   6.333   2.777   0.710
 7100SOL    HW122199   6.306   2.719   0.786
 7100SOL    HW222200   6.252   2.804   0.657
 7101SOL     OW22201   2.525   0.664   5.803
 7101SOL    HW122202   2.513   0.757   5.768
 7101SOL    HW222203   2.623   0.642   5.805
 7102SOL     OW22204   6.002   0.163   1.357
 7102SOL    HW122205   6.100   0.156   1.340
 7102SOL    HW222206   5.959   0.074   1.341
 7103SOL     OW22207   5.102   5.354   1.800
 7103SOL    HW122208   5.177   5.306   1.755
 7103SOL    HW222209   5.094   5.446   1.763
 7104SOL     OW22210   5.563   3.804   2.422
 7104SOL    HW122211   5.508   3.814   2.506
 7104SOL    HW222212   5.659   3.821   2.444
 7105SOL     OW22213   3.831   4.054   4.473
 7105SOL    HW122214   3.868   3.977   4.525
 7105SOL    HW222215   3.781   4.115   4.535
 7106SOL     OW22216   3.273   2.896   1.482
 7106SOL    HW122217   3.214   2.826   1.442
 7106SOL    HW222218   3.360   2.899   1.432
 7107SOL     OW22219   3.707   0.316   0.512
 7107SOL    HW122220   3.789   0.288   0.561
 7107SOL    HW222221   3.632   0.330   0.577
 7108SOL     OW22222   2.610   6.077   2.510
 7108SOL    HW122223   2.620   6.113   2.603
 7108SOL    HW222224   2.632   5.980   2.510
 7109SOL     OW22225   1.559   1.372   6.631
 7109SOL    HW122226   1.503   1.295   6.662
 7109SOL    HW222227   1.638   1.337   6.580
 7110SOL     OW22228   3.466   6.022   4.032
 7110SOL    HW122229   3.439   5.988   3.942
 7110SOL    HW222230   3.403   6.094   4.061
 7111SOL     OW22231   1.522   1.887   3.976
 7111SOL    HW122232   1.617   1.916   3.989
 7111SOL    HW222233   1.502   1.810   4.035
 7112SOL     OW22234   2.155   4.176   4.429
 7112SOL    HW122235   2.239   4.178   4.484
 7112SOL    HW222236   2.076   4.192   4.488
 7113SOL     OW22237   3.363   4.798   5.339
 7113SOL    HW122238   3.393   4.771   5.430
 7113SOL    HW222239   3.442   4.812   5.280
 7114SOL     OW22240   4.450   5.287   1.411
 7114SOL    HW122241   4.368   5.259   1.461
 7114SOL    HW222242   4.468   5.221   1.338
 7115SOL     OW22243   5.392   3.465   6.900
 7115SOL    HW122244   5.312   3.405   6.898
 7115SOL    HW222245   5.420   3.480   6.995
 7116SOL     OW22246   5.405   4.191   3.107
 7116SOL    HW122247   5.306   4.195   3.119
 7116SOL    HW222248   5.437   4.276   3.066
 7117SOL     OW22249   7.022   0.113   4.531
 7117SOL    HW122250   0.023   0.137   4.625
 7117SOL    HW222251   7.006   0.014   4.526
 7118SOL     OW22252   3.837   4.228   5.727
 7118SOL    HW122253   3.849   4.136   5.691
 7118SOL    HW222254   3.740   4.250   5.733
 7119SOL     OW22255   5.059   0.959   4.953
 7119SOL    HW122256   5.029   0.872   4.914
 7119SOL    HW222257   5.149   0.983   4.915
 7120SOL     OW22258   4.220   1.782   1.797
 7120SOL    HW122259   4.179   1.710   1.853
 7120SOL    HW222260   4.226   1.866   1.850
 7121SOL     OW22261   0.297   6.753   2.845
 7121SOL    HW122262   0.315   6.839   2.798
 7121SOL    HW222263   0.262   6.686   2.779
 7122SOL     OW22264   1.724   0.315   5.683
 7122SOL    HW122265   1.807   0.369   5.671
 7122SOL    HW222266   1.685   0.332   5.773
 7123SOL     OW22267   0.376   5.183   4.034
 7123SOL    HW122268   0.346   5.212   4.124
 7123SOL    HW222269   0.406   5.087   4.037
 7124SOL     OW22270   0.894   2.236   1.467
 7124SOL    HW122271   0.914   2.206   1.560
 7124SOL    HW222272   0.896   2.336   1.464
 7125SOL     OW22273   1.601   1.427   1.649
 7125SOL    HW122274   1.648   1.368   1.583
 7125SOL    HW222275   1.611   1.388   1.740
 7126SOL     OW22276   4.206   5.764   0.628
 7126SOL    HW122277   4.111   5.796   0.628
 7126SOL    HW222278   4.259   5.817   0.694
 7127SOL     OW22279   2.830   6.199   5.694
 7127SOL    HW122280   2.897   6.172   5.764
 7127SOL    HW222281   2.766   6.123   5.679
 7128SOL     OW22282   3.855   3.503   6.414
 7128SOL    HW122283   3.915   3.523   6.336
 7128SOL    HW222284   3.843   3.585   6.469
 7129SOL     OW22285   1.423   1.231   1.403
 7129SOL    HW122286   1.523   1.225   1.411
 7129SOL    HW222287   1.395   1.326   1.414
 7130SOL     OW22288   3.562   6.440   4.194
 7130SOL    HW122289   3.535   6.484   4.108
 7130SOL    HW222290   3.545   6.503   4.270
 7131SOL     OW22291   3.413   1.152   1.335
 7131SOL    HW122292   3.424   1.224   1.404
 7131SOL    HW222293   3.469   1.073   1.361
 7132SOL     OW22294   5.203   4.263   0.140
 7132SOL    HW122295   5.279   4.207   0.172
 7132SOL    HW222296   5.238   4.353   0.113
 7133SOL     OW22297   4.281   4.811   4.120
 7133SOL    HW122298   4.233   4.803   4.033
 7133SOL    HW222299   4.377   4.834   4.103
 7134SOL     OW22300   5.300   6.367   1.992
 7134SOL    HW122301   5.309   6.388   1.895
 7134SOL    HW222302   5.273   6.450   2.041
 7135SOL     OW22303   2.115   3.311   2.322
 7135SOL    HW122304   2.097   3.376   2.248
 7135SOL    HW222305   2.136   3.360   2.406
 7136SOL     OW22306   2.867   1.579   1.257
 7136SOL    HW122307   2.853   1.653   1.191
 7136SOL    HW222308   2.927   1.611   1.330
 7137SOL     OW22309   2.986   1.808   0.454
 7137SOL    HW122310   2.953   1.714   0.446
 7137SOL    HW222311   2.952   1.848   0.539
 7138SOL     OW22312   1.831   1.284   1.122
 7138SOL    HW122313   1.738   1.252   1.140
 7138SOL    HW222314   1.848   1.284   1.023
 7139SOL     OW22315   5.744   4.526   2.172
 7139SOL    HW122316   5.750   4.546   2.074
 7139SOL    HW222317   5.829   4.482   2.202
 7140SOL     OW22318   6.138   4.291   0.913
 7140SOL    HW122319   6.044   4.319   0.896
 7140SOL    HW222320   6.183   4.357   0.973
 7141SOL     OW22321   4.477   7.011   1.167
 7141SOL    HW122322   4.458   0.066   1.224
 7141SOL    HW222323   4.561   0.001   1.116
 7142SOL     OW22324   2.952   6.948   3.838
 7142SOL    HW122325   2.946   6.920   3.934
 7142SOL    HW222326   2.887   6.894   3.784
 7143SOL     OW22327   1.480   3.903   6.802
 7143SOL    HW122328   1.507   3.856   6.718
 7143SOL    HW222329   1.465   3.835   6.874
 7144SOL     OW22330   0.368   1.026   3.633
 7144SOL    HW122331   0.331   1.027   3.540
 7144SOL    HW222332   0.314   0.962   3.689
 7145SOL     OW22333   4.360   0.757   6.692
 7145SOL    HW122334   4.445   0.806   6.678
 7145SOL    HW222335   4.315   0.741   6.604
 7146SOL     OW22336   1.527   1.743   6.308
 7146SOL    HW122337   1.556   1.679   6.379
 7146SOL    HW222338   1.595   1.816   6.299
 7147SOL     OW22339   6.287   5.863   3.202
 7147SOL    HW122340   6.289   5.917   3.118
 7147SOL    HW222341   6.225   5.785   3.191
 7148SOL     OW22342   6.171   5.855   1.469
 7148SOL    HW122343   6.186   5.954   1.473
 7148SOL    HW222344   6.153   5.820   1.561
 7149SOL     OW22345   0.491   5.246   3.767
 7149SOL    HW122346   0.476   5.215   3.861
 7149SOL    HW222347   0.412   5.300   3.737
 7150SOL     OW22348   3.842   3.223   0.136
 7150SOL    HW122349   3.877   3.317   0.140
 7150SOL    HW222350   3.817   3.193   0.228
 7151SOL     OW22351   3.444   6.452   0.716
 7151SOL    HW122352   3.350   6.460   0.682
 7151SOL    HW222353   3.445   6.457   0.816
 7152SOL     OW22354   6.192   0.777   6.582
 7152SOL    HW122355   6.149   0.691   6.556
 7152SOL    HW222356   6.123   0.838   6.622
 7153SOL     OW22357   3.891   5.177   2.366
 7153SOL    HW122358   3.818   5.185   2.297
 7153SOL    HW222359   3.894   5.260   2.421
 7154SOL     OW22360   3.997   0.866   2.928
 7154SOL    HW122361   4.029   0.923   2.853
 7154SOL    HW222362   4.057   0.786   2.938
 7155SOL     OW22363   3.025   2.597   1.184
 7155SOL    HW122364   3.087   2.647   1.245
 7155SOL    HW222365   2.974   2.662   1.129
 7156SOL     OW22366   4.885   3.493   2.626
 7156SOL    HW122367   4.836   3.575   2.655
 7156SOL    HW222368   4.853   3.414   2.677
 7157SOL     OW22369   6.492   4.282   1.494
 7157SOL    HW122370   6.424   4.228   1.543
 7157SOL    HW222371   6.576   4.287   1.548
 7158SOL     OW22372   6.444   0.620   3.416
 7158SOL    HW122373   6.477   0.531   3.446
 7158SOL    HW222374   6.447   0.684   3.493
 7159SOL     OW22375   0.649   4.518   4.368
 7159SOL    HW122376   0.566   4.572   4.384
 7159SOL    HW222377   0.728   4.568   4.403
 7160SOL     OW22378   6.096   6.496   2.764
 7160SOL    HW122379   6.140   6.441   2.835
 7160SOL    HW222380   6.165   6.555   2.721
 7161SOL     OW22381   3.792   4.113   3.009
 7161SOL    HW122382   3.725   4.124   2.936
 7161SOL    HW222383   3.844   4.197   3.020
 7162SOL     OW22384   0.285   4.976   0.002
 7162SOL    HW122385   0.230   4.907   0.048
 7162SOL    HW222386   0.277   5.063   0.051
 7163SOL     OW22387   2.034   0.525   2.727
 7163SOL    HW122388   2.087   0.605   2.699
 7163SOL    HW222389   1.943   0.554   2.756
 7164SOL     OW22390   1.875   0.918   4.665
 7164SOL    HW122391   1.854   0.866   4.747
 7164SOL    HW222392   1.937   0.865   4.607
 7165SOL     OW22393   6.301   6.160   1.888
 7165SOL    HW122394   6.232   6.104   1.934
 7165SOL    HW222395   6.392   6.125   1.908
 7166SOL     OW22396   5.867   0.682   6.613
 7166SOL    HW122397   5.912   0.757   6.662
 7166SOL    HW222398   5.934   0.635   6.555
 7167SOL     OW22399   5.242   2.329   5.422
 7167SOL    HW122400   5.196   2.266   5.359
 7167SOL    HW222401   5.255   2.285   5.510
 7168SOL     OW22402   2.804   1.826   2.480
 7168SOL    HW122403   2.888   1.780   2.508
 7168SOL    HW222404   2.762   1.871   2.559
 7169SOL     OW22405   0.762   4.380   4.649
 7169SOL    HW122406   0.715   4.465   4.670
 7169SOL    HW222407   0.772   4.370   4.550
 7170SOL     OW22408   4.162   6.561   2.384
 7170SOL    HW122409   4.132   6.620   2.459
 7170SOL    HW222410   4.089   6.555   2.315
 7171SOL     OW22411   6.138   3.978   0.778
 7171SOL    HW122412   6.051   4.014   0.744
 7171SOL    HW222413   6.168   4.034   0.856
 7172SOL     OW22414   1.873   1.683   5.183
 7172SOL    HW122415   1.823   1.729   5.109
 7172SOL    HW222416   1.831   1.595   5.202
 7173SOL     OW22417   6.476   5.361   6.991
 7173SOL    HW122418   6.556   5.305   6.970
 7173SOL    HW222419   6.490   5.408   0.053
 7174SOL     OW22420   6.651   4.675   0.851
 7174SOL    HW122421   6.647   4.604   0.781
 7174SOL    HW222422   6.747   4.693   0.875
 7175SOL     OW22423   6.433   3.939   5.114
 7175SOL    HW122424   6.379   3.921   5.196
 7175SOL    HW222425   6.412   3.869   5.045
 7176SOL     OW22426   0.699   1.176   4.386
 7176SOL    HW122427   0.621   1.165   4.448
 7176SOL    HW222428   0.711   1.273   4.365
 7177SOL     OW22429   1.887   5.653   5.532
 7177SOL    HW122430   1.824   5.607   5.594
 7177SOL    HW222431   1.947   5.585   5.490
 7178SOL     OW22432   0.840   1.037   6.384
 7178SOL    HW122433   0.873   1.117   6.335
 7178SOL    HW222434   0.806   0.969   6.319
 7179SOL     OW22435   1.988   4.345   4.600
 7179SOL    HW122436   1.978   4.315   4.695
 7179SOL    HW222437   1.932   4.287   4.541
 7180SOL     OW22438   2.449   3.986   1.273
 7180SOL    HW122439   2.526   4.050   1.269
 7180SOL    HW222440   2.435   3.945   1.183
 7181SOL     OW22441   2.069   1.292   6.096
 7181SOL    HW122442   2.145   1.256   6.041
 7181SOL    HW222443   1.982   1.260   6.058
 7182SOL     OW22444   0.765   3.800   3.398
 7182SOL    HW122445   0.710   3.781   3.479
 7182SOL    HW222446   0.705   3.813   3.319
 7183SOL     OW22447   2.164   5.698   1.963
 7183SOL    HW122448   2.105   5.707   2.043
 7183SOL    HW222449   2.201   5.787   1.939
 7184SOL     OW22450   5.662   1.052   3.946
 7184SOL    HW122451   5.599   0.977   3.925
 7184SOL    HW222452   5.683   1.051   4.044
 7185SOL     OW22453   5.476   1.070   5.589
 7185SOL    HW122454   5.555   1.008   5.591
 7185SOL    HW222455   5.398   1.026   5.636
 7186SOL     OW22456   0.429   0.999   1.043
 7186SOL    HW122457   0.454   0.905   1.068
 7186SOL    HW222458   0.499   1.037   0.983
 7187SOL     OW22459   3.073   3.474   5.322
 7187SOL    HW122460   3.122   3.458   5.236
 7187SOL    HW222461   2.994   3.532   5.305
 7188SOL     OW22462   4.724   4.470   0.135
 7188SOL    HW122463   4.814   4.428   0.119
 7188SOL    HW222464   4.671   4.411   0.196
 7189SOL     OW22465   6.111   3.362   5.194
 7189SOL    HW122466   6.021   3.346   5.233
 7189SOL    HW222467   6.102   3.389   5.098
 7190SOL     OW22468   5.980   6.257   1.394
 7190SOL    HW122469   5.895   6.311   1.393
 7190SOL    HW222470   6.033   6.279   1.313
 7191SOL     OW22471   0.354   4.252   3.349
 7191SOL    HW122472   0.394   4.340   3.374
 7191SOL    HW222473   0.258   4.266   3.323
 7192SOL     OW22474   1.198   4.438   5.953
 7192SOL    HW122475   1.172   4.415   6.047
 7192SOL    HW222476   1.254   4.520   5.953
 7193SOL     OW22477   2.924   1.705   3.030
 7193SOL    HW122478   2.879   1.779   2.979
 7193SOL    HW222479   3.010   1.739   3.069
 7194SOL     OW22480   2.419   2.513   0.204
 7194SOL    HW122481   2.456   2.421   0.189
 7194SOL    HW222482   2.430   2.566   0.120
 7195SOL     OW22483   6.047   4.284   6.569
 7195SOL    HW122484   6.014   4.191   6.587
 7195SOL    HW222485   6.101   4.284   6.484
 7196SOL     OW22486   3.322   3.959   1.945
 7196SOL    HW122487   3.389   3.991   2.013
 7196SOL    HW222488   3.353   3.984   1.854
 7197SOL     OW22489   1.044   4.137   5.431
 7197SOL    HW122490   1.112   4.171   5.366
 7197SOL    HW222491   0.971   4.090   5.382
 7198SOL     OW22492   0.220   0.791   7.018
 7198SOL    HW122493   0.120   0.800   7.010
 7198SOL    HW222494   0.259   0.880   0.019
 7199SOL     OW22495   1.014   0.325   2.418
 7199SOL    HW122496   0.956   0.401   2.445
 7199SOL    HW222497   1.088   0.358   2.359
 7200SOL     OW22498   1.344   3.251   0.575
 7200SOL    HW122499   1.376   3.160   0.604
 7200SOL    HW222500   1.405   3.321   0.612
 7201SOL     OW22501   0.240   5.569   4.283
 7201SOL    HW122502   0.189   5.607   4.361
 7201SOL    HW222503   0.315   5.630   4.259
 7202SOL     OW22504   5.242   0.257   6.069
 7202SOL    HW122505   5.194   0.180   6.028
 7202SOL    HW222506   5.339   0.253   6.044
 7203SOL     OW22507   1.125   1.203   2.055
 7203SOL    HW122508   1.098   1.208   1.959
 7203SOL    HW222509   1.067   1.264   2.109
 7204SOL     OW22510   6.492   1.093   6.708
 7204SOL    HW122511   6.446   1.047   6.632
 7204SOL    HW222512   6.431   1.097   6.787
 7205SOL     OW22513   1.138   3.449   4.693
 7205SOL    HW122514   1.057   3.396   4.717
 7205SOL    HW222515   1.212   3.387   4.666
 7206SOL     OW22516   1.472   1.690   1.506
 7206SOL    HW122517   1.546   1.754   1.526
 7206SOL    HW222518   1.498   1.598   1.536
 7207SOL     OW22519   2.617   1.358   3.635
 7207SOL    HW122520   2.546   1.406   3.584
 7207SOL    HW222521   2.702   1.411   3.632
 7208SOL     OW22522   4.837   6.920   4.449
 7208SOL    HW122523   4.839   6.939   4.351
 7208SOL    HW222524   4.903   6.847   4.470
 7209SOL     OW22525   2.291   2.763   2.467
 7209SOL    HW122526   2.290   2.699   2.544
 7209SOL    HW222527   2.316   2.855   2.500
 7210SOL     OW22528   3.933   1.876   3.802
 7210SOL    HW122529   3.939   1.795   3.744
 7210SOL    HW222530   3.851   1.870   3.859
 7211SOL     OW22531   3.110   6.092   5.523
 7211SOL    HW122532   3.106   6.192   5.514
 7211SOL    HW222533   3.062   6.050   5.446
 7212SOL     OW22534   6.930   6.574   6.375
 7212SOL    HW122535   6.950   6.633   6.453
 7212SOL    HW222536   6.874   6.625   6.309
 7213SOL     OW22537   3.734   6.573   6.373
 7213SOL    HW122538   3.639   6.578   6.405
 7213SOL    HW222539   3.735   6.553   6.275
 7214SOL     OW22540   6.882   1.218   5.806
 7214SOL    HW122541   6.940   1.240   5.728
 7214SOL    HW222542   6.938   1.219   5.889
 7215SOL     OW22543   6.127   2.565   4.315
 7215SOL    HW122544   6.217   2.574   4.359
 7215SOL    HW222545   6.074   2.648   4.331
 7216SOL     OW22546   3.046   5.816   2.311
 7216SOL    HW122547   3.075   5.888   2.374
 7216SOL    HW222548   3.056   5.847   2.217
 7217SOL     OW22549   1.312   3.573   3.419
 7217SOL    HW122550   1.368   3.511   3.365
 7217SOL    HW222551   1.366   3.608   3.496
 7218SOL     OW22552   0.055   2.986   3.974
 7218SOL    HW122553   0.040   2.997   4.072
 7218SOL    HW222554   0.131   2.922   3.958
 7219SOL     OW22555   3.129   6.843   1.903
 7219SOL    HW122556   3.222   6.817   1.875
 7219SOL    HW222557   3.083   6.889   1.827
 7220SOL     OW22558   6.552   4.818   3.784
 7220SOL    HW122559   6.599   4.904   3.807
 7220SOL    HW222560   6.459   4.821   3.820
 7221SOL     OW22561   3.077   5.921   4.477
 7221SOL    HW122562   3.168   5.881   4.470
 7221SOL    HW222563   3.076   6.010   4.432
 7222SOL     OW22564   5.661   0.222   3.283
 7222SOL    HW122565   5.681   0.148   3.348
 7222SOL    HW222566   5.573   0.206   3.240
 7223SOL     OW22567   2.767   0.946   0.842
 7223SOL    HW122568   2.809   0.950   0.932
 7223SOL    HW222569   2.732   0.854   0.824
 7224SOL     OW22570   4.888   2.652   4.890
 7224SOL    HW122571   4.954   2.625   4.960
 7224SOL    HW222572   4.934   2.660   4.801
 7225SOL     OW22573   2.115   6.677   0.753
 7225SOL    HW122574   2.086   6.751   0.692
 7225SOL    HW222575   2.048   6.666   0.826
 7226SOL     OW22576   6.106   0.148   1.655
 7226SOL    HW122577   6.017   0.141   1.612
 7226SOL    HW222578   6.100   0.113   1.749
 7227SOL     OW22579   3.039   1.677   1.751
 7227SOL    HW122580   2.996   1.762   1.721
 7227SOL    HW222581   2.976   1.626   1.809
 7228SOL     OW22582   1.243   1.384   3.615
 7228SOL    HW122583   1.270   1.295   3.580
 7228SOL    HW222584   1.165   1.373   3.677
 7229SOL     OW22585   0.257   6.978   4.888
 7229SOL    HW122586   0.301   6.945   4.804
 7229SOL    HW222587   0.204   0.036   4.867
 7230SOL     OW22588   3.089   5.602   3.479
 7230SOL    HW122589   3.105   5.539   3.403
 7230SOL    HW222590   3.058   5.690   3.444
 7231SOL     OW22591   4.270   0.840   0.680
 7231SOL    HW122592   4.186   0.892   0.694
 7231SOL    HW222593   4.287   0.831   0.581
 7232SOL     OW22594   5.104   6.268   2.794
 7232SOL    HW122595   5.036   6.340   2.802
 7232SOL    HW222596   5.124   6.230   2.884
 7233SOL     OW22597   1.016   1.328   4.989
 7233SOL    HW122598   0.944   1.288   4.932
 7233SOL    HW222599   0.998   1.308   5.085
 7234SOL     OW22600   5.518   3.447   2.587
 7234SOL    HW122601   5.451   3.438   2.660
 7234SOL    HW222602   5.485   3.400   2.505
 7235SOL     OW22603   6.454   4.578   2.138
 7235SOL    HW122604   6.363   4.568   2.097
 7235SOL    HW222605   6.517   4.616   2.070
 7236SOL     OW22606   2.268   2.569   2.654
 7236SOL    HW122607   2.279   2.487   2.598
 7236SOL    HW222608   2.242   2.543   2.747
 7237SOL     OW22609   3.703   0.104   6.411
 7237SOL    HW122610   3.680   0.018   6.366
 7237SOL    HW222611   3.801   0.120   6.403
 7238SOL     OW22612   4.521   2.292   6.287
 7238SOL    HW122613   4.580   2.214   6.308
 7238SOL    HW222614   4.432   2.279   6.330
 7239SOL     OW22615   1.365   3.189   1.682
 7239SOL    HW122616   1.453   3.168   1.725
 7239SOL    HW222617   1.341   3.116   1.618
 7240SOL     OW22618   6.747   1.584   6.772
 7240SOL    HW122619   6.717   1.499   6.729
 7240SOL    HW222620   6.841   1.603   6.746
 7241SOL     OW22621   2.549   6.889   0.404
 7241SOL    HW122622   2.560   6.941   0.489
 7241SOL    HW222623   2.462   6.840   0.407
 7242SOL     OW22624   6.910   5.498   5.943
 7242SOL    HW122625   6.945   5.455   5.860
 7242SOL    HW222626   6.835   5.560   5.920
 7243SOL     OW22627   0.059   4.662   6.111
 7243SOL    HW122628   0.088   4.725   6.183
 7243SOL    HW222629   6.988   4.680   6.087
 7244SOL     OW22630   0.601   0.133   1.331
 7244SOL    HW122631   0.672   0.166   1.394
 7244SOL    HW222632   0.601   0.034   1.329
 7245SOL     OW22633   1.024   2.702   5.232
 7245SOL    HW122634   1.095   2.715   5.162
 7245SOL    HW222635   0.953   2.642   5.195
 7246SOL     OW22636   1.770   0.232   4.071
 7246SOL    HW122637   1.835   0.299   4.036
 7246SOL    HW222638   1.701   0.279   4.127
 7247SOL     OW22639   2.911   2.110   5.553
 7247SOL    HW122640   2.897   2.170   5.475
 7247SOL    HW222641   2.957   2.027   5.524
 7248SOL     OW22642   3.256   0.760   2.616
 7248SOL    HW122643   3.192   0.700   2.568
 7248SOL    HW222644   3.326   0.704   2.661
 7249SOL     OW22645   4.842   5.199   1.725
 7249SOL    HW122646   4.863   5.265   1.797
 7249SOL    HW222647   4.778   5.241   1.659
 7250SOL     OW22648   5.192   5.206   5.897
 7250SOL    HW122649   5.142   5.246   5.974
 7250SOL    HW222650   5.251   5.276   5.857
 7251SOL     OW22651   0.882   7.015   4.939
 7251SOL    HW122652   0.823   0.022   5.013
 7251SOL    HW222653   0.973   0.030   4.948
 7252SOL     OW22654   2.986   3.283   1.941
 7252SOL    HW122655   3.071   3.230   1.947
 7252SOL    HW222656   3.001   3.374   1.981
 7253SOL     OW22657   2.251   6.015   6.711
 7253SOL    HW122658   2.350   5.997   6.717
 7253SOL    HW222659   2.201   5.933   6.738
 7254SOL     OW22660   5.121   5.035   4.718
 7254SOL    HW122661   5.202   5.017   4.775
 7254SOL    HW222662   5.101   5.133   4.720
 7255SOL     OW22663   4.434   3.876   6.885
 7255SOL    HW122664   4.394   3.965   6.906
 7255SOL    HW222665   4.369   3.804   6.909
 7256SOL     OW22666   3.438   5.896   5.685
 7256SOL    HW122667   3.471   5.937   5.601
 7256SOL    HW222668   3.467   5.800   5.689
 7257SOL     OW22669   0.194   2.122   3.468
 7257SOL    HW122670   0.268   2.065   3.504
 7257SOL    HW222671   0.231   2.183   3.398
 7258SOL     OW22672   4.962   2.021   2.858
 7258SOL    HW122673   5.003   1.932   2.838
 7258SOL    HW222674   4.868   2.009   2.889
 7259SOL     OW22675   1.666   3.579   1.822
 7259SOL    HW122676   1.572   3.582   1.788
 7259SOL    HW222677   1.712   3.498   1.786
 7260SOL     OW22678   5.823   1.605   1.996
 7260SOL    HW122679   5.828   1.664   2.076
 7260SOL    HW222680   5.883   1.640   1.924
 7261SOL     OW22681   0.847   4.904   1.697
 7261SOL    HW122682   0.917   4.964   1.659
 7261SOL    HW222683   0.883   4.860   1.780
 7262SOL     OW22684   5.259   2.078   6.856
 7262SOL    HW122685   5.258   2.000   6.919
 7262SOL    HW222686   5.246   2.046   6.763
 7263SOL     OW22687   0.485   6.431   0.048
 7263SOL    HW122688   0.553   6.363   0.022
 7263SOL    HW222689   0.394   6.388   0.050
 7264SOL     OW22690   5.374   1.171   0.874
 7264SOL    HW122691   5.456   1.158   0.818
 7264SOL    HW222692   5.315   1.239   0.832
 7265SOL     OW22693   5.341   4.542   5.776
 7265SOL    HW122694   5.361   4.635   5.745
 7265SOL    HW222695   5.426   4.490   5.781
 7266SOL     OW22696   5.751   1.186   3.455
 7266SOL    HW122697   5.757   1.269   3.510
 7266SOL    HW222698   5.792   1.110   3.505
 7267SOL     OW22699   6.494   6.538   4.933
 7267SOL    HW122700   6.584   6.511   4.967
 7267SOL    HW222701   6.443   6.456   4.907
 7268SOL     OW22702   6.849   6.140   4.940
 7268SOL    HW122703   6.904   6.120   4.859
 7268SOL    HW222704   6.907   6.177   5.012
 7269SOL     OW22705   1.979   6.113   6.024
 7269SOL    HW122706   1.948   6.140   6.115
 7269SOL    HW222707   2.012   6.194   5.974
 7270SOL     OW22708   0.460   2.981   4.608
 7270SOL    HW122709   0.531   2.978   4.678
 7270SOL    HW222710   0.370   2.984   4.651
 7271SOL     OW22711   1.594   5.022   4.191
 7271SOL    HW122712   1.526   4.964   4.238
 7271SOL    HW222713   1.587   5.115   4.226
 7272SOL     OW22714   6.036   5.976   2.323
 7272SOL    HW122715   6.070   6.020   2.406
 7272SOL    HW222716   5.976   5.900   2.348
 7273SOL     OW22717   6.308   3.953   0.541
 7273SOL    HW122718   6.258   3.921   0.622
 7273SOL    HW222719   6.399   3.913   0.541
 7274SOL     OW22720   0.557   4.767   6.553
 7274SOL    HW122721   0.504   4.799   6.631
 7274SOL    HW222722   0.501   4.773   6.470
 7275SOL     OW22723   6.656   5.432   3.054
 7275SOL    HW122724   6.728   5.492   3.088
 7275SOL    HW222725   6.638   5.360   3.121
 7276SOL     OW22726   4.906   0.540   3.420
 7276SOL    HW122727   4.850   0.564   3.499
 7276SOL    HW222728   4.981   0.481   3.448
 7277SOL     OW22729   5.122   0.367   4.582
 7277SOL    HW122730   5.082   0.347   4.671
 7277SOL    HW222731   5.202   0.309   4.568
 7278SOL     OW22732   3.861   2.995   1.337
 7278SOL    HW122733   3.812   2.954   1.414
 7278SOL    HW222734   3.885   2.923   1.272
 7279SOL     OW22735   4.407   4.825   6.280
 7279SOL    HW122736   4.329   4.884   6.298
 7279SOL    HW222737   4.414   4.755   6.352
 7280SOL     OW22738   0.286   1.355   3.330
 7280SOL    HW122739   0.200   1.306   3.320
 7280SOL    HW222740   0.310   1.401   3.245
 7281SOL     OW22741   2.905   1.850   6.448
 7281SOL    HW122742   2.994   1.813   6.422
 7281SOL    HW222743   2.885   1.932   6.395
 7282SOL     OW22744   5.383   5.237   3.081
 7282SOL    HW122745   5.321   5.228   3.003
 7282SOL    HW222746   5.384   5.332   3.111
 7283SOL     OW22747   4.198   1.565   2.644
 7283SOL    HW122748   4.235   1.478   2.677
 7283SOL    HW222749   4.185   1.627   2.722
 7284SOL     OW22750   0.255   2.896   6.289
 7284SOL    HW122751   0.208   2.937   6.211
 7284SOL    HW222752   0.304   2.813   6.260
 7285SOL     OW22753   5.109   3.291   2.617
 7285SOL    HW122754   5.079   3.384   2.640
 7285SOL    HW222755   5.058   3.258   2.538
 7286SOL     OW22756   2.830   0.744   0.150
 7286SOL    HW122757   2.877   0.830   0.131
 7286SOL    HW222758   2.778   0.753   0.236
 7287SOL     OW22759   0.199   2.451   5.891
 7287SOL    HW122760   0.134   2.515   5.932
 7287SOL    HW222761   0.201   2.366   5.944
 7288SOL     OW22762   3.057   0.433   0.364
 7288SOL    HW122763   2.972   0.381   0.369
 7288SOL    HW222764   3.060   0.484   0.278
 7289SOL     OW22765   4.994   2.596   4.649
 7289SOL    HW122766   5.010   2.517   4.590
 7289SOL    HW222767   5.021   2.680   4.602
 7290SOL     OW22768   3.539   0.202   5.712
 7290SOL    HW122769   3.592   0.274   5.757
 7290SOL    HW222770   3.497   0.238   5.629
 7291SOL     OW22771   1.938   6.579   0.939
 7291SOL    HW122772   1.933   6.506   0.871
 7291SOL    HW222773   1.888   6.551   1.021
 7292SOL     OW22774   3.511   0.740   3.166
 7292SOL    HW122775   3.569   0.808   3.122
 7292SOL    HW222776   3.471   0.780   3.249
 7293SOL     OW22777   1.309   2.079   5.177
 7293SOL    HW122778   1.233   2.090   5.241
 7293SOL    HW222779   1.357   1.994   5.197
 7294SOL     OW22780   2.535   4.610   0.089
 7294SOL    HW122781   2.449   4.606   0.140
 7294SOL    HW222782   2.609   4.574   0.145
 7295SOL     OW22783   0.821   2.607   0.725
 7295SOL    HW122784   0.881   2.574   0.798
 7295SOL    HW222785   0.853   2.696   0.692
 7296SOL     OW22786   3.070   5.189   1.593
 7296SOL    HW122787   3.104   5.131   1.518
 7296SOL    HW222788   3.039   5.132   1.668
 7297SOL     OW22789   3.778   6.276   1.830
 7297SOL    HW122790   3.785   6.268   1.730
 7297SOL    HW222791   3.820   6.197   1.873
 7298SOL     OW22792   4.599   4.843   4.882
 7298SOL    HW122793   4.577   4.747   4.866
 7298SOL    HW222794   4.693   4.860   4.854
 7299SOL     OW22795   0.948   1.875   0.514
 7299SOL    HW122796   0.957   1.906   0.608
 7299SOL    HW222797   1.012   1.800   0.496
 7300SOL     OW22798   6.452   5.667   2.994
 7300SOL    HW122799   6.539   5.715   2.984
 7300SOL    HW222800   6.445   5.596   2.925
 7301SOL     OW22801   5.875   1.119   4.975
 7301SOL    HW122802   5.808   1.055   5.012
 7301SOL    HW222803   5.859   1.210   5.013
 7302SOL     OW22804   0.765   1.934   5.447
 7302SOL    HW122805   0.801   1.897   5.532
 7302SOL    HW222806   0.838   1.938   5.378
 7303SOL     OW22807   3.970   0.564   0.231
 7303SOL    HW122808   3.877   0.543   0.263
 7303SOL    HW222809   4.029   0.485   0.243
 7304SOL     OW22810   4.092   4.795   0.750
 7304SOL    HW122811   4.167   4.746   0.706
 7304SOL    HW222812   4.008   4.741   0.743
 7305SOL     OW22813   4.767   1.196   0.657
 7305SOL    HW122814   4.730   1.147   0.736
 7305SOL    HW222815   4.692   1.234   0.603
 7306SOL     OW22816   5.003   2.261   1.871
 7306SOL    HW122817   4.933   2.213   1.924
 7306SOL    HW222818   4.968   2.351   1.844
 7307SOL     OW22819   2.185   0.018   2.186
 7307SOL    HW122820   2.212   0.032   2.281
 7307SOL    HW222821   2.089   7.017   2.182
 7308SOL     OW22822   6.967   3.341   5.934
 7308SOL    HW122823   7.007   3.282   5.864
 7308SOL    HW222824   6.904   3.289   5.991
 7309SOL     OW22825   5.006   5.786   1.343
 7309SOL    HW122826   5.061   5.708   1.313
 7309SOL    HW222827   5.039   5.818   1.431
 7310SOL     OW22828   2.423   4.244   1.510
 7310SOL    HW122829   2.440   4.215   1.605
 7310SOL    HW222830   2.338   4.202   1.479
 7311SOL     OW22831   3.218   2.088   1.790
 7311SOL    HW122832   3.118   2.092   1.796
 7311SOL    HW222833   3.251   2.167   1.738
 7312SOL     OW22834   0.491   3.612   4.794
 7312SOL    HW122835   0.483   3.551   4.715
 7312SOL    HW222836   0.420   3.590   4.861
 7313SOL     OW22837   2.583   1.504   6.249
 7313SOL    HW122838   2.531   1.438   6.195
 7313SOL    HW222839   2.524   1.543   6.320
 7314SOL     OW22840   7.006   5.689   6.168
 7314SOL    HW122841   6.949   5.751   6.223
 7314SOL    HW222842   6.959   5.667   6.083
 7315SOL     OW22843   6.482   0.407   2.658
 7315SOL    HW122844   6.398   0.357   2.677
 7315SOL    HW222845   6.461   0.490   2.607
 7316SOL     OW22846   3.118   3.574   6.591
 7316SOL    HW122847   3.148   3.504   6.525
 7316SOL    HW222848   3.018   3.584   6.585
 7317SOL     OW22849   5.073   1.098   2.688
 7317SOL    HW122850   5.077   1.124   2.784
 7317SOL    HW222851   5.094   1.177   2.631
 7318SOL     OW22852   1.806   0.652   1.301
 7318SOL    HW122853   1.718   0.682   1.265
 7318SOL    HW222854   1.855   0.731   1.339
 7319SOL     OW22855   6.702   4.512   6.496
 7319SOL    HW122856   6.678   4.431   6.441
 7319SOL    HW222857   6.801   4.519   6.504
 7320SOL     OW22858   6.361   3.311   2.200
 7320SOL    HW122859   6.394   3.335   2.108
 7320SOL    HW222860   6.408   3.368   2.267
 7321SOL     OW22861   2.460   0.500   5.390
 7321SOL    HW122862   2.436   0.502   5.487
 7321SOL    HW222863   2.525   0.573   5.371
 7322SOL     OW22864   6.684   2.863   2.997
 7322SOL    HW122865   6.601   2.887   3.047
 7322SOL    HW222866   6.685   2.911   2.909
 7323SOL     OW22867   1.994   2.085   2.119
 7323SOL    HW122868   2.006   2.011   2.053
 7323SOL    HW222869   1.926   2.149   2.085
 7324SOL     OW22870   4.554   6.352   2.257
 7324SOL    HW122871   4.571   6.296   2.338
 7324SOL    HW222872   4.639   6.393   2.226
 7325SOL     OW22873   3.329   6.750   0.520
 7325SOL    HW122874   3.360   6.666   0.475
 7325SOL    HW222875   3.263   6.727   0.592
 7326SOL     OW22876   3.222   5.780   5.481
 7326SOL    HW122877   3.289   5.783   5.555
 7326SOL    HW222878   3.158   5.856   5.491
 7327SOL     OW22879   6.272   1.684   6.463
 7327SOL    HW122880   6.308   1.738   6.387
 7327SOL    HW222881   6.172   1.689   6.462
 7328SOL     OW22882   3.469   0.525   6.585
 7328SOL    HW122883   3.521   0.611   6.592
 7328SOL    HW222884   3.500   0.462   6.656
 7329SOL     OW22885   5.869   3.964   1.275
 7329SOL    HW122886   5.929   3.923   1.207
 7329SOL    HW222887   5.921   3.984   1.358
 7330SOL     OW22888   2.572   2.078   0.027
 7330SOL    HW122889   2.545   1.986   0.054
 7330SOL    HW222890   2.600   2.078   6.956
 7331SOL     OW22891   5.527   6.863   1.996
 7331SOL    HW122892   5.501   6.903   2.083
 7331SOL    HW222893   5.545   6.766   2.007
 7332SOL     OW22894   2.239   6.209   0.262
 7332SOL    HW122895   2.244   6.230   0.165
 7332SOL    HW222896   2.323   6.237   0.308
 7333SOL     OW22897   0.548   2.176   2.556
 7333SOL    HW122898   0.544   2.118   2.636
 7333SOL    HW222899   0.612   2.137   2.489
 7334SOL     OW22900   3.115   5.826   6.291
 7334SOL    HW122901   3.091   5.729   6.293
 7334SOL    HW222902   3.188   5.841   6.224
 7335SOL     OW22903   1.538   2.520   3.173
 7335SOL    HW122904   1.623   2.516   3.119
 7335SOL    HW222905   1.517   2.615   3.195
 7336SOL     OW22906   1.248   6.990   3.229
 7336SOL    HW122907   1.310   6.943   3.292
 7336SOL    HW222908   1.189   0.027   3.281
 7337SOL     OW22909   0.022   3.303   2.035
 7337SOL    HW122910   0.001   3.290   2.133
 7337SOL    HW222911   0.120   3.297   2.021
 7338SOL     OW22912   6.475   2.284   1.240
 7338SOL    HW122913   6.417   2.317   1.315
 7338SOL    HW222914   6.431   2.206   1.196
 7339SOL     OW22915   6.003   6.796   3.635
 7339SOL    HW122916   6.023   6.793   3.733
 7339SOL    HW222917   5.904   6.791   3.621
 7340SOL     OW22918   2.308   0.975   0.910
 7340SOL    HW122919   2.358   0.934   0.986
 7340SOL    HW222920   2.236   1.034   0.946
 7341SOL     OW22921   6.764   3.037   6.652
 7341SOL    HW122922   6.721   3.125   6.632
 7341SOL    HW222923   6.858   3.053   6.684
 7342SOL     OW22924   0.421   1.412   1.590
 7342SOL    HW122925   0.337   1.385   1.543
 7342SOL    HW222926   0.423   1.511   1.603
 7343SOL     OW22927   5.524   3.761   0.339
 7343SOL    HW122928   5.616   3.800   0.340
 7343SOL    HW222929   5.502   3.724   0.430
 7344SOL     OW22930   0.819   1.298   6.658
 7344SOL    HW122931   0.733   1.278   6.610
 7344SOL    HW222932   0.858   1.213   6.693
 7345SOL     OW22933   4.571   4.235   5.826
 7345SOL    HW122934   4.581   4.291   5.744
 7345SOL    HW222935   4.638   4.264   5.894
 7346SOL     OW22936   3.990   5.739   2.203
 7346SOL    HW122937   4.030   5.786   2.281
 7346SOL    HW222938   4.015   5.642   2.206
 7347SOL     OW22939   0.869   1.990   0.754
 7347SOL    HW122940   0.823   2.007   0.841
 7347SOL    HW222941   0.941   2.059   0.740
 7348SOL     OW22942   1.100   4.176   3.445
 7348SOL    HW122943   1.068   4.104   3.384
 7348SOL    HW222944   1.156   4.241   3.393
 7349SOL     OW22945   4.299   0.439   1.855
 7349SOL    HW122946   4.220   0.398   1.809
 7349SOL    HW222947   4.383   0.402   1.818
 7350SOL     OW22948   2.783   2.378   5.445
 7350SOL    HW122949   2.749   2.432   5.367
 7350SOL    HW222950   2.873   2.413   5.472
 7351SOL     OW22951   5.824   5.451   4.235
 7351SOL    HW122952   5.879   5.449   4.152
 7351SOL    HW222953   5.812   5.546   4.264
 7352SOL     OW22954   1.889   1.753   2.700
 7352SOL    HW122955   1.828   1.776   2.776
 7352SOL    HW222956   1.983   1.750   2.733
 7353SOL     OW22957   0.109   0.363   6.513
 7353SOL    HW122958   0.034   0.405   6.462
 7353SOL    HW222959   0.193   0.414   6.495
 7354SOL     OW22960   1.094   2.080   4.591
 7354SOL    HW122961   1.139   2.079   4.680
 7354SOL    HW222962   1.036   1.999   4.582
 7355SOL     OW22963   1.515   1.018   0.772
 7355SOL    HW122964   1.458   0.974   0.842
 7355SOL    HW222965   1.547   1.107   0.806
 7356SOL     OW22966   4.250   3.428   6.380
 7356SOL    HW122967   4.257   3.368   6.460
 7356SOL    HW222968   4.195   3.384   6.310
 7357SOL     OW22969   3.302   6.170   2.072
 7357SOL    HW122970   3.398   6.139   2.074
 7357SOL    HW222971   3.292   6.242   2.004
 7358SOL     OW22972   6.479   2.926   2.374
 7358SOL    HW122973   6.407   2.895   2.437
 7358SOL    HW222974   6.504   3.020   2.396
 7359SOL     OW22975   4.467   2.108   5.559
 7359SOL    HW122976   4.528   2.159   5.619
 7359SOL    HW222977   4.480   2.010   5.575
 7360SOL     OW22978   3.162   3.048   5.486
 7360SOL    HW122979   3.104   3.129   5.495
 7360SOL    HW222980   3.244   3.060   5.543
 7361SOL     OW22981   5.079   0.702   3.015
 7361SOL    HW122982   5.173   0.718   3.045
 7361SOL    HW222983   5.046   0.616   3.056
 7362SOL     OW22984   1.322   5.871   6.227
 7362SOL    HW122985   1.411   5.833   6.201
 7362SOL    HW222986   1.253   5.842   6.162
 7363SOL     OW22987   4.545   1.866   1.002
 7363SOL    HW122988   4.608   1.904   1.071
 7363SOL    HW222989   4.460   1.918   1.003
 7364SOL     OW22990   4.154   0.839   2.253
 7364SOL    HW122991   4.210   0.912   2.212
 7364SOL    HW222992   4.087   0.807   2.186
 7365SOL     OW22993   0.896   6.398   1.793
 7365SOL    HW122994   0.882   6.457   1.872
 7365SOL    HW222995   0.984   6.421   1.749
 7366SOL     OW22996   2.118   6.773   5.741
 7366SOL    HW122997   2.127   6.760   5.642
 7366SOL    HW222998   2.026   6.805   5.762
 7367SOL     OW22999   4.724   2.684   0.937
 7367SOL    HW123000   4.649   2.644   0.884
 7367SOL    HW223001   4.737   2.779   0.910
 7368SOL     OW23002   3.840   2.963   2.593
 7368SOL    HW123003   3.812   2.982   2.499
 7368SOL    HW223004   3.906   3.032   2.622
 7369SOL     OW23005   2.865   1.768   1.086
 7369SOL    HW123006   2.820   1.809   1.006
 7369SOL    HW223007   2.935   1.703   1.054
 7370SOL     OW23008   1.929   1.504   5.827
 7370SOL    HW123009   1.839   1.531   5.791
 7370SOL    HW223010   1.927   1.508   5.927
 7371SOL     OW23011   2.533   6.661   3.081
 7371SOL    HW123012   2.464   6.719   3.126
 7371SOL    HW223013   2.519   6.566   3.107
 7372SOL     OW23014   4.263   6.691   4.340
 7372SOL    HW123015   4.288   6.757   4.412
 7372SOL    HW223016   4.177   6.720   4.297
 7373SOL     OW23017   6.226   1.604   4.288
 7373SOL    HW123018   6.312   1.576   4.330
 7373SOL    HW223019   6.186   1.678   4.342
 7374SOL     OW23020   2.659   2.078   5.048
 7374SOL    HW123021   2.577   2.023   5.029
 7374SOL    HW223022   2.632   2.174   5.060
 7375SOL     OW23023   2.136   2.644   1.929
 7375SOL    HW123024   2.164   2.738   1.950
 7375SOL    HW223025   2.128   2.592   2.015
 7376SOL     OW23026   1.580   1.667   1.232
 7376SOL    HW123027   1.664   1.664   1.286
 7376SOL    HW223028   1.501   1.651   1.292
 7377SOL     OW23029   5.149   5.014   0.456
 7377SOL    HW123030   5.199   4.929   0.439
 7377SOL    HW223031   5.127   5.057   0.368
 7378SOL     OW23032   1.158   0.624   4.833
 7378SOL    HW123033   1.174   0.708   4.780
 7378SOL    HW223034   1.232   0.559   4.814
 7379SOL     OW23035   3.627   1.183   2.384
 7379SOL    HW123036   3.717   1.141   2.395
 7379SOL    HW223037   3.634   1.281   2.399
 7380SOL     OW23038   0.481   4.683   3.992
 7380SOL    HW123039   0.534   4.767   3.977
 7380SOL    HW223040   0.523   4.608   3.941
 7381SOL     OW23041   4.454   3.137   0.683
 7381SOL    HW123042   4.415   3.205   0.745
 7381SOL    HW223043   4.383   3.108   0.618
 7382SOL     OW23044   6.917   1.186   4.884
 7382SOL    HW123045   6.861   1.128   4.826
 7382SOL    HW223046   6.990   1.229   4.830
 7383SOL     OW23047   2.942   6.215   1.322
 7383SOL    HW123048   2.920   6.150   1.395
 7383SOL    HW223049   2.857   6.252   1.284
 7384SOL     OW23050   6.967   6.425   3.220
 7384SOL    HW123051   6.942   6.404   3.125
 7384SOL    HW223052   6.932   6.516   3.244
 7385SOL     OW23053   2.808   5.459   2.417
 7385SOL    HW123054   2.799   5.556   2.437
 7385SOL    HW223055   2.902   5.430   2.435
 7386SOL     OW23056   6.779   2.669   6.783
 7386SOL    HW123057   6.686   2.707   6.778
 7386SOL    HW223058   6.784   2.587   6.726
 7387SOL     OW23059   6.710   5.256   5.278
 7387SOL    HW123060   6.702   5.163   5.241
 7387SOL    HW223061   6.673   5.258   5.371
 7388SOL     OW23062   1.275   4.827   2.439
 7388SOL    HW123063   1.206   4.896   2.417
 7388SOL    HW223064   1.230   4.740   2.458
 7389SOL     OW23065   6.521   3.865   6.267
 7389SOL    HW123066   6.500   3.930   6.194
 7389SOL    HW223067   6.547   3.777   6.227
 7390SOL     OW23068   2.531   2.103   2.000
 7390SOL    HW123069   2.551   2.194   2.037
 7390SOL    HW223070   2.491   2.046   2.071
 7391SOL     OW23071   3.913   3.460   3.101
 7391SOL    HW123072   3.836   3.446   3.163
 7391SOL    HW223073   3.926   3.378   3.045
 7392SOL     OW23074   3.226   6.352   6.775
 7392SOL    HW123075   3.231   6.309   6.865
 7392SOL    HW223076   3.213   6.451   6.786
 7393SOL     OW23077   6.058   4.687   3.167
 7393SOL    HW123078   6.150   4.662   3.195
 7393SOL    HW223079   6.006   4.717   3.248
 7394SOL     OW23080   1.289   3.050   5.653
 7394SOL    HW123081   1.346   3.091   5.724
 7394SOL    HW223082   1.283   2.951   5.669
 7395SOL     OW23083   1.734   3.709   1.191
 7395SOL    HW123084   1.649   3.669   1.154
 7395SOL    HW223085   1.747   3.800   1.152
 7396SOL     OW23086   2.081   6.763   1.218
 7396SOL    HW123087   2.017   6.729   1.150
 7396SOL    HW223088   2.083   6.863   1.216
 7397SOL     OW23089   4.737   5.289   4.441
 7397SOL    HW123090   4.749   5.207   4.497
 7397SOL    HW223091   4.645   5.289   4.401
 7398SOL     OW23092   1.006   5.106   3.170
 7398SOL    HW123093   0.998   5.022   3.224
 7398SOL    HW223094   1.005   5.185   3.231
 7399SOL     OW23095   0.297   2.599   3.856
 7399SOL    HW123096   0.219   2.536   3.859
 7399SOL    HW223097   0.298   2.654   3.939
 7400SOL     OW23098   4.292   2.750   6.219
 7400SOL    HW123099   4.351   2.802   6.281
 7400SOL    HW223100   4.323   2.763   6.124
 7401SOL     OW23101   1.045   3.430   3.135
 7401SOL    HW123102   1.049   3.529   3.143
 7401SOL    HW223103   1.114   3.389   3.195
 7402SOL     OW23104   3.454   4.123   6.158
 7402SOL    HW123105   3.455   4.023   6.162
 7402SOL    HW223106   3.448   4.160   6.251
 7403SOL     OW23107   1.704   4.136   2.462
 7403SOL    HW123108   1.613   4.164   2.494
 7403SOL    HW223109   1.761   4.217   2.448
 7404SOL     OW23110   2.762   4.829   1.820
 7404SOL    HW123111   2.749   4.900   1.890
 7404SOL    HW223112   2.796   4.746   1.863
 7405SOL     OW23113   3.658   4.936   4.321
 7405SOL    HW123114   3.632   4.899   4.231
 7405SOL    HW223115   3.580   4.932   4.383
 7406SOL     OW23116   0.941   1.679   4.447
 7406SOL    HW123117   0.983   1.599   4.489
 7406SOL    HW223118   0.954   1.675   4.348
 7407SOL     OW23119   1.414   6.848   5.239
 7407SOL    HW123120   1.467   6.916   5.189
 7407SOL    HW223121   1.405   6.766   5.183
 7408SOL     OW23122   3.997   3.962   5.982
 7408SOL    HW123123   3.947   3.897   5.926
 7408SOL    HW223124   3.933   4.017   6.035
 7409SOL     OW23125   5.550   3.505   0.155
 7409SOL    HW123126   5.580   3.577   0.219
 7409SOL    HW223127   5.541   3.419   0.205
 7410SOL     OW23128   0.854   0.934   0.377
 7410SOL    HW123129   0.797   0.986   0.314
 7410SOL    HW223130   0.928   0.889   0.326
 7411SOL     OW23131   2.049   1.049   6.869
 7411SOL    HW123132   1.981   1.039   6.942
 7411SOL    HW223133   2.141   1.052   6.910
 7412SOL     OW23134   4.529   6.747   1.224
 7412SOL    HW123135   4.619   6.752   1.268
 7412SOL    HW223136   4.507   6.835   1.183
 7413SOL     OW23137   4.260   5.001   3.739
 7413SOL    HW123138   4.347   5.019   3.693
 7413SOL    HW223139   4.203   4.944   3.681
 7414SOL     OW23140   1.882   0.862   3.109
 7414SOL    HW123141   1.801   0.805   3.119
 7414SOL    HW223142   1.959   0.819   3.156
 7415SOL     OW23143   2.055   4.546   4.971
 7415SOL    HW123144   2.144   4.525   4.932
 7415SOL    HW223145   2.057   4.528   5.070
 7416SOL     OW23146   2.210   0.288   2.079
 7416SOL    HW123147   2.152   0.369   2.078
 7416SOL    HW223148   2.252   0.278   2.169
 7417SOL     OW23149   2.192   1.995   1.539
 7417SOL    HW123150   2.234   2.082   1.511
 7417SOL    HW223151   2.145   2.007   1.626
 7418SOL     OW23152   1.831   5.466   6.691
 7418SOL    HW123153   1.870   5.374   6.678
 7418SOL    HW223154   1.801   5.502   6.602
 7419SOL     OW23155   6.721   4.082   4.194
 7419SOL    HW123156   6.752   4.177   4.193
 7419SOL    HW223157   6.698   4.053   4.101
 7420SOL     OW23158   0.368   6.374   0.904
 7420SOL    HW123159   0.337   6.419   0.988
 7420SOL    HW223160   0.388   6.442   0.834
 7421SOL     OW23161   4.242   3.678   1.093
 7421SOL    HW123162   4.310   3.747   1.067
 7421SOL    HW223163   4.169   3.676   1.024
 7422SOL     OW23164   0.166   4.383   2.001
 7422SOL    HW123165   0.074   4.348   1.986
 7422SOL    HW223166   0.181   4.397   2.098
 7423SOL     OW23167   6.187   2.459   5.509
 7423SOL    HW123168   6.183   2.510   5.595
 7423SOL    HW223169   6.096   2.429   5.483
 7424SOL     OW23170   6.777   1.837   5.544
 7424SOL    HW123171   6.766   1.738   5.533
 7424SOL    HW223172   6.845   1.870   5.480
 7425SOL     OW23173   5.049   0.085   0.385
 7425SOL    HW123174   5.112   0.135   0.325
 7425SOL    HW223175   5.102   0.032   0.452
 7426SOL     OW23176   3.400   1.479   5.266
 7426SOL    HW123177   3.336   1.537   5.318
 7426SOL    HW223178   3.348   1.411   5.214
 7427SOL     OW23179   4.753   0.787   4.292
 7427SOL    HW123180   4.798   0.812   4.377
 7427SOL    HW223181   4.753   0.865   4.230
 7428SOL     OW23182   4.127   0.258   5.448
 7428SOL    HW123183   4.191   0.189   5.483
 7428SOL    HW223184   4.102   0.235   5.354
 7429SOL     OW23185   0.720   6.520   3.419
 7429SOL    HW123186   0.709   6.547   3.515
 7429SOL    HW223187   0.752   6.426   3.415
 7430SOL     OW23188   0.091   3.278   1.065
 7430SOL    HW123189   0.148   3.236   0.994
 7430SOL    HW223190   0.057   3.366   1.033
 7431SOL     OW23191   0.730   2.484   2.801
 7431SOL    HW123192   0.665   2.492   2.725
 7431SOL    HW223193   0.799   2.415   2.779
 7432SOL     OW23194   1.799   0.447   3.439
 7432SOL    HW123195   1.800   0.370   3.502
 7432SOL    HW223196   1.788   0.413   3.345
 7433SOL     OW23197   3.999   6.124   6.425
 7433SOL    HW123198   4.091   6.141   6.462
 7433SOL    HW223199   3.941   6.203   6.443
 7434SOL     OW23200   5.173   5.112   5.588
 7434SOL    HW123201   5.264   5.147   5.611
 7434SOL    HW223202   5.178   5.061   5.502
 7435SOL     OW23203   4.628   0.159   1.405
 7435SOL    HW123204   4.705   0.096   1.394
 7435SOL    HW223205   4.638   0.236   1.342
 7436SOL     OW23206   4.556   4.282   6.447
 7436SOL    HW123207   4.532   4.329   6.363
 7436SOL    HW223208   4.642   4.232   6.434
 7437SOL     OW23209   3.022   5.629   0.362
 7437SOL    HW123210   3.091   5.651   0.294
 7437SOL    HW223211   3.038   5.538   0.399
 7438SOL     OW23212   1.225   0.098   0.287
 7438SOL    HW123213   1.161   0.041   0.235
 7438SOL    HW223214   1.259   0.047   0.366
 7439SOL     OW23215   1.834   6.234   5.633
 7439SOL    HW123216   1.906   6.171   5.664
 7439SOL    HW223217   1.877   6.314   5.590
 7440SOL     OW23218   6.685   2.811   4.094
 7440SOL    HW123219   6.735   2.844   4.014
 7440SOL    HW223220   6.671   2.886   4.158
 7441SOL     OW23221   5.588   0.186   4.698
 7441SOL    HW123222   5.595   0.242   4.615
 7441SOL    HW223223   5.567   0.245   4.776
 7442SOL     OW23224   6.199   1.280   0.504
 7442SOL    HW123225   6.256   1.273   0.586
 7442SOL    HW223226   6.110   1.318   0.528
 7443SOL     OW23227   5.908   5.176   1.755
 7443SOL    HW123228   5.842   5.107   1.730
 7443SOL    HW223229   5.877   5.224   1.838
 7444SOL     OW23230   5.481   0.916   0.163
 7444SOL    HW123231   5.541   0.870   0.098
 7444SOL    HW223232   5.505   0.889   0.256
 7445SOL     OW23233   3.207   0.874   1.218
 7445SOL    HW123234   3.216   0.851   1.315
 7445SOL    HW223235   3.181   0.970   1.209
 7446SOL     OW23236   5.334   1.971   0.473
 7446SOL    HW123237   5.371   2.000   0.562
 7446SOL    HW223238   5.277   2.044   0.436
 7447SOL     OW23239   6.558   5.076   6.863
 7447SOL    HW123240   6.644   5.030   6.838
 7447SOL    HW223241   6.498   5.078   6.783
 7448SOL     OW23242   5.968   6.792   4.707
 7448SOL    HW123243   5.995   6.805   4.612
 7448SOL    HW223244   5.973   6.695   4.731
 7449SOL     OW23245   0.760   5.362   1.112
 7449SOL    HW123246   0.789   5.458   1.117
 7449SOL    HW223247   0.840   5.303   1.118
 7450SOL     OW23248   5.633   2.739   5.257
 7450SOL    HW123249   5.605   2.672   5.189
 7450SOL    HW223250   5.710   2.703   5.310
 7451SOL     OW23251   6.396   6.133   2.207
 7451SOL    HW123252   6.358   6.043   2.184
 7451SOL    HW223253   6.332   6.205   2.180
 7452SOL     OW23254   5.653   5.701   4.375
 7452SOL    HW123255   5.570   5.747   4.342
 7452SOL    HW223256   5.633   5.654   4.462
 7453SOL     OW23257   4.485   5.081   4.811
 7453SOL    HW123258   4.436   5.087   4.724
 7453SOL    HW223259   4.520   4.988   4.823
 7454SOL     OW23260   2.676   1.820   0.850
 7454SOL    HW123261   2.724   1.885   0.790
 7454SOL    HW223262   2.618   1.760   0.794
 7455SOL     OW23263   6.929   2.957   1.972
 7455SOL    HW123264   6.893   2.916   2.055
 7455SOL    HW223265   6.901   3.053   1.967
 7456SOL     OW23266   1.911   1.407   4.773
 7456SOL    HW123267   2.008   1.414   4.794
 7456SOL    HW223268   1.899   1.358   4.687
 7457SOL     OW23269   3.276   0.250   4.888
 7457SOL    HW123270   3.374   0.259   4.875
 7457SOL    HW223271   3.229   0.258   4.800
 7458SOL     OW23272   1.596   0.410   5.938
 7458SOL    HW123273   1.674   0.449   5.988
 7458SOL    HW223274   1.515   0.410   5.997
 7459SOL     OW23275   5.859   1.523   2.878
 7459SOL    HW123276   5.760   1.536   2.875
 7459SOL    HW223277   5.904   1.599   2.831
 7460SOL     OW23278   0.991   5.708   0.118
 7460SOL    HW123279   1.003   5.619   0.074
 7460SOL    HW223280   1.063   5.722   0.186
 7461SOL     OW23281   6.075   6.629   6.298
 7461SOL    HW123282   6.090   6.690   6.375
 7461SOL    HW223283   6.044   6.540   6.332
 7462SOL     OW23284   1.909   4.483   2.060
 7462SOL    HW123285   1.994   4.517   2.101
 7462SOL    HW223286   1.931   4.433   1.976
 7463SOL     OW23287   2.917   4.049   0.249
 7463SOL    HW123288   2.980   4.069   0.174
 7463SOL    HW223289   2.826   4.032   0.212
 7464SOL     OW23290   5.476   6.830   5.638
 7464SOL    HW123291   5.489   6.864   5.545
 7464SOL    HW223292   5.487   6.731   5.640
 7465SOL     OW23293   2.535   4.860   6.740
 7465SOL    HW123294   2.549   4.874   6.642
 7465SOL    HW223295   2.481   4.935   6.776
 7466SOL     OW23296   6.941   0.714   5.645
 7466SOL    HW123297   0.005   0.749   5.617
 7466SOL    HW223298   6.888   0.689   5.564
 7467SOL     OW23299   0.415   2.587   5.766
 7467SOL    HW123300   0.479   2.511   5.752
 7467SOL    HW223301   0.332   2.553   5.811
 7468SOL     OW23302   5.285   3.007   4.512
 7468SOL    HW123303   5.274   3.106   4.502
 7468SOL    HW223304   5.346   2.988   4.589
 7469SOL     OW23305   6.776   1.185   0.154
 7469SOL    HW123306   6.871   1.186   0.185
 7469SOL    HW223307   6.729   1.106   0.194
 7470SOL     OW23308   5.304   3.995   3.495
 7470SOL    HW123309   5.240   4.003   3.419
 7470SOL    HW223310   5.386   3.945   3.465
 7471SOL     OW23311   5.282   6.485   6.280
 7471SOL    HW123312   5.246   6.577   6.264
 7471SOL    HW223313   5.335   6.455   6.200
 7472SOL     OW23314   6.599   1.138   5.491
 7472SOL    HW123315   6.676   1.100   5.543
 7472SOL    HW223316   6.513   1.100   5.526
 7473SOL     OW23317   5.005   5.836   3.804
 7473SOL    HW123318   4.970   5.805   3.892
 7473SOL    HW223319   4.935   5.824   3.734
 7474SOL     OW23320   6.377   1.809   6.688
 7474SOL    HW123321   6.314   1.762   6.627
 7474SOL    HW223322   6.386   1.905   6.660
 7475SOL     OW23323   4.364   2.429   1.976
 7475SOL    HW123324   4.360   2.490   1.897
 7475SOL    HW223325   4.293   2.360   1.968
 7476SOL     OW23326   2.434   1.614   2.922
 7476SOL    HW123327   2.337   1.594   2.906
 7476SOL    HW223328   2.484   1.607   2.836
 7477SOL     OW23329   6.910   2.644   4.827
 7477SOL    HW123330   6.853   2.594   4.762
 7477SOL    HW223331   7.001   2.603   4.830
 7478SOL     OW23332   6.272   3.856   5.320
 7478SOL    HW123333   6.206   3.789   5.285
 7478SOL    HW223334   6.334   3.811   5.384
 7479SOL     OW23335   4.857   2.637   2.026
 7479SOL    HW123336   4.767   2.594   2.038
 7479SOL    HW223337   4.859   2.724   2.075
 7480SOL     OW23338   1.867   4.451   2.437
 7480SOL    HW123339   1.812   4.525   2.397
 7480SOL    HW223340   1.897   4.389   2.365
 7481SOL     OW23341   6.204   4.863   0.379
 7481SOL    HW123342   6.253   4.792   0.328
 7481SOL    HW223343   6.158   4.925   0.316
 7482SOL     OW23344   4.633   2.419   2.541
 7482SOL    HW123345   4.702   2.426   2.612
 7482SOL    HW223346   4.676   2.389   2.456
 7483SOL     OW23347   5.362   3.300   4.835
 7483SOL    HW123348   5.300   3.375   4.813
 7483SOL    HW223349   5.310   3.215   4.846
 7484SOL     OW23350   2.225   5.646   4.419
 7484SOL    HW123351   2.206   5.713   4.348
 7484SOL    HW223352   2.197   5.682   4.508
 7485SOL     OW23353   2.785   0.481   4.599
 7485SOL    HW123354   2.712   0.527   4.649
 7485SOL    HW223355   2.782   0.383   4.619
 7486SOL     OW23356   1.057   6.008   0.022
 7486SOL    HW123357   1.039   5.921   7.002
 7486SOL    HW223358   1.003   6.080   7.003
 7487SOL     OW23359   2.984   0.444   3.555
 7487SOL    HW123360   3.007   0.433   3.458
 7487SOL    HW223361   3.064   0.423   3.611
 7488SOL     OW23362   1.775   6.139   4.796
 7488SOL    HW123363   1.733   6.095   4.876
 7488SOL    HW223364   1.860   6.092   4.773
 7489SOL     OW23365   6.164   3.051   6.987
 7489SOL    HW123366   6.109   3.018   6.911
 7489SOL    HW223367   6.145   3.148   7.002
 7490SOL     OW23368   1.386   0.371   3.688
 7490SOL    HW123369   1.472   0.403   3.728
 7490SOL    HW223370   1.395   0.368   3.589
 7491SOL     OW23371   4.330   3.039   6.700
 7491SOL    HW123372   4.306   2.961   6.641
 7491SOL    HW223373   4.304   3.020   6.794
 7492SOL     OW23374   2.244   0.735   4.090
 7492SOL    HW123375   2.154   0.744   4.133
 7492SOL    HW223376   2.242   0.778   4.000
 7493SOL     OW23377   6.127   2.835   5.781
 7493SOL    HW123378   6.153   2.742   5.757
 7493SOL    HW223379   6.152   2.898   5.707
 7494SOL     OW23380   5.715   1.855   3.649
 7494SOL    HW123381   5.645   1.784   3.652
 7494SOL    HW223382   5.778   1.844   3.726
 7495SOL     OW23383   1.013   3.154   5.677
 7495SOL    HW123384   1.105   3.117   5.666
 7495SOL    HW223385   0.953   3.083   5.716
 7496SOL     OW23386   5.737   3.715   4.321
 7496SOL    HW123387   5.644   3.697   4.290
 7496SOL    HW223388   5.787   3.763   4.249
 7497SOL     OW23389   1.648   5.064   1.198
 7497SOL    HW123390   1.568   5.115   1.232
 7497SOL    HW223391   1.704   5.125   1.143
 7498SOL     OW23392   3.127   1.003   4.317
 7498SOL    HW123393   3.224   1.019   4.335
 7498SOL    HW223394   3.089   1.080   4.266
 7499SOL     OW23395   4.202   2.151   3.298
 7499SOL    HW123396   4.299   2.127   3.302
 7499SOL    HW223397   4.180   2.186   3.207
 7500SOL     OW23398   3.364   6.108   2.945
 7500SOL    HW123399   3.326   6.075   2.859
 7500SOL    HW223400   3.353   6.038   3.016
 7501SOL     OW23401   5.263   4.586   3.764
 7501SOL    HW123402   5.281   4.655   3.834
 7501SOL    HW223403   5.337   4.588   3.697
 7502SOL     OW23404   2.846   6.891   4.545
 7502SOL    HW123405   2.786   6.869   4.622
 7502SOL    HW223406   2.799   6.873   4.459
 7503SOL     OW23407   2.614   6.441   1.227
 7503SOL    HW123408   2.647   6.361   1.178
 7503SOL    HW223409   2.691   6.490   1.268
 7504SOL     OW23410   0.138   6.280   3.114
 7504SOL    HW123411   0.109   6.302   3.021
 7504SOL    HW223412   0.060   6.285   3.176
 7505SOL     OW23413   1.200   2.237   6.126
 7505SOL    HW123414   1.182   2.140   6.142
 7505SOL    HW223415   1.189   2.288   6.211
 7506SOL     OW23416   4.929   2.426   3.979
 7506SOL    HW123417   4.857   2.476   4.026
 7506SOL    HW223418   4.891   2.343   3.939
 7507SOL     OW23419   6.115   2.546   2.956
 7507SOL    HW123420   6.199   2.532   3.008
 7507SOL    HW223421   6.064   2.460   2.951
 7508SOL     OW23422   2.419   4.805   0.540
 7508SOL    HW123423   2.328   4.845   0.552
 7508SOL    HW223424   2.465   4.848   0.462
 7509SOL     OW23425   6.158   3.420   0.434
 7509SOL    HW123426   6.177   3.332   0.476
 7509SOL    HW223427   6.208   3.428   0.348
 7510SOL     OW23428   3.975   3.738   4.634
 7510SOL    HW123429   3.936   3.696   4.552
 7510SOL    HW223430   4.058   3.689   4.660
 7511SOL     OW23431   2.812   6.087   3.009
 7511SOL    HW123432   2.822   6.100   3.107
 7511SOL    HW223433   2.893   6.124   2.963
 7512SOL     OW23434   2.522   0.981   6.991
 7512SOL    HW123435   2.537   0.921   0.045
 7512SOL    HW223436   2.432   1.024   6.999
 7513SOL     OW23437   1.436   1.608   2.573
 7513SOL    HW123438   1.533   1.585   2.566
 7513SOL    HW223439   1.426   1.688   2.632
 7514SOL     OW23440   2.463   5.070   3.065
 7514SOL    HW123441   2.380   5.032   3.106
 7514SOL    HW223442   2.448   5.083   2.967
 7515SOL     OW23443   6.830   4.937   4.947
 7515SOL    HW123444   6.805   4.978   4.859
 7515SOL    HW223445   6.912   4.881   4.936
 7516SOL     OW23446   0.918   5.064   5.877
 7516SOL    HW123447   0.899   4.973   5.913
 7516SOL    HW223448   0.924   5.129   5.952
 7517SOL     OW23449   0.723   2.203   0.017
 7517SOL    HW123450   0.672   2.289   0.014
 7517SOL    HW223451   0.663   2.130   0.051
 7518SOL     OW23452   5.300   3.591   3.671
 7518SOL    HW123453   5.341   3.505   3.639
 7518SOL    HW223454   5.229   3.571   3.738
 7519SOL     OW23455   6.665   6.748   4.573
 7519SOL    HW123456   6.588   6.747   4.637
 7519SOL    HW223457   6.639   6.798   4.491
 7520SOL     OW23458   1.733   0.564   2.357
 7520SOL    HW123459   1.647   0.514   2.359
 7520SOL    HW223460   1.719   0.656   2.393
 7521SOL     OW23461   5.768   2.937   4.708
 7521SOL    HW123462   5.850   2.892   4.743
 7521SOL    HW223463   5.794   2.999   4.634
 7522SOL     OW23464   1.475   0.383   5.561
 7522SOL    HW123465   1.430   0.395   5.650
 7522SOL    HW223466   1.566   0.344   5.575
 7523SOL     OW23467   5.036   0.640   6.506
 7523SOL    HW123468   5.088   0.683   6.432
 7523SOL    HW223469   5.081   0.554   6.531
 7524SOL     OW23470   0.222   2.993   4.722
 7524SOL    HW123471   0.132   2.954   4.743
 7524SOL    HW223472   0.253   3.047   4.800
 7525SOL     OW23473   4.412   6.955   6.942
 7525SOL    HW123474   4.362   6.926   6.861
 7525SOL    HW223475   4.369   0.012   6.981
 7526SOL     OW23476   2.720   2.831   1.426
 7526SOL    HW123477   2.708   2.734   1.446
 7526SOL    HW223478   2.630   2.874   1.414
 7527SOL     OW23479   3.444   5.935   3.776
 7527SOL    HW123480   3.521   5.922   3.713
 7527SOL    HW223481   3.400   5.847   3.793
 7528SOL     OW23482   6.008   2.313   0.055
 7528SOL    HW123483   6.093   2.352   0.020
 7528SOL    HW223484   5.957   2.271   7.004
 7529SOL     OW23485   5.384   1.825   4.404
 7529SOL    HW123486   5.474   1.782   4.399
 7529SOL    HW223487   5.394   1.924   4.414
 7530SOL     OW23488   5.765   2.611   2.052
 7530SOL    HW123489   5.733   2.523   2.018
 7530SOL    HW223490   5.759   2.679   1.978
 7531SOL     OW23491   5.340   3.213   3.881
 7531SOL    HW123492   5.252   3.177   3.850
 7531SOL    HW223493   5.325   3.286   3.947
 7532SOL     OW23494   4.578   6.295   0.247
 7532SOL    HW123495   4.647   6.361   0.276
 7532SOL    HW223496   4.552   6.238   0.326
 7533SOL     OW23497   3.735   2.010   1.812
 7533SOL    HW123498   3.728   2.074   1.888
 7533SOL    HW223499   3.646   2.004   1.765
 7534SOL     OW23500   4.992   5.581   4.251
 7534SOL    HW123501   5.041   5.613   4.332
 7534SOL    HW223502   5.000   5.482   4.243
 7535SOL     OW23503   1.723   6.847   5.133
 7535SOL    HW123504   1.784   6.849   5.212
 7535SOL    HW223505   1.712   6.752   5.102
 7536SOL     OW23506   4.803   5.800   3.620
 7536SOL    HW123507   4.836   5.723   3.565
 7536SOL    HW223508   4.783   5.877   3.560
 7537SOL     OW23509   2.089   4.521   2.701
 7537SOL    HW123510   2.176   4.546   2.660
 7537SOL    HW223511   2.038   4.461   2.639
 7538SOL     OW23512   2.081   2.763   1.351
 7538SOL    HW123513   2.072   2.858   1.380
 7538SOL    HW223514   2.082   2.703   1.431
 7539SOL     OW23515   1.340   4.425   3.268
 7539SOL    HW123516   1.438   4.419   3.249
 7539SOL    HW223517   1.326   4.454   3.363
 7540SOL     OW23518   4.245   6.302   4.759
 7540SOL    HW123519   4.229   6.381   4.699
 7540SOL    HW223520   4.260   6.221   4.703
 7541SOL     OW23521   0.870   4.233   5.906
 7541SOL    HW123522   0.778   4.195   5.892
 7541SOL    HW223523   0.904   4.207   5.996
 7542SOL     OW23524   6.591   6.008   6.808
 7542SOL    HW123525   6.604   6.002   6.907
 7542SOL    HW223526   6.563   6.101   6.783
 7543SOL     OW23527   3.277   0.987   5.082
 7543SOL    HW123528   3.224   1.059   5.128
 7543SOL    HW223529   3.243   0.898   5.110
 7544SOL     OW23530   6.798   2.707   4.391
 7544SOL    HW123531   6.734   2.691   4.316
 7544SOL    HW223532   6.795   2.803   4.416
 7545SOL     OW23533   0.657   6.546   6.245
 7545SOL    HW123534   0.569   6.517   6.207
 7545SOL    HW223535   0.647   6.564   6.343
 7546SOL     OW23536   4.635   2.382   1.772
 7546SOL    HW123537   4.718   2.418   1.729
 7546SOL    HW223538   4.638   2.282   1.771
 7547SOL     OW23539   5.045   0.870   1.213
 7547SOL    HW123540   5.055   0.920   1.299
 7547SOL    HW223541   5.065   0.931   1.137
 7548SOL     OW23542   4.672   2.558   6.620
 7548SOL    HW123543   4.708   2.539   6.528
 7548SOL    HW223544   4.648   2.472   6.664
 7549SOL     OW23545   3.823   3.090   6.345
 7549SOL    HW123546   3.781   3.004   6.374
 7549SOL    HW223547   3.771   3.167   6.382
 7550SOL     OW23548   1.819   4.705   3.297
 7550SOL    HW123549   1.808   4.688   3.395
 7550SOL    HW223550   1.902   4.660   3.265
 7551SOL     OW23551   5.895   3.038   5.681
 7551SOL    HW123552   5.869   2.949   5.719
 7551SOL    HW223553   5.936   3.094   5.753
 7552SOL     OW23554   1.661   5.873   4.343
 7552SOL    HW123555   1.601   5.797   4.323
 7552SOL    HW223556   1.614   5.959   4.324
 7553SOL     OW23557   4.929   6.779   5.761
 7553SOL    HW123558   4.841   6.764   5.716
 7553SOL    HW223559   4.993   6.820   5.695
 7554SOL     OW23560   4.607   0.869   0.066
 7554SOL    HW123561   4.671   0.860   0.142
 7554SOL    HW223562   4.646   0.826   7.009
 7555SOL     OW23563   3.299   5.999   6.629
 7555SOL    HW123564   3.211   6.009   6.583
 7555SOL    HW223565   3.327   5.903   6.626
 7556SOL     OW23566   2.373   1.438   0.098
 7556SOL    HW123567   2.409   1.409   0.186
 7556SOL    HW223568   2.442   1.492   0.050
 7557SOL     OW23569   4.767   0.233   6.600
 7557SOL    HW123570   4.798   0.328   6.591
 7557SOL    HW223571   4.777   0.186   6.512
 7558SOL     OW23572   2.187   3.133   3.809
 7558SOL    HW123573   2.107   3.079   3.785
 7558SOL    HW223574   2.265   3.105   3.753
 7559SOL     OW23575   4.261   2.387   5.966
 7559SOL    HW123576   4.254   2.316   5.896
 7559SOL    HW223577   4.356   2.417   5.974
 7560SOL     OW23578   5.935   7.015   0.388
 7560SOL    HW123579   5.985   0.062   0.339
 7560SOL    HW223580   5.965   7.013   0.483
 7561SOL     OW23581   6.451   3.207   5.831
 7561SOL    HW123582   6.511   3.284   5.851
 7561SOL    HW223583   6.416   3.214   5.737
 7562SOL     OW23584   0.969   5.007   5.292
 7562SOL    HW123585   0.948   5.062   5.211
 7562SOL    HW223586   0.893   4.945   5.310
 7563SOL     OW23587   2.524   5.945   2.050
 7563SOL    HW123588   2.528   6.044   2.068
 7563SOL    HW223589   2.613   5.915   2.016
 7564SOL     OW23590   3.910   0.066   4.443
 7564SOL    HW123591   3.919   0.143   4.380
 7564SOL    HW223592   3.818   0.028   4.435
 7565SOL     OW23593   5.307   3.983   5.762
 7565SOL    HW123594   5.361   4.007   5.843
 7565SOL    HW223595   5.299   4.064   5.703
 7566SOL     OW23596   5.700   5.276   2.267
 7566SOL    HW123597   5.713   5.349   2.334
 7566SOL    HW223598   5.603   5.270   2.242
 7567SOL     OW23599   0.780   0.949   5.905
 7567SOL    HW123600   0.852   1.017   5.890
 7567SOL    HW223601   0.822   0.859   5.919
 7568SOL     OW23602   5.479   4.858   2.094
 7568SOL    HW123603   5.435   4.867   2.004
 7568SOL    HW223604   5.498   4.762   2.113
 7569SOL     OW23605   3.770   4.543   6.450
 7569SOL    HW123606   3.729   4.558   6.540
 7569SOL    HW223607   3.854   4.490   6.460
 7570SOL     OW23608   6.009   4.020   3.942
 7570SOL    HW123609   6.094   4.066   3.970
 7570SOL    HW223610   5.962   4.077   3.874
 7571SOL     OW23611   5.256   3.620   3.296
 7571SOL    HW123612   5.239   3.586   3.389
 7571SOL    HW223613   5.250   3.545   3.231
 7572SOL     OW23614   5.309   0.735   3.209
 7572SOL    HW123615   5.405   0.741   3.236
 7572SOL    HW223616   5.259   0.813   3.248
 7573SOL     OW23617   6.373   0.204   5.570
 7573SOL    HW123618   6.412   0.295   5.585
 7573SOL    HW223619   6.410   0.141   5.638
 7574SOL     OW23620   5.754   1.143   4.224
 7574SOL    HW123621   5.811   1.124   4.305
 7574SOL    HW223622   5.714   1.234   4.232
 7575SOL     OW23623   5.944   6.725   0.413
 7575SOL    HW123624   5.926   6.822   0.394
 7575SOL    HW223625   5.994   6.685   0.337
 7576SOL     OW23626   5.137   2.177   0.486
 7576SOL    HW123627   5.157   2.151   0.581
 7576SOL    HW223628   5.039   2.195   0.476
 7577SOL     OW23629   0.628   6.029   0.495
 7577SOL    HW123630   0.580   6.001   0.411
 7577SOL    HW223631   0.723   5.999   0.490
 7578SOL     OW23632   1.672   5.361   2.608
 7578SOL    HW123633   1.703   5.432   2.545
 7578SOL    HW223634   1.634   5.284   2.556
 7579SOL     OW23635   0.117   1.614   1.487
 7579SOL    HW123636   0.028   1.647   1.519
 7579SOL    HW223637   0.189   1.653   1.544
 7580SOL     OW23638   0.921   4.509   3.131
 7580SOL    HW123639   0.852   4.516   3.203
 7580SOL    HW223640   0.973   4.594   3.125
 7581SOL     OW23641   0.678   1.334   1.474
 7581SOL    HW123642   0.604   1.377   1.525
 7581SOL    HW223643   0.643   1.301   1.386
 7582SOL     OW23644   4.077   1.718   4.201
 7582SOL    HW123645   3.978   1.704   4.209
 7582SOL    HW223646   4.113   1.662   4.127
 7583SOL     OW23647   5.457   3.307   2.334
 7583SOL    HW123648   5.359   3.295   2.317
 7583SOL    HW223649   5.501   3.217   2.342
 7584SOL     OW23650   1.551   0.331   3.007
 7584SOL    HW123651   1.516   0.409   2.954
 7584SOL    HW223652   1.556   0.251   2.948
 7585SOL     OW23653   1.127   1.965   6.217
 7585SOL    HW123654   1.169   1.923   6.137
 7585SOL    HW223655   1.166   1.925   6.300
 7586SOL     OW23656   1.864   6.750   3.068
 7586SOL    HW123657   1.835   6.655   3.060
 7586SOL    HW223658   1.936   6.770   3.002
 7587SOL     OW23659   2.535   1.635   6.743
 7587SOL    HW123660   2.532   1.543   6.705
 7587SOL    HW223661   2.617   1.682   6.710
 7588SOL     OW23662   1.776   2.590   3.636
 7588SOL    HW123663   1.827   2.565   3.719
 7588SOL    HW223664   1.834   2.579   3.556
 7589SOL     OW23665   6.939   1.099   2.678
 7589SOL    HW123666   6.971   1.193   2.670
 7589SOL    HW223667   7.008   1.043   2.724
 7590SOL     OW23668   5.534   0.786   0.428
 7590SOL    HW123669   5.435   0.790   0.418
 7590SOL    HW223670   5.558   0.787   0.525
 7591SOL     OW23671   5.564   3.976   6.643
 7591SOL    HW123672   5.634   4.019   6.700
 7591SOL    HW223673   5.548   3.883   6.676
 7592SOL     OW23674   6.124   4.966   5.032
 7592SOL    HW123675   6.209   4.952   4.980
 7592SOL    HW223676   6.056   5.008   4.973
 7593SOL     OW23677   6.939   3.089   6.993
 7593SOL    HW123678   6.881   3.171   6.984
 7593SOL    HW223679   6.949   3.066   0.065
 7594SOL     OW23680   1.157   4.802   1.366
 7594SOL    HW123681   1.152   4.782   1.269
 7594SOL    HW223682   1.249   4.836   1.388
 7595SOL     OW23683   6.315   2.854   6.401
 7595SOL    HW123684   6.346   2.939   6.359
 7595SOL    HW223685   6.374   2.778   6.372
 7596SOL     OW23686   3.211   6.395   4.935
 7596SOL    HW123687   3.161   6.464   4.883
 7596SOL    HW223688   3.186   6.400   5.032
 7597SOL     OW23689   2.035   6.700   2.852
 7597SOL    HW123690   2.000   6.655   2.770
 7597SOL    HW223691   2.073   6.789   2.827
 7598SOL     OW23692   6.296   0.958   3.262
 7598SOL    HW123693   6.342   0.982   3.347
 7598SOL    HW223694   6.342   0.879   3.220
 7599SOL     OW23695   5.581   3.103   1.178
 7599SOL    HW123696   5.624   3.069   1.262
 7599SOL    HW223697   5.632   3.069   1.099
 7600SOL     OW23698   0.836   0.929   3.583
 7600SOL    HW123699   0.762   0.990   3.612
 7600SOL    HW223700   0.883   0.892   3.663
 7601SOL     OW23701   3.165   5.115   1.926
 7601SOL    HW123702   3.066   5.113   1.912
 7601SOL    HW223703   3.200   5.021   1.923
 7602SOL     OW23704   1.258   3.031   6.718
 7602SOL    HW123705   1.223   3.113   6.764
 7602SOL    HW223706   1.349   3.050   6.681
 7603SOL     OW23707   1.729   6.564   5.925
 7603SOL    HW123708   1.818   6.551   5.970
 7603SOL    HW223709   1.732   6.524   5.833
 7604SOL     OW23710   1.011   1.963   5.236
 7604SOL    HW123711   1.060   1.918   5.311
 7604SOL    HW223712   1.016   2.062   5.247
 7605SOL     OW23713   1.422   0.660   0.679
 7605SOL    HW123714   1.477   0.671   0.597
 7605SOL    HW223715   1.479   0.676   0.760
 7606SOL     OW23716   5.866   2.948   5.111
 7606SOL    HW123717   5.838   3.042   5.090
 7606SOL    HW223718   5.942   2.950   5.177
 7607SOL     OW23719   3.949   5.336   0.148
 7607SOL    HW123720   3.934   5.329   0.050
 7607SOL    HW223721   3.972   5.431   0.172
 7608SOL     OW23722   5.401   2.716   0.527
 7608SOL    HW123723   5.305   2.743   0.531
 7608SOL    HW223724   5.432   2.689   0.618
 7609SOL     OW23725   1.330   3.334   3.582
 7609SOL    HW123726   1.353   3.353   3.677
 7609SOL    HW223727   1.314   3.420   3.533
 7610SOL     OW23728   3.803   4.473   5.593
 7610SOL    HW123729   3.838   4.557   5.633
 7610SOL    HW223730   3.819   4.397   5.656
 7611SOL     OW23731   5.298   3.611   1.129
 7611SOL    HW123732   5.293   3.529   1.073
 7611SOL    HW223733   5.367   3.673   1.091
 7612SOL     OW23734   4.820   2.725   3.011
 7612SOL    HW123735   4.761   2.646   2.999
 7612SOL    HW223736   4.915   2.695   3.022
 7613SOL     OW23737   0.555   1.636   2.157
 7613SOL    HW123738   0.495   1.711   2.128
 7613SOL    HW223739   0.529   1.605   2.248
 7614SOL     OW23740   5.108   3.595   1.314
 7614SOL    HW123741   5.155   3.611   1.227
 7614SOL    HW223742   5.135   3.666   1.379
 7615SOL     OW23743   4.882   4.206   6.203
 7615SOL    HW123744   4.974   4.168   6.195
 7615SOL    HW223745   4.815   4.134   6.183
 7616SOL     OW23746   6.897   0.112   4.121
 7616SOL    HW123747   6.896   0.117   4.021
 7616SOL    HW223748   6.991   0.109   4.153
 7617SOL     OW23749   5.519   6.076   3.639
 7617SOL    HW123750   5.618   6.069   3.630
 7617SOL    HW223751   5.493   6.058   3.734
 7618SOL     OW23752   0.966   2.788   6.820
 7618SOL    HW123753   1.060   2.820   6.825
 7618SOL    HW223754   0.962   2.690   6.841
 7619SOL     OW23755   0.032   2.544   4.341
 7619SOL    HW123756   0.056   2.631   4.383
 7619SOL    HW223757   0.109   2.481   4.350
 7620SOL     OW23758   3.987   5.419   1.211
 7620SOL    HW123759   3.999   5.346   1.143
 7620SOL    HW223760   4.072   5.432   1.261
 7621SOL     OW23761   0.550   0.560   1.297
 7621SOL    HW123762   0.458   0.570   1.335
 7621SOL    HW223763   0.618   0.578   1.369
 7622SOL     OW23764   4.731   4.857   6.493
 7622SOL    HW123765   4.726   4.760   6.467
 7622SOL    HW223766   4.646   4.903   6.466
 7623SOL     OW23767   4.472   4.592   0.929
 7623SOL    HW123768   4.375   4.617   0.929
 7623SOL    HW223769   4.505   4.588   1.024
 7624SOL     OW23770   6.556   3.650   3.581
 7624SOL    HW123771   6.529   3.742   3.551
 7624SOL    HW223772   6.476   3.601   3.613
 7625SOL     OW23773   6.783   1.494   0.364
 7625SOL    HW123774   6.802   1.465   0.270
 7625SOL    HW223775   6.709   1.562   0.364
 7626SOL     OW23776   6.637   1.120   5.870
 7626SOL    HW123777   6.650   1.053   5.944
 7626SOL    HW223778   6.725   1.142   5.829
 7627SOL     OW23779   3.304   2.108   0.310
 7627SOL    HW123780   3.386   2.147   0.352
 7627SOL    HW223781   3.293   2.013   0.340
 7628SOL     OW23782   3.927   2.644   1.636
 7628SOL    HW123783   4.013   2.605   1.601
 7628SOL    HW223784   3.858   2.572   1.642
 7629SOL     OW23785   6.670   4.310   3.364
 7629SOL    HW123786   6.570   4.309   3.365
 7629SOL    HW223787   6.704   4.344   3.451
 7630SOL     OW23788   0.616   0.992   6.538
 7630SOL    HW123789   0.590   1.084   6.568
 7630SOL    HW223790   0.702   0.996   6.488
 7631SOL     OW23791   1.180   1.521   5.404
 7631SOL    HW123792   1.263   1.474   5.374
 7631SOL    HW223793   1.183   1.537   5.502
 7632SOL     OW23794   4.278   5.007   0.656
 7632SOL    HW123795   4.280   4.907   0.664
 7632SOL    HW223796   4.355   5.037   0.599
 7633SOL     OW23797   5.316   0.477   2.074
 7633SOL    HW123798   5.269   0.406   2.023
 7633SOL    HW223799   5.263   0.501   2.155
 7634SOL     OW23800   2.270   1.260   1.399
 7634SOL    HW123801   2.184   1.290   1.359
 7634SOL    HW223802   2.313   1.337   1.447
 7635SOL     OW23803   3.426   5.271   4.362
 7635SOL    HW123804   3.506   5.248   4.418
 7635SOL    HW223805   3.382   5.353   4.399
 7636SOL     OW23806   1.504   4.225   4.149
 7636SOL    HW123807   1.475   4.200   4.056
 7636SOL    HW223808   1.510   4.325   4.156
 7637SOL     OW23809   1.849   6.222   3.252
 7637SOL    HW123810   1.799   6.181   3.176
 7637SOL    HW223811   1.785   6.273   3.310
 7638SOL     OW23812   1.155   5.289   2.560
 7638SOL    HW123813   1.197   5.376   2.585
 7638SOL    HW223814   1.055   5.298   2.564
 7639SOL     OW23815   0.657   1.409   0.601
 7639SOL    HW123816   0.678   1.506   0.590
 7639SOL    HW223817   0.742   1.358   0.609
 7640SOL     OW23818   2.830   2.266   6.911
 7640SOL    HW123819   2.806   2.202   6.984
 7640SOL    HW223820   2.873   2.347   6.950
 7641SOL     OW23821   6.675   3.845   2.663
 7641SOL    HW123822   6.744   3.834   2.735
 7641SOL    HW223823   6.630   3.933   2.673
 7642SOL     OW23824   5.647   1.371   2.648
 7642SOL    HW123825   5.633   1.273   2.664
 7642SOL    HW223826   5.584   1.423   2.706
 7643SOL     OW23827   5.336   1.497   2.657
 7643SOL    HW123828   5.264   1.494   2.588
 7643SOL    HW223829   5.371   1.590   2.666
 7644SOL     OW23830   4.897   3.147   2.469
 7644SOL    HW123831   4.836   3.072   2.494
 7644SOL    HW223832   4.904   3.152   2.369
 7645SOL     OW23833   4.269   3.498   5.500
 7645SOL    HW123834   4.339   3.501   5.429
 7645SOL    HW223835   4.286   3.570   5.567
 7646SOL     OW23836   0.538   2.784   3.910
 7646SOL    HW123837   0.540   2.755   3.814
 7646SOL    HW223838   0.503   2.709   3.966
 7647SOL     OW23839   0.528   3.243   4.435
 7647SOL    HW123840   0.517   3.338   4.406
 7647SOL    HW223841   0.495   3.182   4.363
 7648SOL     OW23842   2.268   1.471   2.700
 7648SOL    HW123843   2.213   1.391   2.677
 7648SOL    HW223844   2.243   1.548   2.641
 7649SOL     OW23845   1.490   1.219   4.465
 7649SOL    HW123846   1.449   1.131   4.439
 7649SOL    HW223847   1.578   1.202   4.510
 7650SOL     OW23848   6.201   0.399   1.033
 7650SOL    HW123849   6.242   0.311   1.055
 7650SOL    HW223850   6.273   0.464   1.008
 7651SOL     OW23851   2.584   6.169   4.196
 7651SOL    HW123852   2.565   6.089   4.252
 7651SOL    HW223853   2.596   6.141   4.101
 7652SOL     OW23854   5.566   2.982   5.366
 7652SOL    HW123855   5.606   2.899   5.328
 7652SOL    HW223856   5.466   2.977   5.357
 7653SOL     OW23857   1.559   1.629   0.475
 7653SOL    HW123858   1.498   1.579   0.414
 7653SOL    HW223859   1.654   1.609   0.451
 7654SOL     OW23860   5.648   3.578   4.816
 7654SOL    HW123861   5.687   3.583   4.908
 7654SOL    HW223862   5.703   3.631   4.753
 7655SOL     OW23863   3.482   0.683   3.780
 7655SOL    HW123864   3.548   0.690   3.704
 7655SOL    HW223865   3.497   0.598   3.829
 7656SOL     OW23866   5.144   2.648   6.416
 7656SOL    HW123867   5.118   2.718   6.482
 7656SOL    HW223868   5.131   2.683   6.323
 7657SOL     OW23869   1.901   2.338   3.855
 7657SOL    HW123870   1.888   2.301   3.764
 7657SOL    HW223871   1.983   2.396   3.857
 7658SOL     OW23872   3.040   0.360   0.799
 7658SOL    HW123873   3.003   0.453   0.796
 7658SOL    HW223874   3.120   0.354   0.739
 7659SOL     OW23875   4.968   4.215   6.869
 7659SOL    HW123876   4.910   4.275   6.815
 7659SOL    HW223877   5.063   4.223   6.839
 7660SOL     OW23878   6.377   5.473   4.293
 7660SOL    HW123879   6.281   5.473   4.265
 7660SOL    HW223880   6.431   5.529   4.229
 7661SOL     OW23881   5.024   1.755   5.821
 7661SOL    HW123882   5.099   1.792   5.875
 7661SOL    HW223883   5.051   1.749   5.725
 7662SOL     OW23884   1.034   2.450   3.159
 7662SOL    HW123885   0.970   2.512   3.204
 7662SOL    HW223886   1.006   2.356   3.175
 7663SOL     OW23887   4.914   5.306   6.414
 7663SOL    HW123888   4.887   5.401   6.400
 7663SOL    HW223889   4.920   5.287   6.512
 7664SOL     OW23890   3.736   1.422   2.453
 7664SOL    HW123891   3.736   1.371   2.539
 7664SOL    HW223892   3.695   1.512   2.467
 7665SOL     OW23893   5.344   1.652   4.126
 7665SOL    HW123894   5.441   1.632   4.133
 7665SOL    HW223895   5.331   1.747   4.096
 7666SOL     OW23896   0.258   4.936   3.869
 7666SOL    HW123897   0.291   4.925   3.963
 7666SOL    HW223898   0.162   4.966   3.871
 7667SOL     OW23899   4.240   0.552   3.198
 7667SOL    HW123900   4.187   0.481   3.244
 7667SOL    HW223901   4.303   0.509   3.133
 7668SOL     OW23902   2.534   4.657   0.992
 7668SOL    HW123903   2.632   4.650   0.970
 7668SOL    HW223904   2.521   4.723   1.066
 7669SOL     OW23905   4.632   0.782   5.128
 7669SOL    HW123906   4.625   0.717   5.203
 7669SOL    HW223907   4.723   0.824   5.128
 7670SOL     OW23908   1.111   6.192   0.624
 7670SOL    HW123909   1.161   6.214   0.708
 7670SOL    HW223910   1.162   6.122   0.572
 7671SOL     OW23911   4.428   0.114   2.320
 7671SOL    HW123912   4.403   0.017   2.312
 7671SOL    HW223913   4.383   0.166   2.248
 7672SOL     OW23914   6.608   5.007   3.463
 7672SOL    HW123915   6.655   5.036   3.547
 7672SOL    HW223916   6.546   5.080   3.433
 7673SOL     OW23917   1.757   5.556   2.425
 7673SOL    HW123918   1.720   5.523   2.338
 7673SOL    HW223919   1.856   5.565   2.418
 7674SOL     OW23920   4.707   0.283   4.179
 7674SOL    HW123921   4.782   0.287   4.245
 7674SOL    HW223922   4.658   0.196   4.190
 7675SOL     OW23923   4.922   6.279   3.617
 7675SOL    HW123924   4.904   6.278   3.716
 7675SOL    HW223925   4.992   6.347   3.597
 7676SOL     OW23926   3.235   2.201   6.058
 7676SOL    HW123927   3.203   2.296   6.060
 7676SOL    HW223928   3.331   2.199   6.031
 7677SOL     OW23929   0.266   4.481   0.933
 7677SOL    HW123930   0.356   4.469   0.891
 7677SOL    HW223931   0.200   4.508   0.863
 7678SOL     OW23932   1.717   2.757   5.233
 7678SOL    HW123933   1.684   2.718   5.147
 7678SOL    HW223934   1.817   2.759   5.232
 7679SOL     OW23935   1.972   5.326   5.354
 7679SOL    HW123936   1.890   5.317   5.298
 7679SOL    HW223937   2.028   5.401   5.319
 7680SOL     OW23938   1.460   0.681   6.543
 7680SOL    HW123939   1.534   0.614   6.550
 7680SOL    HW223940   1.393   0.664   6.616
 7681SOL     OW23941   2.767   1.109   0.037
 7681SOL    HW123942   2.679   1.071   0.007
 7681SOL    HW223943   2.750   1.178   0.108
 7682SOL     OW23944   4.799   0.941   2.192
 7682SOL    HW123945   4.776   0.905   2.282
 7682SOL    HW223946   4.745   1.024   2.174
 7683SOL     OW23947   0.375   1.333   5.244
 7683SOL    HW123948   0.413   1.274   5.173
 7683SOL    HW223949   0.436   1.335   5.323
 7684SOL     OW23950   3.832   2.300   1.264
 7684SOL    HW123951   3.743   2.298   1.218
 7684SOL    HW223952   3.892   2.366   1.218
 7685SOL     OW23953   3.352   1.638   6.526
 7685SOL    HW123954   3.274   1.610   6.470
 7685SOL    HW223955   3.367   1.736   6.515
 7686SOL     OW23956   6.036   6.835   4.442
 7686SOL    HW123957   6.136   6.844   4.438
 7686SOL    HW223958   5.994   6.917   4.403
 7687SOL     OW23959   4.605   5.485   4.813
 7687SOL    HW123960   4.600   5.541   4.730
 7687SOL    HW223961   4.676   5.416   4.803
 7688SOL     OW23962   0.158   6.274   6.371
 7688SOL    HW123963   0.154   6.210   6.293
 7688SOL    HW223964   0.160   6.368   6.337
 7689SOL     OW23965   5.262   6.839   2.826
 7689SOL    HW123966   5.304   6.781   2.756
 7689SOL    HW223967   5.329   6.906   2.858
 7690SOL     OW23968   5.619   5.395   0.789
 7690SOL    HW123969   5.657   5.426   0.876
 7690SOL    HW223970   5.578   5.304   0.801
 7691SOL     OW23971   5.224   4.262   1.790
 7691SOL    HW123972   5.277   4.188   1.747
 7691SOL    HW223973   5.152   4.222   1.847
 7692SOL     OW23974   0.698   6.223   1.643
 7692SOL    HW123975   0.738   6.270   1.721
 7692SOL    HW223976   0.603   6.201   1.662
 7693SOL     OW23977   3.192   0.297   1.288
 7693SOL    HW123978   3.158   0.390   1.271
 7693SOL    HW223979   3.235   0.293   1.378
 7694SOL     OW23980   5.997   3.185   4.543
 7694SOL    HW123981   5.913   3.141   4.512
 7694SOL    HW223982   6.071   3.118   4.548
 7695SOL     OW23983   5.965   0.683   1.644
 7695SOL    HW123984   5.912   0.759   1.606
 7695SOL    HW223985   6.022   0.642   1.573
 7696SOL     OW23986   6.697   1.307   6.203
 7696SOL    HW123987   6.648   1.341   6.283
 7696SOL    HW223988   6.733   1.216   6.222
 7697SOL     OW23989   2.941   0.869   2.588
 7697SOL    HW123990   2.989   0.790   2.550
 7697SOL    HW223991   2.926   0.937   2.516
 7698SOL     OW23992   6.739   1.346   5.374
 7698SOL    HW123993   6.691   1.262   5.398
 7698SOL    HW223994   6.825   1.324   5.329
 7699SOL     OW23995   2.684   5.155   6.738
 7699SOL    HW123996   2.685   5.254   6.745
 7699SOL    HW223997   2.767   5.117   6.779
 7700SOL     OW23998   3.984   6.223   3.286
 7700SOL    HW123999   3.986   6.322   3.298
 7700SOL    HW224000   3.923   6.182   3.354
 7701SOL     OW24001   0.168   2.313   6.757
 7701SOL    HW124002   0.149   2.407   6.784
 7701SOL    HW224003   0.255   2.283   6.795
 7702SOL     OW24004   4.455   5.931   5.341
 7702SOL    HW124005   4.445   5.991   5.420
 7702SOL    HW224006   4.372   5.933   5.286
 7703SOL     OW24007   6.161   6.351   5.637
 7703SOL    HW124008   6.190   6.445   5.617
 7703SOL    HW224009   6.061   6.347   5.637
 7704SOL     OW24010   6.157   2.054   3.414
 7704SOL    HW124011   6.065   2.068   3.451
 7704SOL    HW224012   6.151   2.010   3.324
 7705SOL     OW24013   2.587   4.911   1.077
 7705SOL    HW124014   2.517   4.960   1.130
 7705SOL    HW224015   2.575   4.932   0.980
 7706SOL     OW24016   3.787   3.400   3.630
 7706SOL    HW124017   3.878   3.423   3.599
 7706SOL    HW224018   3.751   3.325   3.574
 7707SOL     OW24019   0.320   4.519   6.398
 7707SOL    HW124020   0.237   4.469   6.425
 7707SOL    HW224021   0.394   4.497   6.463
 7708SOL     OW24022   1.423   6.636   4.547
 7708SOL    HW124023   1.405   6.728   4.512
 7708SOL    HW224024   1.386   6.568   4.484
 7709SOL     OW24025   6.544   5.205   1.707
 7709SOL    HW124026   6.496   5.129   1.750
 7709SOL    HW224027   6.528   5.204   1.609
 7710SOL     OW24028   1.978   2.540   0.493
 7710SOL    HW124029   2.072   2.519   0.464
 7710SOL    HW224030   1.981   2.609   0.565
 7711SOL     OW24031   5.567   5.755   6.041
 7711SOL    HW124032   5.597   5.849   6.054
 7711SOL    HW224033   5.623   5.694   6.097
 7712SOL     OW24034   6.344   4.707   0.220
 7712SOL    HW124035   6.333   4.607   0.215
 7712SOL    HW224036   6.433   4.731   0.182
 7713SOL     OW24037   1.857   3.851   0.546
 7713SOL    HW124038   1.888   3.769   0.498
 7713SOL    HW224039   1.868   3.839   0.644
 7714SOL     OW24040   0.561   6.296   5.100
 7714SOL    HW124041   0.604   6.205   5.107
 7714SOL    HW224042   0.466   6.286   5.072
 7715SOL     OW24043   2.714   2.114   6.421
 7715SOL    HW124044   2.689   2.193   6.477
 7715SOL    HW224045   2.778   2.057   6.471
 7716SOL     OW24046   6.738   5.198   0.359
 7716SOL    HW124047   6.778   5.107   0.350
 7716SOL    HW224048   6.640   5.189   0.379
 7717SOL     OW24049   1.286   1.774   5.320
 7717SOL    HW124050   1.263   1.684   5.359
 7717SOL    HW224051   1.371   1.766   5.268
 7718SOL     OW24052   6.947   4.373   3.112
 7718SOL    HW124053   6.901   4.423   3.185
 7718SOL    HW224054   6.955   4.431   3.031
 7719SOL     OW24055   1.090   4.420   4.605
 7719SOL    HW124056   1.083   4.328   4.567
 7719SOL    HW224057   1.156   4.420   4.680
 7720SOL     OW24058   6.260   1.728   5.972
 7720SOL    HW124059   6.196   1.699   6.043
 7720SOL    HW224060   6.253   1.667   5.894
 7721SOL     OW24061   0.542   7.022   2.563
 7721SOL    HW124062   0.530   7.005   2.465
 7721SOL    HW224063   0.461   6.992   2.613
 7722SOL     OW24064   1.923   4.979   3.908
 7722SOL    HW124065   1.874   5.066   3.895
 7722SOL    HW224066   2.004   4.978   3.849
 7723SOL     OW24067   4.867   3.648   6.373
 7723SOL    HW124068   4.814   3.726   6.406
 7723SOL    HW224069   4.923   3.676   6.295
 7724SOL     OW24070   3.155   4.115   0.394
 7724SOL    HW124071   3.057   4.119   0.376
 7724SOL    HW224072   3.204   4.172   0.329
 7725SOL     OW24073   5.981   2.321   2.881
 7725SOL    HW124074   5.892   2.277   2.881
 7725SOL    HW224075   6.019   2.321   2.789
 7726SOL     OW24076   0.942   3.325   6.014
 7726SOL    HW124077   0.984   3.248   6.062
 7726SOL    HW224078   1.010   3.369   5.956
 7727SOL     OW24079   5.963   2.723   1.408
 7727SOL    HW124080   6.026   2.729   1.486
 7727SOL    HW224081   5.877   2.769   1.432
 7728SOL     OW24082   2.268   2.627   4.875
 7728SOL    HW124083   2.257   2.670   4.965
 7728SOL    HW224084   2.274   2.698   4.805
 7729SOL     OW24085   5.445   1.579   2.173
 7729SOL    HW124086   5.433   1.486   2.136
 7729SOL    HW224087   5.358   1.614   2.205
 7730SOL     OW24088   6.749   5.021   6.240
 7730SOL    HW124089   6.712   4.971   6.162
 7730SOL    HW224090   6.674   5.057   6.296
 7731SOL     OW24091   6.619   6.899   0.584
 7731SOL    HW124092   6.612   6.872   0.488
 7731SOL    HW224093   6.651   6.994   0.590
 7732SOL     OW24094   4.228   0.475   0.325
 7732SOL    HW124095   4.231   0.427   0.412
 7732SOL    HW224096   4.321   0.489   0.291
 7733SOL     OW24097   6.065   5.238   2.363
 7733SOL    HW124098   6.029   5.155   2.405
 7733SOL    HW224099   6.117   5.214   2.281
 7734SOL     OW24100   2.328   4.703   4.468
 7734SOL    HW124101   2.414   4.673   4.427
 7734SOL    HW224102   2.282   4.767   4.407
 7735SOL     OW24103   6.298   5.766   0.378
 7735SOL    HW124104   6.246   5.698   0.326
 7735SOL    HW224105   6.359   5.719   0.442
 7736SOL     OW24106   2.239   3.257   0.547
 7736SOL    HW124107   2.300   3.319   0.498
 7736SOL    HW224108   2.233   3.286   0.643
 7737SOL     OW24109   3.221   5.612   1.924
 7737SOL    HW124110   3.205   5.529   1.870
 7737SOL    HW224111   3.243   5.688   1.863
 7738SOL     OW24112   2.497   5.633   0.117
 7738SOL    HW124113   2.480   5.731   0.127
 7738SOL    HW224114   2.515   5.593   0.207
 7739SOL     OW24115   2.132   1.771   1.688
 7739SOL    HW124116   2.138   1.822   1.603
 7739SOL    HW224117   2.224   1.752   1.722
 7740SOL     OW24118   1.841   0.971   2.599
 7740SOL    HW124119   1.867   0.905   2.668
 7740SOL    HW224120   1.799   1.051   2.643
 7741SOL     OW24121   0.526   3.996   5.345
 7741SOL    HW124122   0.452   3.985   5.279
 7741SOL    HW224123   0.552   4.092   5.350
 7742SOL     OW24124   4.188   1.617   3.983
 7742SOL    HW124125   4.115   1.567   3.935
 7742SOL    HW224126   4.240   1.671   3.917
 7743SOL     OW24127   4.909   1.075   0.054
 7743SOL    HW124128   4.853   1.049   0.132
 7743SOL    HW224129   4.892   1.171   0.031
 7744SOL     OW24130   0.981   6.192   3.319
 7744SOL    HW124131   0.985   6.162   3.414
 7744SOL    HW224132   1.074   6.198   3.281
 7745SOL     OW24133   2.556   6.922   6.808
 7745SOL    HW124134   2.459   6.947   6.807
 7745SOL    HW224135   2.590   6.926   6.902
 7746SOL     OW24136   1.602   0.143   0.871
 7746SOL    HW124137   1.699   0.120   0.881
 7746SOL    HW224138   1.547   0.061   0.886
 7747SOL     OW24139   0.422   6.193   1.400
 7747SOL    HW124140   0.409   6.138   1.483
 7747SOL    HW224141   0.500   6.255   1.413
 7748SOL     OW24142   3.281   3.993   4.450
 7748SOL    HW124143   3.358   3.933   4.470
 7748SOL    HW224144   3.278   4.013   4.353
 7749SOL     OW24145   3.401   3.801   3.898
 7749SOL    HW124146   3.380   3.894   3.868
 7749SOL    HW224147   3.497   3.796   3.925
 7750SOL     OW24148   5.991   5.963   6.128
 7750SOL    HW124149   6.053   5.905   6.075
 7750SOL    HW224150   6.042   6.041   6.164
 7751SOL     OW24151   0.917   2.305   2.720
 7751SOL    HW124152   0.870   2.233   2.770
 7751SOL    HW224153   0.996   2.337   2.773
 7752SOL     OW24154   5.467   5.955   5.820
 7752SOL    HW124155   5.378   5.984   5.785
 7752SOL    HW224156   5.477   5.985   5.915
 7753SOL     OW24157   2.840   0.913   4.094
 7753SOL    HW124158   2.841   0.890   4.191
 7753SOL    HW224159   2.925   0.882   4.052
 7754SOL     OW24160   5.795   0.268   1.720
 7754SOL    HW124161   5.734   0.262   1.640
 7754SOL    HW224162   5.800   0.179   1.765
 7755SOL     OW24163   1.133   1.322   6.068
 7755SOL    HW124164   1.069   1.291   6.138
 7755SOL    HW224165   1.195   1.391   6.108
 7756SOL     OW24166   2.792   5.734   2.437
 7756SOL    HW124167   2.806   5.744   2.536
 7756SOL    HW224168   2.879   5.750   2.390
 7757SOL     OW24169   5.181   6.238   4.286
 7757SOL    HW124170   5.093   6.215   4.328
 7757SOL    HW224171   5.211   6.328   4.320
 7758SOL     OW24172   1.855   2.169   6.642
 7758SOL    HW124173   1.775   2.142   6.588
 7758SOL    HW224174   1.934   2.115   6.613
 7759SOL     OW24175   1.810   1.356   5.085
 7759SOL    HW124176   1.774   1.398   5.002
 7759SOL    HW224177   1.909   1.351   5.080
 7760SOL     OW24178   5.836   3.139   2.276
 7760SOL    HW124179   5.808   3.227   2.238
 7760SOL    HW224180   5.868   3.079   2.202
 7761SOL     OW24181   1.834   0.084   5.960
 7761SOL    HW124182   1.912   0.033   5.997
 7761SOL    HW224183   1.808   0.046   5.871
 7762SOL     OW24184   4.221   0.790   5.215
 7762SOL    HW124185   4.255   0.802   5.308
 7762SOL    HW224186   4.151   0.858   5.196
 7763SOL     OW24187   1.321   1.468   1.388
 7763SOL    HW124188   1.354   1.559   1.412
 7763SOL    HW224189   1.223   1.472   1.366
 7764SOL     OW24190   3.453   3.273   2.825
 7764SOL    HW124191   3.518   3.228   2.764
 7764SOL    HW224192   3.496   3.289   2.914
 7765SOL     OW24193   6.579   2.975   4.327
 7765SOL    HW124194   6.492   2.936   4.357
 7765SOL    HW224195   6.563   3.048   4.261
 7766SOL     OW24196   5.096   1.524   0.355
 7766SOL    HW124197   5.018   1.516   0.417
 7766SOL    HW224198   5.164   1.584   0.396
 7767SOL     OW24199   3.611   6.725   3.902
 7767SOL    HW124200   3.548   6.649   3.883
 7767SOL    HW224201   3.672   6.699   3.977
 7768SOL     OW24202   4.228   5.359   2.525
 7768SOL    HW124203   4.129   5.354   2.529
 7768SOL    HW224204   4.267   5.339   2.615
 7769SOL     OW24205   4.929   1.790   1.733
 7769SOL    HW124206   4.979   1.745   1.808
 7769SOL    HW224207   4.839   1.748   1.723
 7770SOL     OW24208   1.518   4.303   2.622
 7770SOL    HW124209   1.490   4.221   2.671
 7770SOL    HW224210   1.439   4.342   2.574
 7771SOL     OW24211   2.508   2.747   5.272
 7771SOL    HW124212   2.461   2.761   5.359
 7771SOL    HW224213   2.503   2.831   5.217
 7772SOL     OW24214   4.984   0.634   3.797
 7772SOL    HW124215   4.991   0.537   3.821
 7772SOL    HW224216   4.929   0.644   3.714
 7773SOL     OW24217   2.830   5.149   5.791
 7773SOL    HW124218   2.884   5.230   5.815
 7773SOL    HW224219   2.886   5.086   5.737
 7774SOL     OW24220   6.269   2.471   6.360
 7774SOL    HW124221   6.310   2.500   6.274
 7774SOL    HW224222   6.285   2.373   6.373
 7775SOL     OW24223   3.522   6.967   2.883
 7775SOL    HW124224   3.565   6.933   2.799
 7775SOL    HW224225   3.533   6.899   2.956
 7776SOL     OW24226   3.327   3.598   0.078
 7776SOL    HW124227   3.291   3.576   7.012
 7776SOL    HW224228   3.365   3.691   0.076
 7777SOL     OW24229   2.306   1.710   4.992
 7777SOL    HW124230   2.248   1.684   5.069
 7777SOL    HW224231   2.376   1.639   4.977
 7778SOL     OW24232   4.966   6.860   0.281
 7778SOL    HW124233   4.947   6.871   0.184
 7778SOL    HW224234   5.006   6.944   0.317
 7779SOL     OW24235   3.375   2.828   0.425
 7779SOL    HW124236   3.321   2.894   0.371
 7779SOL    HW224237   3.334   2.819   0.516
 7780SOL     OW24238   1.862   5.574   4.746
 7780SOL    HW124239   1.834   5.586   4.651
 7780SOL    HW224240   1.931   5.502   4.752
 7781SOL     OW24241   1.440   4.184   6.713
 7781SOL    HW124242   1.428   4.104   6.772
 7781SOL    HW224243   1.447   4.266   6.769
 7782SOL     OW24244   1.495   4.186   5.302
 7782SOL    HW124245   1.430   4.122   5.343
 7782SOL    HW224246   1.489   4.181   5.203
 7783SOL     OW24247   2.000   5.632   6.029
 7783SOL    HW124248   2.043   5.609   5.942
 7783SOL    HW224249   2.061   5.607   6.104
 7784SOL     OW24250   2.257   2.583   0.445
 7784SOL    HW124251   2.211   2.643   0.380
 7784SOL    HW224252   2.350   2.565   0.414
 7785SOL     OW24253   1.452   6.748   4.165
 7785SOL    HW124254   1.510   6.681   4.119
 7785SOL    HW224255   1.365   6.756   4.116
 7786SOL     OW24256   3.512   6.114   6.416
 7786SOL    HW124257   3.438   6.130   6.351
 7786SOL    HW224258   3.493   6.162   6.501
 7787SOL     OW24259   2.403   3.359   5.340
 7787SOL    HW124260   2.394   3.264   5.369
 7787SOL    HW224261   2.317   3.389   5.298
 7788SOL     OW24262   1.476   6.755   1.661
 7788SOL    HW124263   1.505   6.848   1.637
 7788SOL    HW224264   1.502   6.693   1.587
 7789SOL     OW24265   3.288   6.820   0.118
 7789SOL    HW124266   3.375   6.854   0.082
 7789SOL    HW224267   3.263   6.872   0.200
 7790SOL     OW24268   5.723   5.010   2.380
 7790SOL    HW124269   5.736   5.078   2.308
 7790SOL    HW224270   5.630   4.975   2.376
 7791SOL     OW24271   2.906   6.676   3.735
 7791SOL    HW124272   2.833   6.672   3.804
 7791SOL    HW224273   2.866   6.686   3.644
 7792SOL     OW24274   0.942   5.692   5.917
 7792SOL    HW124275   1.017   5.639   5.877
 7792SOL    HW224276   0.960   5.708   6.014
 7793SOL     OW24277   2.018   0.948   6.091
 7793SOL    HW124278   1.938   0.985   6.044
 7793SOL    HW224279   2.043   0.860   6.051
 7794SOL     OW24280   4.845   5.276   3.633
 7794SOL    HW124281   4.869   5.266   3.536
 7794SOL    HW224282   4.752   5.312   3.641
 7795SOL     OW24283   2.186   3.469   5.221
 7795SOL    HW124284   2.126   3.533   5.269
 7795SOL    HW224285   2.167   3.472   5.123
 7796SOL     OW24286   2.899   3.717   3.973
 7796SOL    HW124287   2.966   3.643   3.978
 7796SOL    HW224288   2.825   3.699   4.038
 7797SOL     OW24289   0.867   6.138   3.080
 7797SOL    HW124290   0.924   6.143   3.162
 7797SOL    HW224291   0.822   6.226   3.066
 7798SOL     OW24292   1.235   4.875   6.314
 7798SOL    HW124293   1.334   4.885   6.326
 7798SOL    HW224294   1.205   4.931   6.237
 7799SOL     OW24295   6.963   6.569   1.465
 7799SOL    HW124296   6.967   6.474   1.435
 7799SOL    HW224297   6.965   6.573   1.565
 7800SOL     OW24298   1.923   5.213   0.534
 7800SOL    HW124299   2.021   5.191   0.537
 7800SOL    HW224300   1.883   5.177   0.450
 7801SOL     OW24301   2.611   2.288   1.532
 7801SOL    HW124302   2.541   2.221   1.510
 7801SOL    HW224303   2.625   2.291   1.632
 7802SOL     OW24304   5.310   2.033   1.430
 7802SOL    HW124305   5.260   2.105   1.478
 7802SOL    HW224306   5.257   1.948   1.431
 7803SOL     OW24307   4.566   3.017   6.063
 7803SOL    HW124308   4.579   3.115   6.047
 7803SOL    HW224309   4.617   2.990   6.144
 7804SOL     OW24310   6.067   1.363   3.940
 7804SOL    HW124311   5.978   1.364   3.893
 7804SOL    HW224312   6.086   1.454   3.977
 7805SOL     OW24313   5.622   1.188   1.240
 7805SOL    HW124314   5.581   1.242   1.314
 7805SOL    HW224315   5.677   1.247   1.182
 7806SOL     OW24316   5.640   2.241   6.079
 7806SOL    HW124317   5.544   2.270   6.070
 7806SOL    HW224318   5.644   2.142   6.094
 7807SOL     OW24319   0.301   4.533   6.111
 7807SOL    HW124320   0.215   4.582   6.100
 7807SOL    HW224321   0.334   4.543   6.205
 7808SOL     OW24322   0.459   2.919   4.308
 7808SOL    HW124323   0.481   2.998   4.251
 7808SOL    HW224324   0.484   2.938   4.403
 7809SOL     OW24325   2.558   6.049   4.560
 7809SOL    HW124326   2.577   6.143   4.588
 7809SOL    HW224327   2.524   6.047   4.466
 7810SOL     OW24328   3.775   6.822   5.181
 7810SOL    HW124329   3.815   6.746   5.232
 7810SOL    HW224330   3.817   6.908   5.211
 7811SOL     OW24331   0.370   4.812   3.673
 7811SOL    HW124332   0.451   4.866   3.647
 7811SOL    HW224333   0.326   4.855   3.752
 7812SOL     OW24334   1.325   1.931   3.787
 7812SOL    HW124335   1.376   1.900   3.868
 7812SOL    HW224336   1.384   1.929   3.707
 7813SOL     OW24337   4.237   2.328   6.361
 7813SOL    HW124338   4.211   2.304   6.268
 7813SOL    HW224339   4.188   2.411   6.389
 7814SOL     OW24340   6.828   3.715   3.689
 7814SOL    HW124341   6.730   3.707   3.668
 7814SOL    HW224342   6.863   3.800   3.650
 7815SOL     OW24343   4.688   0.690   6.887
 7815SOL    HW124344   4.643   0.743   6.815
 7815SOL    HW224345   4.753   0.627   6.846
 7816SOL     OW24346   1.191   2.726   6.235
 7816SOL    HW124347   1.104   2.736   6.187
 7816SOL    HW224348   1.221   2.816   6.268
 7817SOL     OW24349   5.821   4.444   3.692
 7817SOL    HW124350   5.741   4.461   3.748
 7817SOL    HW224351   5.863   4.532   3.666
 7818SOL     OW24352   4.281   0.986   3.049
 7818SOL    HW124353   4.225   1.038   3.113
 7818SOL    HW224354   4.377   0.990   3.078
 7819SOL     OW24355   6.570   3.105   1.908
 7819SOL    HW124356   6.543   3.085   2.002
 7819SOL    HW224357   6.668   3.123   1.905
 7820SOL     OW24358   0.987   2.553   4.422
 7820SOL    HW124359   0.901   2.562   4.371
 7820SOL    HW224360   1.044   2.634   4.405
 7821SOL     OW24361   4.826   6.193   1.000
 7821SOL    HW124362   4.822   6.137   0.917
 7821SOL    HW224363   4.839   6.289   0.975
 7822SOL     OW24364   0.317   0.403   5.613
 7822SOL    HW124365   0.411   0.424   5.588
 7822SOL    HW224366   0.260   0.402   5.531
 7823SOL     OW24367   2.628   3.780   5.305
 7823SOL    HW124368   2.555   3.718   5.332
 7823SOL    HW224369   2.590   3.860   5.259
 7824SOL     OW24370   6.017   1.579   4.777
 7824SOL    HW124371   6.095   1.641   4.766
 7824SOL    HW224372   5.975   1.595   4.867
 7825SOL     OW24373   1.439   3.362   0.337
 7825SOL    HW124374   1.396   3.306   0.408
 7825SOL    HW224375   1.435   3.314   0.249
 7826SOL     OW24376   6.168   1.595   1.414
 7826SOL    HW124377   6.097   1.527   1.431
 7826SOL    HW224378   6.174   1.657   1.492
 7827SOL     OW24379   2.162   5.873   0.851
 7827SOL    HW124380   2.077   5.830   0.821
 7827SOL    HW224381   2.222   5.804   0.892
 7828SOL     OW24382   6.565   4.589   0.417
 7828SOL    HW124383   6.584   4.651   0.340
 7828SOL    HW224384   6.478   4.544   0.402
 7829SOL     OW24385   2.440   3.442   1.133
 7829SOL    HW124386   2.386   3.512   1.085
 7829SOL    HW224387   2.414   3.440   1.229
 7830SOL     OW24388   3.563   5.010   5.577
 7830SOL    HW124389   3.662   5.024   5.571
 7830SOL    HW224390   3.518   5.056   5.501
 7831SOL     OW24391   1.577   6.995   1.589
 7831SOL    HW124392   1.586   0.031   1.511
 7831SOL    HW224393   1.647   7.017   1.657
 7832SOL     OW24394   6.245   0.498   5.046
 7832SOL    HW124395   6.215   0.471   4.955
 7832SOL    HW224396   6.297   0.584   5.040
 7833SOL     OW24397   1.152   0.859   4.704
 7833SOL    HW124398   1.076   0.905   4.660
 7833SOL    HW224399   1.170   0.901   4.793
 7834SOL     OW24400   6.728   1.667   3.784
 7834SOL    HW124401   6.745   1.706   3.694
 7834SOL    HW224402   6.815   1.644   3.828
 7835SOL     OW24403   3.888   1.985   5.314
 7835SOL    HW124404   3.822   1.919   5.278
 7835SOL    HW224405   3.897   1.972   5.413
 7836SOL     OW24406   3.205   3.911   5.418
 7836SOL    HW124407   3.107   3.915   5.398
 7836SOL    HW224408   3.257   3.926   5.334
 7837SOL     OW24409   4.863   5.751   6.831
 7837SOL    HW124410   4.870   5.673   6.893
 7837SOL    HW224411   4.817   5.826   6.878
 7838SOL     OW24412   4.088   6.634   1.255
 7838SOL    HW124413   4.165   6.669   1.308
 7838SOL    HW224414   4.003   6.654   1.304
 7839SOL     OW24415   6.129   4.127   4.755
 7839SOL    HW124416   6.211   4.183   4.741
 7839SOL    HW224417   6.134   4.046   4.697
 7840SOL     OW24418   0.280   3.421   4.100
 7840SOL    HW124419   0.366   3.469   4.083
 7840SOL    HW224420   0.224   3.474   4.164
 7841SOL     OW24421   4.129   1.902   6.713
 7841SOL    HW124422   4.220   1.866   6.695
 7841SOL    HW224423   4.130   2.002   6.703
 7842SOL     OW24424   1.982   1.287   2.398
 7842SOL    HW124425   1.940   1.371   2.363
 7842SOL    HW224426   1.938   1.208   2.356
 7843SOL     OW24427   0.300   6.396   3.549
 7843SOL    HW124428   0.294   6.321   3.483
 7843SOL    HW224429   0.266   6.364   3.638
 7844SOL     OW24430   2.708   0.497   2.284
 7844SOL    HW124431   2.622   0.462   2.247
 7844SOL    HW224432   2.722   0.461   2.376
 7845SOL     OW24433   4.920   1.418   2.699
 7845SOL    HW124434   4.872   1.337   2.665
 7845SOL    HW224435   4.961   1.468   2.623
 7846SOL     OW24436   1.448   2.429   1.306
 7846SOL    HW124437   1.381   2.504   1.309
 7846SOL    HW224438   1.406   2.349   1.262
 7847SOL     OW24439   6.540   1.491   3.380
 7847SOL    HW124440   6.448   1.530   3.379
 7847SOL    HW224441   6.540   1.408   3.436
 7848SOL     OW24442   3.492   4.945   1.199
 7848SOL    HW124443   3.412   4.964   1.142
 7848SOL    HW224444   3.469   4.959   1.295
 7849SOL     OW24445   6.413   4.281   4.752
 7849SOL    HW124446   6.408   4.230   4.838
 7849SOL    HW224447   6.401   4.378   4.770
 7850SOL     OW24448   0.321   1.351   3.760
 7850SOL    HW124449   0.374   1.400   3.691
 7850SOL    HW224450   0.331   1.253   3.746
 7851SOL     OW24451   0.113   2.085   1.573
 7851SOL    HW124452   0.025   2.116   1.607
 7851SOL    HW224453   0.187   2.131   1.623
 7852SOL     OW24454   3.022   1.067   0.291
 7852SOL    HW124455   2.926   1.082   0.315
 7852SOL    HW224456   3.027   1.002   0.215
 7853SOL     OW24457   4.968   2.702   1.435
 7853SOL    HW124458   4.943   2.711   1.339
 7853SOL    HW224459   4.977   2.792   1.476
 7854SOL     OW24460   3.294   2.578   5.686
 7854SOL    HW124461   3.252   2.657   5.642
 7854SOL    HW224462   3.229   2.502   5.687
 7855SOL     OW24463   4.314   6.075   4.629
 7855SOL    HW124464   4.219   6.053   4.606
 7855SOL    HW224465   4.326   6.069   4.728
 7856SOL     OW24466   0.367   5.566   4.957
 7856SOL    HW124467   0.330   5.596   4.869
 7856SOL    HW224468   0.380   5.467   4.955
 7857SOL     OW24469   4.724   3.265   0.660
 7857SOL    HW124470   4.639   3.215   0.643
 7857SOL    HW224471   4.746   3.260   0.758
 7858SOL     OW24472   6.457   6.769   4.773
 7858SOL    HW124473   6.475   6.852   4.826
 7858SOL    HW224474   6.462   6.689   4.833
 7859SOL     OW24475   4.360   3.403   6.956
 7859SOL    HW124476   4.405   3.394   6.868
 7859SOL    HW224477   4.428   3.394   0.005
 7860SOL     OW24478   4.368   0.873   4.224
 7860SOL    HW124479   4.416   0.825   4.298
 7860SOL    HW224480   4.424   0.868   4.141
 7861SOL     OW24481   2.988   4.905   1.672
 7861SOL    HW124482   3.067   4.845   1.677
 7861SOL    HW224483   2.906   4.854   1.698
 7862SOL     OW24484   2.011   5.241   2.535
 7862SOL    HW124485   2.103   5.214   2.564
 7862SOL    HW224486   2.018   5.308   2.460
 7863SOL     OW24487   0.365   4.282   3.855
 7863SOL    HW124488   0.344   4.260   3.760
 7863SOL    HW224489   0.448   4.337   3.859
 7864SOL     OW24490   0.937   5.478   5.572
 7864SOL    HW124491   0.890   5.411   5.630
 7864SOL    HW224492   1.006   5.525   5.626
 7865SOL     OW24493   6.572   5.677   4.500
 7865SOL    HW124494   6.533   5.639   4.416
 7865SOL    HW224495   6.558   5.776   4.503
 7866SOL     OW24496   0.955   0.461   5.724
 7866SOL    HW124497   0.986   0.433   5.815
 7866SOL    HW224498   0.908   0.384   5.681
 7867SOL     OW24499   5.855   6.206   2.933
 7867SOL    HW124500   5.870   6.183   3.029
 7867SOL    HW224501   5.942   6.198   2.883
 7868SOL     OW24502   4.485   5.959   1.314
 7868SOL    HW124503   4.583   5.953   1.334
 7868SOL    HW224504   4.439   6.005   1.390
 7869SOL     OW24505   5.402   4.268   5.964
 7869SOL    HW124506   5.321   4.326   5.954
 7869SOL    HW224507   5.401   4.224   6.054
 7870SOL     OW24508   4.866   6.222   4.567
 7870SOL    HW124509   4.803   6.182   4.633
 7870SOL    HW224510   4.922   6.291   4.612
 7871SOL     OW24511   4.667   2.271   2.060
 7871SOL    HW124512   4.669   2.307   1.966
 7871SOL    HW224513   4.679   2.346   2.125
 7872SOL     OW24514   1.840   3.845   2.825
 7872SOL    HW124515   1.756   3.870   2.777
 7872SOL    HW224516   1.827   3.854   2.923
 7873SOL     OW24517   6.542   0.213   0.151
 7873SOL    HW124518   6.609   0.148   0.114
 7873SOL    HW224519   6.565   0.305   0.122
 7874SOL     OW24520   4.544   2.569   1.339
 7874SOL    HW124521   4.571   2.663   1.360
 7874SOL    HW224522   4.451   2.568   1.302
 7875SOL     OW24523   3.777   2.753   0.251
 7875SOL    HW124524   3.806   2.796   0.336
 7875SOL    HW224525   3.683   2.719   0.261
 7876SOL     OW24526   1.206   6.321   3.666
 7876SOL    HW124527   1.128   6.260   3.652
 7876SOL    HW224528   1.282   6.270   3.706
 7877SOL     OW24529   0.354   1.091   2.798
 7877SOL    HW124530   0.355   1.172   2.856
 7877SOL    HW224531   0.397   1.015   2.847
 7878SOL     OW24532   4.596   4.400   3.647
 7878SOL    HW124533   4.598   4.390   3.746
 7878SOL    HW224534   4.508   4.441   3.619
 7879SOL     OW24535   4.030   5.198   2.736
 7879SOL    HW124536   3.951   5.195   2.798
 7879SOL    HW224537   4.021   5.125   2.668
 7880SOL     OW24538   2.231   4.078   1.430
 7880SOL    HW124539   2.205   4.017   1.506
 7880SOL    HW224540   2.319   4.049   1.394
 7881SOL     OW24541   4.846   4.190   4.487
 7881SOL    HW124542   4.864   4.118   4.554
 7881SOL    HW224543   4.933   4.227   4.454
 7882SOL     OW24544   1.944   3.697   1.619
 7882SOL    HW124545   1.955   3.716   1.521
 7882SOL    HW224546   1.848   3.708   1.644
 7883SOL     OW24547   0.754   0.774   6.284
 7883SOL    HW124548   0.799   0.713   6.219
 7883SOL    HW224549   0.763   0.737   6.376
 7884SOL     OW24550   1.400   3.746   4.621
 7884SOL    HW124551   1.305   3.716   4.633
 7884SOL    HW224552   1.462   3.676   4.657
 7885SOL     OW24553   6.808   5.695   0.939
 7885SOL    HW124554   6.788   5.599   0.923
 7885SOL    HW224555   6.834   5.708   1.034
 7886SOL     OW24556   3.936   6.153   0.008
 7886SOL    HW124557   4.024   6.145   0.056
 7886SOL    HW224558   3.950   6.136   6.935
 7887SOL     OW24559   3.643   2.417   6.199
 7887SOL    HW124560   3.740   2.433   6.181
 7887SOL    HW224561   3.596   2.505   6.212
 7888SOL     OW24562   6.290   0.245   5.175
 7888SOL    HW124563   6.209   0.189   5.190
 7888SOL    HW224564   6.264   0.329   5.128
 7889SOL     OW24565   2.042   4.919   1.931
 7889SOL    HW124566   2.015   4.827   1.901
 7889SOL    HW224567   1.962   4.978   1.936
 7890SOL     OW24568   1.432   3.831   2.561
 7890SOL    HW124569   1.450   3.769   2.485
 7890SOL    HW224570   1.355   3.890   2.539
 7891SOL     OW24571   1.536   3.889   3.009
 7891SOL    HW124572   1.577   3.865   3.097
 7891SOL    HW224573   1.476   3.816   2.979
 7892SOL     OW24574   2.145   2.503   3.866
 7892SOL    HW124575   2.148   2.532   3.962
 7892SOL    HW224576   2.093   2.569   3.812
 7893SOL     OW24577   6.704   6.986   2.824
 7893SOL    HW124578   6.655   0.002   2.901
 7893SOL    HW224579   6.659   7.013   2.739
 7894SOL     OW24580   2.529   6.308   1.452
 7894SOL    HW124581   2.563   6.356   1.371
 7894SOL    HW224582   2.578   6.221   1.463
 7895SOL     OW24583   6.409   1.203   5.757
 7895SOL    HW124584   6.386   1.125   5.699
 7895SOL    HW224585   6.499   1.187   5.799
 7896SOL     OW24586   5.103   4.332   6.548
 7896SOL    HW124587   5.121   4.281   6.633
 7896SOL    HW224588   5.186   4.381   6.521
 7897SOL     OW24589   2.743   3.905   6.320
 7897SOL    HW124590   2.732   3.876   6.225
 7897SOL    HW224591   2.797   3.838   6.370
 7898SOL     OW24592   5.507   2.098   3.480
 7898SOL    HW124593   5.520   2.025   3.548
 7898SOL    HW224594   5.427   2.152   3.504
 7899SOL     OW24595   6.437   1.412   1.654
 7899SOL    HW124596   6.494   1.338   1.691
 7899SOL    HW224597   6.490   1.466   1.589
 7900SOL     OW24598   1.365   5.170   1.232
 7900SOL    HW124599   1.331   5.135   1.144
 7900SOL    HW224600   1.311   5.130   1.306
 7901SOL     OW24601   4.757   0.568   6.509
 7901SOL    HW124602   4.693   0.644   6.505
 7901SOL    HW224603   4.850   0.602   6.523
 7902SOL     OW24604   5.805   4.723   1.905
 7902SOL    HW124605   5.760   4.634   1.894
 7902SOL    HW224606   5.740   4.796   1.882
 7903SOL     OW24607   6.062   2.419   0.982
 7903SOL    HW124608   6.092   2.329   1.013
 7903SOL    HW224609   6.013   2.465   1.056
 7904SOL     OW24610   5.818   0.648   3.359
 7904SOL    HW124611   5.912   0.682   3.352
 7904SOL    HW224612   5.781   0.672   3.449
 7905SOL     OW24613   4.210   1.805   0.465
 7905SOL    HW124614   4.305   1.835   0.477
 7905SOL    HW224615   4.189   1.803   0.367
 7906SOL     OW24616   0.659   5.604   0.153
 7906SOL    HW124617   0.617   5.584   0.241
 7906SOL    HW224618   0.749   5.562   0.149
 7907SOL     OW24619   6.085   2.152   4.248
 7907SOL    HW124620   6.010   2.139   4.184
 7907SOL    HW224621   6.137   2.067   4.257
 7908SOL     OW24622   1.547   1.499   4.372
 7908SOL    HW124623   1.547   1.566   4.445
 7908SOL    HW224624   1.585   1.412   4.405
 7909SOL     OW24625   5.205   3.750   5.256
 7909SOL    HW124626   5.274   3.678   5.259
 7909SOL    HW224627   5.114   3.710   5.268
 7910SOL     OW24628   3.142   2.801   5.623
 7910SOL    HW124629   3.042   2.792   5.620
 7910SOL    HW224630   3.171   2.867   5.554
 7911SOL     OW24631   0.645   3.644   6.363
 7911SOL    HW124632   0.571   3.656   6.296
 7911SOL    HW224633   0.725   3.604   6.317
 7912SOL     OW24634   0.463   5.197   0.334
 7912SOL    HW124635   0.520   5.145   0.270
 7912SOL    HW224636   0.509   5.284   0.356
 7913SOL     OW24637   1.256   4.851   0.551
 7913SOL    HW124638   1.207   4.818   0.633
 7913SOL    HW224639   1.291   4.943   0.568
 7914SOL     OW24640   0.255   4.974   6.534
 7914SOL    HW124641   0.289   4.930   6.618
 7914SOL    HW224642   0.206   5.058   6.558
 7915SOL     OW24643   4.845   2.690   2.409
 7915SOL    HW124644   4.846   2.755   2.333
 7915SOL    HW224645   4.831   2.738   2.495
 7916SOL     OW24646   6.009   4.055   5.286
 7916SOL    HW124647   6.076   3.982   5.277
 7916SOL    HW224648   5.994   4.098   5.197
 7917SOL     OW24649   3.525   2.880   4.115
 7917SOL    HW124650   3.547   2.865   4.018
 7917SOL    HW224651   3.439   2.834   4.136
 7918SOL     OW24652   0.126   1.465   0.629
 7918SOL    HW124653   0.151   1.402   0.556
 7918SOL    HW224654   0.140   1.422   0.718
 7919SOL     OW24655   0.092   4.273   3.292
 7919SOL    HW124656   0.042   4.294   3.209
 7919SOL    HW224657   0.042   4.307   3.372
 7920SOL     OW24658   0.283   4.800   1.527
 7920SOL    HW124659   0.213   4.851   1.577
 7920SOL    HW224660   0.242   4.759   1.446
 7921SOL     OW24661   3.703   5.440   0.166
 7921SOL    HW124662   3.669   5.460   0.258
 7921SOL    HW224663   3.782   5.379   0.171
 7922SOL     OW24664   6.583   5.755   0.338
 7922SOL    HW124665   6.644   5.819   0.385
 7922SOL    HW224666   6.489   5.785   0.348
 7923SOL     OW24667   2.457   0.295   2.562
 7923SOL    HW124668   2.514   0.213   2.559
 7923SOL    HW224669   2.433   0.322   2.469
 7924SOL     OW24670   3.624   6.589   3.195
 7924SOL    HW124671   3.661   6.516   3.137
 7924SOL    HW224672   3.679   6.672   3.183
 7925SOL     OW24673   0.250   1.795   6.379
 7925SOL    HW124674   0.275   1.859   6.306
 7925SOL    HW224675   0.183   1.839   6.439
 7926SOL     OW24676   4.294   1.114   4.329
 7926SOL    HW124677   4.374   1.159   4.366
 7926SOL    HW224678   4.318   1.021   4.300
 7927SOL     OW24679   3.801   5.567   5.059
 7927SOL    HW124680   3.884   5.563   5.115
 7927SOL    HW224681   3.822   5.609   4.971
 7928SOL     OW24682   1.129   3.450   4.016
 7928SOL    HW124683   1.205   3.510   3.991
 7928SOL    HW224684   1.159   3.354   4.008
 7929SOL     OW24685   4.023   4.178   5.486
 7929SOL    HW124686   4.098   4.147   5.427
 7929SOL    HW224687   3.945   4.204   5.429
 7930SOL     OW24688   4.898   5.843   4.040
 7930SOL    HW124689   4.876   5.940   4.048
 7930SOL    HW224690   4.862   5.794   4.119
 7931SOL     OW24691   1.608   2.080   6.517
 7931SOL    HW124692   1.607   2.040   6.426
 7931SOL    HW224693   1.515   2.104   6.544
 7932SOL     OW24694   2.555   6.561   0.363
 7932SOL    HW124695   2.489   6.632   0.389
 7932SOL    HW224696   2.641   6.575   0.411
 7933SOL     OW24697   6.871   7.003   0.327
 7933SOL    HW124698   6.820   7.002   0.240
 7933SOL    HW224699   6.930   6.922   0.331
 7934SOL     OW24700   2.494   4.330   6.908
 7934SOL    HW124701   2.569   4.282   6.861
 7934SOL    HW224702   2.493   4.426   6.878
 7935SOL     OW24703   5.204   5.413   0.213
 7935SOL    HW124704   5.135   5.357   0.260
 7935SOL    HW224705   5.186   5.412   0.114
 7936SOL     OW24706   3.420   5.296   2.368
 7936SOL    HW124707   3.377   5.240   2.298
 7936SOL    HW224708   3.367   5.290   2.453
 7937SOL     OW24709   5.451   6.939   3.829
 7937SOL    HW124710   5.486   6.920   3.737
 7937SOL    HW224711   5.396   7.022   3.827
 7938SOL     OW24712   5.113   4.876   5.027
 7938SOL    HW124713   5.176   4.941   5.068
 7938SOL    HW224714   5.149   4.845   4.939
 7939SOL     OW24715   0.484   2.078   5.993
 7939SOL    HW124716   0.481   2.074   5.893
 7939SOL    HW224717   0.554   2.014   6.027
 7940SOL     OW24718   2.333   4.563   2.589
 7940SOL    HW124719   2.412   4.514   2.626
 7940SOL    HW224720   2.331   4.553   2.490
 7941SOL     OW24721   6.991   6.894   1.181
 7941SOL    HW124722   6.964   6.950   1.259
 7941SOL    HW224723   6.913   6.839   1.150
 7942SOL     OW24724   6.730   6.313   3.105
 7942SOL    HW124725   6.656   6.375   3.133
 7942SOL    HW224726   6.692   6.223   3.084
 7943SOL     OW24727   5.560   1.860   1.061
 7943SOL    HW124728   5.463   1.883   1.068
 7943SOL    HW224729   5.583   1.838   0.966
 7944SOL     OW24730   0.207   2.724   0.334
 7944SOL    HW124731   0.193   2.822   0.327
 7944SOL    HW224732   0.252   2.691   0.251
 7945SOL     OW24733   5.762   0.096   2.680
 7945SOL    HW124734   5.676   0.045   2.674
 7945SOL    HW224735   5.832   0.038   2.724
 7946SOL     OW24736   2.050   2.864   5.542
 7946SOL    HW124737   2.038   2.830   5.635
 7946SOL    HW224738   2.039   2.788   5.477
 7947SOL     OW24739   4.021   2.917   6.658
 7947SOL    HW124740   4.070   2.932   6.571
 7947SOL    HW224741   4.042   2.826   6.692
 7948SOL     OW24742   0.298   6.555   1.106
 7948SOL    HW124743   0.204   6.524   1.088
 7948SOL    HW224744   0.298   6.653   1.125
 7949SOL     OW24745   4.500   4.765   3.591
 7949SOL    HW124746   4.529   4.860   3.576
 7949SOL    HW224747   4.503   4.745   3.689
 7950SOL     OW24748   5.065   5.634   3.418
 7950SOL    HW124749   5.112   5.723   3.423
 7950SOL    HW224750   5.132   5.563   3.397
 7951SOL     OW24751   2.641   3.827   0.874
 7951SOL    HW124752   2.566   3.879   0.914
 7951SOL    HW224753   2.728   3.856   0.914
 7952SOL     OW24754   6.898   3.390   6.926
 7952SOL    HW124755   6.860   3.481   6.945
 7952SOL    HW224756   6.975   3.372   6.987
 7953SOL     OW24757   1.893   3.133   2.945
 7953SOL    HW124758   1.940   3.116   2.859
 7953SOL    HW224759   1.911   3.057   3.008
 7954SOL     OW24760   4.833   5.007   5.482
 7954SOL    HW124761   4.884   5.019   5.567
 7954SOL    HW224762   4.897   4.998   5.405
 7955SOL     OW24763   1.144   6.450   6.111
 7955SOL    HW124764   1.139   6.472   6.013
 7955SOL    HW224765   1.237   6.426   6.135
 7956SOL     OW24766   1.269   6.039   3.027
 7956SOL    HW124767   1.228   6.118   3.072
 7956SOL    HW224768   1.198   5.987   2.980
 7957SOL     OW24769   2.065   1.423   0.863
 7957SOL    HW124770   1.994   1.353   0.857
 7957SOL    HW224771   2.049   1.493   0.793
 7958SOL     OW24772   3.272   5.678   4.242
 7958SOL    HW124773   3.371   5.662   4.231
 7958SOL    HW224774   3.257   5.736   4.322
 7959SOL     OW24775   3.970   5.164   1.041
 7959SOL    HW124776   3.892   5.119   1.084
 7959SOL    HW224777   3.946   5.191   0.948
 7960SOL     OW24778   3.647   1.594   0.497
 7960SOL    HW124779   3.625   1.599   0.594
 7960SOL    HW224780   3.742   1.567   0.485
 7961SOL     OW24781   1.507   6.053   6.734
 7961SOL    HW124782   1.485   5.978   6.671
 7961SOL    HW224783   1.485   6.140   6.691
 7962SOL     OW24784   2.015   0.449   6.994
 7962SOL    HW124785   2.053   0.503   0.044
 7962SOL    HW224786   2.082   0.381   6.964
 7963SOL     OW24787   6.093   1.184   4.314
 7963SOL    HW124788   6.059   1.152   4.225
 7963SOL    HW224789   6.078   1.113   4.383
 7964SOL     OW24790   6.177   5.113   3.554
 7964SOL    HW124791   6.094   5.169   3.542
 7964SOL    HW224792   6.255   5.161   3.516
 7965SOL     OW24793   3.343   2.841   6.486
 7965SOL    HW124794   3.400   2.815   6.563
 7965SOL    HW224795   3.398   2.889   6.418
 7966SOL     OW24796   0.764   3.615   4.865
 7966SOL    HW124797   0.672   3.597   4.829
 7966SOL    HW224798   0.765   3.596   4.963
 7967SOL     OW24799   2.877   6.340   3.916
 7967SOL    HW124800   2.890   6.380   3.825
 7967SOL    HW224801   2.901   6.408   3.985
 7968SOL     OW24802   2.217   2.927   3.168
 7968SOL    HW124803   2.254   2.867   3.097
 7968SOL    HW224804   2.118   2.913   3.175
 7969SOL     OW24805   4.849   0.201   2.340
 7969SOL    HW124806   4.930   0.252   2.311
 7969SOL    HW224807   4.770   0.263   2.343
 7970SOL     OW24808   7.022   3.575   2.819
 7970SOL    HW124809   6.937   3.622   2.844
 7970SOL    HW224810   0.059   3.573   2.897
 7971SOL     OW24811   3.331   1.494   1.060
 7971SOL    HW124812   3.396   1.494   0.985
 7971SOL    HW224813   3.294   1.401   1.072
 7972SOL     OW24814   0.403   4.393   1.213
 7972SOL    HW124815   0.324   4.382   1.153
 7972SOL    HW224816   0.470   4.322   1.194
 7973SOL     OW24817   4.945   3.447   2.975
 7973SOL    HW124818   4.916   3.398   2.893
 7973SOL    HW224819   4.973   3.540   2.950
 7974SOL     OW24820   5.473   0.383   4.889
 7974SOL    HW124821   5.482   0.449   4.814
 7974SOL    HW224822   5.376   0.371   4.911
 7975SOL     OW24823   5.845   0.006   3.805
 7975SOL    HW124824   5.873   0.017   3.710
 7975SOL    HW224825   5.852   6.934   3.831
 7976SOL     OW24826   0.672   0.414   5.888
 7976SOL    HW124827   0.592   0.470   5.865
 7976SOL    HW224828   0.681   0.340   5.821
 7977SOL     OW24829   4.317   5.552   2.385
 7977SOL    HW124830   4.293   5.470   2.437
 7977SOL    HW224831   4.245   5.621   2.397
 7978SOL     OW24832   5.905   3.702   5.848
 7978SOL    HW124833   5.827   3.702   5.911
 7978SOL    HW224834   5.986   3.665   5.895
 7979SOL     OW24835   2.701   0.635   5.308
 7979SOL    HW124836   2.782   0.579   5.287
 7979SOL    HW224837   2.719   0.730   5.281
 7980SOL     OW24838   3.160   6.085   6.978
 7980SOL    HW124839   3.117   6.143   0.022
 7980SOL    HW224840   3.095   6.014   6.950
 7981SOL     OW24841   0.507   5.417   2.199
 7981SOL    HW124842   0.431   5.474   2.229
 7981SOL    HW224843   0.592   5.449   2.241
 7982SOL     OW24844   6.693   1.819   1.159
 7982SOL    HW124845   6.709   1.736   1.106
 7982SOL    HW224846   6.617   1.805   1.222
 7983SOL     OW24847   5.284   2.109   3.028
 7983SOL    HW124848   5.238   2.024   3.002
 7983SOL    HW224849   5.365   2.122   2.971
 7984SOL     OW24850   1.649   1.880   1.590
 7984SOL    HW124851   1.594   1.936   1.652
 7984SOL    HW224852   1.733   1.929   1.567
 7985SOL     OW24853   1.926   6.853   3.326
 7985SOL    HW124854   1.888   6.803   3.249
 7985SOL    HW224855   1.948   6.946   3.298
 7986SOL     OW24856   3.506   1.028   6.695
 7986SOL    HW124857   3.406   1.024   6.696
 7986SOL    HW224858   3.537   1.108   6.747
 7987SOL     OW24859   6.985   4.137   6.370
 7987SOL    HW124860   6.917   4.127   6.297
 7987SOL    HW224861   6.965   4.072   6.443
 7988SOL     OW24862   1.942   2.118   4.655
 7988SOL    HW124863   1.915   2.155   4.566
 7988SOL    HW224864   1.861   2.093   4.707
 7989SOL     OW24865   3.404   2.423   5.330
 7989SOL    HW124866   3.414   2.516   5.364
 7989SOL    HW224867   3.312   2.410   5.294
 7990SOL     OW24868   6.934   3.935   3.560
 7990SOL    HW124869   6.918   4.025   3.601
 7990SOL    HW224870   0.007   3.913   3.565
 7991SOL     OW24871   6.481   1.630   5.391
 7991SOL    HW124872   6.480   1.593   5.484
 7991SOL    HW224873   6.416   1.579   5.334
 7992SOL     OW24874   1.540   6.238   0.883
 7992SOL    HW124875   1.638   6.219   0.886
 7992SOL    HW224876   1.491   6.168   0.934
 7993SOL     OW24877   1.682   5.737   6.449
 7993SOL    HW124878   1.672   5.825   6.403
 7993SOL    HW224879   1.597   5.685   6.440
 7994SOL     OW24880   4.522   0.460   3.318
 7994SOL    HW124881   4.455   0.391   3.344
 7994SOL    HW224882   4.608   0.445   3.367
 7995SOL     OW24883   3.977   5.665   3.281
 7995SOL    HW124884   4.024   5.684   3.367
 7995SOL    HW224885   4.007   5.576   3.245
 7996SOL     OW24886   2.671   6.362   4.373
 7996SOL    HW124887   2.603   6.434   4.385
 7996SOL    HW224888   2.640   6.298   4.303
 7997SOL     OW24889   0.148   1.400   0.910
 7997SOL    HW124890   0.224   1.354   0.956
 7997SOL    HW224891   0.069   1.403   0.971
 7998SOL     OW24892   4.008   5.362   0.826
 7998SOL    HW124893   3.934   5.415   0.868
 7998SOL    HW224894   4.056   5.417   0.758
 7999SOL     OW24895   1.072   0.898   6.129
 7999SOL    HW124896   1.137   0.864   6.196
 7999SOL    HW224897   0.984   0.850   6.140
 8000SOL     OW24898   5.967   0.460   6.879
 8000SOL    HW124899   6.046   0.431   6.825
 8000SOL    HW224900   5.910   0.521   6.825
 8001SOL     OW24901   3.315   6.182   1.522
 8001SOL    HW124902   3.373   6.180   1.441
 8001SOL    HW224903   3.253   6.260   1.517
 8002SOL     OW24904   0.125   3.043   6.106
 8002SOL    HW124905   0.049   3.075   6.163
 8002SOL    HW224906   0.092   2.976   6.040
 8003SOL     OW24907   2.368   4.450   2.289
 8003SOL    HW124908   2.388   4.371   2.230
 8003SOL    HW224909   2.378   4.534   2.236
 8004SOL     OW24910   1.543   4.518   3.040
 8004SOL    HW124911   1.608   4.463   2.987
 8004SOL    HW224912   1.456   4.523   2.991
 8005SOL     OW24913   3.331   1.488   2.282
 8005SOL    HW124914   3.238   1.514   2.307
 8005SOL    HW224915   3.387   1.570   2.271
 8006SOL     OW24916   2.442   6.284   0.400
 8006SOL    HW124917   2.500   6.364   0.384
 8006SOL    HW224918   2.390   6.298   0.485
 8007SOL     OW24919   1.015   6.624   4.091
 8007SOL    HW124920   0.990   6.577   4.176
 8007SOL    HW224921   1.107   6.661   4.101
 8008SOL     OW24922   4.967   0.096   6.023
 8008SOL    HW124923   4.969   0.170   6.091
 8008SOL    HW224924   4.876   0.056   6.020
 8009SOL     OW24925   6.365   0.247   3.649
 8009SOL    HW124926   6.421   0.169   3.677
 8009SOL    HW224927   6.326   0.229   3.559
 8010SOL     OW24928   1.669   1.465   6.882
 8010SOL    HW124929   1.611   1.514   6.947
 8010SOL    HW224930   1.624   1.464   6.793
 8011SOL     OW24931   2.435   2.860   1.421
 8011SOL    HW124932   2.350   2.909   1.441
 8011SOL    HW224933   2.418   2.791   1.351
 8012SOL     OW24934   2.216   5.419   1.351
 8012SOL    HW124935   2.261   5.489   1.295
 8012SOL    HW224936   2.155   5.463   1.417
 8013SOL     OW24937   0.717   5.284   4.752
 8013SOL    HW124938   0.742   5.347   4.825
 8013SOL    HW224939   0.766   5.197   4.764
 8014SOL     OW24940   1.006   6.321   5.105
 8014SOL    HW124941   1.074   6.363   5.165
 8014SOL    HW224942   1.007   6.222   5.119
 8015SOL     OW24943   2.787   1.362   0.222
 8015SOL    HW124944   2.741   1.448   0.243
 8015SOL    HW224945   2.868   1.379   0.167
 8016SOL     OW24946   4.277   0.317   6.192
 8016SOL    HW124947   4.297   0.415   6.191
 8016SOL    HW224948   4.362   0.266   6.183
 8017SOL     OW24949   6.578   5.053   6.490
 8017SOL    HW124950   6.510   4.987   6.522
 8017SOL    HW224951   6.663   5.042   6.541
 8018SOL     OW24952   4.058   2.301   6.137
 8018SOL    HW124953   4.122   2.336   6.068
 8018SOL    HW224954   3.976   2.358   6.137
 8019SOL     OW24955   1.729   4.022   6.884
 8019SOL    HW124956   1.796   4.034   6.811
 8019SOL    HW224957   1.640   4.057   6.854
 8020SOL     OW24958   6.450   6.147   0.806
 8020SOL    HW124959   6.377   6.197   0.760
 8020SOL    HW224960   6.489   6.079   0.743
 8021SOL     OW24961   1.509   2.111   2.111
 8021SOL    HW124962   1.555   2.025   2.133
 8021SOL    HW224963   1.452   2.098   2.030
 8022SOL     OW24964   4.227   0.734   2.945
 8022SOL    HW124965   4.255   0.819   2.990
 8022SOL    HW224966   4.221   0.661   3.013
 8023SOL     OW24967   6.112   5.859   3.476
 8023SOL    HW124968   6.132   5.847   3.573
 8023SOL    HW224969   6.122   5.956   3.452
 8024SOL     OW24970   2.752   4.734   0.320
 8024SOL    HW124971   2.809   4.796   0.266
 8024SOL    HW224972   2.782   4.640   0.306
 8025SOL     OW24973   3.095   6.165   5.799
 8025SOL    HW124974   3.186   6.165   5.840
 8025SOL    HW224975   3.101   6.138   5.703
 8026SOL     OW24976   0.703   4.178   6.809
 8026SOL    HW124977   0.705   4.172   6.709
 8026SOL    HW224978   0.702   4.086   6.849
 8027SOL     OW24979   4.663   2.172   5.747
 8027SOL    HW124980   4.754   2.188   5.707
 8027SOL    HW224981   4.653   2.230   5.828
 8028SOL     OW24982   3.973   4.952   6.267
 8028SOL    HW124983   3.919   5.037   6.266
 8028SOL    HW224984   4.066   4.972   6.237
 8029SOL     OW24985   5.626   3.907   6.957
 8029SOL    HW124986   5.719   3.877   6.980
 8029SOL    HW224987   5.575   3.829   6.919
 8030SOL     OW24988   5.983   4.174   6.298
 8030SOL    HW124989   5.958   4.081   6.326
 8030SOL    HW224990   5.899   4.226   6.279
 8031SOL     OW24991   4.532   5.753   2.622
 8031SOL    HW124992   4.541   5.697   2.540
 8031SOL    HW224993   4.442   5.737   2.664
 8032SOL     OW24994   5.851   4.465   5.158
 8032SOL    HW124995   5.803   4.508   5.234
 8032SOL    HW224996   5.810   4.377   5.137
 8033SOL     OW24997   4.882   3.700   0.194
 8033SOL    HW124998   4.891   3.787   0.146
 8033SOL    HW224999   4.815   3.643   0.146
 8034SOL     OW25000   6.002   1.242   5.435
 8034SOL    HW125001   5.912   1.226   5.476
 8034SOL    HW225002   6.006   1.198   5.345
 8035SOL     OW25003   4.822   6.913   5.123
 8035SOL    HW125004   4.724   6.898   5.119
 8035SOL    HW225005   4.866   6.837   5.172
 8036SOL     OW25006   0.918   3.973   2.157
 8036SOL    HW125007   0.945   3.886   2.198
 8036SOL    HW225008   0.958   3.981   2.066
 8037SOL     OW25009   1.636   3.714   1.444
 8037SOL    HW125010   1.691   3.691   1.364
 8037SOL    HW225011   1.598   3.631   1.484
 8038SOL     OW25012   4.829   1.341   2.366
 8038SOL    HW125013   4.743   1.298   2.341
 8038SOL    HW225014   4.902   1.308   2.305
 8039SOL     OW25015   1.386   6.727   3.374
 8039SOL    HW125016   1.434   6.730   3.286
 8039SOL    HW225017   1.347   6.636   3.387
 8040SOL     OW25018   1.529   5.871   1.247
 8040SOL    HW125019   1.510   5.899   1.341
 8040SOL    HW225020   1.527   5.772   1.240
 8041SOL     OW25021   3.202   2.079   2.077
 8041SOL    HW125022   3.290   2.097   2.121
 8041SOL    HW225023   3.217   2.066   1.979
 8042SOL     OW25024   3.658   3.016   2.791
 8042SOL    HW125025   3.742   2.994   2.742
 8042SOL    HW225026   3.582   2.964   2.753
 8043SOL     OW25027   3.936   6.353   0.542
 8043SOL    HW125028   3.940   6.411   0.461
 8043SOL    HW225029   3.842   6.354   0.578
 8044SOL     OW25030   3.126   3.608   0.739
 8044SOL    HW125031   3.089   3.698   0.715
 8044SOL    HW225032   3.062   3.561   0.800
 8045SOL     OW25033   5.449   0.757   2.264
 8045SOL    HW125034   5.394   0.838   2.280
 8045SOL    HW225035   5.397   0.675   2.289
 8046SOL     OW25036   6.095   4.905   6.637
 8046SOL    HW125037   5.999   4.910   6.666
 8046SOL    HW225038   6.152   4.951   6.705
 8047SOL     OW25039   3.801   4.949   5.127
 8047SOL    HW125040   3.815   5.037   5.173
 8047SOL    HW225041   3.772   4.881   5.194
 8048SOL     OW25042   5.039   1.037   5.545
 8048SOL    HW125043   5.092   1.106   5.496
 8048SOL    HW225044   4.972   1.082   5.604
 8049SOL     OW25045   1.047   6.972   1.540
 8049SOL    HW125046   0.988   6.936   1.612
 8049SOL    HW225047   0.993   0.007   1.480
 8050SOL     OW25048   0.606   4.058   1.856
 8050SOL    HW125049   0.597   3.987   1.926
 8050SOL    HW225050   0.652   4.020   1.775
 8051SOL     OW25051   4.993   6.787   2.863
 8051SOL    HW125052   4.985   6.831   2.952
 8051SOL    HW225053   5.089   6.785   2.835
 8052SOL     OW25054   3.511   1.455   1.837
 8052SOL    HW125055   3.433   1.517   1.835
 8052SOL    HW225056   3.478   1.361   1.828
 8053SOL     OW25057   3.532   3.548   2.811
 8053SOL    HW125058   3.473   3.619   2.849
 8053SOL    HW225059   3.485   3.460   2.813
 8054SOL     OW25060   5.415   6.289   4.109
 8054SOL    HW125061   5.498   6.270   4.160
 8054SOL    HW225062   5.335   6.263   4.164
 8055SOL     OW25063   0.540   0.322   6.222
 8055SOL    HW125064   0.529   0.356   6.129
 8055SOL    HW225065   0.452   0.291   6.257
 8056SOL     OW25066   4.028   1.114   3.700
 8056SOL    HW125067   4.084   1.085   3.777
 8056SOL    HW225068   3.996   1.208   3.716
 8057SOL     OW25069   2.233   1.073   2.094
 8057SOL    HW125070   2.316   1.122   2.067
 8057SOL    HW225071   2.247   1.032   2.184
 8058SOL     OW25072   3.077   0.443   2.735
 8058SOL    HW125073   3.022   0.363   2.760
 8058SOL    HW225074   3.028   0.527   2.762
 8059SOL     OW25075   4.074   2.201   4.900
 8059SOL    HW125076   3.990   2.225   4.948
 8059SOL    HW225077   4.150   2.254   4.937
 8060SOL     OW25078   0.277   1.260   4.413
 8060SOL    HW125079   0.333   1.261   4.495
 8060SOL    HW225080   0.197   1.201   4.427
 8061SOL     OW25081   6.864   6.833   2.040
 8061SOL    HW125082   6.809   6.825   1.957
 8061SOL    HW225083   6.807   6.812   2.120
 8062SOL     OW25084   2.351   4.279   3.826
 8062SOL    HW125085   2.278   4.348   3.821
 8062SOL    HW225086   2.356   4.244   3.920
 8063SOL     OW25087   1.775   3.516   0.508
 8063SOL    HW125088   1.838   3.501   0.432
 8063SOL    HW225089   1.735   3.429   0.537
 8064SOL     OW25090   0.309   4.783   1.020
 8064SOL    HW125091   0.332   4.685   1.014
 8064SOL    HW225092   0.390   4.837   0.998
 8065SOL     OW25093   4.403   6.449   3.486
 8065SOL    HW125094   4.460   6.422   3.564
 8065SOL    HW225095   4.336   6.517   3.516
 8066SOL     OW25096   1.266   1.687   6.705
 8066SOL    HW125097   1.204   1.626   6.755
 8066SOL    HW225098   1.232   1.781   6.710
 8067SOL     OW25099   4.845   3.147   1.420
 8067SOL    HW125100   4.889   3.234   1.395
 8067SOL    HW225101   4.753   3.144   1.382
 8068SOL     OW25102   6.930   5.340   6.391
 8068SOL    HW125103   6.986   5.411   6.434
 8068SOL    HW225104   6.988   5.280   6.337
 8069SOL     OW25105   2.148   5.769   1.406
 8069SOL    HW125106   2.144   5.867   1.387
 8069SOL    HW225107   2.087   5.747   1.482
 8070SOL     OW25108   3.151   4.101   0.709
 8070SOL    HW125109   3.237   4.114   0.757
 8070SOL    HW225110   3.153   4.151   0.622
 8071SOL     OW25111   3.156   6.135   4.680
 8071SOL    HW125112   3.236   6.139   4.740
 8071SOL    HW225113   3.108   6.048   4.694
 8072SOL     OW25114   3.344   1.132   0.682
 8072SOL    HW125115   3.282   1.100   0.610
 8072SOL    HW225116   3.391   1.215   0.651
 8073SOL     OW25117   4.936   6.849   6.687
 8073SOL    HW125118   4.974   6.886   6.771
 8073SOL    HW225119   4.836   6.859   6.687
 8074SOL     OW25120   3.162   2.672   6.649
 8074SOL    HW125121   3.122   2.600   6.592
 8074SOL    HW225122   3.212   2.736   6.590
 8075SOL     OW25123   6.603   1.207   1.715
 8075SOL    HW125124   6.573   1.114   1.738
 8075SOL    HW225125   6.654   1.205   1.630
 8076SOL     OW25126   4.256   2.878   5.382
 8076SOL    HW125127   4.290   2.790   5.347
 8076SOL    HW225128   4.177   2.863   5.440
 8077SOL     OW25129   1.151   6.479   1.968
 8077SOL    HW125130   1.203   6.546   1.916
 8077SOL    HW225131   1.102   6.524   2.042
 8078SOL     OW25132   6.353   1.754   0.942
 8078SOL    HW125133   6.335   1.701   1.024
 8078SOL    HW225134   6.268   1.762   0.889
 8079SOL     OW25135   5.121   1.726   3.401
 8079SOL    HW125136   5.102   1.824   3.407
 8079SOL    HW225137   5.215   1.712   3.369
 8080SOL     OW25138   0.893   3.866   0.609
 8080SOL    HW125139   0.851   3.807   0.540
 8080SOL    HW225140   0.957   3.813   0.663
 8081SOL     OW25141   5.286   0.703   5.470
 8081SOL    HW125142   5.331   0.791   5.485
 8081SOL    HW225143   5.196   0.719   5.429
 8082SOL     OW25144   5.878   1.773   2.205
 8082SOL    HW125145   5.795   1.790   2.258
 8082SOL    HW225146   5.953   1.749   2.266
 8083SOL     OW25147   5.100   2.949   2.317
 8083SOL    HW125148   5.089   2.961   2.415
 8083SOL    HW225149   5.173   2.882   2.300
 8084SOL     OW25150   5.942   6.622   1.077
 8084SOL    HW125151   5.896   6.711   1.084
 8084SOL    HW225152   5.974   6.594   1.168
 8085SOL     OW25153   5.692   0.608   2.636
 8085SOL    HW125154   5.742   0.545   2.695
 8085SOL    HW225155   5.624   0.557   2.583
 8086SOL     OW25156   4.102   0.500   4.116
 8086SOL    HW125157   4.145   0.583   4.152
 8086SOL    HW225158   4.100   0.430   4.187
 8087SOL     OW25159   2.106   1.625   1.051
 8087SOL    HW125160   2.114   1.548   0.988
 8087SOL    HW225161   2.084   1.708   1.001
 8088SOL     OW25162   5.978   1.653   1.782
 8088SOL    HW125163   5.939   1.739   1.750
 8088SOL    HW225164   6.059   1.672   1.837
 8089SOL     OW25165   5.661   1.722   0.557
 8089SOL    HW125166   5.625   1.652   0.495
 8089SOL    HW225167   5.737   1.684   0.609
 8090SOL     OW25168   4.690   1.663   6.105
 8090SOL    HW125169   4.717   1.625   6.016
 8090SOL    HW225170   4.591   1.675   6.108
 8091SOL     OW25171   3.352   3.668   6.446
 8091SOL    HW125172   3.268   3.678   6.500
 8091SOL    HW225173   3.352   3.580   6.400
 8092SOL     OW25174   1.233   1.720   5.013
 8092SOL    HW125175   1.147   1.709   5.062
 8092SOL    HW225176   1.287   1.793   5.056
 8093SOL     OW25177   5.714   5.617   1.712
 8093SOL    HW125178   5.697   5.686   1.642
 8093SOL    HW225179   5.627   5.589   1.753
 8094SOL     OW25180   2.294   4.134   4.685
 8094SOL    HW125181   2.376   4.075   4.685
 8094SOL    HW225182   2.221   4.089   4.735
 8095SOL     OW25183   6.240   3.547   3.935
 8095SOL    HW125184   6.154   3.584   3.900
 8095SOL    HW225185   6.308   3.543   3.861
 8096SOL     OW25186   3.366   5.670   3.793
 8096SOL    HW125187   3.403   5.635   3.706
 8096SOL    HW225188   3.336   5.593   3.849
 8097SOL     OW25189   5.056   0.745   4.238
 8097SOL    HW125190   5.059   0.812   4.312
 8097SOL    HW225191   4.961   0.722   4.218
 8098SOL     OW25192   2.423   6.795   4.506
 8098SOL    HW125193   2.336   6.820   4.549
 8098SOL    HW225194   2.470   6.878   4.477
 8099SOL     OW25195   6.289   0.693   4.645
 8099SOL    HW125196   6.189   0.691   4.653
 8099SOL    HW225197   6.314   0.696   4.548
 8100SOL     OW25198   0.169   6.853   0.272
 8100SOL    HW125199   0.173   6.885   0.177
 8100SOL    HW225200   0.108   6.774   0.278
 8101SOL     OW25201   2.172   0.312   4.650
 8101SOL    HW125202   2.131   0.396   4.685
 8101SOL    HW225203   2.269   0.328   4.629
 8102SOL     OW25204   1.453   5.461   5.739
 8102SOL    HW125205   1.485   5.370   5.766
 8102SOL    HW225206   1.355   5.458   5.719
 8103SOL     OW25207   4.213   1.327   1.237
 8103SOL    HW125208   4.226   1.270   1.156
 8103SOL    HW225209   4.117   1.325   1.264
 8104SOL     OW25210   2.819   6.693   5.907
 8104SOL    HW125211   2.737   6.708   5.962
 8104SOL    HW225212   2.893   6.660   5.967
 8105SOL     OW25213   2.145   2.268   3.449
 8105SOL    HW125214   2.187   2.358   3.433
 8105SOL    HW225215   2.181   2.202   3.383
 8106SOL     OW25216   1.948   5.639   3.719
 8106SOL    HW125217   1.971   5.711   3.653
 8106SOL    HW225218   1.935   5.679   3.809
 8107SOL     OW25219   1.574   6.253   5.536
 8107SOL    HW125220   1.672   6.252   5.560
 8107SOL    HW225221   1.530   6.171   5.573
 8108SOL     OW25222   6.065   2.640   4.647
 8108SOL    HW125223   6.154   2.660   4.687
 8108SOL    HW225224   6.044   2.543   4.660
 8109SOL     OW25225   1.650   4.409   4.468
 8109SOL    HW125226   1.578   4.461   4.421
 8109SOL    HW225227   1.733   4.408   4.412
 8110SOL     OW25228   3.583   6.497   0.380
 8110SOL    HW125229   3.513   6.541   0.324
 8110SOL    HW225230   3.672   6.538   0.359
 8111SOL     OW25231   3.512   0.180   6.009
 8111SOL    HW125232   3.461   0.222   6.084
 8111SOL    HW225233   3.485   0.222   5.922
 8112SOL     OW25234   1.895   1.057   5.430
 8112SOL    HW125235   1.987   1.081   5.458
 8112SOL    HW225236   1.845   1.139   5.402
 8113SOL     OW25237   2.652   3.003   0.065
 8113SOL    HW125238   2.730   2.975   0.122
 8113SOL    HW225239   2.569   3.005   0.121
 8114SOL     OW25240   2.189   3.019   2.433
 8114SOL    HW125241   2.195   3.091   2.364
 8114SOL    HW225242   2.185   3.059   2.524
 8115SOL     OW25243   3.948   1.328   1.258
 8115SOL    HW125244   3.882   1.266   1.215
 8115SOL    HW225245   3.900   1.391   1.319
 8116SOL     OW25246   4.924   6.811   4.780
 8116SOL    HW125247   4.922   6.791   4.682
 8116SOL    HW225248   4.834   6.842   4.809
 8117SOL     OW25249   1.874   1.482   3.683
 8117SOL    HW125250   1.867   1.582   3.686
 8117SOL    HW225251   1.968   1.455   3.661
 8118SOL     OW25252   0.002   3.815   5.567
 8118SOL    HW125253   6.978   3.756   5.504
 8118SOL    HW225254   0.035   3.761   5.645
 8119SOL     OW25255   0.111   5.883   5.138
 8119SOL    HW125256   0.126   5.818   5.212
 8119SOL    HW225257   0.167   5.965   5.152
 8120SOL     OW25258   3.942   4.166   6.979
 8120SOL    HW125259   4.020   4.227   6.988
 8120SOL    HW225260   3.888   4.193   6.899
 8121SOL     OW25261   6.643   5.830   3.520
 8121SOL    HW125262   6.626   5.845   3.423
 8121SOL    HW225263   6.569   5.774   3.558
 8122SOL     OW25264   0.234   5.112   2.530
 8122SOL    HW125265   0.236   5.208   2.501
 8122SOL    HW225266   0.297   5.059   2.473
 8123SOL     OW25267   0.613   0.467   6.971
 8123SOL    HW125268   0.548   0.542   6.960
 8123SOL    HW225269   0.569   0.393   7.021
 8124SOL     OW25270   0.920   6.399   1.342
 8124SOL    HW125271   0.896   6.378   1.436
 8124SOL    HW225272   1.003   6.348   1.316
 8125SOL     OW25273   6.203   5.299   2.920
 8125SOL    HW125274   6.147   5.343   2.991
 8125SOL    HW225275   6.147   5.286   2.838
 8126SOL     OW25276   6.242   4.085   2.015
 8126SOL    HW125277   6.319   4.023   2.033
 8126SOL    HW225278   6.175   4.077   2.089
 8127SOL     OW25279   2.332   6.077   0.789
 8127SOL    HW125280   2.363   6.054   0.697
 8127SOL    HW225281   2.274   6.004   0.824
 8128SOL     OW25282   3.130   2.625   6.924
 8128SOL    HW125283   3.143   2.619   6.825
 8128SOL    HW225284   3.036   2.598   6.946
 8129SOL     OW25285   5.056   1.195   6.416
 8129SOL    HW125286   4.977   1.155   6.463
 8129SOL    HW225287   5.057   1.294   6.431
 8130SOL     OW25288   0.917   5.413   6.033
 8130SOL    HW125289   0.824   5.450   6.036
 8130SOL    HW225290   0.977   5.471   6.089
 8131SOL     OW25291   2.548   0.732   0.545
 8131SOL    HW125292   2.463   0.710   0.498
 8131SOL    HW225293   2.529   0.795   0.620
 8132SOL     OW25294   5.433   6.352   6.062
 8132SOL    HW125295   5.385   6.266   6.085
 8132SOL    HW225296   5.523   6.352   6.105
 8133SOL     OW25297   3.620   4.867   2.458
 8133SOL    HW125298   3.534   4.892   2.412
 8133SOL    HW225299   3.690   4.846   2.390
 8134SOL     OW25300   1.646   1.373   4.130
 8134SOL    HW125301   1.720   1.410   4.075
 8134SOL    HW225302   1.648   1.414   4.221
 8135SOL     OW25303   2.725   5.004   2.388
 8135SOL    HW125304   2.802   5.030   2.330
 8135SOL    HW225305   2.686   4.918   2.356
 8136SOL     OW25306   4.617   5.122   2.883
 8136SOL    HW125307   4.552   5.145   2.955
 8136SOL    HW225308   4.631   5.202   2.824
 8137SOL     OW25309   2.413   2.353   4.061
 8137SOL    HW125310   2.402   2.451   4.040
 8137SOL    HW225311   2.492   2.341   4.121
 8138SOL     OW25312   5.575   1.768   2.301
 8138SOL    HW125313   5.544   1.694   2.241
 8138SOL    HW225314   5.561   1.856   2.255
 8139SOL     OW25315   1.175   2.689   3.709
 8139SOL    HW125316   1.230   2.769   3.732
 8139SOL    HW225317   1.230   2.606   3.718
 8140SOL     OW25318   3.707   0.492   0.305
 8140SOL    HW125319   3.729   0.441   0.389
 8140SOL    HW225320   3.611   0.477   0.282
 8141SOL     OW25321   5.509   0.506   5.388
 8141SOL    HW125322   5.464   0.595   5.394
 8141SOL    HW225323   5.471   0.445   5.457
 8142SOL     OW25324   2.094   5.108   0.955
 8142SOL    HW125325   2.183   5.117   0.911
 8142SOL    HW225326   2.100   5.143   1.048
 8143SOL     OW25327   4.972   5.157   1.198
 8143SOL    HW125328   5.002   5.171   1.292
 8143SOL    HW225329   4.879   5.190   1.187
 8144SOL     OW25330   0.803   6.003   5.357
 8144SOL    HW125331   0.825   6.009   5.454
 8144SOL    HW225332   0.758   5.916   5.338
 8145SOL     OW25333   5.184   4.530   0.376
 8145SOL    HW125334   5.204   4.553   0.281
 8145SOL    HW225335   5.195   4.611   0.433
 8146SOL     OW25336   6.165   0.086   5.417
 8146SOL    HW125337   6.256   0.123   5.437
 8146SOL    HW225338   6.134   0.121   5.329
 8147SOL     OW25339   0.262   0.676   0.805
 8147SOL    HW125340   0.311   0.607   0.752
 8147SOL    HW225341   0.325   0.719   0.869
 8148SOL     OW25342   3.999   4.470   6.688
 8148SOL    HW125343   3.956   4.379   6.688
 8148SOL    HW225344   3.966   4.521   6.767
 8149SOL     OW25345   1.523   6.324   4.563
 8149SOL    HW125346   1.435   6.351   4.523
 8149SOL    HW225347   1.513   6.316   4.662
 8150SOL     OW25348   0.419   3.346   1.173
 8150SOL    HW125349   0.414   3.342   1.074
 8150SOL    HW225350   0.335   3.387   1.209
 8151SOL     OW25351   5.992   5.737   4.050
 8151SOL    HW125352   5.931   5.743   4.129
 8151SOL    HW225353   6.004   5.642   4.023
 8152SOL     OW25354   4.797   2.074   3.219
 8152SOL    HW125355   4.763   1.993   3.267
 8152SOL    HW225356   4.893   2.059   3.193
 8153SOL     OW25357   0.373   0.721   3.489
 8153SOL    HW125358   0.431   0.789   3.444
 8153SOL    HW225359   0.277   0.743   3.471
 8154SOL     OW25360   3.145   1.189   2.994
 8154SOL    HW125361   3.218   1.121   2.985
 8154SOL    HW225362   3.057   1.146   2.974
 8155SOL     OW25363   1.171   4.233   2.026
 8155SOL    HW125364   1.201   4.297   2.096
 8155SOL    HW225365   1.195   4.140   2.052
 8156SOL     OW25366   5.222   5.885   1.742
 8156SOL    HW125367   5.234   5.801   1.796
 8156SOL    HW225368   5.131   5.886   1.702
 8157SOL     OW25369   6.138   4.167   5.918
 8157SOL    HW125370   6.042   4.142   5.904
 8157SOL    HW225371   6.148   4.266   5.910
 8158SOL     OW25372   5.135   5.092   6.258
 8158SOL    HW125373   5.094   5.172   6.215
 8158SOL    HW225374   5.087   5.071   6.343
 8159SOL     OW25375   3.730   5.756   5.622
 8159SOL    HW125376   3.730   5.808   5.708
 8159SOL    HW225377   3.770   5.813   5.550
 8160SOL     OW25378   4.476   0.165   3.953
 8160SOL    HW125379   4.500   0.130   4.044
 8160SOL    HW225380   4.418   0.246   3.963
 8161SOL     OW25381   5.887   3.913   6.364
 8161SOL    HW125382   5.810   3.858   6.394
 8161SOL    HW225383   5.972   3.875   6.401
 8162SOL     OW25384   0.359   5.482   0.142
 8162SOL    HW125385   0.424   5.413   0.111
 8162SOL    HW225386   0.410   5.559   0.183
 8163SOL     OW25387   3.477   4.918   5.823
 8163SOL    HW125388   3.502   4.973   5.744
 8163SOL    HW225389   3.555   4.911   5.885
 8164SOL     OW25390   4.858   1.467   0.504
 8164SOL    HW125391   4.781   1.524   0.535
 8164SOL    HW225392   4.874   1.394   0.571
 8165SOL     OW25393   6.694   4.254   6.373
 8165SOL    HW125394   6.715   4.176   6.314
 8165SOL    HW225395   6.692   4.224   6.468
 8166SOL     OW25396   2.133   1.775   3.087
 8166SOL    HW125397   2.088   1.843   3.145
 8166SOL    HW225398   2.130   1.685   3.131
 8167SOL     OW25399   6.825   0.942   3.885
 8167SOL    HW125400   6.820   0.873   3.812
 8167SOL    HW225401   6.895   0.916   3.951
 8168SOL     OW25402   2.926   0.002   1.360
 8168SOL    HW125403   2.850   6.972   1.395
 8168SOL    HW225404   2.900   0.098   1.360
 8169SOL     OW25405   3.644   1.988   0.658
 8169SOL    HW125406   3.594   1.935   0.589
 8169SOL    HW225407   3.615   1.960   0.749
 8170SOL     OW25408   6.524   4.620   1.432
 8170SOL    HW125409   6.454   4.559   1.395
 8170SOL    HW225410   6.613   4.597   1.393
 8171SOL     OW25411   1.297   1.557   6.258
 8171SOL    HW125412   1.303   1.479   6.320
 8171SOL    HW225413   1.370   1.622   6.280
 8172SOL     OW25414   0.338   2.523   2.064
 8172SOL    HW125415   0.343   2.558   2.158
 8172SOL    HW225416   0.322   2.598   2.001
 8173SOL     OW25417   5.840   2.126   2.620
 8173SOL    HW125418   5.824   2.089   2.711
 8173SOL    HW225419   5.899   2.064   2.568
 8174SOL     OW25420   0.970   6.472   3.009
 8174SOL    HW125421   1.004   6.556   2.970
 8174SOL    HW225422   0.899   6.433   2.950
 8175SOL     OW25423   0.811   2.687   4.220
 8175SOL    HW125424   0.814   2.681   4.120
 8175SOL    HW225425   0.718   2.671   4.251
 8176SOL     OW25426   2.188   4.648   1.763
 8176SOL    HW125427   2.222   4.571   1.819
 8176SOL    HW225428   2.248   4.727   1.777
 8177SOL     OW25429   3.658   1.051   3.168
 8177SOL    HW125430   3.757   1.051   3.157
 8177SOL    HW225431   3.634   1.011   3.256
 8178SOL     OW25432   3.207   6.417   1.140
 8178SOL    HW125433   3.146   6.476   1.192
 8178SOL    HW225434   3.154   6.356   1.081
 8179SOL     OW25435   5.647   1.028   4.634
 8179SOL    HW125436   5.597   0.997   4.553
 8179SOL    HW225437   5.597   1.103   4.677
 8180SOL     OW25438   5.950   0.342   0.125
 8180SOL    HW125439   5.852   0.325   0.133
 8180SOL    HW225440   5.970   0.385   0.037
 8181SOL     OW25441   1.157   0.719   1.191
 8181SOL    HW125442   1.157   0.640   1.131
 8181SOL    HW225443   1.064   0.752   1.205
 8182SOL     OW25444   3.550   3.719   4.277
 8182SOL    HW125445   3.518   3.764   4.360
 8182SOL    HW225446   3.493   3.639   4.259
 8183SOL     OW25447   6.455   1.554   4.451
 8183SOL    HW125448   6.464   1.618   4.527
 8183SOL    HW225449   6.399   1.477   4.478
 8184SOL     OW25450   0.951   0.126   0.614
 8184SOL    HW125451   0.885   0.067   0.568
 8184SOL    HW225452   0.938   0.220   0.584
 8185SOL     OW25453   2.086   0.456   0.371
 8185SOL    HW125454   2.001   0.414   0.404
 8185SOL    HW225455   2.067   0.516   0.294
 8186SOL     OW25456   2.544   4.143   5.380
 8186SOL    HW125457   2.521   4.232   5.340
 8186SOL    HW225458   2.512   4.070   5.321
 8187SOL     OW25459   2.171   1.403   4.762
 8187SOL    HW125460   2.202   1.429   4.671
 8187SOL    HW225461   2.153   1.304   4.764
 8188SOL     OW25462   4.510   2.139   3.831
 8188SOL    HW125463   4.464   2.077   3.895
 8188SOL    HW225464   4.462   2.137   3.743
 8189SOL     OW25465   5.492   5.579   2.293
 8189SOL    HW125466   5.548   5.593   2.212
 8189SOL    HW225467   5.537   5.620   2.372
 8190SOL     OW25468   5.093   4.149   3.910
 8190SOL    HW125469   4.995   4.130   3.898
 8190SOL    HW225470   5.146   4.071   3.878
 8191SOL     OW25471   4.463   5.068   2.664
 8191SOL    HW125472   4.417   5.157   2.671
 8191SOL    HW225473   4.533   5.062   2.735
 8192SOL     OW25474   1.386   5.245   2.407
 8192SOL    HW125475   1.393   5.332   2.358
 8192SOL    HW225476   1.290   5.225   2.427
 8193SOL     OW25477   6.341   5.213   4.950
 8193SOL    HW125478   6.381   5.121   4.962
 8193SOL    HW225479   6.392   5.278   5.006
 8194SOL     OW25480   4.213   0.901   1.169
 8194SOL    HW125481   4.215   0.991   1.125
 8194SOL    HW225482   4.118   0.873   1.182
 8195SOL     OW25483   6.327   0.338   3.902
 8195SOL    HW125484   6.339   0.334   3.803
 8195SOL    HW225485   6.395   0.279   3.946
 8196SOL     OW25486   5.031   6.896   6.942
 8196SOL    HW125487   5.103   6.909   7.010
 8196SOL    HW225488   5.031   6.801   6.911
 8197SOL     OW25489   4.210   1.578   1.150
 8197SOL    HW125490   4.190   1.492   1.197
 8197SOL    HW225491   4.132   1.640   1.161
 8198SOL     OW25492   3.268   6.157   2.323
 8198SOL    HW125493   3.339   6.218   2.359
 8198SOL    HW225494   3.274   6.155   2.223
 8199SOL     OW25495   5.379   3.283   6.061
 8199SOL    HW125496   5.303   3.311   6.003
 8199SOL    HW225497   5.360   3.308   6.156
 8200SOL     OW25498   6.064   4.253   1.683
 8200SOL    HW125499   6.065   4.263   1.783
 8200SOL    HW225500   5.993   4.312   1.644
 8201SOL     OW25501   0.122   0.700   5.282
 8201SOL    HW125502   0.056   0.755   5.231
 8201SOL    HW225503   0.155   0.752   5.360
 8202SOL     OW25504   6.631   5.867   2.964
 8202SOL    HW125505   6.714   5.825   3.000
 8202SOL    HW225506   6.619   5.958   3.005
 8203SOL     OW25507   2.050   2.423   0.047
 8203SOL    HW125508   2.115   2.352   0.073
 8203SOL    HW225509   1.986   2.387   7.004
 8204SOL     OW25510   4.087   4.152   0.583
 8204SOL    HW125511   4.042   4.202   0.509
 8204SOL    HW225512   4.029   4.154   0.665
 8205SOL     OW25513   0.017   4.018   0.034
 8205SOL    HW125514   6.947   4.036   0.005
 8205SOL    HW225515   0.045   4.088   0.099
 8206SOL     OW25516   4.728   2.148   6.931
 8206SOL    HW125517   4.757   2.151   0.002
 8206SOL    HW225518   4.659   2.218   6.914
 8207SOL     OW25519   3.657   3.597   3.926
 8207SOL    HW125520   3.660   3.673   3.992
 8207SOL    HW225521   3.750   3.572   3.900
 8208SOL     OW25522   1.580   0.720   1.131
 8208SOL    HW125523   1.520   0.640   1.136
 8208SOL    HW225524   1.608   0.735   1.036
 8209SOL     OW25525   0.208   0.715   4.836
 8209SOL    HW125526   0.176   0.671   4.920
 8209SOL    HW225527   0.299   0.679   4.813
 8210SOL     OW25528   2.210   2.274   0.288
 8210SOL    HW125529   2.253   2.238   0.205
 8210SOL    HW225530   2.246   2.366   0.306
 8211SOL     OW25531   3.708   4.270   1.142
 8211SOL    HW125532   3.786   4.211   1.125
 8211SOL    HW225533   3.703   4.340   1.070
 8212SOL     OW25534   1.364   2.429   2.935
 8212SOL    HW125535   1.439   2.470   2.988
 8212SOL    HW225536   1.320   2.358   2.990
 8213SOL     OW25537   6.908   4.408   1.485
 8213SOL    HW125538   6.861   4.481   1.435
 8213SOL    HW225539   7.006   4.423   1.481
 8214SOL     OW25540   5.989   5.064   4.549
 8214SOL    HW125541   6.056   4.995   4.576
 8214SOL    HW225542   6.032   5.154   4.550
 8215SOL     OW25543   3.798   5.910   5.402
 8215SOL    HW125544   3.835   5.910   5.309
 8215SOL    HW225545   3.700   5.889   5.399
 8216SOL     OW25546   5.316   5.677   4.352
 8216SOL    HW125547   5.260   5.677   4.269
 8216SOL    HW225548   5.384   5.603   4.346
 8217SOL     OW25549   2.373   5.124   0.864
 8217SOL    HW125550   2.431   5.045   0.845
 8217SOL    HW225551   2.393   5.157   0.956
 8218SOL     OW25552   6.904   0.688   6.440
 8218SOL    HW125553   6.980   0.746   6.411
 8218SOL    HW225554   6.819   0.719   6.396
 8219SOL     OW25555   4.856   2.180   0.164
 8219SOL    HW125556   4.778   2.220   0.212
 8219SOL    HW225557   4.841   2.082   0.153
 8220SOL     OW25558   3.706   3.443   3.305
 8220SOL    HW125559   3.679   3.359   3.351
 8220SOL    HW225560   3.682   3.522   3.362
 8221SOL     OW25561   4.983   5.734   4.764
 8221SOL    HW125562   5.079   5.717   4.741
 8221SOL    HW225563   4.966   5.703   4.858
 8222SOL     OW25564   5.166   1.735   2.235
 8222SOL    HW125565   5.076   1.774   2.254
 8222SOL    HW225566   5.162   1.636   2.249
 8223SOL     OW25567   1.622   4.209   5.819
 8223SOL    HW125568   1.613   4.247   5.727
 8223SOL    HW225569   1.590   4.115   5.820
 8224SOL     OW25570   7.023   2.405   2.626
 8224SOL    HW125571   6.964   2.359   2.692
 8224SOL    HW225572   6.988   2.389   2.534
 8225SOL     OW25573   3.726   1.098   7.002
 8225SOL    HW125574   3.645   1.056   0.018
 8225SOL    HW225575   3.700   1.151   6.921
 8226SOL     OW25576   4.149   6.445   1.786
 8226SOL    HW125577   4.124   6.535   1.821
 8226SOL    HW225578   4.211   6.400   1.852
 8227SOL     OW25579   6.749   2.666   3.371
 8227SOL    HW125580   6.791   2.578   3.393
 8227SOL    HW225581   6.679   2.687   3.438
 8228SOL     OW25582   0.161   2.454   5.613
 8228SOL    HW125583   0.159   2.463   5.713
 8228SOL    HW225584   0.124   2.537   5.571
 8229SOL     OW25585   3.830   4.605   0.725
 8229SOL    HW125586   3.756   4.650   0.676
 8229SOL    HW225587   3.876   4.539   0.665
 8230SOL     OW25588   3.940   6.640   5.327
 8230SOL    HW125589   3.998   6.646   5.409
 8230SOL    HW225590   3.980   6.573   5.264
 8231SOL     OW25591   4.273   5.466   0.387
 8231SOL    HW125592   4.242   5.554   0.351
 8231SOL    HW225593   4.370   5.472   0.410
 8232SOL     OW25594   4.993   1.824   1.214
 8232SOL    HW125595   4.898   1.797   1.228
 8232SOL    HW225596   5.011   1.908   1.266
 8233SOL     OW25597   1.071   5.989   6.438
 8233SOL    HW125598   1.144   6.021   6.377
 8233SOL    HW225599   1.045   6.063   6.500
 8234SOL     OW25600   2.620   3.900   6.712
 8234SOL    HW125601   2.585   3.846   6.635
 8234SOL    HW225602   2.707   3.861   6.743
 8235SOL     OW25603   1.047   3.499   0.355
 8235SOL    HW125604   1.114   3.531   0.423
 8235SOL    HW225605   1.001   3.418   0.389
 8236SOL     OW25606   0.158   4.495   0.004
 8236SOL    HW125607   0.110   4.438   6.961
 8236SOL    HW225608   0.173   4.442   0.087
 8237SOL     OW25609   4.384   5.874   4.260
 8237SOL    HW125610   4.449   5.872   4.183
 8237SOL    HW225611   4.417   5.937   4.330
 8238SOL     OW25612   1.264   5.050   0.026
 8238SOL    HW125613   1.255   4.951   0.013
 8238SOL    HW225614   1.178   5.094   0.002
 8239SOL     OW25615   6.367   1.105   5.290
 8239SOL    HW125616   6.390   1.112   5.387
 8239SOL    HW225617   6.415   1.177   5.239
 8240SOL     OW25618   3.377   4.118   2.712
 8240SOL    HW125619   3.381   4.218   2.710
 8240SOL    HW225620   3.447   4.084   2.776
 8241SOL     OW25621   3.884   0.148   0.037
 8241SOL    HW125622   3.833   0.131   0.121
 8241SOL    HW225623   3.896   0.062   7.012
 8242SOL     OW25624   0.905   4.882   5.640
 8242SOL    HW125625   0.947   4.934   5.714
 8242SOL    HW225626   0.861   4.944   5.575
 8243SOL     OW25627   1.086   2.284   0.077
 8243SOL    HW125628   1.028   2.255   0.001
 8243SOL    HW225629   1.030   2.329   0.146
 8244SOL     OW25630   1.013   0.252   4.087
 8244SOL    HW125631   1.089   0.296   4.134
 8244SOL    HW225632   0.929   0.304   4.103
 8245SOL     OW25633   4.517   1.796   2.912
 8245SOL    HW125634   4.490   1.800   2.816
 8245SOL    HW225635   4.475   1.716   2.955
 8246SOL     OW25636   0.346   3.248   6.066
 8246SOL    HW125637   0.354   3.298   5.979
 8246SOL    HW225638   0.273   3.180   6.058
 8247SOL     OW25639   0.749   6.948   2.234
 8247SOL    HW125640   0.685   7.012   2.193
 8247SOL    HW225641   0.815   6.998   2.291
 8248SOL     OW25642   6.133   5.307   4.546
 8248SOL    HW125643   6.104   5.396   4.583
 8248SOL    HW225644   6.162   5.319   4.451
 8249SOL     OW25645   1.999   2.759   4.736
 8249SOL    HW125646   2.084   2.808   4.752
 8249SOL    HW225647   1.997   2.676   4.793
 8250SOL     OW25648   3.502   4.141   2.120
 8250SOL    HW125649   3.547   4.168   2.206
 8250SOL    HW225650   3.410   4.179   2.117
 8251SOL     OW25651   6.293   3.355   4.100
 8251SOL    HW125652   6.274   3.435   4.043
 8251SOL    HW225653   6.262   3.272   4.053
 8252SOL     OW25654   3.261   1.885   5.803
 8252SOL    HW125655   3.271   1.984   5.791
 8252SOL    HW225656   3.341   1.849   5.851
 8253SOL     OW25657   4.477   4.317   5.313
 8253SOL    HW125658   4.491   4.219   5.326
 8253SOL    HW225659   4.382   4.334   5.287
 8254SOL     OW25660   4.265   4.738   4.817
 8254SOL    HW125661   4.286   4.662   4.878
 8254SOL    HW225662   4.277   4.825   4.866
 8255SOL     OW25663   2.914   6.374   4.812
 8255SOL    HW125664   3.014   6.370   4.802
 8255SOL    HW225665   2.871   6.332   4.732
 8256SOL     OW25666   6.256   0.282   2.708
 8256SOL    HW125667   6.251   0.207   2.774
 8256SOL    HW225668   6.175   0.279   2.650
 8257SOL     OW25669   6.172   4.182   3.727
 8257SOL    HW125670   6.194   4.186   3.825
 8257SOL    HW225671   6.211   4.099   3.687
 8258SOL     OW25672   5.561   1.526   1.054
 8258SOL    HW125673   5.569   1.626   1.052
 8258SOL    HW225674   5.468   1.501   1.082
 8259SOL     OW25675   4.066   1.858   3.332
 8259SOL    HW125676   4.124   1.874   3.412
 8259SOL    HW225677   4.020   1.769   3.342
 8260SOL     OW25678   2.797   6.271   1.887
 8260SOL    HW125679   2.737   6.270   1.807
 8260SOL    HW225680   2.892   6.261   1.857
 8261SOL     OW25681   6.240   1.295   2.029
 8261SOL    HW125682   6.236   1.197   2.009
 8261SOL    HW225683   6.206   1.347   1.951
 8262SOL     OW25684   0.586   2.606   0.211
 8262SOL    HW125685   0.544   2.687   0.171
 8262SOL    HW225686   0.556   2.596   0.306
 8263SOL     OW25687   1.380   1.896   0.067
 8263SOL    HW125688   1.333   1.984   0.079
 8263SOL    HW225689   1.435   1.877   0.149
 8264SOL     OW25690   2.458   6.021   2.929
 8264SOL    HW125691   2.361   6.020   2.904
 8264SOL    HW225692   2.485   5.931   2.962
 8265SOL     OW25693   0.993   6.775   0.900
 8265SOL    HW125694   1.053   6.700   0.928
 8265SOL    HW225695   0.925   6.741   0.835
 8266SOL     OW25696   2.146   1.448   3.888
 8266SOL    HW125697   2.061   1.487   3.923
 8266SOL    HW225698   2.176   1.373   3.948
 8267SOL     OW25699   1.490   2.725   0.513
 8267SOL    HW125700   1.531   2.730   0.604
 8267SOL    HW225701   1.390   2.718   0.521
 8268SOL     OW25702   2.398   6.482   5.709
 8268SOL    HW125703   2.314   6.534   5.726
 8268SOL    HW225704   2.399   6.400   5.767
 8269SOL     OW25705   4.334   2.323   2.316
 8269SOL    HW125706   4.419   2.275   2.338
 8269SOL    HW225707   4.348   2.381   2.236
 8270SOL     OW25708   3.172   6.763   5.248
 8270SOL    HW125709   3.265   6.767   5.284
 8270SOL    HW225710   3.175   6.761   5.148
 8271SOL     OW25711   6.588   0.199   2.969
 8271SOL    HW125712   6.606   0.291   2.934
 8271SOL    HW225713   6.576   0.202   3.068
 8272SOL     OW25714   4.616   1.931   1.552
 8272SOL    HW125715   4.537   1.957   1.497
 8272SOL    HW225716   4.601   1.840   1.591
 8273SOL     OW25717   2.774   6.730   0.708
 8273SOL    HW125718   2.711   6.786   0.762
 8273SOL    HW225719   2.844   6.692   0.769
 8274SOL     OW25720   5.231   4.978   3.282
 8274SOL    HW125721   5.268   4.915   3.350
 8274SOL    HW225722   5.300   5.045   3.256
 8275SOL     OW25723   4.882   1.432   5.336
 8275SOL    HW125724   4.912   1.340   5.310
 8275SOL    HW225725   4.794   1.426   5.383
 8276SOL     OW25726   1.143   1.703   3.699
 8276SOL    HW125727   1.215   1.765   3.730
 8276SOL    HW225728   1.074   1.755   3.649
 8277SOL     OW25729   6.691   0.111   0.730
 8277SOL    HW125730   6.703   0.016   0.758
 8277SOL    HW225731   6.616   0.152   0.782
 8278SOL     OW25732   2.600   2.277   5.638
 8278SOL    HW125733   2.673   2.324   5.588
 8278SOL    HW225734   2.625   2.181   5.651
 8279SOL     OW25735   1.441   6.984   4.284
 8279SOL    HW125736   1.433   0.030   4.213
 8279SOL    HW225737   1.453   6.895   4.241
 8280SOL     OW25738   2.403   3.418   0.438
 8280SOL    HW125739   2.439   3.436   0.347
 8280SOL    HW225740   2.476   3.381   0.496
 8281SOL     OW25741   2.775   4.744   1.534
 8281SOL    HW125742   2.712   4.759   1.610
 8281SOL    HW225743   2.849   4.683   1.564
 8282SOL     OW25744   5.332   3.664   0.084
 8282SOL    HW125745   5.424   3.641   0.116
 8282SOL    HW225746   5.330   3.760   0.056
 8283SOL     OW25747   2.209   5.156   6.637
 8283SOL    HW125748   2.206   5.115   6.546
 8283SOL    HW225749   2.275   5.231   6.638
 8284SOL     OW25750   0.545   3.590   0.842
 8284SOL    HW125751   0.519   3.563   0.749
 8284SOL    HW225752   0.582   3.683   0.841
 8285SOL     OW25753   2.975   3.165   4.761
 8285SOL    HW125754   2.955   3.218   4.843
 8285SOL    HW225755   2.949   3.219   4.680
 8286SOL     OW25756   5.757   3.131   6.199
 8286SOL    HW125757   5.699   3.094   6.272
 8286SOL    HW225758   5.702   3.145   6.117
 8287SOL     OW25759   2.261   5.482   4.028
 8287SOL    HW125760   2.229   5.440   4.113
 8287SOL    HW225761   2.294   5.410   3.966
 8288SOL     OW25762   3.405   1.748   1.528
 8288SOL    HW125763   3.355   1.703   1.602
 8288SOL    HW225764   3.419   1.844   1.551
 8289SOL     OW25765   0.801   5.654   1.146
 8289SOL    HW125766   0.867   5.710   1.196
 8289SOL    HW225767   0.831   5.642   1.052
 8290SOL     OW25768   5.805   1.406   1.002
 8290SOL    HW125769   5.717   1.452   0.997
 8290SOL    HW225770   5.847   1.422   1.092
 8291SOL     OW25771   5.332   6.611   5.882
 8291SOL    HW125772   5.389   6.549   5.936
 8291SOL    HW225773   5.237   6.581   5.885
 8292SOL     OW25774   2.849   6.400   6.998
 8292SOL    HW125775   2.788   6.458   0.027
 8292SOL    HW225776   2.839   6.423   6.901
 8293SOL     OW25777   3.567   6.490   0.030
 8293SOL    HW125778   3.545   6.567   0.090
 8293SOL    HW225779   3.489   6.428   0.025
 8294SOL     OW25780   5.417   4.126   4.972
 8294SOL    HW125781   5.344   4.128   4.903
 8294SOL    HW225782   5.413   4.209   5.027
 8295SOL     OW25783   5.092   5.609   1.708
 8295SOL    HW125784   5.002   5.624   1.667
 8295SOL    HW225785   5.159   5.590   1.636
 8296SOL     OW25786   1.842   5.875   6.030
 8296SOL    HW125787   1.878   5.945   5.968
 8296SOL    HW225788   1.889   5.788   6.014
 8297SOL     OW25789   6.123   2.669   2.033
 8297SOL    HW125790   6.052   2.738   2.047
 8297SOL    HW225791   6.212   2.714   2.026
 8298SOL     OW25792   6.141   1.567   1.065
 8298SOL    HW125793   6.168   1.651   1.113
 8298SOL    HW225794   6.104   1.501   1.131
 8299SOL     OW25795   6.380   2.973   1.700
 8299SOL    HW125796   6.424   2.967   1.611
 8299SOL    HW225797   6.448   2.996   1.770
 8300SOL     OW25798   0.245   6.237   5.056
 8300SOL    HW125799   0.248   6.308   4.985
 8300SOL    HW225800   0.172   6.258   5.121
 8301SOL     OW25801   4.141   1.516   1.953
 8301SOL    HW125802   4.056   1.491   1.999
 8301SOL    HW225803   4.147   1.468   1.866
 8302SOL     OW25804   6.042   6.086   6.966
 8302SOL    HW125805   6.086   6.078   6.877
 8302SOL    HW225806   6.092   6.034   0.009
 8303SOL     OW25807   6.331   0.556   4.384
 8303SOL    HW125808   6.407   0.498   4.415
 8303SOL    HW225809   6.363   0.615   4.310
 8304SOL     OW25810   0.447   3.321   0.854
 8304SOL    HW125811   0.370   3.372   0.815
 8304SOL    HW225812   0.528   3.380   0.859
 8305SOL     OW25813   4.181   5.230   4.329
 8305SOL    HW125814   4.117   5.178   4.273
 8305SOL    HW225815   4.159   5.216   4.426
 8306SOL     OW25816   6.720   2.877   5.689
 8306SOL    HW125817   6.782   2.955   5.682
 8306SOL    HW225818   6.757   2.800   5.636
 8307SOL     OW25819   3.722   5.299   1.250
 8307SOL    HW125820   3.803   5.351   1.221
 8307SOL    HW225821   3.732   5.204   1.221
 8308SOL     OW25822   3.899   5.525   1.457
 8308SOL    HW125823   3.869   5.436   1.492
 8308SOL    HW225824   3.921   5.516   1.360
 8309SOL     OW25825   5.964   5.452   4.003
 8309SOL    HW125826   5.885   5.414   3.954
 8309SOL    HW225827   6.047   5.437   3.949
 8310SOL     OW25828   0.507   4.661   0.742
 8310SOL    HW125829   0.571   4.651   0.665
 8310SOL    HW225830   0.432   4.721   0.715
 8311SOL     OW25831   0.978   1.247   4.464
 8311SOL    HW125832   0.885   1.262   4.430
 8311SOL    HW225833   1.007   1.327   4.516
 8312SOL     OW25834   4.766   0.019   0.581
 8312SOL    HW125835   4.794   0.033   0.486
 8312SOL    HW225836   4.847   0.016   0.640
 8313SOL     OW25837   4.976   0.695   2.362
 8313SOL    HW125838   4.913   0.678   2.438
 8313SOL    HW225839   4.999   0.792   2.359
 8314SOL     OW25840   4.295   0.562   0.825
 8314SOL    HW125841   4.340   0.496   0.765
 8314SOL    HW225842   4.285   0.650   0.778
 8315SOL     OW25843   4.162   3.503   1.297
 8315SOL    HW125844   4.191   3.566   1.226
 8315SOL    HW225845   4.063   3.511   1.310
 8316SOL     OW25846   0.381   2.253   1.996
 8316SOL    HW125847   0.394   2.350   2.014
 8316SOL    HW225848   0.336   2.210   2.075
 8317SOL     OW25849   2.335   2.089   2.554
 8317SOL    HW125850   2.242   2.067   2.582
 8317SOL    HW225851   2.380   2.006   2.521
 8318SOL     OW25852   4.352   1.061   4.629
 8318SOL    HW125853   4.382   0.968   4.652
 8318SOL    HW225854   4.415   1.099   4.560
 8319SOL     OW25855   2.102   1.272   6.375
 8319SOL    HW125856   2.019   1.275   6.431
 8319SOL    HW225857   2.077   1.290   6.279
 8320SOL     OW25858   3.066   3.254   1.580
 8320SOL    HW125859   3.105   3.166   1.608
 8320SOL    HW225860   3.019   3.297   1.657
 8321SOL     OW25861   0.034   0.581   0.407
 8321SOL    HW125862   0.050   0.579   0.506
 8321SOL    HW225863   0.040   0.675   0.374
 8322SOL     OW25864   0.407   0.218   1.088
 8322SOL    HW125865   0.398   0.120   1.106
 8322SOL    HW225866   0.469   0.259   1.155
 8323SOL     OW25867   5.856   5.802   2.433
 8323SOL    HW125868   5.870   5.704   2.418
 8323SOL    HW225869   5.768   5.829   2.394
 8324SOL     OW25870   5.509   0.457   1.750
 8324SOL    HW125871   5.531   0.513   1.830
 8324SOL    HW225872   5.571   0.480   1.675
 8325SOL     OW25873   3.014   3.288   5.514
 8325SOL    HW125874   2.921   3.270   5.482
 8325SOL    HW225875   3.050   3.369   5.468
 8326SOL     OW25876   5.158   3.234   5.675
 8326SOL    HW125877   5.256   3.232   5.696
 8326SOL    HW225878   5.127   3.143   5.649
 8327SOL     OW25879   6.182   1.414   6.325
 8327SOL    HW125880   6.280   1.431   6.331
 8327SOL    HW225881   6.132   1.498   6.348
 8328SOL     OW25882   2.344   4.558   5.475
 8328SOL    HW125883   2.260   4.555   5.529
 8328SOL    HW225884   2.398   4.638   5.502
 8329SOL     OW25885   0.295   3.400   6.294
 8329SOL    HW125886   0.312   3.314   6.245
 8329SOL    HW225887   0.354   3.472   6.256
 8330SOL     OW25888   2.825   6.596   0.477
 8330SOL    HW125889   2.787   6.645   0.556
 8330SOL    HW225890   2.860   6.662   0.411
 8331SOL     OW25891   3.038   1.609   1.474
 8331SOL    HW125892   3.129   1.569   1.467
 8331SOL    HW225893   3.018   1.630   1.570
 8332SOL     OW25894   5.355   5.282   2.427
 8332SOL    HW125895   5.373   5.347   2.500
 8332SOL    HW225896   5.299   5.206   2.462
 8333SOL     OW25897   0.637   6.607   6.523
 8333SOL    HW125898   0.734   6.597   6.547
 8333SOL    HW225899   0.582   6.547   6.582
 8334SOL     OW25900   4.216   1.551   3.676
 8334SOL    HW125901   4.278   1.607   3.732
 8334SOL    HW225902   4.268   1.506   3.603
 8335SOL     OW25903   6.377   5.772   6.571
 8335SOL    HW125904   6.309   5.783   6.644
 8335SOL    HW225905   6.373   5.678   6.538
 8336SOL     OW25906   6.015   6.615   3.062
 8336SOL    HW125907   6.106   6.590   3.094
 8336SOL    HW225908   6.021   6.665   2.976
 8337SOL     OW25909   0.951   5.878   3.081
 8337SOL    HW125910   0.898   5.962   3.072
 8337SOL    HW225911   0.916   5.824   3.158
 8338SOL     OW25912   2.233   5.115   1.658
 8338SOL    HW125913   2.276   5.043   1.713
 8338SOL    HW225914   2.134   5.101   1.656
 8339SOL     OW25915   5.812   0.373   2.101
 8339SOL    HW125916   5.822   0.408   2.008
 8339SOL    HW225917   5.848   0.279   2.105
 8340SOL     OW25918   5.095   3.475   1.596
 8340SOL    HW125919   5.133   3.383   1.595
 8340SOL    HW225920   5.105   3.516   1.506
 8341SOL     OW25921   2.166   6.256   6.621
 8341SOL    HW125922   2.243   6.320   6.608
 8341SOL    HW225923   2.200   6.171   6.659
 8342SOL     OW25924   3.990   0.202   1.850
 8342SOL    HW125925   4.056   0.155   1.910
 8342SOL    HW225926   4.039   0.245   1.774
 8343SOL     OW25927   0.915   4.828   6.015
 8343SOL    HW125928   0.968   4.751   6.048
 8343SOL    HW225929   0.818   4.805   6.014
 8344SOL     OW25930   4.062   6.819   5.116
 8344SOL    HW125931   4.002   6.775   5.183
 8344SOL    HW225932   4.023   6.810   5.025
 8345SOL     OW25933   4.535   1.510   3.497
 8345SOL    HW125934   4.447   1.465   3.484
 8345SOL    HW225935   4.609   1.447   3.474
 8346SOL     OW25936   2.420   4.450   0.856
 8346SOL    HW125937   2.453   4.532   0.904
 8346SOL    HW225938   2.444   4.369   0.909
 8347SOL     OW25939   3.687   5.368   4.885
 8347SOL    HW125940   3.729   5.450   4.924
 8347SOL    HW225941   3.610   5.340   4.941
 8348SOL     OW25942   1.687   6.289   2.362
 8348SOL    HW125943   1.594   6.255   2.370
 8348SOL    HW225944   1.744   6.248   2.433
 8349SOL     OW25945   5.919   6.848   1.697
 8349SOL    HW125946   5.907   6.807   1.607
 8349SOL    HW225947   5.833   6.892   1.725
 8350SOL     OW25948   4.505   0.802   4.450
 8350SOL    HW125949   4.596   0.841   4.436
 8350SOL    HW225950   4.486   0.795   4.548
 8351SOL     OW25951   4.757   4.931   3.843
 8351SOL    HW125952   4.712   4.947   3.755
 8351SOL    HW225953   4.763   5.017   3.894
 8352SOL     OW25954   0.009   5.933   3.202
 8352SOL    HW125955   6.978   6.013   3.225
 8352SOL    HW225956   6.993   5.885   3.124
 8353SOL     OW25957   6.855   3.655   1.236
 8353SOL    HW125958   6.902   3.692   1.156
 8353SOL    HW225959   6.783   3.719   1.264
 8354SOL     OW25960   3.736   6.948   6.664
 8354SOL    HW125961   3.763   6.861   6.623
 8354SOL    HW225962   3.685   7.002   6.597
 8355SOL     OW25963   2.979   0.719   6.667
 8355SOL    HW125964   2.969   0.645   6.600
 8355SOL    HW225965   2.930   0.800   6.636
 8356SOL     OW25966   1.796   6.185   0.815
 8356SOL    HW125967   1.800   6.277   0.778
 8356SOL    HW225968   1.886   6.157   0.848
 8357SOL     OW25969   3.935   0.054   5.574
 8357SOL    HW125970   3.901   0.067   5.668
 8357SOL    HW225971   3.953   0.144   5.533
 8358SOL     OW25972   1.292   3.976   5.350
 8358SOL    HW125973   1.331   3.933   5.268
 8358SOL    HW225974   1.195   3.954   5.357
 8359SOL     OW25975   2.521   6.294   4.714
 8359SOL    HW125976   2.542   6.385   4.676
 8359SOL    HW225977   2.467   6.305   4.797
 8360SOL     OW25978   3.840   6.154   0.985
 8360SOL    HW125979   3.897   6.209   0.924
 8360SOL    HW225980   3.773   6.102   0.932
 8361SOL     OW25981   2.410   0.036   2.937
 8361SOL    HW125982   2.452   0.034   3.028
 8361SOL    HW225983   2.476   0.002   2.869
 8362SOL     OW25984   3.245   1.958   0.940
 8362SOL    HW125985   3.304   1.961   1.021
 8362SOL    HW225986   3.190   2.042   0.937
 8363SOL     OW25987   0.482   2.585   6.842
 8363SOL    HW125988   0.394   2.600   6.797
 8363SOL    HW225989   0.549   2.650   6.804
 8364SOL     OW25990   6.932   2.922   2.415
 8364SOL    HW125991   6.973   2.840   2.456
 8364SOL    HW225992   6.997   2.963   2.351
 8365SOL     OW25993   2.333   3.891   1.668
 8365SOL    HW125994   2.272   3.820   1.702
 8365SOL    HW225995   2.385   3.855   1.590
 8366SOL     OW25996   2.391   5.892   2.278
 8366SOL    HW125997   2.388   5.989   2.300
 8366SOL    HW225998   2.451   5.877   2.200
 8367SOL     OW25999   4.103   6.094   3.738
 8367SOL    HW126000   4.109   6.149   3.821
 8367SOL    HW226001   4.046   6.140   3.670
 8368SOL     OW26002   2.003   6.606   5.932
 8368SOL    HW126003   2.001   6.624   6.030
 8368SOL    HW226004   2.053   6.679   5.885
 8369SOL     OW26005   1.742   6.755   6.680
 8369SOL    HW126006   1.744   6.688   6.754
 8369SOL    HW226007   1.784   6.715   6.599
 8370SOL     OW26008   2.383   2.393   5.283
 8370SOL    HW126009   2.377   2.485   5.320
 8370SOL    HW226010   2.468   2.383   5.231
 8371SOL     OW26011   2.005   4.422   1.225
 8371SOL    HW126012   2.056   4.385   1.148
 8371SOL    HW226013   2.024   4.368   1.307
 8372SOL     OW26014   0.185   5.622   2.646
 8372SOL    HW126015   0.118   5.549   2.657
 8372SOL    HW226016   0.198   5.669   2.733
 8373SOL     OW26017   1.340   0.358   4.133
 8373SOL    HW126018   1.361   0.448   4.093
 8373SOL    HW226019   1.344   0.288   4.062
 8374SOL     OW26020   6.720   0.897   6.023
 8374SOL    HW126021   6.636   0.865   6.066
 8374SOL    HW226022   6.796   0.891   6.088
 8375SOL     OW26023   3.724   0.057   6.126
 8375SOL    HW126024   3.649   0.095   6.071
 8375SOL    HW226025   3.689   7.007   6.183
 8376SOL     OW26026   1.713   0.507   4.101
 8376SOL    HW126027   1.758   0.568   4.166
 8376SOL    HW226028   1.773   0.491   4.023
 8377SOL     OW26029   5.857   5.736   1.209
 8377SOL    HW126030   5.819   5.806   1.269
 8377SOL    HW226031   5.922   5.680   1.261
 8378SOL     OW26032   4.209   4.960   2.773
 8378SOL    HW126033   4.287   5.011   2.737
 8378SOL    HW226034   4.183   4.996   2.863
 8379SOL     OW26035   6.076   2.410   1.272
 8379SOL    HW126036   6.141   2.485   1.258
 8379SOL    HW226037   6.002   2.442   1.332
 8380SOL     OW26038   0.117   1.071   2.428
 8380SOL    HW126039   0.034   1.062   2.483
 8380SOL    HW226040   0.115   1.005   2.353
 8381SOL     OW26041   0.024   3.866   5.232
 8381SOL    HW126042   7.024   3.857   5.135
 8381SOL    HW226043   6.985   3.813   5.288
 8382SOL     OW26044   2.068   0.784   2.133
 8382SOL    HW126045   2.163   0.757   2.146
 8382SOL    HW226046   2.058   0.824   2.042
 8383SOL     OW26047   2.488   0.474   6.130
 8383SOL    HW126048   2.509   0.547   6.195
 8383SOL    HW226049   2.565   0.410   6.127
 8384SOL     OW26050   0.248   0.422   0.510
 8384SOL    HW126051   0.202   0.366   0.579
 8384SOL    HW226052   0.182   0.453   0.441
 8385SOL     OW26053   6.295   2.329   1.453
 8385SOL    HW126054   6.240   2.331   1.370
 8385SOL    HW226055   6.238   2.306   1.531
 8386SOL     OW26056   0.965   4.415   2.020
 8386SOL    HW126057   0.889   4.402   1.956
 8386SOL    HW226058   1.034   4.345   2.004
 8387SOL     OW26059   1.420   1.528   2.125
 8387SOL    HW126060   1.393   1.500   2.217
 8387SOL    HW226061   1.411   1.450   2.063
 8388SOL     OW26062   1.703   6.098   0.130
 8388SOL    HW126063   1.657   6.039   0.064
 8388SOL    HW226064   1.698   6.055   0.221
 8389SOL     OW26065   6.101   3.907   2.795
 8389SOL    HW126066   6.096   3.809   2.773
 8389SOL    HW226067   6.011   3.940   2.822
 8390SOL     OW26068   4.257   0.581   6.200
 8390SOL    HW126069   4.169   0.570   6.154
 8390SOL    HW226070   4.316   0.641   6.146
 8391SOL     OW26071   6.538   5.347   0.562
 8391SOL    HW126072   6.516   5.411   0.488
 8391SOL    HW226073   6.602   5.390   0.626
 8392SOL     OW26074   0.177   3.923   4.195
 8392SOL    HW126075   0.082   3.920   4.162
 8392SOL    HW226076   0.231   3.982   4.136
 8393SOL     OW26077   6.397   0.732   2.283
 8393SOL    HW126078   6.303   0.701   2.281
 8393SOL    HW226079   6.402   0.828   2.254
 8394SOL     OW26080   5.941   3.006   1.237
 8394SOL    HW126081   6.039   3.015   1.222
 8394SOL    HW226082   5.893   3.013   1.150
 8395SOL     OW26083   2.605   6.703   5.700
 8395SOL    HW126084   2.570   6.614   5.730
 8395SOL    HW226085   2.680   6.732   5.760
 8396SOL     OW26086   4.928   4.906   3.493
 8396SOL    HW126087   4.952   4.965   3.569
 8396SOL    HW226088   4.951   4.951   3.407
 8397SOL     OW26089   1.017   0.756   2.808
 8397SOL    HW126090   1.064   0.679   2.765
 8397SOL    HW226091   0.928   0.770   2.765
 8398SOL     OW26092   4.705   2.511   6.312
 8398SOL    HW126093   4.753   2.506   6.225
 8398SOL    HW226094   4.634   2.441   6.315
 8399SOL     OW26095   6.425   6.877   6.675
 8399SOL    HW126096   6.336   6.890   6.718
 8399SOL    HW226097   6.493   6.852   6.745
 8400SOL     OW26098   1.939   2.055   4.191
 8400SOL    HW126099   1.864   2.105   4.148
 8400SOL    HW226100   2.012   2.041   4.125
 8401SOL     OW26101   2.147   1.639   5.214
 8401SOL    HW126102   2.218   1.698   5.253
 8401SOL    HW226103   2.062   1.690   5.206
 8402SOL     OW26104   5.382   1.732   6.832
 8402SOL    HW126105   5.368   1.645   6.881
 8402SOL    HW226106   5.361   1.808   6.893
 8403SOL     OW26107   0.204   3.640   4.247
 8403SOL    HW126108   0.217   3.725   4.197
 8403SOL    HW226109   0.118   3.597   4.219
 8404SOL     OW26110   3.480   6.947   5.954
 8404SOL    HW126111   3.515   6.934   5.861
 8404SOL    HW226112   3.471   0.020   5.973
 8405SOL     OW26113   2.833   1.390   5.688
 8405SOL    HW126114   2.807   1.354   5.778
 8405SOL    HW226115   2.805   1.325   5.618
 8406SOL     OW26116   4.293   0.779   0.419
 8406SOL    HW126117   4.223   0.711   0.396
 8406SOL    HW226118   4.327   0.821   0.335
 8407SOL     OW26119   4.490   6.344   3.720
 8407SOL    HW126120   4.501   6.413   3.791
 8407SOL    HW226121   4.458   6.259   3.762
 8408SOL     OW26122   5.459   4.425   1.149
 8408SOL    HW126123   5.387   4.372   1.194
 8408SOL    HW226124   5.485   4.380   1.064
 8409SOL     OW26125   4.848   2.296   3.055
 8409SOL    HW126126   4.797   2.382   3.052
 8409SOL    HW226127   4.810   2.238   3.128
 8410SOL     OW26128   6.182   1.332   1.540
 8410SOL    HW126129   6.261   1.362   1.594
 8410SOL    HW226130   6.195   1.236   1.513
 8411SOL     OW26131   0.550   6.174   0.831
 8411SOL    HW126132   0.553   6.164   0.732
 8411SOL    HW226133   0.489   6.250   0.855
 8412SOL     OW26134   3.523   2.763   1.405
 8412SOL    HW126135   3.608   2.774   1.457
 8412SOL    HW226136   3.476   2.680   1.436
 8413SOL     OW26137   5.185   5.894   6.354
 8413SOL    HW126138   5.123   5.931   6.285
 8413SOL    HW226139   5.273   5.872   6.311
 8414SOL     OW26140   2.736   0.293   3.543
 8414SOL    HW126141   2.828   0.327   3.561
 8414SOL    HW226142   2.681   0.303   3.625
 8415SOL     OW26143   0.674   6.050   4.491
 8415SOL    HW126144   0.658   5.994   4.572
 8415SOL    HW226145   0.770   6.042   4.464
 8416SOL     OW26146   6.637   1.642   4.205
 8416SOL    HW126147   6.591   1.583   4.138
 8416SOL    HW226148   6.606   1.618   4.297
 8417SOL     OW26149   1.051   3.157   5.044
 8417SOL    HW126150   0.956   3.162   5.012
 8417SOL    HW226151   1.060   3.082   5.110
 8418SOL     OW26152   6.799   5.570   1.821
 8418SOL    HW126153   6.818   5.530   1.731
 8418SOL    HW226154   6.706   5.606   1.822
 8419SOL     OW26155   5.399   0.854   2.600
 8419SOL    HW126156   5.483   0.867   2.548
 8419SOL    HW226157   5.419   0.808   2.686
 8420SOL     OW26158   3.573   6.972   1.276
 8420SOL    HW126159   3.503   0.012   1.246
 8420SOL    HW226160   3.612   7.003   1.363
 8421SOL     OW26161   3.230   4.866   0.343
 8421SOL    HW126162   3.212   4.800   0.271
 8421SOL    HW226163   3.143   4.902   0.378
 8422SOL     OW26164   4.468   1.032   2.379
 8422SOL    HW126165   4.500   1.117   2.422
 8422SOL    HW226166   4.449   0.964   2.450
 8423SOL     OW26167   4.246   4.385   6.260
 8423SOL    HW126168   4.203   4.472   6.237
 8423SOL    HW226169   4.211   4.353   6.349
 8424SOL     OW26170   1.861   2.139   2.624
 8424SOL    HW126171   1.871   2.084   2.540
 8424SOL    HW226172   1.868   2.236   2.601
 8425SOL     OW26173   4.117   3.935   5.652
 8425SOL    HW126174   4.082   4.004   5.589
 8425SOL    HW226175   4.151   3.981   5.735
 8426SOL     OW26176   3.187   3.236   2.753
 8426SOL    HW126177   3.190   3.139   2.732
 8426SOL    HW226178   3.277   3.266   2.785
 8427SOL     OW26179   3.069   3.967   3.909
 8427SOL    HW126180   3.071   3.945   3.811
 8427SOL    HW226181   2.996   3.916   3.954
 8428SOL     OW26182   0.199   6.359   1.290
 8428SOL    HW126183   0.250   6.324   1.369
 8428SOL    HW226184   0.250   6.435   1.250
 8429SOL     OW26185   1.603   5.243   5.490
 8429SOL    HW126186   1.507   5.220   5.474
 8429SOL    HW226187   1.631   5.210   5.580
 8430SOL     OW26188   3.978   4.805   4.058
 8430SOL    HW126189   4.035   4.746   4.001
 8430SOL    HW226190   3.924   4.748   4.120
 8431SOL     OW26191   4.384   3.843   0.265
 8431SOL    HW126192   4.430   3.928   0.240
 8431SOL    HW226193   4.296   3.865   0.307
 8432SOL     OW26194   6.196   5.380   5.563
 8432SOL    HW126195   6.151   5.457   5.517
 8432SOL    HW226196   6.203   5.399   5.661
 8433SOL     OW26197   4.355   3.076   0.394
 8433SOL    HW126198   4.435   3.018   0.380
 8433SOL    HW226199   4.352   3.147   0.323
 8434SOL     OW26200   2.503   0.031   4.436
 8434SOL    HW126201   2.547   0.119   4.417
 8434SOL    HW226202   2.405   0.036   4.416
 8435SOL     OW26203   5.580   0.374   2.515
 8435SOL    HW126204   5.584   0.372   2.415
 8435SOL    HW226205   5.648   0.311   2.553
 8436SOL     OW26206   3.285   6.586   3.735
 8436SOL    HW126207   3.216   6.522   3.702
 8436SOL    HW226208   3.255   6.623   3.823
 8437SOL     OW26209   2.252   2.411   2.896
 8437SOL    HW126210   2.351   2.404   2.884
 8437SOL    HW226211   2.215   2.322   2.923
 8438SOL     OW26212   2.280   4.768   2.952
 8438SOL    HW126213   2.268   4.797   3.046
 8438SOL    HW226214   2.190   4.762   2.907
 8439SOL     OW26215   6.331   4.730   2.535
 8439SOL    HW126216   6.364   4.765   2.623
 8439SOL    HW226217   6.259   4.662   2.551
 8440SOL     OW26218   3.044   2.053   3.301
 8440SOL    HW126219   3.041   2.076   3.204
 8440SOL    HW226220   2.975   1.983   3.321
 8441SOL     OW26221   5.766   6.474   6.884
 8441SOL    HW126222   5.675   6.466   6.923
 8441SOL    HW226223   5.831   6.420   6.938
 8442SOL     OW26224   3.807   1.278   5.166
 8442SOL    HW126225   3.797   1.274   5.067
 8442SOL    HW226226   3.743   1.347   5.203
 8443SOL     OW26227   2.525   5.093   3.461
 8443SOL    HW126228   2.590   5.048   3.400
 8443SOL    HW226229   2.572   5.166   3.512
 8444SOL     OW26230   3.257   7.001   3.953
 8444SOL    HW126231   3.161   6.974   3.959
 8444SOL    HW226232   3.311   6.948   4.020
 8445SOL     OW26233   2.535   0.037   0.639
 8445SOL    HW126234   2.531   0.070   0.734
 8445SOL    HW226235   2.526   0.115   0.577
 8446SOL     OW26236   6.516   5.321   5.474
 8446SOL    HW126237   6.566   5.298   5.557
 8446SOL    HW226238   6.492   5.418   5.475
 8447SOL     OW26239   4.094   1.423   1.710
 8447SOL    HW126240   4.161   1.350   1.699
 8447SOL    HW226241   4.111   1.495   1.642
 8448SOL     OW26242   4.429   6.195   3.392
 8448SOL    HW126243   4.516   6.167   3.433
 8448SOL    HW226244   4.396   6.277   3.439
 8449SOL     OW26245   7.014   3.364   3.114
 8449SOL    HW126246   0.033   3.301   3.049
 8449SOL    HW226247   0.050   3.440   3.134
 8450SOL     OW26248   1.019   0.707   1.536
 8450SOL    HW126249   1.010   0.723   1.634
 8450SOL    HW226250   1.031   0.610   1.518
 8451SOL     OW26251   3.493   1.043   0.138
 8451SOL    HW126252   3.429   1.119   0.145
 8451SOL    HW226253   3.443   0.957   0.125
 8452SOL     OW26254   6.058   2.787   3.959
 8452SOL    HW126255   6.056   2.767   3.861
 8452SOL    HW226256   5.998   2.863   3.980
 8453SOL     OW26257   0.530   5.400   0.623
 8453SOL    HW126258   0.439   5.430   0.653
 8453SOL    HW226259   0.585   5.374   0.702
 8454SOL     OW26260   0.328   5.201   0.800
 8454SOL    HW126261   0.413   5.241   0.834
 8454SOL    HW226262   0.268   5.179   0.876
 8455SOL     OW26263   0.588   1.439   2.669
 8455SOL    HW126264   0.583   1.363   2.734
 8455SOL    HW226265   0.665   1.498   2.693
 8456SOL     OW26266   4.592   6.793   3.426
 8456SOL    HW126267   4.623   6.794   3.331
 8456SOL    HW226268   4.661   6.748   3.483
 8457SOL     OW26269   6.560   5.944   4.074
 8457SOL    HW126270   6.532   6.010   4.005
 8457SOL    HW226271   6.514   5.963   4.160
 8458SOL     OW26272   2.561   0.462   0.001
 8458SOL    HW126273   2.489   0.460   0.071
 8458SOL    HW226274   2.527   0.421   6.941
 8459SOL     OW26275   2.433   5.709   2.782
 8459SOL    HW126276   2.354   5.649   2.786
 8459SOL    HW226277   2.452   5.734   2.687
 8460SOL     OW26278   4.724   4.327   5.131
 8460SOL    HW126279   4.635   4.316   5.176
 8460SOL    HW226280   4.717   4.296   5.037
 8461SOL     OW26281   0.642   2.650   4.617
 8461SOL    HW126282   0.622   2.640   4.519
 8461SOL    HW226283   0.700   2.574   4.647
 8462SOL     OW26284   2.938   1.875   6.781
 8462SOL    HW126285   2.842   1.865   6.755
 8462SOL    HW226286   2.974   1.787   6.811
 8463SOL     OW26287   6.983   6.880   1.744
 8463SOL    HW126288   0.030   6.922   1.687
 8463SOL    HW226289   7.007   6.785   1.763
 8464SOL     OW26290   5.218   4.499   4.110
 8464SOL    HW126291   5.240   4.554   4.191
 8464SOL    HW226292   5.211   4.560   4.030
 8465SOL     OW26293   1.140   2.875   0.473
 8465SOL    HW126294   1.140   2.776   0.464
 8465SOL    HW226295   1.221   2.912   0.427
 8466SOL     OW26296   0.223   6.496   3.965
 8466SOL    HW126297   0.300   6.484   3.901
 8466SOL    HW226298   0.152   6.550   3.920
 8467SOL     OW26299   3.089   5.749   0.616
 8467SOL    HW126300   3.134   5.838   0.606
 8467SOL    HW226301   3.064   5.714   0.526
 8468SOL     OW26302   3.025   1.341   0.107
 8468SOL    HW126303   3.054   1.388   0.191
 8468SOL    HW226304   3.046   1.244   0.115
 8469SOL     OW26305   3.286   2.725   0.096
 8469SOL    HW126306   3.311   2.818   0.069
 8469SOL    HW226307   3.217   2.690   0.033
 8470SOL     OW26308   2.227   3.371   0.802
 8470SOL    HW126309   2.313   3.324   0.822
 8470SOL    HW226310   2.237   3.468   0.820
 8471SOL     OW26311   2.918   1.092   2.916
 8471SOL    HW126312   2.869   1.179   2.921
 8471SOL    HW226313   2.852   1.017   2.916
 8472SOL     OW26314   0.059   0.250   3.783
 8472SOL    HW126315   0.080   0.232   3.687
 8472SOL    HW226316   7.001   0.305   3.789
 8473SOL     OW26317   0.005   5.440   6.993
 8473SOL    HW126318   6.980   5.387   0.036
 8473SOL    HW226319   0.059   5.379   6.935
 8474SOL     OW26320   3.309   2.864   1.948
 8474SOL    HW126321   3.286   2.961   1.951
 8474SOL    HW226322   3.320   2.829   2.041
 8475SOL     OW26323   0.048   1.235   3.213
 8475SOL    HW126324   0.049   1.222   3.114
 8475SOL    HW226325   6.984   1.274   3.240
 8476SOL     OW26326   6.253   1.012   1.541
 8476SOL    HW126327   6.277   0.990   1.635
 8476SOL    HW226328   6.328   1.062   1.498
 8477SOL     OW26329   3.864   5.912   1.529
 8477SOL    HW126330   3.963   5.917   1.530
 8477SOL    HW226331   3.827   5.980   1.466
 8478SOL     OW26332   1.300   0.321   6.325
 8478SOL    HW126333   1.207   0.356   6.309
 8478SOL    HW226334   1.301   0.267   6.409
 8479SOL     OW26335   6.443   2.303   0.765
 8479SOL    HW126336   6.417   2.207   0.767
 8479SOL    HW226337   6.529   2.313   0.716
 8480SOL     OW26338   3.173   0.768   0.942
 8480SOL    HW126339   3.165   0.855   0.992
 8480SOL    HW226340   3.270   0.747   0.928
 8481SOL     OW26341   4.396   1.304   3.841
 8481SOL    HW126342   4.491   1.323   3.865
 8481SOL    HW226343   4.340   1.304   3.924
 8482SOL     OW26344   2.797   0.025   2.278
 8482SOL    HW126345   2.824   6.955   2.263
 8482SOL    HW226346   2.834   0.082   2.204
 8483SOL     OW26347   3.980   5.670   1.952
 8483SOL    HW126348   3.930   5.584   1.947
 8483SOL    HW226349   3.956   5.718   2.036
 8484SOL     OW26350   6.713   4.963   3.207
 8484SOL    HW126351   6.648   4.920   3.143
 8484SOL    HW226352   6.686   4.941   3.301
 8485SOL     OW26353   2.804   3.343   6.412
 8485SOL    HW126354   2.795   3.328   6.510
 8485SOL    HW226355   2.741   3.415   6.383
 8486SOL     OW26356   4.820   1.336   2.971
 8486SOL    HW126357   4.731   1.306   3.006
 8486SOL    HW226358   4.806   1.386   2.886
 8487SOL     OW26359   5.895   0.226   0.870
 8487SOL    HW126360   5.971   0.259   0.814
 8487SOL    HW226361   5.822   0.294   0.871
 8488SOL     OW26362   5.601   5.153   4.766
 8488SOL    HW126363   5.503   5.147   4.789
 8488SOL    HW226364   5.620   5.093   4.689
 8489SOL     OW26365   6.245   0.347   1.537
 8489SOL    HW126366   6.184   0.420   1.507
 8489SOL    HW226367   6.191   0.267   1.564
 8490SOL     OW26368   4.415   6.084   3.796
 8490SOL    HW126369   4.453   6.018   3.861
 8490SOL    HW226370   4.339   6.041   3.747
 8491SOL     OW26371   2.176   0.516   1.557
 8491SOL    HW126372   2.121   0.534   1.475
 8491SOL    HW226373   2.173   0.596   1.617
 8492SOL     OW26374   4.670   3.862   6.424
 8492SOL    HW126375   4.722   3.933   6.473
 8492SOL    HW226376   4.574   3.866   6.451
 8493SOL     OW26377   3.390   1.902   6.534
 8493SOL    HW126378   3.459   1.962   6.573
 8493SOL    HW226379   3.319   1.958   6.489
 8494SOL     OW26380   1.788   4.923   0.061
 8494SOL    HW126381   1.782   4.856   0.134
 8494SOL    HW226382   1.884   4.944   0.042
 8495SOL     OW26383   0.041   3.588   0.255
 8495SOL    HW126384   0.002   3.663   0.202
 8495SOL    HW226385   0.104   3.535   0.198
 8496SOL     OW26386   0.720   2.018   2.371
 8496SOL    HW126387   0.716   1.948   2.300
 8496SOL    HW226388   0.797   2.079   2.354
 8497SOL     OW26389   6.326   0.031   4.179
 8497SOL    HW126390   6.262   7.004   4.121
 8497SOL    HW226391   6.276   0.101   4.229
 8498SOL     OW26392   0.435   6.219   2.541
 8498SOL    HW126393   0.503   6.229   2.469
 8498SOL    HW226394   0.397   6.309   2.564
 8499SOL     OW26395   2.870   5.260   6.346
 8499SOL    HW126396   2.898   5.242   6.252
 8499SOL    HW226397   2.824   5.180   6.384
 8500SOL     OW26398   1.841   1.031   5.742
 8500SOL    HW126399   1.858   0.986   5.654
 8500SOL    HW226400   1.895   1.115   5.747
 8501SOL     OW26401   1.545   2.604   0.273
 8501SOL    HW126402   1.545   2.649   0.363
 8501SOL    HW226403   1.544   2.505   0.286
 8502SOL     OW26404   1.907   4.682   1.246
 8502SOL    HW126405   1.813   4.664   1.217
 8502SOL    HW226406   1.958   4.596   1.249
 8503SOL     OW26407   1.272   5.805   3.220
 8503SOL    HW126408   1.248   5.835   3.312
 8503SOL    HW226409   1.268   5.883   3.157
 8504SOL     OW26410   1.978   6.693   3.615
 8504SOL    HW126411   1.945   6.610   3.659
 8504SOL    HW226412   1.912   6.724   3.547
 8505SOL     OW26413   5.330   3.866   3.771
 8505SOL    HW126414   5.315   3.920   3.688
 8505SOL    HW226415   5.305   3.771   3.755
 8506SOL     OW26416   0.673   0.309   1.120
 8506SOL    HW126417   0.635   0.243   1.185
 8506SOL    HW226418   0.759   0.346   1.156
 8507SOL     OW26419   3.014   0.487   5.335
 8507SOL    HW126420   3.109   0.473   5.310
 8507SOL    HW226421   3.009   0.556   5.408
 8508SOL     OW26422   0.126   2.524   4.808
 8508SOL    HW126423   0.144   2.429   4.834
 8508SOL    HW226424   0.178   2.545   4.725
 8509SOL     OW26425   5.478   1.278   4.240
 8509SOL    HW126426   5.499   1.360   4.294
 8509SOL    HW226427   5.532   1.278   4.156
 8510SOL     OW26428   5.532   4.424   3.030
 8510SOL    HW126429   5.600   4.461   2.966
 8510SOL    HW226430   5.455   4.487   3.037
 8511SOL     OW26431   5.519   3.842   1.567
 8511SOL    HW126432   5.480   3.762   1.522
 8511SOL    HW226433   5.556   3.905   1.498
 8512SOL     OW26434   3.285   2.311   6.888
 8512SOL    HW126435   3.376   2.290   6.852
 8512SOL    HW226436   3.292   2.332   6.986
 8513SOL     OW26437   4.476   3.913   1.359
 8513SOL    HW126438   4.379   3.895   1.373
 8513SOL    HW226439   4.511   3.854   1.286
 8514SOL     OW26440   2.630   2.462   3.336
 8514SOL    HW126441   2.600   2.461   3.431
 8514SOL    HW226442   2.708   2.400   3.325
 8515SOL     OW26443   6.448   0.701   6.965
 8515SOL    HW126444   6.451   0.782   7.023
 8515SOL    HW226445   6.354   0.685   6.935
 8516SOL     OW26446   6.379   2.665   1.812
 8516SOL    HW126447   6.403   2.610   1.731
 8516SOL    HW226448   6.291   2.711   1.796
 8517SOL     OW26449   2.058   2.193   5.637
 8517SOL    HW126450   2.143   2.218   5.684
 8517SOL    HW226451   1.994   2.269   5.641
 8518SOL     OW26452   5.135   4.332   5.900
 8518SOL    HW126453   5.061   4.390   5.865
 8518SOL    HW226454   5.108   4.236   5.894
 8519SOL     OW26455   1.036   5.248   1.089
 8519SOL    HW126456   1.017   5.153   1.064
 8519SOL    HW226457   1.034   5.257   1.189
 8520SOL     OW26458   2.824   2.629   6.794
 8520SOL    HW126459   2.760   2.687   6.743
 8520SOL    HW226460   2.901   2.604   6.735
 8521SOL     OW26461   2.237   4.839   5.808
 8521SOL    HW126462   2.242   4.742   5.783
 8521SOL    HW226463   2.318   4.864   5.861
 8522SOL     OW26464   0.858   6.719   1.333
 8522SOL    HW126465   0.881   6.624   1.316
 8522SOL    HW226466   0.899   6.748   1.420
 8523SOL     OW26467   2.125   6.153   6.902
 8523SOL    HW126468   2.056   6.106   6.957
 8523SOL    HW226469   2.151   6.096   6.825
 8524SOL     OW26470   0.786   3.190   4.965
 8524SOL    HW126471   0.707   3.222   5.017
 8524SOL    HW226472   0.761   3.107   4.914
 8525SOL     OW26473   6.083   4.669   1.810
 8525SOL    HW126474   6.005   4.715   1.853
 8525SOL    HW226475   6.050   4.594   1.753
 8526SOL     OW26476   3.979   6.353   0.834
 8526SOL    HW126477   4.027   6.440   0.843
 8526SOL    HW226478   3.984   6.321   0.740
 8527SOL     OW26479   3.104   0.598   0.088
 8527SOL    HW126480   3.088   0.565   7.020
 8527SOL    HW226481   3.039   0.671   0.109
 8528SOL     OW26482   3.753   1.272   0.322
 8528SOL    HW126483   3.785   1.275   0.416
 8528SOL    HW226484   3.723   1.180   0.299
 8529SOL     OW26485   1.051   0.452   0.816
 8529SOL    HW126486   0.984   0.524   0.795
 8529SOL    HW226487   1.004   0.375   0.860
 8530SOL     OW26488   4.028   3.800   5.140
 8530SOL    HW126489   3.989   3.780   5.050
 8530SOL    HW226490   4.045   3.715   5.189
 8531SOL     OW26491   6.994   5.452   2.657
 8531SOL    HW126492   6.946   5.365   2.652
 8531SOL    HW226493   6.952   5.517   2.593
 8532SOL     OW26494   3.744   5.774   4.667
 8532SOL    HW126495   3.662   5.717   4.672
 8532SOL    HW226496   3.821   5.726   4.710
 8533SOL     OW26497   2.027   5.732   0.026
 8533SOL    HW126498   1.969   5.813   0.025
 8533SOL    HW226499   1.970   5.650   0.034
 8534SOL     OW26500   5.003   2.449   4.405
 8534SOL    HW126501   4.915   2.415   4.372
 8534SOL    HW226502   5.076   2.395   4.362
 8535SOL     OW26503   5.804   1.437   3.607
 8535SOL    HW126504   5.775   1.493   3.530
 8535SOL    HW226505   5.902   1.449   3.622
 8536SOL     OW26506   0.463   1.616   4.890
 8536SOL    HW126507   0.480   1.674   4.970
 8536SOL    HW226508   0.366   1.620   4.866
 8537SOL     OW26509   5.246   0.604   3.724
 8537SOL    HW126510   5.230   0.677   3.657
 8537SOL    HW226511   5.165   0.592   3.780
 8538SOL     OW26512   1.856   0.973   0.036
 8538SOL    HW126513   1.896   0.928   0.116
 8538SOL    HW226514   1.796   0.909   7.013
 8539SOL     OW26515   6.710   1.315   2.951
 8539SOL    HW126516   6.702   1.392   2.887
 8539SOL    HW226517   6.696   1.229   2.902
 8540SOL     OW26518   6.066   0.535   6.504
 8540SOL    HW126519   5.989   0.474   6.522
 8540SOL    HW226520   6.147   0.480   6.480
 8541SOL     OW26521   3.537   1.944   3.788
 8541SOL    HW126522   3.590   2.004   3.728
 8541SOL    HW226523   3.590   1.861   3.807
 8542SOL     OW26524   4.150   5.313   6.136
 8542SOL    HW126525   4.171   5.216   6.127
 8542SOL    HW226526   4.123   5.350   6.048
 8543SOL     OW26527   2.298   1.746   1.393
 8543SOL    HW126528   2.290   1.839   1.429
 8543SOL    HW226529   2.394   1.724   1.377
 8544SOL     OW26530   5.608   3.459   4.417
 8544SOL    HW126531   5.552   3.495   4.492
 8544SOL    HW226532   5.704   3.482   4.432
 8545SOL     OW26533   4.164   0.400   5.671
 8545SOL    HW126534   4.250   0.392   5.722
 8545SOL    HW226535   4.168   0.343   5.589
 8546SOL     OW26536   5.643   1.754   4.353
 8546SOL    HW126537   5.709   1.775   4.425
 8546SOL    HW226538   5.632   1.833   4.293
 8547SOL     OW26539   0.523   6.516   5.615
 8547SOL    HW126540   0.457   6.497   5.688
 8547SOL    HW226541   0.598   6.572   5.651
 8548SOL     OW26542   6.091   2.791   5.324
 8548SOL    HW126543   5.998   2.756   5.333
 8548SOL    HW226544   6.096   2.882   5.364
 8549SOL     OW26545   0.500   3.621   4.089
 8549SOL    HW126546   0.574   3.591   4.029
 8549SOL    HW226547   0.455   3.701   4.049
 8550SOL     OW26548   1.702   4.832   6.630
 8550SOL    HW126549   1.768   4.779   6.683
 8550SOL    HW226550   1.660   4.901   6.688
 8551SOL     OW26551   4.069   3.551   5.984
 8551SOL    HW126552   4.043   3.455   5.968
 8551SOL    HW226553   4.015   3.610   5.924
 8552SOL     OW26554   2.681   6.608   3.865
 8552SOL    HW126555   2.684   6.575   3.960
 8552SOL    HW226556   2.599   6.571   3.821
 8553SOL     OW26557   4.926   4.970   6.120
 8553SOL    HW126558   4.856   5.035   6.091
 8553SOL    HW226559   4.995   5.017   6.174
 8554SOL     OW26560   0.858   5.026   0.243
 8554SOL    HW126561   0.929   4.968   0.283
 8554SOL    HW226562   0.890   5.061   0.155
 8555SOL     OW26563   0.673   0.015   3.025
 8555SOL    HW126564   0.751   7.007   3.077
 8555SOL    HW226565   0.598   6.975   3.033
 8556SOL     OW26566   0.862   6.839   3.937
 8556SOL    HW126567   0.903   6.764   3.988
 8556SOL    HW226568   0.917   6.921   3.949
 8557SOL     OW26569   6.518   1.138   2.330
 8557SOL    HW126570   6.566   1.158   2.415
 8557SOL    HW226571   6.583   1.101   2.263
 8558SOL     OW26572   2.826   6.132   3.311
 8558SOL    HW126573   2.864   6.056   3.364
 8558SOL    HW226574   2.731   6.148   3.339
 8559SOL     OW26575   6.068   0.648   2.240
 8559SOL    HW126576   6.070   0.591   2.322
 8559SOL    HW226577   6.051   0.743   2.266
 8560SOL     OW26578   0.309   7.018   1.625
 8560SOL    HW126579   0.286   6.990   1.719
 8560SOL    HW226580   0.226   0.011   1.574
 8561SOL     OW26581   3.314   6.070   1.775
 8561SOL    HW126582   3.308   6.108   1.683
 8561SOL    HW226583   3.411   6.063   1.802
 8562SOL     OW26584   5.117   6.264   4.903
 8562SOL    HW126585   5.105   6.277   5.001
 8562SOL    HW226586   5.060   6.187   4.872
 8563SOL     OW26587   2.535   3.793   7.016
 8563SOL    HW126588   2.489   3.838   6.938
 8563SOL    HW226589   2.539   3.695   7.000
 8564SOL     OW26590   2.373   1.195   3.448
 8564SOL    HW126591   2.362   1.239   3.537
 8564SOL    HW226592   2.290   1.143   3.426
 8565SOL     OW26593   4.844   6.551   1.739
 8565SOL    HW126594   4.868   6.537   1.835
 8565SOL    HW226595   4.775   6.485   1.712
 8566SOL     OW26596   1.377   0.528   2.016
 8566SOL    HW126597   1.436   0.557   1.940
 8566SOL    HW226598   1.396   0.585   2.096
 8567SOL     OW26599   0.057   1.777   2.346
 8567SOL    HW126600   0.050   1.678   2.358
 8567SOL    HW226601   6.998   1.812   2.304
 8568SOL     OW26602   4.665   0.885   5.818
 8568SOL    HW126603   4.647   0.907   5.914
 8568SOL    HW226604   4.747   0.933   5.787
 8569SOL     OW26605   4.965   1.611   5.526
 8569SOL    HW126606   5.021   1.570   5.598
 8569SOL    HW226607   4.949   1.543   5.454
 8570SOL     OW26608   0.802   2.249   5.526
 8570SOL    HW126609   0.766   2.178   5.465
 8570SOL    HW226610   0.900   2.237   5.536
 8571SOL     OW26611   0.373   5.212   6.344
 8571SOL    HW126612   0.345   5.165   6.428
 8571SOL    HW226613   0.295   5.261   6.306
 8572SOL     OW26614   3.349   5.180   6.628
 8572SOL    HW126615   3.339   5.247   6.702
 8572SOL    HW226616   3.437   5.192   6.583
 8573SOL     OW26617   3.471   6.746   6.607
 8573SOL    HW126618   3.417   6.829   6.621
 8573SOL    HW226619   3.425   6.688   6.540
 8574SOL     OW26620   0.370   5.243   5.927
 8574SOL    HW126621   0.272   5.255   5.946
 8574SOL    HW226622   0.383   5.215   5.832
 8575SOL     OW26623   3.430   2.606   6.326
 8575SOL    HW126624   3.363   2.540   6.359
 8575SOL    HW226625   3.408   2.697   6.359
 8576SOL     OW26626   0.948   6.411   0.718
 8576SOL    HW126627   0.904   6.422   0.629
 8576SOL    HW226628   0.996   6.324   0.721
 8577SOL     OW26629   6.364   5.192   4.427
 8577SOL    HW126630   6.330   5.173   4.519
 8577SOL    HW226631   6.366   5.291   4.412
 8578SOL     OW26632   4.616   0.334   4.569
 8578SOL    HW126633   4.651   0.404   4.507
 8578SOL    HW226634   4.692   0.276   4.599
 8579SOL     OW26635   1.627   6.391   3.883
 8579SOL    HW126636   1.640   6.487   3.906
 8579SOL    HW226637   1.529   6.372   3.874
 8580SOL     OW26638   2.423   0.073   2.080
 8580SOL    HW126639   2.472   7.013   2.099
 8580SOL    HW226640   2.327   0.062   2.106
 8581SOL     OW26641   3.610   2.992   1.718
 8581SOL    HW126642   3.674   3.068   1.715
 8581SOL    HW226643   3.625   2.938   1.801
 8582SOL     OW26644   4.172   4.780   2.106
 8582SOL    HW126645   4.111   4.736   2.040
 8582SOL    HW226646   4.134   4.771   2.198
 8583SOL     OW26647   5.829   0.880   6.072
 8583SOL    HW126648   5.764   0.813   6.037
 8583SOL    HW226649   5.876   0.924   5.996
 8584SOL     OW26650   0.441   3.624   6.189
 8584SOL    HW126651   0.504   3.645   6.113
 8584SOL    HW226652   0.358   3.678   6.179
 8585SOL     OW26653   6.989   6.896   6.646
 8585SOL    HW126654   0.007   6.931   6.563
 8585SOL    HW226655   6.989   6.966   6.716
 8586SOL     OW26656   2.721   6.943   3.641
 8586SOL    HW126657   2.747   0.015   3.640
 8586SOL    HW226658   2.683   6.918   3.552
 8587SOL     OW26659   1.570   0.400   2.622
 8587SOL    HW126660   1.477   0.401   2.586
 8587SOL    HW226661   1.611   0.311   2.606
 8588SOL     OW26662   2.518   0.765   6.739
 8588SOL    HW126663   2.464   0.800   6.816
 8588SOL    HW226664   2.612   0.747   6.770
 8589SOL     OW26665   4.888   2.969   4.842
 8589SOL    HW126666   4.789   2.979   4.833
 8589SOL    HW226667   4.909   2.882   4.886
 8590SOL     OW26668   6.603   5.951   4.551
 8590SOL    HW126669   6.684   5.987   4.505
 8590SOL    HW226670   6.600   5.986   4.645
 8591SOL     OW26671   1.320   5.286   6.240
 8591SOL    HW126672   1.299   5.384   6.232
 8591SOL    HW226673   1.334   5.264   6.337
 8592SOL     OW26674   6.960   4.404   0.358
 8592SOL    HW126675   6.939   4.310   0.332
 8592SOL    HW226676   0.033   4.421   0.344
 8593SOL     OW26677   0.896   0.102   2.423
 8593SOL    HW126678   0.966   0.031   2.419
 8593SOL    HW226679   0.940   0.192   2.413
 8594SOL     OW26680   3.824   3.444   4.902
 8594SOL    HW126681   3.746   3.505   4.906
 8594SOL    HW226682   3.898   3.479   4.960
 8595SOL     OW26683   2.019   1.511   2.850
 8595SOL    HW126684   2.078   1.578   2.804
 8595SOL    HW226685   2.074   1.444   2.899
 8596SOL     OW26686   5.894   5.876   2.728
 8596SOL    HW126687   5.959   5.951   2.738
 8596SOL    HW226688   5.901   5.839   2.635
 8597SOL     OW26689   4.248   2.121   1.205
 8597SOL    HW126690   4.157   2.081   1.196
 8597SOL    HW226691   4.285   2.141   1.114
 8598SOL     OW26692   0.292   5.854   1.480
 8598SOL    HW126693   0.234   5.848   1.399
 8598SOL    HW226694   0.373   5.797   1.467
 8599SOL     OW26695   1.167   3.146   3.962
 8599SOL    HW126696   1.136   3.051   3.970
 8599SOL    HW226697   1.264   3.152   3.984
 8600SOL     OW26698   5.367   5.163   6.419
 8600SOL    HW126699   5.289   5.150   6.357
 8600SOL    HW226700   5.432   5.227   6.378
 8601SOL     OW26701   1.131   0.689   5.099
 8601SOL    HW126702   1.108   0.671   5.003
 8601SOL    HW226703   1.047   0.698   5.152
 8602SOL     OW26704   2.756   6.416   2.739
 8602SOL    HW126705   2.712   6.326   2.740
 8602SOL    HW226706   2.707   6.476   2.676
 8603SOL     OW26707   3.288   4.278   0.177
 8603SOL    HW126708   3.251   4.272   0.084
 8603SOL    HW226709   3.289   4.374   0.206
 8604SOL     OW26710   6.894   2.699   3.106
 8604SOL    HW126711   6.834   2.774   3.076
 8604SOL    HW226712   6.866   2.669   3.197
 8605SOL     OW26713   3.198   4.958   4.295
 8605SOL    HW126714   3.120   4.912   4.337
 8605SOL    HW226715   3.267   4.977   4.365
 8606SOL     OW26716   2.148   4.268   5.565
 8606SOL    HW126717   2.195   4.180   5.559
 8606SOL    HW226718   2.130   4.290   5.660
 8607SOL     OW26719   3.272   4.927   1.050
 8607SOL    HW126720   3.220   4.853   1.007
 8607SOL    HW226721   3.228   5.014   1.029
 8608SOL     OW26722   4.437   5.174   3.092
 8608SOL    HW126723   4.372   5.246   3.117
 8608SOL    HW226724   4.399   5.085   3.118
 8609SOL     OW26725   4.262   0.410   3.908
 8609SOL    HW126726   4.186   0.373   3.962
 8609SOL    HW226727   4.314   0.474   3.965
 8610SOL     OW26728   1.461   0.609   2.749
 8610SOL    HW126729   1.533   0.653   2.803
 8610SOL    HW226730   1.496   0.522   2.713
 8611SOL     OW26731   1.985   2.562   3.478
 8611SOL    HW126732   1.933   2.514   3.407
 8611SOL    HW226733   2.083   2.551   3.462
 8612SOL     OW26734   3.110   3.274   0.085
 8612SOL    HW126735   3.020   3.317   0.087
 8612SOL    HW226736   3.100   3.179   0.053
 8613SOL     OW26737   2.670   2.324   1.803
 8613SOL    HW126738   2.741   2.333   1.872
 8613SOL    HW226739   2.605   2.254   1.831
 8614SOL     OW26740   0.822   3.151   2.878
 8614SOL    HW126741   0.817   3.076   2.812
 8614SOL    HW226742   0.906   3.143   2.932
 8615SOL     OW26743   4.738   1.717   5.206
 8615SOL    HW126744   4.656   1.708   5.263
 8615SOL    HW226745   4.802   1.644   5.228
 8616SOL     OW26746   1.828   5.367   1.086
 8616SOL    HW126747   1.798   5.406   1.172
 8616SOL    HW226748   1.919   5.328   1.096
 8617SOL     OW26749   6.538   1.267   0.058
 8617SOL    HW126750   6.631   1.238   0.080
 8617SOL    HW226751   6.498   1.311   0.138
 8618SOL     OW26752   5.392   6.793   1.015
 8618SOL    HW126753   5.366   6.859   1.085
 8618SOL    HW226754   5.402   6.841   0.927
 8619SOL     OW26755   3.316   5.305   1.297
 8619SOL    HW126756   3.372   5.272   1.373
 8619SOL    HW226757   3.358   5.388   1.259
 8620SOL     OW26758   6.193   6.875   3.216
 8620SOL    HW126759   6.220   6.944   3.149
 8620SOL    HW226760   6.242   6.789   3.197
 8621SOL     OW26761   5.854   1.964   3.432
 8621SOL    HW126762   5.817   1.915   3.511
 8621SOL    HW226763   5.831   2.061   3.440
 8622SOL     OW26764   4.874   4.525   0.449
 8622SOL    HW126765   4.883   4.602   0.386
 8622SOL    HW226766   4.961   4.509   0.496
 8623SOL     OW26767   0.375   4.548   3.185
 8623SOL    HW126768   0.467   4.512   3.167
 8623SOL    HW226769   0.310   4.508   3.121
 8624SOL     OW26770   0.377   3.992   3.467
 8624SOL    HW126771   0.409   4.071   3.414
 8624SOL    HW226772   0.330   4.023   3.549
 8625SOL     OW26773   4.852   0.094   4.940
 8625SOL    HW126774   4.846   0.003   4.980
 8625SOL    HW226775   4.832   0.163   5.010
 8626SOL     OW26776   3.616   2.915   4.722
 8626SOL    HW126777   3.572   2.917   4.632
 8626SOL    HW226778   3.703   2.965   4.718
 8627SOL     OW26779   0.518   0.472   3.529
 8627SOL    HW126780   0.465   0.552   3.501
 8627SOL    HW226781   0.602   0.502   3.574
 8628SOL     OW26782   6.165   6.809   1.811
 8628SOL    HW126783   6.231   6.837   1.741
 8628SOL    HW226784   6.072   6.826   1.777
 8629SOL     OW26785   1.659   5.850   4.755
 8629SOL    HW126786   1.649   5.751   4.765
 8629SOL    HW226787   1.683   5.889   4.844
 8630SOL     OW26788   6.010   4.256   4.489
 8630SOL    HW126789   6.064   4.221   4.566
 8630SOL    HW226790   6.032   4.203   4.407
 8631SOL     OW26791   3.486   5.513   6.515
 8631SOL    HW126792   3.511   5.547   6.424
 8631SOL    HW226793   3.388   5.492   6.516
 8632SOL     OW26794   3.487   6.451   3.890
 8632SOL    HW126795   3.510   6.368   3.840
 8632SOL    HW226796   3.398   6.484   3.859
 8633SOL     OW26797   5.044   1.195   4.763
 8633SOL    HW126798   5.038   1.292   4.786
 8633SOL    HW226799   4.955   1.163   4.729
 8634SOL     OW26800   5.837   2.968   0.975
 8634SOL    HW126801   5.755   2.916   1.001
 8634SOL    HW226802   5.823   3.009   0.885
 8635SOL     OW26803   6.213   4.136   6.189
 8635SOL    HW126804   6.138   4.146   6.254
 8635SOL    HW226805   6.177   4.142   6.095
 8636SOL     OW26806   5.483   5.429   0.231
 8636SOL    HW126807   5.492   5.358   0.161
 8636SOL    HW226808   5.387   5.454   0.241
 8637SOL     OW26809   2.245   0.890   0.273
 8637SOL    HW126810   2.294   0.977   0.260
 8637SOL    HW226811   2.211   0.886   0.367
 8638SOL     OW26812   2.017   3.255   6.773
 8638SOL    HW126813   2.053   3.334   6.723
 8638SOL    HW226814   1.946   3.285   6.837
 8639SOL     OW26815   6.420   2.401   1.920
 8639SOL    HW126816   6.465   2.344   1.851
 8639SOL    HW226817   6.423   2.497   1.892
 8640SOL     OW26818   4.599   4.042   0.518
 8640SOL    HW126819   4.690   4.083   0.508
 8640SOL    HW226820   4.603   3.946   0.493
 8641SOL     OW26821   6.776   4.591   4.208
 8641SOL    HW126822   6.722   4.661   4.256
 8641SOL    HW226823   6.781   4.614   4.111
 8642SOL     OW26824   4.382   0.574   2.426
 8642SOL    HW126825   4.287   0.605   2.428
 8642SOL    HW226826   4.414   0.569   2.332
 8643SOL     OW26827   4.346   0.109   0.125
 8643SOL    HW126828   4.281   0.182   0.103
 8643SOL    HW226829   4.299   0.034   0.171
 8644SOL     OW26830   4.512   2.481   5.964
 8644SOL    HW126831   4.577   2.483   5.888
 8644SOL    HW226832   4.559   2.502   6.050
 8645SOL     OW26833   5.464   4.697   1.348
 8645SOL    HW126834   5.384   4.754   1.365
 8645SOL    HW226835   5.435   4.602   1.332
 8646SOL     OW26836   6.727   1.486   1.146
 8646SOL    HW126837   6.638   1.442   1.135
 8646SOL    HW226838   6.756   1.480   1.241
 8647SOL     OW26839   3.156   4.811   6.142
 8647SOL    HW126840   3.151   4.775   6.236
 8647SOL    HW226841   3.218   4.754   6.088
 8648SOL     OW26842   5.899   1.036   4.466
 8648SOL    HW126843   5.959   1.043   4.545
 8648SOL    HW226844   5.804   1.030   4.496
 8649SOL     OW26845   5.860   5.144   6.027
 8649SOL    HW126846   5.824   5.051   6.018
 8649SOL    HW226847   5.811   5.193   6.099
 8650SOL     OW26848   1.752   4.300   4.968
 8650SOL    HW126849   1.680   4.249   4.921
 8650SOL    HW226850   1.840   4.281   4.924
 8651SOL     OW26851   3.610   0.639   0.646
 8651SOL    HW126852   3.705   0.620   0.671
 8651SOL    HW226853   3.608   0.683   0.556
 8652SOL     OW26854   1.342   3.738   2.804
 8652SOL    HW126855   1.404   3.790   2.746
 8652SOL    HW226856   1.333   3.645   2.768
 8653SOL     OW26857   5.554   1.283   5.995
 8653SOL    HW126858   5.531   1.188   6.015
 8653SOL    HW226859   5.650   1.290   5.969
 8654SOL     OW26860   1.468   5.801   1.891
 8654SOL    HW126861   1.470   5.900   1.879
 8654SOL    HW226862   1.476   5.756   1.802
 8655SOL     OW26863   5.979   0.659   4.088
 8655SOL    HW126864   6.012   0.680   4.180
 8655SOL    HW226865   5.951   0.563   4.084
 8656SOL     OW26866   7.011   1.043   0.552
 8656SOL    HW126867   7.004   1.028   0.651
 8656SOL    HW226868   0.034   0.965   0.510
 8657SOL     OW26869   4.481   4.895   6.628
 8657SOL    HW126870   4.467   4.982   6.580
 8657SOL    HW226871   4.479   4.911   6.727
 8658SOL     OW26872   4.786   6.001   6.973
 8658SOL    HW126873   4.720   5.978   0.020
 8658SOL    HW226874   4.856   6.063   7.009
 8659SOL     OW26875   4.205   1.159   3.221
 8659SOL    HW126876   4.300   1.179   3.244
 8659SOL    HW226877   4.156   1.127   3.302
 8660SOL     OW26878   5.622   3.304   0.689
 8660SOL    HW126879   5.660   3.247   0.762
 8660SOL    HW226880   5.539   3.261   0.653
 8661SOL     OW26881   5.769   3.973   0.906
 8661SOL    HW126882   5.669   3.962   0.909
 8661SOL    HW226883   5.793   4.023   0.822
 8662SOL     OW26884   5.013   5.948   1.559
 8662SOL    HW126885   4.917   5.920   1.549
 8662SOL    HW226886   5.021   6.046   1.541
 8663SOL     OW26887   2.721   6.188   1.121
 8663SOL    HW126888   2.798   6.124   1.125
 8663SOL    HW226889   2.647   6.148   1.068
 8664SOL     OW26890   3.562   6.031   1.102
 8664SOL    HW126891   3.559   6.033   1.002
 8664SOL    HW226892   3.626   6.100   1.135
 8665SOL     OW26893   5.563   5.665   5.566
 8665SOL    HW126894   5.489   5.727   5.541
 8665SOL    HW226895   5.583   5.674   5.664
 8666SOL     OW26896   5.259   2.002   4.961
 8666SOL    HW126897   5.286   1.936   4.891
 8666SOL    HW226898   5.279   2.094   4.929
 8667SOL     OW26899   4.415   2.393   3.006
 8667SOL    HW126900   4.475   2.319   2.972
 8667SOL    HW226901   4.339   2.405   2.943
 8668SOL     OW26902   5.649   3.495   3.018
 8668SOL    HW126903   5.644   3.529   2.924
 8668SOL    HW226904   5.581   3.542   3.074
 8669SOL     OW26905   2.414   6.748   6.392
 8669SOL    HW126906   2.424   6.847   6.402
 8669SOL    HW226907   2.504   6.707   6.380
 8670SOL     OW26908   3.578   4.315   5.784
 8670SOL    HW126909   3.575   4.224   5.825
 8670SOL    HW226910   3.569   4.384   5.856
 8671SOL     OW26911   5.489   1.941   3.192
 8671SOL    HW126912   5.405   1.972   3.147
 8671SOL    HW226913   5.514   2.006   3.264
 8672SOL     OW26914   2.456   5.295   3.240
 8672SOL    HW126915   2.469   5.239   3.321
 8672SOL    HW226916   2.448   5.236   3.159
 8673SOL     OW26917   6.958   1.710   6.613
 8673SOL    HW126918   6.905   1.795   6.614
 8673SOL    HW226919   0.008   1.716   6.679
 8674SOL     OW26920   6.201   5.641   1.663
 8674SOL    HW126921   6.255   5.706   1.716
 8674SOL    HW226922   6.259   5.564   1.636
 8675SOL     OW26923   3.844   1.775   4.876
 8675SOL    HW126924   3.848   1.862   4.826
 8675SOL    HW226925   3.925   1.720   4.853
 8676SOL     OW26926   3.837   6.971   2.992
 8676SOL    HW126927   3.926   6.986   2.950
 8676SOL    HW226928   3.834   7.019   3.080
 8677SOL     OW26929   2.460   6.529   5.433
 8677SOL    HW126930   2.554   6.550   5.405
 8677SOL    HW226931   2.456   6.524   5.533
 8678SOL     OW26932   0.170   0.493   1.283
 8678SOL    HW126933   0.233   0.555   1.331
 8678SOL    HW226934   0.201   0.478   1.190
 8679SOL     OW26935   6.660   3.297   4.652
 8679SOL    HW126936   6.731   3.254   4.596
 8679SOL    HW226937   6.575   3.245   4.644
 8680SOL     OW26938   0.219   4.088   1.890
 8680SOL    HW126939   0.250   4.000   1.854
 8680SOL    HW226940   0.127   4.108   1.855
 8681SOL     OW26941   4.322   5.252   0.217
 8681SOL    HW126942   4.293   5.332   0.270
 8681SOL    HW226943   4.256   5.179   0.229
 8682SOL     OW26944   4.608   6.723   1.580
 8682SOL    HW126945   4.582   6.655   1.648
 8682SOL    HW226946   4.644   6.678   1.499
 8683SOL     OW26947   1.772   2.756   2.309
 8683SOL    HW126948   1.796   2.823   2.238
 8683SOL    HW226949   1.715   2.800   2.378
 8684SOL     OW26950   0.288   2.743   5.018
 8684SOL    HW126951   0.365   2.724   4.957
 8684SOL    HW226952   0.218   2.793   4.966
 8685SOL     OW26953   1.562   2.732   5.664
 8685SOL    HW126954   1.465   2.732   5.687
 8685SOL    HW226955   1.606   2.653   5.706
 8686SOL     OW26956   0.354   1.690   1.602
 8686SOL    HW126957   0.320   1.708   1.694
 8686SOL    HW226958   0.340   1.770   1.544
 8687SOL     OW26959   3.434   5.820   2.799
 8687SOL    HW126960   3.498   5.889   2.830
 8687SOL    HW226961   3.413   5.835   2.702
 8688SOL     OW26962   3.163   6.496   0.066
 8688SOL    HW126963   3.200   6.530   7.004
 8688SOL    HW226964   3.101   6.565   0.105
 8689SOL     OW26965   3.290   4.848   0.614
 8689SOL    HW126966   3.266   4.938   0.651
 8689SOL    HW226967   3.293   4.852   0.514
 8690SOL     OW26968   1.990   2.654   3.027
 8690SOL    HW126969   2.088   2.647   3.043
 8690SOL    HW226970   1.973   2.663   2.929
 8691SOL     OW26971   3.660   2.627   6.617
 8691SOL    HW126972   3.694   2.653   6.708
 8691SOL    HW226973   3.561   2.613   6.621
 8692SOL     OW26974   3.841   2.106   2.866
 8692SOL    HW126975   3.915   2.113   2.799
 8692SOL    HW226976   3.880   2.084   2.956
 8693SOL     OW26977   5.980   1.416   0.587
 8693SOL    HW126978   6.009   1.432   0.682
 8693SOL    HW226979   6.004   1.495   0.531
 8694SOL     OW26980   3.826   1.229   5.479
 8694SOL    HW126981   3.857   1.144   5.522
 8694SOL    HW226982   3.843   1.225   5.381
 8695SOL     OW26983   4.567   3.256   6.276
 8695SOL    HW126984   4.558   3.279   6.178
 8695SOL    HW226985   4.581   3.340   6.328
 8696SOL     OW26986   2.774   5.407   0.699
 8696SOL    HW126987   2.688   5.380   0.657
 8696SOL    HW226988   2.804   5.495   0.661
 8697SOL     OW26989   6.215   3.645   0.172
 8697SOL    HW126990   6.253   3.577   0.109
 8697SOL    HW226991   6.286   3.674   0.236
 8698SOL     OW26992   6.347   6.028   4.255
 8698SOL    HW126993   6.272   5.999   4.195
 8698SOL    HW226994   6.360   6.126   4.247
 8699SOL     OW26995   1.946   2.824   5.800
 8699SOL    HW126996   1.883   2.895   5.769
 8699SOL    HW226997   1.899   2.764   5.866
 8700SOL     OW26998   1.381   0.938   4.479
 8700SOL    HW126999   1.353   0.983   4.564
 8700SOL    HW227000   1.315   0.867   4.456
 8701SOL     OW27001   1.616   0.258   6.762
 8701SOL    HW127002   1.528   0.298   6.735
 8701SOL    HW227003   1.661   0.217   6.682
 8702SOL     OW27004   5.226   4.816   0.238
 8702SOL    HW127005   5.285   4.863   0.303
 8702SOL    HW227006   5.243   4.851   0.146
 8703SOL     OW27007   2.592   5.442   1.383
 8703SOL    HW127008   2.530   5.485   1.449
 8703SOL    HW227009   2.595   5.497   1.300
 8704SOL     OW27010   6.324   3.557   2.726
 8704SOL    HW127011   6.383   3.627   2.766
 8704SOL    HW227012   6.376   3.472   2.714
 8705SOL     OW27013   5.106   0.774   0.795
 8705SOL    HW127014   5.168   0.799   0.720
 8705SOL    HW227015   5.111   0.675   0.809
 8706SOL     OW27016   4.852   1.780   6.374
 8706SOL    HW127017   4.799   1.797   6.291
 8706SOL    HW227018   4.793   1.739   6.444
 8707SOL     OW27019   5.747   1.763   0.082
 8707SOL    HW127020   5.660   1.771   0.129
 8707SOL    HW227021   5.731   1.756   7.008
 8708SOL     OW27022   4.095   2.191   2.355
 8708SOL    HW127023   4.176   2.250   2.356
 8708SOL    HW227024   4.123   2.096   2.349
 8709SOL     OW27025   6.971   6.144   6.455
 8709SOL    HW127026   0.019   6.201   6.419
 8709SOL    HW227027   6.986   6.129   6.553
 8710SOL     OW27028   2.153   3.417   3.234
 8710SOL    HW127029   2.174   3.507   3.196
 8710SOL    HW227030   2.146   3.350   3.160
 8711SOL     OW27031   0.108   5.561   2.900
 8711SOL    HW127032   0.052   5.544   2.819
 8711SOL    HW227033   0.177   5.489   2.909
 8712SOL     OW27034   4.419   2.191   4.514
 8712SOL    HW127035   4.478   2.114   4.492
 8712SOL    HW227036   4.459   2.243   4.590
 8713SOL     OW27037   6.991   4.334   3.567
 8713SOL    HW127038   6.949   4.276   3.637
 8713SOL    HW227039   6.977   4.430   3.591
 8714SOL     OW27040   0.064   1.330   6.266
 8714SOL    HW127041   0.011   1.346   6.349
 8714SOL    HW227042   0.150   1.285   6.289
 8715SOL     OW27043   5.437   6.918   0.758
 8715SOL    HW127044   5.531   6.892   0.737
 8715SOL    HW227045   5.434   7.017   0.775
 8716SOL     OW27046   0.936   0.109   1.336
 8716SOL    HW127047   0.923   0.208   1.322
 8716SOL    HW227048   0.946   0.065   1.247
 8717SOL     OW27049   3.547   3.259   3.073
 8717SOL    HW127050   3.616   3.194   3.041
 8717SOL    HW227051   3.592   3.333   3.124
 8718SOL     OW27052   0.509   3.552   5.150
 8718SOL    HW127053   0.597   3.596   5.168
 8718SOL    HW227054   0.439   3.593   5.209
 8719SOL     OW27055   1.595   6.761   6.371
 8719SOL    HW127056   1.692   6.778   6.387
 8719SOL    HW227057   1.540   6.827   6.423
 8720SOL     OW27058   6.863   4.899   5.365
 8720SOL    HW127059   6.962   4.915   5.374
 8720SOL    HW227060   6.847   4.803   5.341
 8721SOL     OW27061   5.910   2.361   3.895
 8721SOL    HW127062   5.920   2.271   3.937
 8721SOL    HW227063   5.933   2.432   3.962
 8722SOL     OW27064   3.814   0.862   0.492
 8722SOL    HW127065   3.900   0.819   0.519
 8722SOL    HW227066   3.817   0.886   0.394
 8723SOL     OW27067   4.975   5.513   0.916
 8723SOL    HW127068   4.997   5.416   0.925
 8723SOL    HW227069   4.878   5.528   0.933
 8724SOL     OW27070   5.917   6.459   5.833
 8724SOL    HW127071   5.860   6.388   5.792
 8724SOL    HW227072   5.859   6.536   5.861
 8725SOL     OW27073   2.156   0.058   6.557
 8725SOL    HW127074   2.188   0.035   6.649
 8725SOL    HW227075   2.120   0.151   6.557
 8726SOL     OW27076   6.516   0.938   1.733
 8726SOL    HW127077   6.560   0.913   1.819
 8726SOL    HW227078   6.491   0.855   1.683
 8727SOL     OW27079   0.179   6.018   1.677
 8727SOL    HW127080   0.097   6.065   1.644
 8727SOL    HW227081   0.210   5.953   1.607
 8728SOL     OW27082   4.194   0.137   4.554
 8728SOL    HW127083   4.108   0.089   4.539
 8728SOL    HW227084   4.183   0.204   4.628
 8729SOL     OW27085   4.783   5.993   3.379
 8729SOL    HW127086   4.739   5.909   3.347
 8729SOL    HW227087   4.720   6.042   3.440
 8730SOL     OW27088   6.893   4.450   2.236
 8730SOL    HW127089   6.965   4.380   2.231
 8730SOL    HW227090   6.872   4.469   2.332
 8731SOL     OW27091   2.475   1.808   2.433
 8731SOL    HW127092   2.398   1.746   2.436
 8731SOL    HW227093   2.531   1.796   2.515
 8732SOL     OW27094   5.472   4.216   1.543
 8732SOL    HW127095   5.412   4.173   1.611
 8732SOL    HW227096   5.424   4.220   1.455
 8733SOL     OW27097   1.691   5.552   2.821
 8733SOL    HW127098   1.616   5.597   2.871
 8733SOL    HW227099   1.653   5.501   2.743
 8734SOL     OW27100   1.194   4.679   1.849
 8734SOL    HW127101   1.188   4.629   1.762
 8734SOL    HW227102   1.106   4.724   1.868
 8735SOL     OW27103   0.858   1.406   0.150
 8735SOL    HW127104   0.784   1.446   0.097
 8735SOL    HW227105   0.825   1.323   0.196
 8736SOL     OW27106   0.473   6.806   6.373
 8736SOL    HW127107   0.375   6.824   6.387
 8736SOL    HW227108   0.500   6.725   6.425
 8737SOL     OW27109   2.495   0.183   5.692
 8737SOL    HW127110   2.583   0.168   5.647
 8737SOL    HW227111   2.508   0.183   5.791
 8738SOL     OW27112   2.448   4.600   3.840
 8738SOL    HW127113   2.451   4.697   3.817
 8738SOL    HW227114   2.442   4.546   3.756
 8739SOL     OW27115   6.501   5.486   6.019
 8739SOL    HW127116   6.576   5.466   6.082
 8739SOL    HW227117   6.422   5.429   6.042
 8740SOL     OW27118   4.913   0.810   5.155
 8740SOL    HW127119   4.969   0.792   5.236
 8740SOL    HW227120   4.954   0.885   5.103
 8741SOL     OW27121   2.358   0.733   2.151
 8741SOL    HW127122   2.405   0.807   2.103
 8741SOL    HW227123   2.387   0.645   2.113
 8742SOL     OW27124   5.747   6.405   1.365
 8742SOL    HW127125   5.759   6.496   1.403
 8742SOL    HW227126   5.651   6.378   1.373
 8743SOL     OW27127   1.672   0.131   2.538
 8743SOL    HW127128   1.762   0.092   2.558
 8743SOL    HW227129   1.602   0.061   2.552
 8744SOL     OW27130   3.650   2.378   5.541
 8744SOL    HW127131   3.651   2.311   5.615
 8744SOL    HW227132   3.645   2.330   5.453
 8745SOL     OW27133   5.923   2.310   5.493
 8745SOL    HW127134   5.963   2.232   5.541
 8745SOL    HW227135   5.823   2.305   5.500
 8746SOL     OW27136   4.881   3.965   5.047
 8746SOL    HW127137   4.852   3.870   5.057
 8746SOL    HW227138   4.967   3.978   5.097
 8747SOL     OW27139   0.231   2.879   2.778
 8747SOL    HW127140   0.200   2.834   2.862
 8747SOL    HW227141   0.312   2.831   2.744
 8748SOL     OW27142   6.959   1.746   6.048
 8748SOL    HW127143   7.019   1.666   6.055
 8748SOL    HW227144   6.864   1.718   6.063
 8749SOL     OW27145   2.980   0.185   6.369
 8749SOL    HW127146   2.927   0.104   6.394
 8749SOL    HW227147   2.975   0.199   6.270
 8750SOL     OW27148   3.368   3.303   5.239
 8750SOL    HW127149   3.411   3.234   5.180
 8750SOL    HW227150   3.282   3.333   5.197
 8751SOL     OW27151   6.258   0.284   3.048
 8751SOL    HW127152   6.329   0.333   2.997
 8751SOL    HW227153   6.226   0.341   3.124
 8752SOL     OW27154   2.933   4.760   6.834
 8752SOL    HW127155   2.835   4.761   6.855
 8752SOL    HW227156   2.972   4.851   6.853
 8753SOL     OW27157   4.519   1.656   5.401
 8753SOL    HW127158   4.501   1.748   5.436
 8753SOL    HW227159   4.436   1.600   5.411
 8754SOL     OW27160   1.139   1.915   5.487
 8754SOL    HW127161   1.202   1.867   5.426
 8754SOL    HW227162   1.110   1.852   5.560
 8755SOL     OW27163   2.504   1.160   6.257
 8755SOL    HW127164   2.481   1.105   6.338
 8755SOL    HW227165   2.424   1.211   6.228
 8756SOL     OW27166   2.151   3.683   3.142
 8756SOL    HW127167   2.116   3.678   3.049
 8756SOL    HW227168   2.146   3.777   3.175
 8757SOL     OW27169   5.293   6.920   5.809
 8757SOL    HW127170   5.345   6.843   5.772
 8757SOL    HW227171   5.217   6.885   5.864
 8758SOL     OW27172   4.712   6.041   1.867
 8758SOL    HW127173   4.769   6.018   1.947
 8758SOL    HW227174   4.757   6.010   1.784
 8759SOL     OW27175   4.013   2.660   6.744
 8759SOL    HW127176   3.923   2.688   6.776
 8759SOL    HW227177   4.059   2.609   6.817
 8760SOL     OW27178   1.716   2.048   4.789
 8760SOL    HW127179   1.623   2.070   4.819
 8760SOL    HW227180   1.776   2.042   4.868
 8761SOL     OW27181   4.534   0.854   1.522
 8761SOL    HW127182   4.623   0.895   1.502
 8761SOL    HW227183   4.539   0.805   1.609
 8762SOL     OW27184   0.353   3.635   2.584
 8762SOL    HW127185   0.304   3.719   2.559
 8762SOL    HW227186   0.436   3.659   2.633
 8763SOL     OW27187   6.436   5.595   5.469
 8763SOL    HW127188   6.390   5.607   5.556
 8763SOL    HW227189   6.532   5.620   5.478
 8764SOL     OW27190   4.679   0.533   4.385
 8764SOL    HW127191   4.580   0.523   4.373
 8764SOL    HW227192   4.708   0.622   4.350
 8765SOL     OW27193   5.788   6.810   5.322
 8765SOL    HW127194   5.773   6.769   5.233
 8765SOL    HW227195   5.805   6.908   5.312
 8766SOL     OW27196   4.005   5.515   2.978
 8766SOL    HW127197   3.932   5.568   3.021
 8766SOL    HW227198   4.009   5.539   2.880
 8767SOL     OW27199   3.702   0.480   2.770
 8767SOL    HW127200   3.763   0.425   2.828
 8767SOL    HW227201   3.662   0.421   2.699
 8768SOL     OW27202   0.873   3.123   0.384
 8768SOL    HW127203   0.946   3.110   0.450
 8768SOL    HW227204   0.885   3.060   0.308
 8769SOL     OW27205   1.238   6.811   4.031
 8769SOL    HW127206   1.258   6.799   3.933
 8769SOL    HW227207   1.152   6.861   4.041
 8770SOL     OW27208   4.770   4.042   2.175
 8770SOL    HW127209   4.839   3.986   2.221
 8770SOL    HW227210   4.734   3.992   2.096
 8771SOL     OW27211   0.907   0.143   5.967
 8771SOL    HW127212   1.005   0.134   5.948
 8771SOL    HW227213   0.865   0.053   5.966
 8772SOL     OW27214   5.692   6.565   0.425
 8772SOL    HW127215   5.762   6.626   0.386
 8772SOL    HW227216   5.667   6.496   0.357
 8773SOL     OW27217   4.678   1.997   3.489
 8773SOL    HW127218   4.713   1.918   3.439
 8773SOL    HW227219   4.632   1.966   3.572
 8774SOL     OW27220   2.372   1.590   0.779
 8774SOL    HW127221   2.363   1.554   0.686
 8774SOL    HW227222   2.289   1.639   0.804
 8775SOL     OW27223   6.020   0.612   5.177
 8775SOL    HW127224   5.996   0.707   5.196
 8775SOL    HW227225   6.107   0.608   5.129
 8776SOL     OW27226   2.910   3.737   4.634
 8776SOL    HW127227   2.895   3.720   4.731
 8776SOL    HW227228   2.933   3.834   4.620
 8777SOL     OW27229   6.984   4.075   1.192
 8777SOL    HW127230   0.041   4.099   1.245
 8777SOL    HW227231   6.902   4.090   1.247
 8778SOL     OW27232   5.922   2.342   4.373
 8778SOL    HW127233   5.969   2.267   4.326
 8778SOL    HW227234   5.961   2.430   4.344
 8779SOL     OW27235   2.646   5.408   2.040
 8779SOL    HW127236   2.592   5.489   2.018
 8779SOL    HW227237   2.731   5.435   2.084
 8780SOL     OW27238   0.990   5.140   3.973
 8780SOL    HW127239   1.084   5.131   4.004
 8780SOL    HW227240   0.972   5.236   3.948
 8781SOL     OW27241   6.274   1.634   3.803
 8781SOL    HW127242   6.226   1.633   3.715
 8781SOL    HW227243   6.210   1.656   3.876
 8782SOL     OW27244   5.726   0.653   2.201
 8782SOL    HW127245   5.742   0.554   2.207
 8782SOL    HW227246   5.810   0.699   2.173
 8783SOL     OW27247   6.347   3.474   3.669
 8783SOL    HW127248   6.386   3.383   3.680
 8783SOL    HW227249   6.261   3.468   3.617
 8784SOL     OW27250   5.368   3.955   5.386
 8784SOL    HW127251   5.417   3.913   5.463
 8784SOL    HW227252   5.309   3.886   5.343
 8785SOL     OW27253   6.421   3.729   6.877
 8785SOL    HW127254   6.413   3.684   6.788
 8785SOL    HW227255   6.339   3.783   6.895
 8786SOL     OW27256   2.758   6.313   0.381
 8786SOL    HW127257   2.766   6.394   0.440
 8786SOL    HW227258   2.738   6.342   0.288
 8787SOL     OW27259   1.881   2.941   2.118
 8787SOL    HW127260   1.877   3.008   2.192
 8787SOL    HW227261   1.973   2.901   2.114
 8788SOL     OW27262   6.880   2.327   5.659
 8788SOL    HW127263   6.826   2.374   5.589
 8788SOL    HW227264   6.925   2.395   5.717
 8789SOL     OW27265   5.834   6.538   6.163
 8789SOL    HW127266   5.930   6.566   6.165
 8789SOL    HW227267   5.777   6.612   6.197
 8790SOL     OW27268   0.147   1.399   0.290
 8790SOL    HW127269   0.243   1.425   0.284
 8790SOL    HW227270   0.091   1.469   0.246
 8791SOL     OW27271   5.259   6.731   4.557
 8791SOL    HW127272   5.278   6.770   4.647
 8791SOL    HW227273   5.330   6.664   4.534
 8792SOL     OW27274   3.792   6.131   3.482
 8792SOL    HW127275   3.767   6.050   3.535
 8792SOL    HW227276   3.709   6.181   3.456
 8793SOL     OW27277   1.911   5.286   3.817
 8793SOL    HW127278   1.922   5.349   3.894
 8793SOL    HW227279   1.924   5.336   3.731
 8794SOL     OW27280   4.130   6.709   1.939
 8794SOL    HW127281   4.100   6.758   1.857
 8794SOL    HW227282   4.228   6.721   1.951
 8795SOL     OW27283   1.625   6.586   5.051
 8795SOL    HW127284   1.639   6.553   4.958
 8795SOL    HW227285   1.528   6.593   5.070
 8796SOL     OW27286   3.734   0.193   5.207
 8796SOL    HW127287   3.721   0.292   5.200
 8796SOL    HW227288   3.649   0.150   5.239
 8797SOL     OW27289   1.097   6.934   5.261
 8797SOL    HW127290   1.036   6.859   5.235
 8797SOL    HW227291   1.191   6.900   5.261
 8798SOL     OW27292   4.713   5.219   4.838
 8798SOL    HW127293   4.751   5.191   4.926
 8798SOL    HW227294   4.618   5.190   4.832
 8799SOL     OW27295   1.786   4.671   3.561
 8799SOL    HW127296   1.700   4.720   3.552
 8799SOL    HW227297   1.769   4.582   3.604
 8800SOL     OW27298   5.705   3.836   5.268
 8800SOL    HW127299   5.637   3.789   5.324
 8800SOL    HW227300   5.751   3.906   5.323
 8801SOL     OW27301   1.354   1.462   4.593
 8801SOL    HW127302   1.387   1.402   4.520
 8801SOL    HW227303   1.420   1.462   4.669
 8802SOL     OW27304   1.588   0.601   0.439
 8802SOL    HW127305   1.506   0.558   0.400
 8802SOL    HW227306   1.653   0.620   0.367
 8803SOL     OW27307   0.845   5.275   5.733
 8803SOL    HW127308   0.801   5.340   5.796
 8803SOL    HW227309   0.865   5.190   5.781
 8804SOL     OW27310   3.220   0.363   1.815
 8804SOL    HW127311   3.258   0.450   1.846
 8804SOL    HW227312   3.181   0.314   1.892
 8805SOL     OW27313   2.740   0.552   4.328
 8805SOL    HW127314   2.661   0.613   4.319
 8805SOL    HW227315   2.748   0.523   4.423
 8806SOL     OW27316   1.727   4.971   1.898
 8806SOL    HW127317   1.670   4.923   1.965
 8806SOL    HW227318   1.719   4.927   1.809
 8807SOL     OW27319   6.328   6.393   6.387
 8807SOL    HW127320   6.233   6.386   6.355
 8807SOL    HW227321   6.390   6.371   6.312
 8808SOL     OW27322   5.338   2.020   1.101
 8808SOL    HW127323   5.357   2.008   1.198
 8808SOL    HW227324   5.242   2.045   1.089
 8809SOL     OW27325   5.308   4.576   3.066
 8809SOL    HW127326   5.279   4.671   3.059
 8809SOL    HW227327   5.232   4.516   3.040
 8810SOL     OW27328   5.933   1.617   6.286
 8810SOL    HW127329   5.872   1.693   6.263
 8810SOL    HW227330   5.900   1.572   6.369
 8811SOL     OW27331   3.384   1.769   3.560
 8811SOL    HW127332   3.367   1.754   3.462
 8811SOL    HW227333   3.476   1.808   3.573
 8812SOL     OW27334   1.673   0.705   0.823
 8812SOL    HW127335   1.748   0.649   0.858
 8812SOL    HW227336   1.709   0.772   0.758
 8813SOL     OW27337   1.160   4.609   1.585
 8813SOL    HW127338   1.197   4.673   1.517
 8813SOL    HW227339   1.069   4.581   1.557
 8814SOL     OW27340   6.678   0.609   0.997
 8814SOL    HW127341   6.703   0.704   1.018
 8814SOL    HW227342   6.690   0.552   1.078
 8815SOL     OW27343   6.325   6.324   0.612
 8815SOL    HW127344   6.233   6.293   0.590
 8815SOL    HW227345   6.322   6.382   0.694
 8816SOL     OW27346   2.096   0.663   0.147
 8816SOL    HW127347   2.051   0.735   0.198
 8816SOL    HW227348   2.160   0.703   0.081
 8817SOL     OW27349   0.516   6.117   5.734
 8817SOL    HW127350   0.460   6.155   5.809
 8817SOL    HW227351   0.564   6.192   5.688
 8818SOL     OW27352   0.288   3.162   3.977
 8818SOL    HW127353   0.190   3.148   3.964
 8818SOL    HW227354   0.304   3.257   4.003
 8819SOL     OW27355   4.247   5.498   4.270
 8819SOL    HW127356   4.182   5.422   4.273
 8819SOL    HW227357   4.253   5.539   4.361
 8820SOL     OW27358   2.203   1.725   4.138
 8820SOL    HW127359   2.226   1.758   4.229
 8820SOL    HW227360   2.285   1.689   4.093
 8821SOL     OW27361   2.804   5.789   0.280
 8821SOL    HW127362   2.866   5.712   0.264
 8821SOL    HW227363   2.845   5.873   0.245
 8822SOL     OW27364   0.979   0.307   3.526
 8822SOL    HW127365   0.940   0.397   3.511
 8822SOL    HW227366   1.049   0.312   3.598
 8823SOL     OW27367   2.203   0.954   0.569
 8823SOL    HW127368   2.253   1.028   0.614
 8823SOL    HW227369   2.169   0.890   0.638
 8824SOL     OW27370   1.485   3.549   1.205
 8824SOL    HW127371   1.465   3.451   1.200
 8824SOL    HW227372   1.422   3.593   1.268
 8825SOL     OW27373   1.755   0.187   3.570
 8825SOL    HW127374   1.698   0.142   3.502
 8825SOL    HW227375   1.761   0.130   3.652
 8826SOL     OW27376   6.224   2.674   0.175
 8826SOL    HW127377   6.170   2.624   0.243
 8826SOL    HW227378   6.168   2.690   0.094
 8827SOL     OW27379   3.464   1.448   3.009
 8827SOL    HW127380   3.391   1.399   3.055
 8827SOL    HW227381   3.428   1.531   2.968
 8828SOL     OW27382   4.505   5.831   4.875
 8828SOL    HW127383   4.530   5.734   4.870
 8828SOL    HW227384   4.443   5.853   4.800
 8829SOL     OW27385   0.123   2.260   0.225
 8829SOL    HW127386   0.198   2.263   0.158
 8829SOL    HW227387   0.066   2.179   0.207
 8830SOL     OW27388   0.605   1.259   1.215
 8830SOL    HW127389   0.670   1.311   1.159
 8830SOL    HW227390   0.513   1.295   1.201
 8831SOL     OW27391   5.310   0.888   3.856
 8831SOL    HW127392   5.363   0.808   3.884
 8831SOL    HW227393   5.214   0.874   3.879
 8832SOL     OW27394   6.139   6.215   2.534
 8832SOL    HW127395   6.229   6.239   2.495
 8832SOL    HW227396   6.077   6.293   2.525
 8833SOL     OW27397   2.070   6.338   5.854
 8833SOL    HW127398   2.170   6.341   5.847
 8833SOL    HW227399   2.034   6.431   5.862
 8834SOL     OW27400   5.409   3.547   4.614
 8834SOL    HW127401   5.456   3.551   4.701
 8834SOL    HW227402   5.315   3.516   4.628
 8835SOL     OW27403   6.348   1.198   6.031
 8835SOL    HW127404   6.334   1.297   6.033
 8835SOL    HW227405   6.349   1.167   5.936
 8836SOL     OW27406   4.638   1.126   6.758
 8836SOL    HW127407   4.617   1.131   6.856
 8836SOL    HW227408   4.581   1.191   6.708
 8837SOL     OW27409   0.088   6.246   2.644
 8837SOL    HW127410   0.044   6.173   2.695
 8837SOL    HW227411   0.183   6.255   2.673
 8838SOL     OW27412   3.244   5.037   2.899
 8838SOL    HW127413   3.177   5.014   2.970
 8838SOL    HW227414   3.199   5.036   2.809
 8839SOL     OW27415   5.241   5.643   1.932
 8839SOL    HW127416   5.222   5.591   2.016
 8839SOL    HW227417   5.173   5.620   1.863
 8840SOL     OW27418   6.479   1.915   2.031
 8840SOL    HW127419   6.526   1.998   2.063
 8840SOL    HW227420   6.438   1.933   1.942
 8841SOL     OW27421   1.523   0.581   4.669
 8841SOL    HW127422   1.558   0.649   4.604
 8841SOL    HW227423   1.437   0.543   4.635
 8842SOL     OW27424   3.161   3.095   1.267
 8842SOL    HW127425   3.062   3.081   1.270
 8842SOL    HW227426   3.206   3.016   1.308
 8843SOL     OW27427   1.956   3.125   4.735
 8843SOL    HW127428   1.941   3.047   4.796
 8843SOL    HW227429   1.922   3.208   4.779
 8844SOL     OW27430   5.519   1.529   0.385
 8844SOL    HW127431   5.603   1.506   0.335
 8844SOL    HW227432   5.470   1.602   0.336
 8845SOL     OW27433   4.571   4.240   6.891
 8845SOL    HW127434   4.530   4.256   6.801
 8845SOL    HW227435   4.621   4.322   6.920
 8846SOL     OW27436   2.399   5.461   3.481
 8846SOL    HW127437   2.424   5.471   3.385
 8846SOL    HW227438   2.459   5.394   3.525
 8847SOL     OW27439   2.760   0.737   2.727
 8847SOL    HW127440   2.828   0.790   2.678
 8847SOL    HW227441   2.729   0.787   2.808
 8848SOL     OW27442   2.651   0.319   1.658
 8848SOL    HW127443   2.590   0.261   1.711
 8848SOL    HW227444   2.623   0.320   1.563
 8849SOL     OW27445   3.023   6.322   2.640
 8849SOL    HW127446   3.007   6.306   2.542
 8849SOL    HW227447   2.940   6.302   2.691
 8850SOL     OW27448   1.796   2.085   0.068
 8850SOL    HW127449   1.745   2.168   0.091
 8850SOL    HW227450   1.803   2.077   6.994
 8851SOL     OW27451   1.895   4.282   2.231
 8851SOL    HW127452   1.912   4.349   2.159
 8851SOL    HW227453   1.979   4.231   2.250
 8852SOL     OW27454   1.178   1.784   4.746
 8852SOL    HW127455   1.190   1.757   4.842
 8852SOL    HW227456   1.089   1.752   4.714
 8853SOL     OW27457   2.489   0.678   1.760
 8853SOL    HW127458   2.559   0.611   1.785
 8853SOL    HW227459   2.532   0.760   1.722
 8854SOL     OW27460   2.167   3.267   4.648
 8854SOL    HW127461   2.247   3.211   4.624
 8854SOL    HW227462   2.089   3.208   4.668
 8855SOL     OW27463   6.710   5.459   1.457
 8855SOL    HW127464   6.787   5.512   1.420
 8855SOL    HW227465   6.661   5.416   1.381
 8856SOL     OW27466   0.451   6.034   6.778
 8856SOL    HW127467   0.476   6.110   6.718
 8856SOL    HW227468   0.380   5.979   6.734
 8857SOL     OW27469   6.801   1.659   4.668
 8857SOL    HW127470   6.818   1.583   4.605
 8857SOL    HW227471   6.844   1.639   4.756
 8858SOL     OW27472   7.022   4.535   4.343
 8858SOL    HW127473   0.036   4.453   4.301
 8858SOL    HW227474   6.942   4.564   4.291
 8859SOL     OW27475   1.015   0.999   4.057
 8859SOL    HW127476   0.947   1.066   4.029
 8859SOL    HW227477   1.066   0.968   3.977
 8860SOL     OW27478   6.599   2.300   1.745
 8860SOL    HW127479   6.697   2.311   1.730
 8860SOL    HW227480   6.549   2.364   1.686
 8861SOL     OW27481   4.275   1.160   6.870
 8861SOL    HW127482   4.262   1.169   6.969
 8861SOL    HW227483   4.372   1.171   6.848
 8862SOL     OW27484   5.430   6.794   3.593
 8862SOL    HW127485   5.363   6.837   3.533
 8862SOL    HW227486   5.405   6.698   3.609
 8863SOL     OW27487   2.000   5.066   3.107
 8863SOL    HW127488   2.036   5.158   3.123
 8863SOL    HW227489   1.954   5.063   3.018
 8864SOL     OW27490   4.133   4.240   6.466
 8864SOL    HW127491   4.043   4.223   6.426
 8864SOL    HW227492   4.147   4.177   6.543
 8865SOL     OW27493   3.299   0.740   5.263
 8865SOL    HW127494   3.303   0.644   5.236
 8865SOL    HW227495   3.245   0.749   5.347
 8866SOL     OW27496   5.469   6.649   2.750
 8866SOL    HW127497   5.463   6.633   2.848
 8866SOL    HW227498   5.419   6.577   2.701
 8867SOL     OW27499   5.965   3.876   3.519
 8867SOL    HW127500   5.909   3.958   3.528
 8867SOL    HW227501   5.997   3.868   3.424
 8868SOL     OW27502   6.800   3.445   2.183
 8868SOL    HW127503   6.842   3.359   2.154
 8868SOL    HW227504   6.865   3.495   2.240
 8869SOL     OW27505   4.116   5.820   5.369
 8869SOL    HW127506   4.093   5.908   5.327
 8869SOL    HW227507   4.076   5.746   5.316
 8870SOL     OW27508   1.686   6.086   1.648
 8870SOL    HW127509   1.759   6.047   1.592
 8870SOL    HW227510   1.718   6.171   1.690
 8871SOL     OW27511   1.748   0.731   3.454
 8871SOL    HW127512   1.761   0.632   3.459
 8871SOL    HW227513   1.715   0.756   3.363
 8872SOL     OW27514   1.362   4.910   5.963
 8872SOL    HW127515   1.404   4.824   5.991
 8872SOL    HW227516   1.328   4.958   6.044
 8873SOL     OW27517   1.725   6.607   1.860
 8873SOL    HW127518   1.755   6.615   1.764
 8873SOL    HW227519   1.805   6.607   1.920
 8874SOL     OW27520   1.280   5.629   2.269
 8874SOL    HW127521   1.249   5.562   2.202
 8874SOL    HW227522   1.355   5.683   2.231
 8875SOL     OW27523   0.200   3.034   4.441
 8875SOL    HW127524   0.192   3.025   4.540
 8875SOL    HW227525   0.277   3.094   4.419
 8876SOL     OW27526   2.511   0.915   6.465
 8876SOL    HW127527   2.424   0.946   6.428
 8876SOL    HW227528   2.495   0.845   6.535
 8877SOL     OW27529   1.588   3.608   3.116
 8877SOL    HW127530   1.682   3.639   3.107
 8877SOL    HW227531   1.566   3.546   3.040
 8878SOL     OW27532   3.502   5.027   0.870
 8878SOL    HW127533   3.454   5.016   0.957
 8878SOL    HW227534   3.550   4.942   0.848
 8879SOL     OW27535   6.043   4.819   2.645
 8879SOL    HW127536   6.093   4.769   2.716
 8879SOL    HW227537   6.010   4.755   2.576
 8880SOL     OW27538   3.982   5.947   4.734
 8880SOL    HW127539   3.956   6.041   4.758
 8880SOL    HW227540   3.905   5.901   4.690
 8881SOL     OW27541   5.430   5.439   4.274
 8881SOL    HW127542   5.345   5.409   4.317
 8881SOL    HW227543   5.489   5.359   4.258
 8882SOL     OW27544   3.796   1.053   0.701
 8882SOL    HW127545   3.707   1.095   0.717
 8882SOL    HW227546   3.791   0.995   0.620
 8883SOL     OW27547   1.092   6.487   5.810
 8883SOL    HW127548   1.042   6.516   5.729
 8883SOL    HW227549   1.173   6.435   5.782
 8884SOL     OW27550   6.132   3.664   5.210
 8884SOL    HW127551   6.163   3.653   5.115
 8884SOL    HW227552   6.077   3.585   5.236
 8885SOL     OW27553   5.218   4.840   0.963
 8885SOL    HW127554   5.272   4.764   0.927
 8885SOL    HW227555   5.200   4.906   0.889
 8886SOL     OW27556   3.928   5.955   6.226
 8886SOL    HW127557   3.966   6.005   6.304
 8886SOL    HW227558   3.834   5.986   6.210
 8887SOL     OW27559   3.654   1.639   0.756
 8887SOL    HW127560   3.632   1.559   0.811
 8887SOL    HW227561   3.676   1.716   0.816
 8888SOL     OW27562   2.209   2.664   4.363
 8888SOL    HW127563   2.184   2.761   4.367
 8888SOL    HW227564   2.151   2.618   4.297
 8889SOL     OW27565   0.185   6.199   6.671
 8889SOL    HW127566   0.257   6.204   6.601
 8889SOL    HW227567   0.161   6.103   6.687
 8890SOL     OW27568   0.527   6.226   6.557
 8890SOL    HW127569   0.508   6.233   6.459
 8890SOL    HW227570   0.625   6.214   6.571
 8891SOL     OW27571   4.128   4.310   0.132
 8891SOL    HW127572   4.200   4.266   0.078
 8891SOL    HW227573   4.151   4.406   0.145
 8892SOL     OW27574   3.847   4.999   3.601
 8892SOL    HW127575   3.768   4.940   3.618
 8892SOL    HW227576   3.863   5.057   3.681
 8893SOL     OW27577   1.687   5.649   5.160
 8893SOL    HW127578   1.665   5.746   5.164
 8893SOL    HW227579   1.786   5.636   5.169
 8894SOL     OW27580   3.649   1.654   6.842
 8894SOL    HW127581   3.746   1.675   6.849
 8894SOL    HW227582   3.637   1.561   6.806
 8895SOL     OW27583   0.528   2.275   0.812
 8895SOL    HW127584   0.471   2.208   0.764
 8895SOL    HW227585   0.500   2.367   0.786
 8896SOL     OW27586   1.668   2.900   4.554
 8896SOL    HW127587   1.761   2.935   4.546
 8896SOL    HW227588   1.669   2.800   4.543
 8897SOL     OW27589   2.138   3.698   3.454
 8897SOL    HW127590   2.206   3.670   3.385
 8897SOL    HW227591   2.052   3.720   3.409
 8898SOL     OW27592   5.994   3.642   1.920
 8898SOL    HW127593   5.935   3.685   1.989
 8898SOL    HW227594   6.073   3.601   1.965
 8899SOL     OW27595   0.613   4.805   7.008
 8899SOL    HW127596   0.685   4.746   0.020
 8899SOL    HW227597   0.547   4.749   6.957
 8900SOL     OW27598   5.488   2.517   3.191
 8900SOL    HW127599   5.422   2.488   3.260
 8900SOL    HW227600   5.579   2.483   3.215
 8901SOL     OW27601   1.030   1.372   4.094
 8901SOL    HW127602   1.090   1.321   4.155
 8901SOL    HW227603   0.966   1.309   4.050
 8902SOL     OW27604   1.797   5.974   6.767
 8902SOL    HW127605   1.703   5.971   6.732
 8902SOL    HW227606   1.838   5.883   6.758
 8903SOL     OW27607   0.839   2.408   4.641
 8903SOL    HW127608   0.913   2.440   4.582
 8903SOL    HW227609   0.840   2.460   4.727
 8904SOL     OW27610   1.119   1.622   3.974
 8904SOL    HW127611   1.127   1.526   3.998
 8904SOL    HW227612   1.128   1.633   3.875
 8905SOL     OW27613   1.839   3.603   2.524
 8905SOL    HW127614   1.936   3.625   2.520
 8905SOL    HW227615   1.802   3.594   2.432
 8906SOL     OW27616   1.421   6.064   1.046
 8906SOL    HW127617   1.336   6.032   1.003
 8906SOL    HW227618   1.451   5.996   1.114
 8907SOL     OW27619   2.893   2.721   5.312
 8907SOL    HW127620   2.905   2.813   5.274
 8907SOL    HW227621   2.977   2.668   5.297
 8908SOL     OW27622   2.042   4.991   0.016
 8908SOL    HW127623   2.104   4.971   0.091
 8908SOL    HW227624   2.012   5.086   0.022
 8909SOL     OW27625   2.704   1.229   6.413
 8909SOL    HW127626   2.641   1.241   6.336
 8909SOL    HW227627   2.753   1.143   6.402
 8910SOL     OW27628   0.432   3.044   5.055
 8910SOL    HW127629   0.492   2.979   5.009
 8910SOL    HW227630   0.389   3.103   4.988
 8911SOL     OW27631   5.840   3.220   5.017
 8911SOL    HW127632   5.817   3.316   5.034
 8911SOL    HW227633   5.848   3.205   4.918
 8912SOL     OW27634   3.110   3.159   6.144
 8912SOL    HW127635   3.112   3.121   6.236
 8912SOL    HW227636   3.076   3.090   6.079
 8913SOL     OW27637   4.605   5.509   6.599
 8913SOL    HW127638   4.614   5.513   6.699
 8913SOL    HW227639   4.696   5.507   6.558
 8914SOL     OW27640   4.893   6.453   4.404
 8914SOL    HW127641   4.939   6.453   4.316
 8914SOL    HW227642   4.908   6.366   4.451
 8915SOL     OW27643   1.179   2.351   4.381
 8915SOL    HW127644   1.213   2.285   4.448
 8915SOL    HW227645   1.101   2.400   4.420
 8916SOL     OW27646   6.358   2.604   6.874
 8916SOL    HW127647   6.385   2.611   6.778
 8916SOL    HW227648   6.321   2.513   6.892
 8917SOL     OW27649   5.581   2.425   0.969
 8917SOL    HW127650   5.504   2.403   1.029
 8917SOL    HW227651   5.666   2.393   1.011
 8918SOL     OW27652   1.126   5.439   0.677
 8918SOL    HW127653   1.095   5.521   0.628
 8918SOL    HW227654   1.188   5.466   0.750
 8919SOL     OW27655   5.100   4.683   6.480
 8919SOL    HW127656   5.044   4.642   6.409
 8919SOL    HW227657   5.197   4.673   6.457
 8920SOL     OW27658   0.326   2.239   0.065
 8920SOL    HW127659   0.344   2.180   7.012
 8920SOL    HW227660   0.397   2.310   0.071
 8921SOL     OW27661   1.627   2.844   1.637
 8921SOL    HW127662   1.578   2.870   1.554
 8921SOL    HW227663   1.600   2.751   1.663
 8922SOL     OW27664   4.347   5.929   2.206
 8922SOL    HW127665   4.376   6.009   2.154
 8922SOL    HW227666   4.297   5.958   2.287
 8923SOL     OW27667   1.435   1.155   5.474
 8923SOL    HW127668   1.520   1.124   5.433
 8923SOL    HW227669   1.381   1.077   5.504
 8924SOL     OW27670   4.716   5.556   5.490
 8924SOL    HW127671   4.691   5.504   5.408
 8924SOL    HW227672   4.753   5.494   5.559
 8925SOL     OW27673   6.924   0.564   2.573
 8925SOL    HW127674   6.909   0.541   2.477
 8925SOL    HW227675   6.885   0.654   2.592
 8926SOL     OW27676   6.333   3.414   4.785
 8926SOL    HW127677   6.331   3.468   4.701
 8926SOL    HW227678   6.361   3.321   4.763
 8927SOL     OW27679   6.298   1.612   4.759
 8927SOL    HW127680   6.315   1.533   4.818
 8927SOL    HW227681   6.384   1.657   4.738
 8928SOL     OW27682   1.479   0.146   5.887
 8928SOL    HW127683   1.503   0.093   5.969
 8928SOL    HW227684   1.501   0.242   5.903
 8929SOL     OW27685   6.524   1.981   5.064
 8929SOL    HW127686   6.605   2.010   5.012
 8929SOL    HW227687   6.470   2.061   5.090
 8930SOL     OW27688   0.722   3.025   3.417
 8930SOL    HW127689   0.676   2.945   3.378
 8930SOL    HW227690   0.817   3.001   3.439
 8931SOL     OW27691   2.792   3.327   1.741
 8931SOL    HW127692   2.852   3.346   1.818
 8931SOL    HW227693   2.719   3.396   1.737
 8932SOL     OW27694   6.838   2.268   2.779
 8932SOL    HW127695   6.830   2.180   2.733
 8932SOL    HW227696   6.771   2.274   2.853
 8933SOL     OW27697   3.205   2.479   6.393
 8933SOL    HW127698   3.121   2.486   6.446
 8933SOL    HW227699   3.233   2.384   6.388
 8934SOL     OW27700   3.754   4.784   5.326
 8934SOL    HW127701   3.704   4.704   5.360
 8934SOL    HW227702   3.852   4.773   5.348
 8935SOL     OW27703   0.457   4.380   0.085
 8935SOL    HW127704   0.489   4.411   7.020
 8935SOL    HW227705   0.451   4.280   0.086
 8936SOL     OW27706   1.465   4.207   0.486
 8936SOL    HW127707   1.374   4.191   0.447
 8936SOL    HW227708   1.527   4.134   0.456
 8937SOL     OW27709   0.404   0.594   5.158
 8937SOL    HW127710   0.338   0.610   5.085
 8937SOL    HW227711   0.363   0.617   5.246
 8938SOL     OW27712   0.829   5.462   0.536
 8938SOL    HW127713   0.742   5.471   0.583
 8938SOL    HW227714   0.885   5.543   0.553
 8939SOL     OW27715   4.712   2.868   4.322
 8939SOL    HW127716   4.746   2.785   4.365
 8939SOL    HW227717   4.629   2.898   4.368
 8940SOL     OW27718   0.092   1.069   3.464
 8940SOL    HW127719   0.070   1.133   3.537
 8940SOL    HW227720   0.112   1.120   3.380
 8941SOL     OW27721   5.984   2.489   5.178
 8941SOL    HW127722   5.911   2.421   5.173
 8941SOL    HW227723   5.994   2.521   5.273
 8942SOL     OW27724   0.444   4.372   5.027
 8942SOL    HW127725   0.467   4.378   4.930
 8942SOL    HW227726   0.520   4.406   5.082
 8943SOL     OW27727   3.842   4.090   0.191
 8943SOL    HW127728   3.868   4.121   0.099
 8943SOL    HW227729   3.742   4.090   0.198
 8944SOL     OW27730   4.874   4.620   4.943
 8944SOL    HW127731   4.894   4.683   5.017
 8944SOL    HW227732   4.812   4.664   4.878
 8945SOL     OW27733   2.032   1.044   3.735
 8945SOL    HW127734   2.002   0.978   3.666
 8945SOL    HW227735   2.115   1.089   3.704
 8946SOL     OW27736   3.013   1.518   4.950
 8946SOL    HW127737   2.939   1.485   5.009
 8946SOL    HW227738   2.974   1.573   4.876
 8947SOL     OW27739   1.695   3.691   4.933
 8947SOL    HW127740   1.775   3.638   4.961
 8947SOL    HW227741   1.651   3.730   5.014
 8948SOL     OW27742   6.300   6.295   4.271
 8948SOL    HW127743   6.350   6.335   4.194
 8948SOL    HW227744   6.339   6.328   4.357
 8949SOL     OW27745   2.264   0.225   0.324
 8949SOL    HW127746   2.250   0.127   0.313
 8949SOL    HW227747   2.181   0.267   0.361
 8950SOL     OW27748   4.945   3.209   5.937
 8950SOL    HW127749   4.894   3.188   5.854
 8950SOL    HW227750   4.968   3.306   5.937
 8951SOL     OW27751   0.627   1.955   4.592
 8951SOL    HW127752   0.626   2.037   4.536
 8951SOL    HW227753   0.540   1.946   4.641
 8952SOL     OW27754   1.245   0.163   2.449
 8952SOL    HW127755   1.252   0.115   2.536
 8952SOL    HW227756   1.150   0.191   2.433
 8953SOL     OW27757   1.130   3.636   6.543
 8953SOL    HW127758   1.068   3.682   6.478
 8953SOL    HW227759   1.174   3.559   6.497
 8954SOL     OW27760   0.909   6.383   6.220
 8954SOL    HW127761   0.982   6.451   6.212
 8954SOL    HW227762   0.828   6.426   6.259
 8955SOL     OW27763   0.401   4.449   2.371
 8955SOL    HW127764   0.475   4.514   2.385
 8955SOL    HW227765   0.438   4.360   2.347
 8956SOL     OW27766   0.183   1.841   0.101
 8956SOL    HW127767   0.260   1.904   0.107
 8956SOL    HW227768   0.188   1.775   0.176
 8957SOL     OW27769   3.019   4.199   1.764
 8957SOL    HW127770   2.973   4.282   1.797
 8957SOL    HW227771   3.021   4.132   1.838
 8958SOL     OW27772   0.840   0.249   4.661
 8958SOL    HW127773   0.853   0.337   4.706
 8958SOL    HW227774   0.929   0.208   4.642
 8959SOL     OW27775   1.404   4.817   1.472
 8959SOL    HW127776   1.464   4.736   1.471
 8959SOL    HW227777   1.402   4.855   1.565
 8960SOL     OW27778   4.898   5.850   2.536
 8960SOL    HW127779   4.889   5.752   2.518
 8960SOL    HW227780   4.827   5.900   2.486
 8961SOL     OW27781   2.320   2.501   4.568
 8961SOL    HW127782   2.247   2.517   4.634
 8961SOL    HW227783   2.308   2.562   4.489
 8962SOL     OW27784   6.482   6.541   2.966
 8962SOL    HW127785   6.523   6.619   2.919
 8962SOL    HW227786   6.498   6.458   2.914
 8963SOL     OW27787   5.245   6.493   4.052
 8963SOL    HW127788   5.312   6.427   4.018
 8963SOL    HW227789   5.285   6.585   4.049
 8964SOL     OW27790   5.546   3.904   3.390
 8964SOL    HW127791   5.573   4.000   3.380
 8964SOL    HW227792   5.601   3.860   3.461
 8965SOL     OW27793   2.107   4.495   0.426
 8965SOL    HW127794   2.183   4.499   0.490
 8965SOL    HW227795   2.026   4.539   0.466
 8966SOL     OW27796   1.466   4.191   5.044
 8966SOL    HW127797   1.515   4.168   4.959
 8966SOL    HW227798   1.388   4.130   5.055
 8967SOL     OW27799   3.611   6.274   2.132
 8967SOL    HW127800   3.666   6.344   2.177
 8967SOL    HW227801   3.558   6.315   2.058
 8968SOL     OW27802   5.171   4.832   2.339
 8968SOL    HW127803   5.156   4.891   2.260
 8968SOL    HW227804   5.115   4.864   2.416
 8969SOL     OW27805   6.555   0.119   4.054
 8969SOL    HW127806   6.469   0.094   4.100
 8969SOL    HW227807   6.597   0.037   4.017
 8970SOL     OW27808   2.931   2.746   0.407
 8970SOL    HW127809   2.985   2.691   0.344
 8970SOL    HW227810   2.956   2.724   0.501
 8971SOL     OW27811   4.558   5.287   2.131
 8971SOL    HW127812   4.628   5.305   2.201
 8971SOL    HW227813   4.516   5.374   2.104
 8972SOL     OW27814   4.786   5.252   6.183
 8972SOL    HW127815   4.749   5.336   6.142
 8972SOL    HW227816   4.835   5.275   6.267
 8973SOL     OW27817   0.851   3.176   1.999
 8973SOL    HW127818   0.832   3.141   2.090
 8973SOL    HW227819   0.894   3.104   1.944
 8974SOL     OW27820   1.566   4.520   5.849
 8974SOL    HW127821   1.583   4.542   5.753
 8974SOL    HW227822   1.566   4.421   5.861
 8975SOL     OW27823   2.104   6.889   6.356
 8975SOL    HW127824   2.141   6.800   6.380
 8975SOL    HW227825   2.120   6.953   6.432
 8976SOL     OW27826   0.416   4.982   5.289
 8976SOL    HW127827   0.457   5.067   5.255
 8976SOL    HW227828   0.382   4.928   5.212
 8977SOL     OW27829   5.685   1.306   6.849
 8977SOL    HW127830   5.770   1.317   6.900
 8977SOL    HW227831   5.617   1.261   6.907
 8978SOL     OW27832   5.590   6.990   6.528
 8978SOL    HW127833   5.503   6.984   6.577
 8978SOL    HW227834   5.654   6.922   6.563
 8979SOL     OW27835   1.217   3.178   4.422
 8979SOL    HW127836   1.143   3.152   4.484
 8979SOL    HW227837   1.298   3.122   4.441
 8980SOL     OW27838   2.349   3.066   5.360
 8980SOL    HW127839   2.256   3.080   5.327
 8980SOL    HW227840   2.400   3.013   5.292
 8981SOL     OW27841   3.661   1.411   4.909
 8981SOL    HW127842   3.589   1.346   4.934
 8981SOL    HW227843   3.705   1.381   4.824
 8982SOL     OW27844   1.885   2.216   0.476
 8982SOL    HW127845   1.955   2.286   0.461
 8982SOL    HW227846   1.927   2.136   0.519
 8983SOL     OW27847   2.304   6.318   6.374
 8983SOL    HW127848   2.396   6.284   6.391
 8983SOL    HW227849   2.242   6.282   6.443
 8984SOL     OW27850   0.713   7.013   4.229
 8984SOL    HW127851   0.756   0.079   4.233
 8984SOL    HW227852   0.656   7.008   4.147
 8985SOL     OW27853   3.293   3.125   0.491
 8985SOL    HW127854   3.291   3.116   0.392
 8985SOL    HW227855   3.329   3.215   0.516
 8986SOL     OW27856   4.285   5.254   2.788
 8986SOL    HW127857   4.285   5.307   2.873
 8986SOL    HW227858   4.194   5.215   2.773
 8987SOL     OW27859   4.378   6.904   1.772
 8987SOL    HW127860   4.393   6.978   1.706
 8987SOL    HW227861   4.451   6.837   1.764
 8988SOL     OW27862   1.661   4.583   4.678
 8988SOL    HW127863   1.754   4.602   4.709
 8988SOL    HW227864   1.661   4.500   4.622
 8989SOL     OW27865   5.106   3.506   0.149
 8989SOL    HW127866   5.187   3.557   0.119
 8989SOL    HW227867   5.024   3.556   0.122
 8990SOL     OW27868   1.818   5.749   4.527
 8990SOL    HW127869   1.781   5.786   4.442
 8990SOL    HW227870   1.790   5.807   4.603
 8991SOL     OW27871   1.354   2.393   4.733
 8991SOL    HW127872   1.412   2.386   4.814
 8991SOL    HW227873   1.292   2.315   4.730
 8992SOL     OW27874   4.519   1.280   0.587
 8992SOL    HW127875   4.482   1.372   0.574
 8992SOL    HW227876   4.478   1.219   0.519
 8993SOL     OW27877   4.831   2.460   1.495
 8993SOL    HW127878   4.773   2.426   1.421
 8993SOL    HW227879   4.894   2.529   1.459
 8994SOL     OW27880   1.206   3.687   5.053
 8994SOL    HW127881   1.250   3.692   4.963
 8994SOL    HW227882   1.122   3.741   5.052
 8995SOL     OW27883   1.266   2.763   6.812
 8995SOL    HW127884   1.344   2.769   6.874
 8995SOL    HW227885   1.261   2.846   6.756
 8996SOL     OW27886   5.226   4.274   6.808
 8996SOL    HW127887   5.286   4.334   6.756
 8996SOL    HW227888   5.279   4.198   6.846
 8997SOL     OW27889   5.250   1.841   6.342
 8997SOL    HW127890   5.339   1.811   6.308
 8997SOL    HW227891   5.177   1.795   6.291
 8998SOL     OW27892   6.410   3.793   3.960
 8998SOL    HW127893   6.319   3.832   3.944
 8998SOL    HW227894   6.401   3.704   4.004
 8999SOL     OW27895   5.101   6.701   6.508
 8999SOL    HW127896   5.019   6.742   6.548
 8999SOL    HW227897   5.107   6.605   6.535
 9000SOL     OW27898   1.551   3.228   1.425
 9000SOL    HW127899   1.571   3.143   1.377
 9000SOL    HW227900   1.458   3.225   1.461
 9001SOL     OW27901   0.889   4.776   2.257
 9001SOL    HW127902   0.838   4.855   2.223
 9001SOL    HW227903   0.979   4.773   2.214
 9002SOL     OW27904   1.342   5.254   5.117
 9002SOL    HW127905   1.339   5.154   5.117
 9002SOL    HW227906   1.420   5.285   5.172
 9003SOL     OW27907   5.728   3.816   1.767
 9003SOL    HW127908   5.650   3.821   1.704
 9003SOL    HW227909   5.753   3.909   1.796
 9004SOL     OW27910   4.406   5.966   0.789
 9004SOL    HW127911   4.427   5.971   0.887
 9004SOL    HW227912   4.434   6.051   0.745
 9005SOL     OW27913   6.323   2.645   4.736
 9005SOL    HW127914   6.281   2.603   4.816
 9005SOL    HW227915   6.423   2.647   4.747
 9006SOL     OW27916   2.418   5.481   1.053
 9006SOL    HW127917   2.421   5.383   1.072
 9006SOL    HW227918   2.495   5.526   1.098
 9007SOL     OW27919   3.331   0.849   3.645
 9007SOL    HW127920   3.234   0.840   3.665
 9007SOL    HW227921   3.383   0.786   3.702
 9008SOL     OW27922   1.081   5.319   3.329
 9008SOL    HW127923   1.115   5.281   3.415
 9008SOL    HW227924   1.157   5.358   3.278
 9009SOL     OW27925   2.669   5.816   0.533
 9009SOL    HW127926   2.729   5.823   0.453
 9009SOL    HW227927   2.710   5.755   0.600
 9010SOL     OW27928   0.875   6.408   4.234
 9010SOL    HW127929   0.944   6.378   4.300
 9010SOL    HW227930   0.874   6.343   4.157
 9011SOL     OW27931   4.755   1.556   1.452
 9011SOL    HW127932   4.750   1.586   1.547
 9011SOL    HW227933   4.834   1.494   1.441
 9012SOL     OW27934   1.872   4.685   0.192
 9012SOL    HW127935   1.904   4.613   0.131
 9012SOL    HW227936   1.815   4.645   0.263
 9013SOL     OW27937   0.213   6.763   6.450
 9013SOL    HW127938   0.216   6.751   6.351
 9013SOL    HW227939   0.165   6.848   6.471
 9014SOL     OW27940   0.084   2.261   1.084
 9014SOL    HW127941   0.145   2.323   1.035
 9014SOL    HW227942   0.107   2.260   1.181
 9015SOL     OW27943   4.530   2.030   2.055
 9015SOL    HW127944   4.435   2.037   2.024
 9015SOL    HW227945   4.574   2.119   2.049
 9016SOL     OW27946   6.795   6.342   6.407
 9016SOL    HW127947   6.849   6.423   6.383
 9016SOL    HW227948   6.853   6.261   6.402
 9017SOL     OW27949   4.671   1.404   3.858
 9017SOL    HW127950   4.722   1.388   3.943
 9017SOL    HW227951   4.728   1.377   3.780
 9018SOL     OW27952   2.966   2.964   6.673
 9018SOL    HW127953   2.880   3.012   6.693
 9018SOL    HW227954   2.948   2.890   6.608
 9019SOL     OW27955   1.495   4.981   2.317
 9019SOL    HW127956   1.462   5.074   2.334
 9019SOL    HW227957   1.423   4.916   2.338
 9020SOL     OW27958   0.012   3.913   0.730
 9020SOL    HW127959   0.108   3.901   0.754
 9020SOL    HW227960   6.999   3.990   0.782
 9021SOL     OW27961   6.992   0.681   3.986
 9021SOL    HW127962   0.005   0.759   4.036
 9021SOL    HW227963   7.010   0.597   4.037
 9022SOL     OW27964   2.982   0.935   0.026
 9022SOL    HW127965   2.911   1.000   7.023
 9022SOL    HW227966   3.037   0.910   6.970
 9023SOL     OW27967   3.609   2.831   2.227
 9023SOL    HW127968   3.536   2.793   2.284
 9023SOL    HW227969   3.592   2.928   2.210
 9024SOL     OW27970   1.211   4.058   5.067
 9024SOL    HW127971   1.183   4.132   5.128
 9024SOL    HW227972   1.143   4.048   4.994
 9025SOL     OW27973   0.934   5.283   0.813
 9025SOL    HW127974   0.912   5.299   0.909
 9025SOL    HW227975   1.005   5.346   0.783
 9026SOL     OW27976   3.537   3.207   1.059
 9026SOL    HW127977   3.473   3.257   1.118
 9026SOL    HW227978   3.561   3.120   1.102
 9027SOL     OW27979   1.424   2.793   2.964
 9027SOL    HW127980   1.357   2.751   3.025
 9027SOL    HW227981   1.385   2.875   2.922
 9028SOL     OW27982   3.051   2.954   5.269
 9028SOL    HW127983   3.100   2.945   5.182
 9028SOL    HW227984   3.113   2.991   5.338
 9029SOL     OW27985   3.809   6.675   4.499
 9029SOL    HW127986   3.721   6.710   4.529
 9029SOL    HW227987   3.883   6.732   4.535
 9030SOL     OW27988   2.613   1.872   3.405
 9030SOL    HW127989   2.610   1.964   3.445
 9030SOL    HW227990   2.706   1.851   3.377
 9031SOL     OW27991   3.721   5.967   4.439
 9031SOL    HW127992   3.736   5.903   4.516
 9031SOL    HW227993   3.708   6.059   4.475
 9032SOL     OW27994   4.235   3.922   0.642
 9032SOL    HW127995   4.171   3.998   0.627
 9032SOL    HW227996   4.265   3.923   0.738
 9033SOL     OW27997   6.966   4.328   2.713
 9033SOL    HW127998   6.966   4.427   2.704
 9033SOL    HW227999   7.000   4.287   2.628
 9034SOL     OW28000   3.136   6.387   4.552
 9034SOL    HW128001   3.039   6.410   4.549
 9034SOL    HW228002   3.148   6.296   4.592
 9035SOL     OW28003   2.565   4.259   0.155
 9035SOL    HW128004   2.565   4.295   0.062
 9035SOL    HW228005   2.488   4.298   0.206
 9036SOL     OW28006   1.891   3.038   5.378
 9036SOL    HW128007   1.797   3.007   5.366
 9036SOL    HW228008   1.935   2.985   5.451
 9037SOL     OW28009   1.428   3.985   4.496
 9037SOL    HW128010   1.448   3.891   4.524
 9037SOL    HW228011   1.376   4.031   4.569
 9038SOL     OW28012   4.600   0.992   6.409
 9038SOL    HW128013   4.522   1.026   6.356
 9038SOL    HW228014   4.660   0.939   6.349
 9039SOL     OW28015   2.558   5.092   5.724
 9039SOL    HW128016   2.575   4.995   5.740
 9039SOL    HW228017   2.645   5.142   5.728
 9040SOL     OW28018   2.835   2.323   2.716
 9040SOL    HW128019   2.794   2.406   2.754
 9040SOL    HW228020   2.828   2.326   2.616
 9041SOL     OW28021   1.290   1.817   1.671
 9041SOL    HW128022   1.331   1.757   1.604
 9041SOL    HW228023   1.190   1.813   1.663
 9042SOL     OW28024   4.117   6.546   4.674
 9042SOL    HW128025   4.071   6.586   4.753
 9042SOL    HW228026   4.213   6.576   4.673
 9043SOL     OW28027   1.662   0.848   6.419
 9043SOL    HW128028   1.628   0.898   6.339
 9043SOL    HW228029   1.603   0.769   6.436
 9044SOL     OW28030   6.794   0.124   1.132
 9044SOL    HW128031   6.863   0.187   1.097
 9044SOL    HW228032   6.796   0.039   1.079
 9045SOL     OW28033   3.070   1.471   2.514
 9045SOL    HW128034   3.079   1.401   2.444
 9045SOL    HW228035   3.088   1.431   2.604
 9046SOL     OW28036   3.523   4.081   2.936
 9046SOL    HW128037   3.529   3.981   2.939
 9046SOL    HW228038   3.446   4.111   2.992
 9047SOL     OW28039   2.027   3.771   5.126
 9047SOL    HW128040   1.944   3.724   5.154
 9047SOL    HW228041   2.020   3.868   5.150
 9048SOL     OW28042   5.992   3.044   6.197
 9048SOL    HW128043   5.987   2.945   6.202
 9048SOL    HW228044   5.901   3.083   6.211
 9049SOL     OW28045   3.877   6.414   5.854
 9049SOL    HW128046   3.965   6.429   5.900
 9049SOL    HW228047   3.839   6.503   5.827
 9050SOL     OW28048   0.751   3.277   0.952
 9050SOL    HW128049   0.681   3.227   0.900
 9050SOL    HW228050   0.736   3.263   1.050
 9051SOL     OW28051   3.323   6.922   1.466
 9051SOL    HW128052   3.337   6.997   1.530
 9051SOL    HW228053   3.412   6.887   1.437
 9052SOL     OW28054   2.294   2.103   3.639
 9052SOL    HW128055   2.312   2.123   3.735
 9052SOL    HW228056   2.213   2.153   3.610
 9053SOL     OW28057   1.627   1.312   2.509
 9053SOL    HW128058   1.661   1.404   2.527
 9053SOL    HW228059   1.626   1.295   2.410
 9054SOL     OW28060   3.188   5.948   3.638
 9054SOL    HW128061   3.275   5.946   3.686
 9054SOL    HW228062   3.114   5.932   3.703
 9055SOL     OW28063   5.783   2.626   4.579
 9055SOL    HW128064   5.865   2.660   4.624
 9055SOL    HW228065   5.715   2.699   4.574
 9056SOL     OW28066   1.247   2.565   1.608
 9056SOL    HW128067   1.252   2.576   1.509
 9056SOL    HW228068   1.323   2.614   1.651
 9057SOL     OW28069   4.836   2.936   5.681
 9057SOL    HW128070   4.818   2.875   5.603
 9057SOL    HW228071   4.768   3.010   5.682
 9058SOL     OW28072   2.029   0.706   1.727
 9058SOL    HW128073   2.034   0.769   1.804
 9058SOL    HW228074   1.976   0.626   1.752
 9059SOL     OW28075   1.300   1.978   2.891
 9059SOL    HW128076   1.371   1.965   2.961
 9059SOL    HW228077   1.290   2.075   2.872
 9060SOL     OW28078   6.581   3.197   4.179
 9060SOL    HW128079   6.625   3.267   4.124
 9060SOL    HW228080   6.528   3.241   4.252
 9061SOL     OW28081   2.368   5.514   2.002
 9061SOL    HW128082   2.380   5.452   2.079
 9061SOL    HW228083   2.291   5.576   2.021
 9062SOL     OW28084   1.234   6.596   2.696
 9062SOL    HW128085   1.151   6.626   2.743
 9062SOL    HW228086   1.257   6.503   2.722
 9063SOL     OW28087   3.237   0.351   4.152
 9063SOL    HW128088   3.284   0.436   4.128
 9063SOL    HW228089   3.171   0.369   4.225
 9064SOL     OW28090   6.049   2.373   5.930
 9064SOL    HW128091   6.081   2.290   5.976
 9064SOL    HW228092   5.954   2.359   5.901
 9065SOL     OW28093   4.020   0.757   0.016
 9065SOL    HW128094   4.117   0.766   7.019
 9065SOL    HW228095   4.010   0.708   0.103
 9066SOL     OW28096   5.372   6.327   0.721
 9066SOL    HW128097   5.425   6.318   0.805
 9066SOL    HW228098   5.422   6.385   0.656
 9067SOL     OW28099   1.042   0.625   4.097
 9067SOL    HW128100   1.128   0.622   4.047
 9067SOL    HW228101   1.043   0.702   4.161
 9068SOL     OW28102   1.692   6.544   4.498
 9068SOL    HW128103   1.631   6.464   4.497
 9068SOL    HW228104   1.637   6.628   4.497
 9069SOL     OW28105   1.543   2.851   1.362
 9069SOL    HW128106   1.592   2.764   1.373
 9069SOL    HW228107   1.593   2.910   1.298
 9070SOL     OW28108   1.624   3.487   5.200
 9070SOL    HW128109   1.613   3.453   5.293
 9070SOL    HW228110   1.692   3.560   5.198
 9071SOL     OW28111   6.720   6.506   1.671
 9071SOL    HW128112   6.641   6.505   1.609
 9071SOL    HW228113   6.717   6.425   1.729
 9072SOL     OW28114   0.611   1.928   0.690
 9072SOL    HW128115   0.572   1.868   0.760
 9072SOL    HW228116   0.705   1.951   0.715
 9073SOL     OW28117   2.475   6.932   2.476
 9073SOL    HW128118   2.455   6.866   2.404
 9073SOL    HW228119   2.403   7.001   2.479
 9074SOL     OW28120   1.324   0.409   2.532
 9074SOL    HW128121   1.253   0.466   2.573
 9074SOL    HW228122   1.284   0.323   2.501
 9075SOL     OW28123   0.106   1.490   2.435
 9075SOL    HW128124   0.156   1.543   2.504
 9075SOL    HW228125   0.018   1.462   2.473
 9076SOL     OW28126   6.830   1.265   6.477
 9076SOL    HW128127   6.745   1.267   6.529
 9076SOL    HW228128   6.831   1.185   6.417
 9077SOL     OW28129   4.573   0.500   1.374
 9077SOL    HW128130   4.604   0.585   1.331
 9077SOL    HW228131   4.651   0.440   1.391
 9078SOL     OW28132   3.589   3.668   4.967
 9078SOL    HW128133   3.528   3.690   4.891
 9078SOL    HW228134   3.565   3.724   5.046
 9079SOL     OW28135   2.731   0.807   4.649
 9079SOL    HW128136   2.646   0.758   4.669
 9079SOL    HW228137   2.792   0.748   4.595
 9080SOL     OW28138   4.841   2.588   6.835
 9080SOL    HW128139   4.796   2.606   6.747
 9080SOL    HW228140   4.863   2.490   6.841
 9081SOL     OW28141   4.733   6.704   2.338
 9081SOL    HW128142   4.767   6.796   2.317
 9081SOL    HW228143   4.635   6.708   2.354
 9082SOL     OW28144   2.210   0.389   5.041
 9082SOL    HW128145   2.217   0.326   5.119
 9082SOL    HW228146   2.279   0.461   5.050
 9083SOL     OW28147   3.858   5.073   5.958
 9083SOL    HW128148   3.946   5.061   5.911
 9083SOL    HW228149   3.808   4.987   5.957
 9084SOL     OW28150   3.101   4.020   3.403
 9084SOL    HW128151   3.056   4.100   3.441
 9084SOL    HW228152   3.196   4.041   3.383
 9085SOL     OW28153   2.233   0.288   0.687
 9085SOL    HW128154   2.306   0.286   0.756
 9085SOL    HW228155   2.146   0.311   0.730
 9086SOL     OW28156   0.834   4.177   0.291
 9086SOL    HW128157   0.853   4.237   0.214
 9086SOL    HW228158   0.831   4.082   0.259
 9087SOL     OW28159   4.600   2.917   1.526
 9087SOL    HW128160   4.560   2.908   1.435
 9087SOL    HW228161   4.537   2.967   1.586
 9088SOL     OW28162   6.744   6.808   1.106
 9088SOL    HW128163   6.716   6.792   1.012
 9088SOL    HW228164   6.735   6.724   1.159
 9089SOL     OW28165   5.219   6.756   5.400
 9089SOL    HW128166   5.259   6.800   5.320
 9089SOL    HW228167   5.159   6.820   5.447
 9090SOL     OW28168   5.812   1.218   5.641
 9090SOL    HW128169   5.752   1.173   5.707
 9090SOL    HW228170   5.837   1.309   5.674
 9091SOL     OW28171   3.170   3.541   6.850
 9091SOL    HW128172   3.083   3.554   6.898
 9091SOL    HW228173   3.158   3.563   6.754
 9092SOL     OW28174   6.799   0.855   0.485
 9092SOL    HW128175   6.743   0.806   0.552
 9092SOL    HW228176   6.831   0.941   0.524
 9093SOL     OW28177   1.867   6.179   5.321
 9093SOL    HW128178   1.904   6.103   5.375
 9093SOL    HW228179   1.942   6.237   5.290
 9094SOL     OW28180   6.460   4.377   2.595
 9094SOL    HW128181   6.380   4.436   2.586
 9094SOL    HW228182   6.432   4.281   2.588
 9095SOL     OW28183   4.537   4.469   6.204
 9095SOL    HW128184   4.498   4.536   6.266
 9095SOL    HW228185   4.470   4.445   6.133
 9096SOL     OW28186   6.018   5.321   3.154
 9096SOL    HW128187   6.014   5.225   3.181
 9096SOL    HW228188   5.933   5.366   3.180
 9097SOL     OW28189   2.439   1.868   0.175
 9097SOL    HW128190   2.504   1.818   0.233
 9097SOL    HW228191   2.350   1.822   0.178
 9098SOL     OW28192   2.800   1.910   5.206
 9098SOL    HW128193   2.759   1.995   5.172
 9098SOL    HW228194   2.897   1.925   5.223
 9099SOL     OW28195   2.665   2.992   6.822
 9099SOL    HW128196   2.657   2.988   6.922
 9099SOL    HW228197   2.679   2.900   6.786
 9100SOL     OW28198   0.862   3.460   2.532
 9100SOL    HW128199   0.797   3.412   2.591
 9100SOL    HW228200   0.954   3.428   2.550
 9101SOL     OW28201   2.597   1.113   2.478
 9101SOL    HW128202   2.571   1.200   2.436
 9101SOL    HW228203   2.598   1.123   2.578
 9102SOL     OW28204   3.745   6.584   2.060
 9102SOL    HW128205   3.720   6.680   2.052
 9102SOL    HW228206   3.687   6.529   2.000
 9103SOL     OW28207   5.357   1.489   6.970
 9103SOL    HW128208   5.293   1.472   0.020
 9103SOL    HW228209   5.451   1.479   7.005
 9104SOL     OW28210   6.990   6.596   1.777
 9104SOL    HW128211   6.964   6.592   1.873
 9104SOL    HW228212   6.977   6.506   1.736
 9105SOL     OW28213   1.399   0.322   5.081
 9105SOL    HW128214   1.300   0.323   5.094
 9105SOL    HW228215   1.428   0.409   5.040
 9106SOL     OW28216   0.321   3.310   0.229
 9106SOL    HW128217   0.399   3.352   0.182
 9106SOL    HW228218   0.347   3.287   0.323
 9107SOL     OW28219   1.651   1.065   6.761
 9107SOL    HW128220   1.738   1.038   6.718
 9107SOL    HW228221   1.575   1.027   6.708
 9108SOL     OW28222   4.422   4.048   5.654
 9108SOL    HW128223   4.360   3.977   5.687
 9108SOL    HW228224   4.466   4.094   5.731
 9109SOL     OW28225   4.810   2.898   3.225
 9109SOL    HW128226   4.783   2.853   3.141
 9109SOL    HW228227   4.842   2.991   3.205
 9110SOL     OW28228   1.205   5.587   4.417
 9110SOL    HW128229   1.237   5.677   4.444
 9110SOL    HW228230   1.203   5.526   4.496
 9111SOL     OW28231   4.514   2.941   6.981
 9111SOL    HW128232   4.424   2.981   6.966
 9111SOL    HW228233   4.583   3.013   6.983
 9112SOL     OW28234   1.252   5.091   2.729
 9112SOL    HW128235   1.349   5.115   2.720
 9112SOL    HW228236   1.196   5.168   2.698
 9113SOL     OW28237   5.444   2.432   3.743
 9113SOL    HW128238   5.539   2.410   3.719
 9113SOL    HW228239   5.422   2.525   3.714
 9114SOL     OW28240   0.976   6.213   3.960
 9114SOL    HW128241   0.897   6.157   3.984
 9114SOL    HW228242   0.946   6.292   3.908
 9115SOL     OW28243   6.122   5.409   4.267
 9115SOL    HW128244   6.026   5.435   4.280
 9115SOL    HW228245   6.131   5.356   4.183
 9116SOL     OW28246   6.948   0.218   3.107
 9116SOL    HW128247   7.013   0.141   3.100
 9116SOL    HW228248   6.901   0.229   3.019
 9117SOL     OW28249   4.095   1.844   6.415
 9117SOL    HW128250   4.047   1.877   6.496
 9117SOL    HW228251   4.085   1.911   6.342
 9118SOL     OW28252   6.445   3.794   0.265
 9118SOL    HW128253   6.491   3.829   0.346
 9118SOL    HW228254   6.482   3.840   0.184
 9119SOL     OW28255   4.101   6.878   1.481
 9119SOL    HW128256   4.186   6.839   1.447
 9119SOL    HW228257   4.048   6.914   1.404
 9120SOL     OW28258   6.357   3.086   6.080
 9120SOL    HW128259   6.298   3.007   6.063
 9120SOL    HW228260   6.414   3.103   6.000
 9121SOL     OW28261   4.039   6.884   5.853
 9121SOL    HW128262   4.137   6.902   5.856
 9121SOL    HW228263   3.993   6.930   5.929
 9122SOL     OW28264   2.184   3.918   1.959
 9122SOL    HW128265   2.256   3.980   1.926
 9122SOL    HW228266   2.180   3.838   1.899
 9123SOL     OW28267   1.283   0.658   3.720
 9123SOL    HW128268   1.363   0.702   3.679
 9123SOL    HW228269   1.287   0.559   3.704
 9124SOL     OW28270   3.786   5.408   2.108
 9124SOL    HW128271   3.739   5.330   2.149
 9124SOL    HW228272   3.757   5.417   2.012
 9125SOL     OW28273   3.772   4.840   0.931
 9125SOL    HW128274   3.731   4.815   0.843
 9125SOL    HW228275   3.748   4.772   0.999
 9126SOL     OW28276   4.875   4.185   0.603
 9126SOL    HW128277   4.968   4.170   0.569
 9126SOL    HW228278   4.877   4.191   0.702
 9127SOL     OW28279   6.586   2.786   4.837
 9127SOL    HW128280   6.551   2.856   4.900
 9127SOL    HW228281   6.670   2.748   4.874
 9128SOL     OW28282   6.287   2.925   4.648
 9128SOL    HW128283   6.251   2.921   4.555
 9128SOL    HW228284   6.299   2.832   4.683
 9129SOL     OW28285   1.695   2.604   0.728
 9129SOL    HW128286   1.777   2.600   0.786
 9129SOL    HW228287   1.677   2.514   0.689
 9130SOL     OW28288   1.078   4.029   5.733
 9130SOL    HW128289   1.099   4.020   5.636
 9130SOL    HW228290   0.984   3.999   5.749
 9131SOL     OW28291   5.373   2.865   0.051
 9131SOL    HW128292   5.385   2.815   6.991
 9131SOL    HW228293   5.422   2.818   0.125
 9132SOL     OW28294   1.038   4.508   4.278
 9132SOL    HW128295   1.016   4.561   4.359
 9132SOL    HW228296   1.060   4.414   4.304
 9133SOL     OW28297   2.789   0.373   1.028
 9133SOL    HW128298   2.786   0.392   0.930
 9133SOL    HW228299   2.844   0.291   1.045
 9134SOL     OW28300   4.180   5.495   0.641
 9134SOL    HW128301   4.209   5.468   0.549
 9134SOL    HW228302   4.186   5.594   0.650
 9135SOL     OW28303   1.190   6.038   1.688
 9135SOL    HW128304   1.102   6.000   1.660
 9135SOL    HW228305   1.250   5.964   1.719
 9136SOL     OW28306   4.701   4.908   5.878
 9136SOL    HW128307   4.653   4.910   5.790
 9136SOL    HW228308   4.800   4.915   5.863
 9137SOL     OW28309   4.669   6.562   5.845
 9137SOL    HW128310   4.750   6.566   5.903
 9137SOL    HW228311   4.610   6.487   5.875
 9138SOL     OW28312   2.297   2.973   0.631
 9138SOL    HW128313   2.296   3.071   0.608
 9138SOL    HW228314   2.203   2.938   0.629
 9139SOL     OW28315   0.686   0.976   1.392
 9139SOL    HW128316   0.653   1.067   1.367
 9139SOL    HW228317   0.786   0.975   1.391
 9140SOL     OW28318   0.182   4.372   1.561
 9140SOL    HW128319   0.174   4.444   1.631
 9140SOL    HW228320   0.230   4.294   1.600
 9141SOL     OW28321   0.252   5.726   6.137
 9141SOL    HW128322   0.280   5.661   6.067
 9141SOL    HW228323   0.158   5.707   6.165
 9142SOL     OW28324   0.507   3.056   2.786
 9142SOL    HW128325   0.565   3.082   2.863
 9142SOL    HW228326   0.443   2.984   2.815
 9143SOL     OW28327   0.205   3.488   1.310
 9143SOL    HW128328   0.145   3.490   1.230
 9143SOL    HW228329   0.267   3.567   1.308
 9144SOL     OW28330   2.998   5.044   4.796
 9144SOL    HW128331   2.905   5.029   4.762
 9144SOL    HW228332   3.016   4.981   4.872
 9145SOL     OW28333   1.457   6.994   6.430
 9145SOL    HW128334   1.515   0.031   6.378
 9145SOL    HW228335   1.374   0.018   6.459
 9146SOL     OW28336   6.259   2.995   3.619
 9146SOL    HW128337   6.190   2.937   3.660
 9146SOL    HW228338   6.221   3.042   3.539
 9147SOL     OW28339   5.863   0.154   4.611
 9147SOL    HW128340   5.897   0.202   4.692
 9147SOL    HW228341   5.791   0.090   4.638
 9148SOL     OW28342   6.249   0.513   1.772
 9148SOL    HW128343   6.190   0.498   1.852
 9148SOL    HW228344   6.240   0.435   1.710
 9149SOL     OW28345   5.685   2.775   1.553
 9149SOL    HW128346   5.666   2.867   1.519
 9149SOL    HW228347   5.726   2.781   1.644
 9150SOL     OW28348   2.780   4.486   0.234
 9150SOL    HW128349   2.785   4.516   0.139
 9150SOL    HW228350   2.755   4.389   0.237
 9151SOL     OW28351   2.094   3.786   3.716
 9151SOL    HW128352   2.120   3.766   3.622
 9151SOL    HW228353   2.014   3.845   3.717
 9152SOL     OW28354   1.899   3.860   4.068
 9152SOL    HW128355   1.976   3.797   4.055
 9152SOL    HW228356   1.815   3.816   4.036
 9153SOL     OW28357   0.353   2.623   6.254
 9153SOL    HW128358   0.396   2.573   6.329
 9153SOL    HW228359   0.422   2.644   6.184
 9154SOL     OW28360   5.670   5.374   3.253
 9154SOL    HW128361   5.664   5.394   3.155
 9154SOL    HW228362   5.626   5.448   3.304
 9155SOL     OW28363   1.789   5.216   2.107
 9155SOL    HW128364   1.792   5.316   2.113
 9155SOL    HW228365   1.794   5.188   2.011
 9156SOL     OW28366   6.644   2.991   1.040
 9156SOL    HW128367   6.637   3.004   0.941
 9156SOL    HW228368   6.553   2.974   1.078
 9157SOL     OW28369   3.568   4.318   6.615
 9157SOL    HW128370   3.527   4.275   6.696
 9157SOL    HW228371   3.557   4.417   6.622
 9158SOL     OW28372   6.498   4.169   3.906
 9158SOL    HW128373   6.565   4.100   3.934
 9158SOL    HW228374   6.501   4.180   3.807
 9159SOL     OW28375   2.543   0.407   2.984
 9159SOL    HW128376   2.497   0.325   3.016
 9159SOL    HW228377   2.609   0.382   2.912
 9160SOL     OW28378   0.305   4.855   6.755
 9160SOL    HW128379   0.308   4.774   6.813
 9160SOL    HW228380   0.299   4.937   6.813
 9161SOL     OW28381   5.924   4.213   2.005
 9161SOL    HW128382   5.934   4.135   2.067
 9161SOL    HW228383   5.944   4.297   2.055
 9162SOL     OW28384   4.116   1.642   2.380
 9162SOL    HW128385   4.136   1.583   2.459
 9162SOL    HW228386   4.184   1.627   2.309
 9163SOL     OW28387   0.198   2.004   1.886
 9163SOL    HW128388   0.241   2.092   1.867
 9163SOL    HW228389   0.101   2.008   1.861
 9164SOL     OW28390   2.483   0.307   6.800
 9164SOL    HW128391   2.534   0.234   6.755
 9164SOL    HW228392   2.420   0.349   6.735
 9165SOL     OW28393   4.630   2.486   5.716
 9165SOL    HW128394   4.711   2.534   5.683
 9165SOL    HW228395   4.623   2.397   5.671
 9166SOL     OW28396   4.414   5.690   1.311
 9166SOL    HW128397   4.475   5.685   1.390
 9166SOL    HW228398   4.404   5.785   1.282
 9167SOL     OW28399   0.653   2.088   6.330
 9167SOL    HW128400   0.718   2.062   6.402
 9167SOL    HW228401   0.651   2.017   6.260
 9168SOL     OW28402   6.352   5.169   5.329
 9168SOL    HW128403   6.352   5.079   5.373
 9168SOL    HW228404   6.417   5.229   5.374
 9169SOL     OW28405   6.258   6.300   6.656
 9169SOL    HW128406   6.230   6.383   6.704
 9169SOL    HW228407   6.323   6.323   6.584
 9170SOL     OW28408   1.279   1.959   5.790
 9170SOL    HW128409   1.329   1.908   5.861
 9170SOL    HW228410   1.252   1.896   5.717
 9171SOL     OW28411   2.830   4.628   0.962
 9171SOL    HW128412   2.874   4.599   1.047
 9171SOL    HW228413   2.821   4.549   0.901
 9172SOL     OW28414   4.657   1.353   4.827
 9172SOL    HW128415   4.663   1.419   4.903
 9172SOL    HW228416   4.701   1.391   4.746
 9173SOL     OW28417   6.664   2.589   3.692
 9173SOL    HW128418   6.672   2.680   3.651
 9173SOL    HW228419   6.578   2.583   3.743
 9174SOL     OW28420   1.008   6.018   0.285
 9174SOL    HW128421   1.009   6.112   0.317
 9174SOL    HW228422   1.025   6.015   0.187
 9175SOL     OW28423   1.448   6.994   0.135
 9175SOL    HW128424   1.462   7.007   0.037
 9175SOL    HW228425   1.429   0.058   0.177
 9176SOL     OW28426   1.852   1.115   2.995
 9176SOL    HW128427   1.863   1.018   3.016
 9176SOL    HW228428   1.868   1.130   2.898
 9177SOL     OW28429   0.853   3.717   3.698
 9177SOL    HW128430   0.837   3.652   3.624
 9177SOL    HW228431   0.900   3.798   3.662
 9178SOL     OW28432   2.426   6.514   6.814
 9178SOL    HW128433   2.338   6.525   6.769
 9178SOL    HW228434   2.419   6.442   6.883
 9179SOL     OW28435   3.498   6.131   5.537
 9179SOL    HW128436   3.531   6.168   5.450
 9179SOL    HW228437   3.399   6.143   5.544
 9180SOL     OW28438   6.805   1.972   4.386
 9180SOL    HW128439   6.757   1.952   4.301
 9180SOL    HW228440   6.742   2.016   4.450
 9181SOL     OW28441   4.399   1.960   3.593
 9181SOL    HW128442   4.397   1.884   3.528
 9181SOL    HW228443   4.311   1.966   3.640
 9182SOL     OW28444   1.444   0.923   2.961
 9182SOL    HW128445   1.466   0.947   3.056
 9182SOL    HW228446   1.361   0.866   2.960
 9183SOL     OW28447   5.143   2.681   6.912
 9183SOL    HW128448   5.054   2.662   6.871
 9183SOL    HW228449   5.142   2.656   7.009
 9184SOL     OW28450   3.592   2.974   0.775
 9184SOL    HW128451   3.653   2.950   0.850
 9184SOL    HW228452   3.586   3.074   0.767
 9185SOL     OW28453   0.380   0.449   6.577
 9185SOL    HW128454   0.398   0.386   6.653
 9185SOL    HW228455   0.466   0.488   6.545
 9186SOL     OW28456   5.001   0.327   6.214
 9186SOL    HW128457   5.084   0.299   6.166
 9186SOL    HW228458   5.007   0.424   6.237
 9187SOL     OW28459   4.842   1.930   6.797
 9187SOL    HW128460   4.791   2.001   6.846
 9187SOL    HW228461   4.876   1.966   6.711
 9188SOL     OW28462   1.373   0.304   0.908
 9188SOL    HW128463   1.353   0.353   0.823
 9188SOL    HW228464   1.447   0.238   0.891
 9189SOL     OW28465   2.692   1.523   3.065
 9189SOL    HW128466   2.627   1.577   3.011
 9189SOL    HW228467   2.776   1.575   3.079
 9190SOL     OW28468   5.937   3.522   5.381
 9190SOL    HW128469   5.869   3.448   5.387
 9190SOL    HW228470   5.902   3.603   5.428
 9191SOL     OW28471   5.481   6.445   6.936
 9191SOL    HW128472   5.418   6.375   6.970
 9191SOL    HW228473   5.477   6.447   6.836
 9192SOL     OW28474   6.895   4.439   5.867
 9192SOL    HW128475   6.832   4.405   5.937
 9192SOL    HW228476   6.965   4.370   5.848
 9193SOL     OW28477   3.462   3.357   4.115
 9193SOL    HW128478   3.403   3.336   4.038
 9193SOL    HW228479   3.414   3.419   4.178
 9194SOL     OW28480   3.434   5.926   2.512
 9194SOL    HW128481   3.481   5.973   2.437
 9194SOL    HW228482   3.404   5.836   2.481
 9195SOL     OW28483   0.555   3.232   3.355
 9195SOL    HW128484   0.562   3.300   3.428
 9195SOL    HW228485   0.619   3.157   3.373
 9196SOL     OW28486   3.151   0.647   3.793
 9196SOL    HW128487   3.229   0.611   3.742
 9196SOL    HW228488   3.103   0.572   3.839
 9197SOL     OW28489   2.601   3.525   6.997
 9197SOL    HW128490   2.599   3.472   6.912
 9197SOL    HW228491   2.691   3.516   0.015
 9198SOL     OW28492   5.300   4.513   5.506
 9198SOL    HW128493   5.291   4.427   5.455
 9198SOL    HW228494   5.320   4.492   5.602
 9199SOL     OW28495   1.467   3.989   5.852
 9199SOL    HW128496   1.425   3.947   5.772
 9199SOL    HW228497   1.406   4.059   5.889
 9200SOL     OW28498   0.426   6.481   0.673
 9200SOL    HW128499   0.428   6.391   0.630
 9200SOL    HW228500   0.505   6.534   0.642
 9201SOL     OW28501   0.032   4.113   1.689
 9201SOL    HW128502   0.051   4.138   1.594
 9201SOL    HW228503   0.058   4.017   1.703
 9202SOL     OW28504   1.943   5.032   4.328
 9202SOL    HW128505   1.897   4.989   4.251
 9202SOL    HW228506   1.952   4.967   4.403
 9203SOL     OW28507   5.107   1.488   6.395
 9203SOL    HW128508   5.098   1.565   6.458
 9203SOL    HW228509   5.191   1.438   6.416
 9204SOL     OW28510   5.627   3.974   3.060
 9204SOL    HW128511   5.572   4.046   3.102
 9204SOL    HW228512   5.723   3.988   3.083
 9205SOL     OW28513   5.577   3.239   2.762
 9205SOL    HW128514   5.605   3.296   2.685
 9205SOL    HW228515   5.482   3.260   2.787
 9206SOL     OW28516   2.413   6.359   3.966
 9206SOL    HW128517   2.353   6.328   3.892
 9206SOL    HW228518   2.361   6.360   4.052
 9207SOL     OW28519   4.365   6.479   6.159
 9207SOL    HW128520   4.278   6.445   6.123
 9207SOL    HW228521   4.348   6.527   6.245
 9208SOL     OW28522   4.957   3.428   2.325
 9208SOL    HW128523   4.931   3.347   2.272
 9208SOL    HW228524   4.912   3.425   2.414
 9209SOL     OW28525   4.282   1.238   2.921
 9209SOL    HW128526   4.205   1.207   2.865
 9209SOL    HW228527   4.277   1.196   3.012
 9210SOL     OW28528   2.429   6.626   1.530
 9210SOL    HW128529   2.342   6.670   1.553
 9210SOL    HW228530   2.448   6.553   1.596
 9211SOL     OW28531   5.267   1.667   6.048
 9211SOL    HW128532   5.184   1.634   6.093
 9211SOL    HW228533   5.305   1.594   5.990
 9212SOL     OW28534   4.554   4.537   4.459
 9212SOL    HW128535   4.559   4.452   4.512
 9212SOL    HW228536   4.477   4.592   4.493
 9213SOL     OW28537   5.553   0.257   4.430
 9213SOL    HW128538   5.605   0.185   4.385
 9213SOL    HW228539   5.490   0.299   4.365
 9214SOL     OW28540   2.052   2.586   4.122
 9214SOL    HW128541   2.009   2.498   4.144
 9214SOL    HW228542   1.982   2.655   4.107
 9215SOL     OW28543   0.344   3.425   2.768
 9215SOL    HW128544   0.349   3.499   2.701
 9215SOL    HW228545   0.401   3.447   2.846
 9216SOL     OW28546   2.731   5.974   5.025
 9216SOL    HW128547   2.824   5.939   5.011
 9216SOL    HW228548   2.713   6.046   4.958
 9217SOL     OW28549   5.279   1.347   6.161
 9217SOL    HW128550   5.325   1.285   6.223
 9217SOL    HW228551   5.325   1.436   6.162
 9218SOL     OW28552   5.555   6.721   7.004
 9218SOL    HW128553   5.569   6.768   0.067
 9218SOL    HW228554   5.516   6.631   7.020
 9219SOL     OW28555   3.694   2.991   5.433
 9219SOL    HW128556   3.775   2.989   5.375
 9219SOL    HW228557   3.652   3.082   5.428
 9220SOL     OW28558   2.047   6.237   3.083
 9220SOL    HW128559   1.997   6.243   3.170
 9220SOL    HW228560   1.993   6.279   3.010
 9221SOL     OW28561   2.714   0.333   6.173
 9221SOL    HW128562   2.811   0.350   6.157
 9221SOL    HW228563   2.698   0.322   6.272
 9222SOL     OW28564   2.014   4.399   3.797
 9222SOL    HW128565   2.055   4.490   3.803
 9222SOL    HW228566   2.033   4.348   3.881
 9223SOL     OW28567   1.755   4.185   4.583
 9223SOL    HW128568   1.707   4.266   4.551
 9223SOL    HW228569   1.773   4.124   4.506
 9224SOL     OW28570   1.519   4.479   3.857
 9224SOL    HW128571   1.452   4.407   3.876
 9224SOL    HW228572   1.501   4.518   3.767
 9225SOL     OW28573   3.927   6.737   6.120
 9225SOL    HW128574   3.960   6.831   6.122
 9225SOL    HW228575   3.827   6.737   6.111
 9226SOL     OW28576   1.649   6.640   0.681
 9226SOL    HW128577   1.697   6.704   0.741
 9226SOL    HW228578   1.559   6.676   0.658
 9227SOL     OW28579   2.140   5.438   1.011
 9227SOL    HW128580   2.235   5.463   0.990
 9227SOL    HW228581   2.138   5.351   1.059
 9228SOL     OW28582   1.872   2.382   5.716
 9228SOL    HW128583   1.880   2.414   5.622
 9228SOL    HW228584   1.948   2.416   5.770
 9229SOL     OW28585   0.690   4.484   0.242
 9229SOL    HW128586   0.620   4.423   0.204
 9229SOL    HW228587   0.745   4.522   0.167
 9230SOL     OW28588   5.261   2.543   4.310
 9230SOL    HW128589   5.236   2.587   4.224
 9230SOL    HW228590   5.182   2.543   4.372
 9231SOL     OW28591   0.697   5.106   5.544
 9231SOL    HW128592   0.717   5.164   5.623
 9231SOL    HW228593   0.725   5.154   5.460
 9232SOL     OW28594   1.833   5.370   1.675
 9232SOL    HW128595   1.902   5.407   1.738
 9232SOL    HW228596   1.746   5.417   1.690
 9233SOL     OW28597   0.800   6.637   0.775
 9233SOL    HW128598   0.869   6.571   0.745
 9233SOL    HW228599   0.732   6.649   0.703
 9234SOL     OW28600   2.358   4.972   1.198
 9234SOL    HW128601   2.352   4.992   1.295
 9234SOL    HW228602   2.280   4.917   1.169
 9235SOL     OW28603   2.497   2.176   3.273
 9235SOL    HW128604   2.542   2.146   3.357
 9235SOL    HW228605   2.493   2.276   3.272
 9236SOL     OW28606   1.751   3.498   6.507
 9236SOL    HW128607   1.728   3.479   6.412
 9236SOL    HW228608   1.843   3.537   6.513
 9237SOL     OW28609   6.263   5.538   3.167
 9237SOL    HW128610   6.173   5.571   3.138
 9237SOL    HW228611   6.335   5.588   3.118
 9238SOL     OW28612   1.770   3.180   5.141
 9238SOL    HW128613   1.812   3.144   5.224
 9238SOL    HW228614   1.729   3.269   5.160
 9239SOL     OW28615   0.134   4.757   0.062
 9239SOL    HW128616   0.144   4.662   0.034
 9239SOL    HW228617   0.061   4.800   0.008
 9240SOL     OW28618   4.915   3.147   3.211
 9240SOL    HW128619   5.012   3.139   3.192
 9240SOL    HW228620   4.890   3.243   3.221
 9241SOL     OW28621   0.225   6.145   0.487
 9241SOL    HW128622   0.159   6.220   0.497
 9241SOL    HW228623   0.212   6.101   0.399
 9242SOL     OW28624   1.810   2.261   1.999
 9242SOL    HW128625   1.854   2.339   1.954
 9242SOL    HW228626   1.770   2.292   2.086
 9243SOL     OW28627   0.587   6.701   1.796
 9243SOL    HW128628   0.671   6.678   1.843
 9243SOL    HW228629   0.587   6.799   1.774
 9244SOL     OW28630   3.550   6.484   5.134
 9244SOL    HW128631   3.649   6.475   5.123
 9244SOL    HW228632   3.504   6.414   5.079
 9245SOL     OW28633   0.907   4.094   2.911
 9245SOL    HW128634   0.923   3.996   2.921
 9245SOL    HW228635   0.964   4.144   2.977
 9246SOL     OW28636   6.179   0.149   4.381
 9246SOL    HW128637   6.092   0.104   4.363
 9246SOL    HW228638   6.211   0.125   4.473
 9247SOL     OW28639   3.677   5.631   2.879
 9247SOL    HW128640   3.686   5.702   2.809
 9247SOL    HW228641   3.711   5.666   2.966
 9248SOL     OW28642   2.828   1.730   4.751
 9248SOL    HW128643   2.801   1.753   4.844
 9248SOL    HW228644   2.894   1.798   4.718
 9249SOL     OW28645   3.769   4.672   1.668
 9249SOL    HW128646   3.729   4.675   1.760
 9249SOL    HW228647   3.696   4.676   1.600
 9250SOL     OW28648   6.897   4.650   4.666
 9250SOL    HW128649   6.798   4.660   4.662
 9250SOL    HW228650   6.923   4.562   4.626
 9251SOL     OW28651   4.188   2.660   1.065
 9251SOL    HW128652   4.197   2.760   1.074
 9251SOL    HW228653   4.241   2.628   0.987
 9252SOL     OW28654   4.123   0.308   5.012
 9252SOL    HW128655   4.109   0.395   5.058
 9252SOL    HW228656   4.138   0.236   5.079
 9253SOL     OW28657   6.855   4.636   5.229
 9253SOL    HW128658   6.794   4.619   5.152
 9253SOL    HW228659   6.944   4.668   5.195
 9254SOL     OW28660   5.909   4.610   2.521
 9254SOL    HW128661   5.832   4.617   2.584
 9254SOL    HW228662   5.876   4.582   2.431
 9255SOL     OW28663   6.695   3.764   6.834
 9255SOL    HW128664   6.595   3.767   6.831
 9255SOL    HW228665   6.724   3.688   6.892
 9256SOL     OW28666   1.821   6.710   1.577
 9256SOL    HW128667   1.760   6.670   1.509
 9256SOL    HW228668   1.862   6.794   1.540
 9257SOL     OW28669   6.191   5.580   3.427
 9257SOL    HW128670   6.170   5.678   3.431
 9257SOL    HW228671   6.228   5.558   3.337
 9258SOL     OW28672   3.478   3.369   0.363
 9258SOL    HW128673   3.442   3.373   0.456
 9258SOL    HW228674   3.568   3.413   0.360
 9259SOL     OW28675   1.879   1.492   6.378
 9259SOL    HW128676   1.859   1.398   6.405
 9259SOL    HW228677   1.961   1.524   6.426
 9260SOL     OW28678   5.977   3.156   5.922
 9260SOL    HW128679   5.962   3.076   5.980
 9260SOL    HW228680   6.052   3.211   5.960
 9261SOL     OW28681   4.182   1.148   1.023
 9261SOL    HW128682   4.083   1.149   1.007
 9261SOL    HW228683   4.228   1.196   0.949
 9262SOL     OW28684   0.031   6.933   5.026
 9262SOL    HW128685   0.099   6.970   4.962
 9262SOL    HW228686   6.968   6.926   4.979
 9263SOL     OW28687   2.967   5.127   2.677
 9263SOL    HW128688   2.887   5.153   2.732
 9263SOL    HW228689   2.996   5.205   2.622
 9264SOL     OW28690   5.724   3.460   6.511
 9264SOL    HW128691   5.625   3.457   6.495
 9264SOL    HW228692   5.754   3.374   6.551
 9265SOL     OW28693   4.010   2.103   6.550
 9265SOL    HW128694   3.956   2.180   6.585
 9265SOL    HW228695   4.087   2.138   6.496
 9266SOL     OW28696   0.111   4.936   1.687
 9266SOL    HW128697   0.135   5.012   1.747
 9266SOL    HW228698   0.032   4.888   1.724
 9267SOL     OW28699   0.551   1.364   3.929
 9267SOL    HW128700   0.549   1.282   3.986
 9267SOL    HW228701   0.518   1.343   3.837
 9268SOL     OW28702   0.424   6.415   1.765
 9268SOL    HW128703   0.462   6.507   1.769
 9268SOL    HW228704   0.428   6.381   1.671
 9269SOL     OW28705   5.469   0.304   0.260
 9269SOL    HW128706   5.380   0.338   0.292
 9269SOL    HW228707   5.523   0.381   0.226
 9270SOL     OW28708   3.525   1.466   6.142
 9270SOL    HW128709   3.466   1.470   6.062
 9270SOL    HW228710   3.544   1.558   6.175
 9271SOL     OW28711   1.362   0.375   6.788
 9271SOL    HW128712   1.348   0.326   6.874
 9271SOL    HW228713   1.324   0.467   6.796
 9272SOL     OW28714   6.633   6.482   6.204
 9272SOL    HW128715   6.662   6.415   6.273
 9272SOL    HW228716   6.713   6.526   6.164
 9273SOL     OW28717   5.434   6.023   3.897
 9273SOL    HW128718   5.491   5.943   3.919
 9273SOL    HW228719   5.419   6.076   3.981
 9274SOL     OW28720   0.404   2.791   0.110
 9274SOL    HW128721   0.323   2.765   0.057
 9274SOL    HW228722   0.412   2.891   0.112
 9275SOL     OW28723   1.122   6.534   0.999
 9275SOL    HW128724   1.042   6.479   0.978
 9275SOL    HW228725   1.130   6.546   1.098
 9276SOL     OW28726   3.351   4.610   6.874
 9276SOL    HW128727   3.314   4.607   6.782
 9276SOL    HW228728   3.321   4.694   6.920
 9277SOL     OW28729   4.306   4.994   2.445
 9277SOL    HW128730   4.344   5.040   2.365
 9277SOL    HW228731   4.370   5.002   2.522
 9278SOL     OW28732   0.360   0.614   4.390
 9278SOL    HW128733   0.405   0.687   4.441
 9278SOL    HW228734   0.278   0.585   4.439
 9279SOL     OW28735   3.769   5.685   1.641
 9279SOL    HW128736   3.815   5.631   1.571
 9279SOL    HW228737   3.762   5.780   1.610
 9280SOL     OW28738   1.164   1.526   2.826
 9280SOL    HW128739   1.132   1.599   2.765
 9280SOL    HW228740   1.086   1.474   2.861
 9281SOL     OW28741   3.636   3.624   6.127
 9281SOL    HW128742   3.635   3.641   6.029
 9281SOL    HW228743   3.730   3.602   6.156
 9282SOL     OW28744   3.470   0.395   4.724
 9282SOL    HW128745   3.439   0.485   4.754
 9282SOL    HW228746   3.525   0.406   4.641
 9283SOL     OW28747   5.645   0.219   6.440
 9283SOL    HW128748   5.644   0.130   6.486
 9283SOL    HW228749   5.592   0.214   6.355
 9284SOL     OW28750   3.346   3.533   5.394
 9284SOL    HW128751   3.362   3.464   5.324
 9284SOL    HW228752   3.247   3.546   5.406
 9285SOL     OW28753   5.582   3.069   2.368
 9285SOL    HW128754   5.675   3.102   2.353
 9285SOL    HW228755   5.570   2.981   2.323
 9286SOL     OW28756   5.287   6.469   0.381
 9286SOL    HW128757   5.192   6.438   0.374
 9286SOL    HW228758   5.290   6.557   0.428
 9287SOL     OW28759   2.521   4.546   5.890
 9287SOL    HW128760   2.554   4.521   5.799
 9287SOL    HW228761   2.453   4.479   5.920
 9288SOL     OW28762   4.530   2.445   4.113
 9288SOL    HW128763   4.459   2.497   4.065
 9288SOL    HW228764   4.493   2.355   4.138
 9289SOL     OW28765   4.450   6.980   6.021
 9289SOL    HW128766   4.440   6.998   6.119
 9289SOL    HW228767   4.485   6.887   6.007
 9290SOL     OW28768   5.257   0.678   4.762
 9290SOL    HW128769   5.343   0.688   4.812
 9290SOL    HW228770   5.202   0.605   4.805
 9291SOL     OW28771   1.165   6.398   5.303
 9291SOL    HW128772   1.256   6.440   5.306
 9291SOL    HW228773   1.162   6.321   5.366
 9292SOL     OW28774   1.453   1.543   5.804
 9292SOL    HW128775   1.481   1.484   5.728
 9292SOL    HW228776   1.526   1.608   5.824
 9293SOL     OW28777   4.745   2.820   5.920
 9293SOL    HW128778   4.663   2.863   5.958
 9293SOL    HW228779   4.772   2.868   5.837
 9294SOL     OW28780   4.812   0.797   0.713
 9294SOL    HW128781   4.897   0.763   0.753
 9294SOL    HW228782   4.737   0.788   0.778
 9295SOL     OW28783   0.655   0.839   5.334
 9295SOL    HW128784   0.727   0.838   5.265
 9295SOL    HW228785   0.690   0.879   5.419
 9296SOL     OW28786   2.923   3.660   1.102
 9296SOL    HW128787   2.853   3.590   1.115
 9296SOL    HW228788   2.995   3.648   1.170
 9297SOL     OW28789   0.055   5.656   3.191
 9297SOL    HW128790   0.068   5.605   3.107
 9297SOL    HW228791   0.113   5.738   3.191
 9298SOL     OW28792   1.205   6.778   5.759
 9298SOL    HW128793   1.186   6.711   5.687
 9298SOL    HW228794   1.166   6.746   5.845
 9299SOL     OW28795   1.800   1.951   3.935
 9299SOL    HW128796   1.794   2.051   3.945
 9299SOL    HW228797   1.897   1.923   3.937
 9300SOL     OW28798   1.685   6.289   5.180
 9300SOL    HW128799   1.671   6.370   5.236
 9300SOL    HW228800   1.737   6.221   5.232
 9301SOL     OW28801   0.279   4.013   4.449
 9301SOL    HW128802   0.322   3.932   4.410
 9301SOL    HW228803   0.185   4.021   4.415
 9302SOL     OW28804   2.222   2.904   4.765
 9302SOL    HW128805   2.267   2.956   4.838
 9302SOL    HW228806   2.245   2.944   4.676
 9303SOL     OW28807   3.038   3.965   6.956
 9303SOL    HW128808   3.024   3.890   7.021
 9303SOL    HW228809   3.128   3.957   6.914
 9304SOL     OW28810   4.786   5.107   0.800
 9304SOL    HW128811   4.708   5.060   0.842
 9304SOL    HW228812   4.833   5.044   0.738
 9305SOL     OW28813   2.646   1.538   0.833
 9305SOL    HW128814   2.676   1.453   0.875
 9305SOL    HW228815   2.547   1.548   0.844
 9306SOL     OW28816   0.073   4.448   4.611
 9306SOL    HW128817   0.172   4.437   4.607
 9306SOL    HW228818   0.038   4.472   4.520
 9307SOL     OW28819   2.055   4.001   0.329
 9307SOL    HW128820   2.033   3.905   0.345
 9307SOL    HW228821   1.970   4.053   0.321
 9308SOL     OW28822   1.560   4.592   1.468
 9308SOL    HW128823   1.498   4.545   1.530
 9308SOL    HW228824   1.654   4.566   1.489
 9309SOL     OW28825   5.185   5.902   5.761
 9309SOL    HW128826   5.175   5.968   5.686
 9309SOL    HW228827   5.129   5.822   5.742
 9310SOL     OW28828   4.473   5.749   5.943
 9310SOL    HW128829   4.531   5.680   5.898
 9310SOL    HW228830   4.380   5.714   5.950
 9311SOL     OW28831   4.433   3.354   1.302
 9311SOL    HW128832   4.382   3.436   1.276
 9311SOL    HW228833   4.425   3.341   1.401
 9312SOL     OW28834   1.379   2.357   0.614
 9312SOL    HW128835   1.479   2.358   0.613
 9312SOL    HW228836   1.345   2.300   0.539
 9313SOL     OW28837   1.766   0.515   1.719
 9313SOL    HW128838   1.703   0.591   1.731
 9313SOL    HW228839   1.714   0.432   1.699
 9314SOL     OW28840   5.161   2.756   1.061
 9314SOL    HW128841   5.194   2.694   0.990
 9314SOL    HW228842   5.218   2.746   1.143
 9315SOL     OW28843   5.807   1.035   6.669
 9315SOL    HW128844   5.872   1.008   6.599
 9315SOL    HW228845   5.717   1.049   6.627
 9316SOL     OW28846   5.402   0.568   5.842
 9316SOL    HW128847   5.306   0.543   5.855
 9316SOL    HW228848   5.460   0.490   5.868
 9317SOL     OW28849   3.158   5.203   3.648
 9317SOL    HW128850   3.060   5.216   3.633
 9317SOL    HW228851   3.178   5.207   3.746
 9318SOL     OW28852   5.525   5.979   0.308
 9318SOL    HW128853   5.449   5.940   0.359
 9318SOL    HW228854   5.511   6.078   0.299
 9319SOL     OW28855   2.961   3.886   0.923
 9319SOL    HW128856   2.997   3.882   0.830
 9319SOL    HW228857   2.956   3.793   0.961
 9320SOL     OW28858   5.581   0.527   6.185
 9320SOL    HW128859   5.578   0.591   6.109
 9320SOL    HW228860   5.642   0.451   6.163
 9321SOL     OW28861   0.084   2.736   5.488
 9321SOL    HW128862   0.138   2.735   5.403
 9321SOL    HW228863   0.115   2.811   5.546
 9322SOL     OW28864   6.474   4.266   5.841
 9322SOL    HW128865   6.533   4.295   5.766
 9322SOL    HW228866   6.396   4.328   5.848
 9323SOL     OW28867   1.714   3.238   3.739
 9323SOL    HW128868   1.615   3.224   3.746
 9323SOL    HW228869   1.748   3.279   3.824
 9324SOL     OW28870   1.062   3.725   0.796
 9324SOL    HW128871   1.137   3.660   0.782
 9324SOL    HW228872   1.049   3.740   0.894
 9325SOL     OW28873   2.252   5.283   1.886
 9325SOL    HW128874   2.323   5.351   1.904
 9325SOL    HW228875   2.273   5.235   1.801
 9326SOL     OW28876   3.748   4.468   0.211
 9326SOL    HW128877   3.828   4.527   0.221
 9326SOL    HW228878   3.769   4.378   0.249
 9327SOL     OW28879   4.565   0.659   3.151
 9327SOL    HW128880   4.576   0.622   3.059
 9327SOL    HW228881   4.546   0.585   3.215
 9328SOL     OW28882   3.146   6.796   4.976
 9328SOL    HW128883   3.089   6.740   4.916
 9328SOL    HW228884   3.199   6.861   4.922
 9329SOL     OW28885   0.255   5.715   6.628
 9329SOL    HW128886   0.308   5.721   6.543
 9329SOL    HW228887   0.226   5.806   6.656
 9330SOL     OW28888   0.136   0.309   6.778
 9330SOL    HW128889   0.121   0.316   6.679
 9330SOL    HW228890   0.133   0.401   6.818
 9331SOL     OW28891   1.458   3.141   4.843
 9331SOL    HW128892   1.471   3.124   4.746
 9331SOL    HW228893   1.457   3.239   4.861
 9332SOL     OW28894   3.874   5.747   0.786
 9332SOL    HW128895   3.928   5.815   0.836
 9332SOL    HW228896   3.777   5.765   0.799
 9333SOL     OW28897   3.726   5.267   0.514
 9333SOL    HW128898   3.650   5.277   0.578
 9333SOL    HW228899   3.790   5.343   0.526
 9334SOL     OW28900   4.860   6.108   4.343
 9334SOL    HW128901   4.821   6.016   4.339
 9334SOL    HW228902   4.821   6.158   4.420
 9335SOL     OW28903   2.585   1.783   1.291
 9335SOL    HW128904   2.653   1.856   1.295
 9335SOL    HW228905   2.553   1.773   1.197
 9336SOL     OW28906   6.121   0.946   5.489
 9336SOL    HW128907   6.162   0.910   5.405
 9336SOL    HW228908   6.041   1.001   5.467
 9337SOL     OW28909   4.357   6.951   6.667
 9337SOL    HW128910   4.361   6.903   6.579
 9337SOL    HW228911   4.269   6.998   6.676
 9338SOL     OW28912   0.458   6.239   0.552
 9338SOL    HW128913   0.526   6.170   0.524
 9338SOL    HW228914   0.367   6.208   0.525
 9339SOL     OW28915   5.316   5.004   6.669
 9339SOL    HW128916   5.346   5.068   6.598
 9339SOL    HW228917   5.232   5.037   6.710
 9340SOL     OW28918   3.554   6.189   2.666
 9340SOL    HW128919   3.502   6.160   2.586
 9340SOL    HW228920   3.513   6.271   2.705
 9341SOL     OW28921   5.997   4.540   6.523
 9341SOL    HW128922   5.898   4.547   6.512
 9341SOL    HW228923   6.021   4.449   6.556
 9342SOL     OW28924   3.103   0.253   4.656
 9342SOL    HW128925   3.041   0.209   4.591
 9342SOL    HW228926   3.092   0.352   4.649
 9343SOL     OW28927   4.728   4.156   1.775
 9343SOL    HW128928   4.630   4.162   1.794
 9343SOL    HW228929   4.755   4.230   1.713
 9344SOL     OW28930   5.824   4.864   6.309
 9344SOL    HW128931   5.839   4.786   6.247
 9344SOL    HW228932   5.908   4.919   6.313
 9345SOL     OW28933   6.626   6.076   0.095
 9345SOL    HW128934   6.699   6.144   0.090
 9345SOL    HW228935   6.566   6.096   0.172
 9346SOL     OW28936   5.291   6.468   2.646
 9346SOL    HW128937   5.310   6.379   2.607
 9346SOL    HW228938   5.200   6.498   2.617
 9347SOL     OW28939   3.762   5.664   1.164
 9347SOL    HW128940   3.715   5.747   1.194
 9347SOL    HW228941   3.861   5.681   1.162
 9348SOL     OW28942   2.531   6.189   3.137
 9348SOL    HW128943   2.619   6.237   3.140
 9348SOL    HW228944   2.519   6.147   3.048
 9349SOL     OW28945   6.352   5.763   2.122
 9349SOL    HW128946   6.283   5.702   2.082
 9349SOL    HW228947   6.423   5.709   2.167
 9350SOL     OW28948   6.875   1.397   4.544
 9350SOL    HW128949   6.877   1.419   4.446
 9350SOL    HW228950   6.969   1.382   4.576
 9351SOL     OW28951   2.149   1.170   5.427
 9351SOL    HW128952   2.224   1.154   5.492
 9351SOL    HW228953   2.121   1.265   5.431
 9352SOL     OW28954   1.407   2.299   5.342
 9352SOL    HW128955   1.324   2.351   5.363
 9352SOL    HW228956   1.388   2.234   5.268
 9353SOL     OW28957   1.617   4.265   1.817
 9353SOL    HW128958   1.665   4.236   1.735
 9353SOL    HW228959   1.647   4.211   1.895
 9354SOL     OW28960   6.371   2.068   1.130
 9354SOL    HW128961   6.274   2.082   1.113
 9354SOL    HW228962   6.417   2.043   1.045
 9355SOL     OW28963   6.345   0.963   4.721
 9355SOL    HW128964   6.323   0.954   4.624
 9355SOL    HW228965   6.317   0.880   4.770
 9356SOL     OW28966   4.443   5.055   2.210
 9356SOL    HW128967   4.488   5.134   2.168
 9356SOL    HW228968   4.352   5.042   2.169
 9357SOL     OW28969   2.684   3.621   0.254
 9357SOL    HW128970   2.664   3.708   0.207
 9357SOL    HW228971   2.608   3.598   0.315
 9358SOL     OW28972   6.051   3.933   2.165
 9358SOL    HW128973   6.109   3.877   2.224
 9358SOL    HW228974   5.959   3.895   2.162
 9359SOL     OW28975   6.941   3.764   5.909
 9359SOL    HW128976   6.921   3.824   5.832
 9359SOL    HW228977   6.961   3.819   5.990
 9360SOL     OW28978   1.457   0.084   5.611
 9360SOL    HW128979   1.460   0.113   5.706
 9360SOL    HW228980   1.520   0.141   5.557
 9361SOL     OW28981   2.913   6.591   3.301
 9361SOL    HW128982   2.957   6.502   3.290
 9361SOL    HW228983   2.877   6.599   3.394
 9362SOL     OW28984   1.891   1.103   1.791
 9362SOL    HW128985   1.942   1.033   1.841
 9362SOL    HW228986   1.952   1.149   1.726
 9363SOL     OW28987   3.785   5.482   1.843
 9363SOL    HW128988   3.805   5.421   1.766
 9363SOL    HW228989   3.791   5.577   1.812
 9364SOL     OW28990   4.034   2.695   6.288
 9364SOL    HW128991   4.051   2.651   6.376
 9364SOL    HW228992   4.122   2.716   6.245
 9365SOL     OW28993   2.578   2.332   5.077
 9365SOL    HW128994   2.647   2.401   5.097
 9365SOL    HW228995   2.529   2.357   4.993
 9366SOL     OW28996   3.093   1.676   6.974
 9366SOL    HW128997   3.142   1.610   6.918
 9366SOL    HW228998   3.159   1.737   7.019
 9367SOL     OW28999   0.334   5.827   4.008
 9367SOL    HW129000   0.380   5.767   4.074
 9367SOL    HW229001   0.363   5.921   4.025
 9368SOL     OW29002   3.661   2.129   2.634
 9368SOL    HW129003   3.724   2.127   2.557
 9368SOL    HW229004   3.712   2.125   2.720
 9369SOL     OW29005   6.706   1.636   6.096
 9369SOL    HW129006   6.724   1.644   6.194
 9369SOL    HW229007   6.622   1.583   6.082
 9370SOL     OW29008   5.431   0.948   2.934
 9370SOL    HW129009   5.527   0.952   2.961
 9370SOL    HW229010   5.374   0.991   3.004
 9371SOL     OW29011   1.610   5.399   6.883
 9371SOL    HW129012   1.521   5.373   6.846
 9371SOL    HW229013   1.677   5.400   6.809
 9372SOL     OW29014   5.762   6.475   3.001
 9372SOL    HW129015   5.826   6.401   2.980
 9372SOL    HW229016   5.808   6.546   3.054
 9373SOL     OW29017   4.525   2.170   2.887
 9373SOL    HW129018   4.591   2.099   2.911
 9373SOL    HW229019   4.518   2.176   2.787
 9374SOL     OW29020   5.872   2.728   6.944
 9374SOL    HW129021   5.789   2.687   6.983
 9374SOL    HW229022   5.907   2.670   6.870
 9375SOL     OW29023   6.677   1.726   3.494
 9375SOL    HW129024   6.605   1.795   3.498
 9375SOL    HW229025   6.638   1.640   3.460
 9376SOL     OW29026   3.068   3.839   0.638
 9376SOL    HW129027   3.103   3.932   0.653
 9376SOL    HW229028   2.994   3.842   0.571
 9377SOL     OW29029   0.583   5.014   3.667
 9377SOL    HW129030   0.530   5.098   3.682
 9377SOL    HW229031   0.609   5.008   3.571
 9378SOL     OW29032   1.779   0.032   5.661
 9378SOL    HW129033   1.801   0.007   5.567
 9378SOL    HW229034   1.768   0.132   5.667
 9379SOL     OW29035   4.573   4.834   4.595
 9379SOL    HW129036   4.484   4.789   4.594
 9379SOL    HW229037   4.640   4.776   4.641
 9380SOL     OW29038   6.085   5.894   5.194
 9380SOL    HW129039   6.102   5.927   5.101
 9380SOL    HW229040   6.130   5.805   5.206
 9381SOL     OW29041   2.752   3.201   5.520
 9381SOL    HW129042   2.796   3.171   5.604
 9381SOL    HW229043   2.724   3.122   5.466
 9382SOL     OW29044   3.392   1.678   2.862
 9382SOL    HW129045   3.464   1.747   2.858
 9382SOL    HW229046   3.304   1.721   2.846
 9383SOL     OW29047   3.588   6.162   4.742
 9383SOL    HW129048   3.555   6.233   4.803
 9383SOL    HW229049   3.574   6.072   4.784
 9384SOL     OW29050   4.624   6.414   1.602
 9384SOL    HW129051   4.530   6.411   1.569
 9384SOL    HW229052   4.684   6.369   1.536
 9385SOL     OW29053   3.908   1.461   2.236
 9385SOL    HW129054   3.974   1.529   2.270
 9385SOL    HW229055   3.849   1.433   2.312
 9386SOL     OW29056   2.871   6.189   4.531
 9386SOL    HW129057   2.804   6.248   4.486
 9386SOL    HW229058   2.950   6.175   4.471
 9387SOL     OW29059   4.490   0.003   0.547
 9387SOL    HW129060   4.441   0.046   0.622
 9387SOL    HW229061   4.588   7.023   0.568
 9388SOL     OW29062   1.780   6.047   2.774
 9388SOL    HW129063   1.737   6.070   2.862
 9388SOL    HW229064   1.852   5.980   2.789
 9389SOL     OW29065   2.504   0.422   5.113
 9389SOL    HW129066   2.506   0.322   5.105
 9389SOL    HW229067   2.480   0.447   5.207
 9390SOL     OW29068   3.739   6.257   3.834
 9390SOL    HW129069   3.729   6.305   3.921
 9390SOL    HW229070   3.650   6.248   3.789
 9391SOL     OW29071   2.541   1.074   5.383
 9391SOL    HW129072   2.485   1.075   5.299
 9391SOL    HW229073   2.481   1.072   5.463
 9392SOL     OW29074   0.145   0.195   4.783
 9392SOL    HW129075   0.220   0.213   4.720
 9392SOL    HW229076   0.122   0.278   4.832
 9393SOL     OW29077   3.531   1.518   4.435
 9393SOL    HW129078   3.533   1.483   4.341
 9393SOL    HW229079   3.542   1.618   4.433
 9394SOL     OW29080   6.147   1.901   3.161
 9394SOL    HW129081   6.204   1.819   3.164
 9394SOL    HW229082   6.149   1.940   3.069
 9395SOL     OW29083   2.587   2.281   0.246
 9395SOL    HW129084   2.594   2.225   0.163
 9395SOL    HW229085   2.677   2.317   0.271
 9396SOL     OW29086   0.488   6.384   4.576
 9396SOL    HW129087   0.588   6.385   4.579
 9396SOL    HW229088   0.453   6.463   4.627
 9397SOL     OW29089   2.796   6.870   0.244
 9397SOL    HW129090   2.707   6.858   0.289
 9397SOL    HW229091   2.852   6.933   0.297
 9398SOL     OW29092   1.796   0.511   6.098
 9398SOL    HW129093   1.877   0.540   6.048
 9398SOL    HW229094   1.788   0.563   6.183
 9399SOL     OW29095   0.275   1.886   6.850
 9399SOL    HW129096   0.300   1.863   6.944
 9399SOL    HW229097   0.358   1.902   6.797
 9400SOL     OW29098   5.477   3.573   1.408
 9400SOL    HW129099   5.565   3.620   1.405
 9400SOL    HW229100   5.437   3.573   1.316
 9401SOL     OW29101   3.533   6.225   3.421
 9401SOL    HW129102   3.455   6.226   3.358
 9401SOL    HW229103   3.557   6.319   3.445
 9402SOL     OW29104   1.305   4.707   5.246
 9402SOL    HW129105   1.360   4.625   5.265
 9402SOL    HW229106   1.224   4.707   5.303
 9403SOL     OW29107   5.078   1.793   2.782
 9403SOL    HW129108   5.032   1.766   2.697
 9403SOL    HW229109   5.070   1.719   2.849
 9404SOL     OW29110   0.960   4.120   6.131
 9404SOL    HW129111   1.057   4.123   6.155
 9404SOL    HW229112   0.905   4.119   6.214
 9405SOL     OW29113   7.022   0.046   2.801
 9405SOL    HW129114   6.990   0.054   2.707
 9405SOL    HW229115   6.949   0.008   2.858
 9406SOL     OW29116   6.565   2.292   6.015
 9406SOL    HW129117   6.605   2.258   5.930
 9406SOL    HW229118   6.485   2.348   5.994
 9407SOL     OW29119   2.305   6.057   2.691
 9407SOL    HW129120   2.212   6.021   2.689
 9407SOL    HW229121   2.367   5.994   2.643
 9408SOL     OW29122   3.950   1.850   5.832
 9408SOL    HW129123   4.016   1.842   5.906
 9408SOL    HW229124   3.883   1.922   5.854
 9409SOL     OW29125   5.098   4.680   5.425
 9409SOL    HW129126   5.175   4.624   5.456
 9409SOL    HW229127   5.028   4.685   5.496
 9410SOL     OW29128   4.114   5.830   1.766
 9410SOL    HW129129   4.109   5.809   1.669
 9410SOL    HW229130   4.071   5.757   1.819
 9411SOL     OW29131   3.714   4.399   0.908
 9411SOL    HW129132   3.737   4.489   0.870
 9411SOL    HW229133   3.624   4.404   0.951
 9412SOL     OW29134   0.155   3.424   1.585
 9412SOL    HW129135   0.187   3.507   1.630
 9412SOL    HW229136   0.164   3.434   1.486
 9413SOL     OW29137   4.254   5.622   5.017
 9413SOL    HW129138   4.341   5.580   5.041
 9413SOL    HW229139   4.250   5.638   4.918
 9414SOL     OW29140   3.271   1.430   3.626
 9414SOL    HW129141   3.246   1.333   3.621
 9414SOL    HW229142   3.310   1.458   3.538
 9415SOL     OW29143   2.197   6.832   2.540
 9415SOL    HW129144   2.247   6.746   2.553
 9415SOL    HW229145   2.145   6.828   2.455
 9416SOL     OW29146   0.700   1.787   1.405
 9416SOL    HW129147   0.691   1.773   1.503
 9416SOL    HW229148   0.644   1.721   1.356
 9417SOL     OW29149   3.652   0.438   5.716
 9417SOL    HW129150   3.750   0.418   5.720
 9417SOL    HW229151   3.638   0.537   5.715
 9418SOL     OW29152   3.147   6.634   0.710
 9418SOL    HW129153   3.096   6.554   0.677
 9418SOL    HW229154   3.103   6.669   0.792
 9419SOL     OW29155   3.545   5.804   5.351
 9419SOL    HW129156   3.514   5.764   5.264
 9419SOL    HW229157   3.501   5.757   5.427
 9420SOL     OW29158   0.381   2.474   4.185
 9420SOL    HW129159   0.307   2.534   4.156
 9420SOL    HW229160   0.413   2.420   4.107
 9421SOL     OW29161   2.454   6.201   5.484
 9421SOL    HW129162   2.478   6.298   5.485
 9421SOL    HW229163   2.526   6.148   5.528
 9422SOL     OW29164   5.204   6.832   2.459
 9422SOL    HW129165   5.207   6.854   2.362
 9422SOL    HW229166   5.154   6.747   2.473
 9423SOL     OW29167   3.272   0.553   3.253
 9423SOL    HW129168   3.308   0.518   3.166
 9423SOL    HW229169   3.307   0.646   3.269
 9424SOL     OW29170   4.477   0.418   5.025
 9424SOL    HW129171   4.471   0.359   4.944
 9424SOL    HW229172   4.397   0.479   5.026
 9425SOL     OW29173   6.805   4.098   6.163
 9425SOL    HW129174   6.882   4.045   6.127
 9425SOL    HW229175   6.771   4.159   6.091
 9426SOL     OW29176   2.854   1.432   6.932
 9426SOL    HW129177   2.884   1.520   6.895
 9426SOL    HW229178   2.924   1.396   6.993
 9427SOL     OW29179   2.877   5.052   5.212
 9427SOL    HW129180   2.784   5.040   5.176
 9427SOL    HW229181   2.909   4.966   5.253
 9428SOL     OW29182   5.230   0.757   1.604
 9428SOL    HW129183   5.324   0.779   1.631
 9428SOL    HW229184   5.204   0.667   1.639
 9429SOL     OW29185   1.640   4.609   1.966
 9429SOL    HW129186   1.576   4.588   1.891
 9429SOL    HW229187   1.734   4.600   1.933
 9430SOL     OW29188   0.242   6.279   2.203
 9430SOL    HW129189   0.194   6.332   2.274
 9430SOL    HW229190   0.209   6.185   2.204
 9431SOL     OW29191   6.115   4.627   0.510
 9431SOL    HW129192   6.145   4.715   0.474
 9431SOL    HW229193   6.022   4.608   0.477
 9432SOL     OW29194   6.942   0.891   3.326
 9432SOL    HW129195   6.983   0.940   3.403
 9432SOL    HW229196   6.862   0.941   3.293
 9433SOL     OW29197   3.669   4.958   4.048
 9433SOL    HW129198   3.748   4.951   3.987
 9433SOL    HW229199   3.668   5.049   4.091
 9434SOL     OW29200   5.908   4.716   3.822
 9434SOL    HW129201   5.946   4.650   3.887
 9434SOL    HW229202   5.981   4.777   3.791
 9435SOL     OW29203   0.672   1.622   3.987
 9435SOL    HW129204   0.755   1.631   3.933
 9435SOL    HW229205   0.628   1.534   3.966
 9436SOL     OW29206   0.949   4.180   2.335
 9436SOL    HW129207   0.944   4.107   2.266
 9436SOL    HW229208   0.876   4.246   2.318
 9437SOL     OW29209   0.990   6.699   3.653
 9437SOL    HW129210   0.973   6.767   3.581
 9437SOL    HW229211   0.932   6.719   3.732
 9438SOL     OW29212   1.646   6.457   1.368
 9438SOL    HW129213   1.572   6.520   1.390
 9438SOL    HW229214   1.618   6.363   1.388
 9439SOL     OW29215   0.138   2.926   1.824
 9439SOL    HW129216   0.054   2.937   1.877
 9439SOL    HW229217   0.167   3.014   1.787
 9440SOL     OW29218   4.573   5.903   4.044
 9440SOL    HW129219   4.628   5.878   4.123
 9440SOL    HW229220   4.583   5.833   3.973
 9441SOL     OW29221   1.610   5.018   4.710
 9441SOL    HW129222   1.682   4.952   4.735
 9441SOL    HW229223   1.559   5.044   4.792
 9442SOL     OW29224   5.771   3.085   0.126
 9442SOL    HW129225   5.691   3.042   0.167
 9442SOL    HW229226   5.854   3.047   0.166
 9443SOL     OW29227   2.566   4.726   1.331
 9443SOL    HW129228   2.626   4.704   1.407
 9443SOL    HW229229   2.584   4.820   1.300
 9444SOL     OW29230   1.014   3.826   6.359
 9444SOL    HW129231   1.075   3.885   6.306
 9444SOL    HW229232   0.919   3.851   6.341
 9445SOL     OW29233   5.440   3.584   2.276
 9445SOL    HW129234   5.487   3.496   2.286
 9445SOL    HW229235   5.493   3.655   2.321
 9446SOL     OW29236   6.349   6.797   3.905
 9446SOL    HW129237   6.386   6.783   3.813
 9446SOL    HW229238   6.252   6.817   3.900
 9447SOL     OW29239   6.177   3.167   3.423
 9447SOL    HW129240   6.110   3.144   3.352
 9447SOL    HW229241   6.209   3.261   3.410
 9448SOL     OW29242   6.033   6.270   6.061
 9448SOL    HW129243   5.978   6.320   5.994
 9448SOL    HW229244   6.128   6.267   6.032
 9449SOL     OW29245   6.878   6.042   6.731
 9449SOL    HW129246   6.847   6.131   6.698
 9449SOL    HW229247   6.799   5.982   6.744
 9450SOL     OW29248   3.442   4.929   4.470
 9450SOL    HW129249   3.494   5.000   4.516
 9450SOL    HW229250   3.368   4.897   4.529
 9451SOL     OW29251   3.702   6.212   6.643
 9451SOL    HW129252   3.708   6.126   6.592
 9451SOL    HW229253   3.609   6.223   6.678
 9452SOL     OW29254   1.183   2.753   0.785
 9452SOL    HW129255   1.193   2.732   0.688
 9452SOL    HW229256   1.251   2.703   0.837
 9453SOL     OW29257   2.254   4.757   3.403
 9453SOL    HW129258   2.176   4.792   3.454
 9453SOL    HW229259   2.251   4.657   3.400
 9454SOL     OW29260   1.807   3.261   5.658
 9454SOL    HW129261   1.891   3.290   5.612
 9454SOL    HW229262   1.784   3.326   5.730
 9455SOL     OW29263   3.402   1.512   2.632
 9455SOL    HW129264   3.396   1.551   2.724
 9455SOL    HW229265   3.322   1.454   2.615
 9456SOL     OW29266   0.745   4.155   6.535
 9456SOL    HW129267   0.827   4.116   6.492
 9456SOL    HW229268   0.677   4.082   6.547
 9457SOL     OW29269   1.885   3.794   5.966
 9457SOL    HW129270   1.808   3.810   5.904
 9457SOL    HW229271   1.853   3.747   6.048
 9458SOL     OW29272   1.308   3.417   5.570
 9458SOL    HW129273   1.342   3.335   5.616
 9458SOL    HW229274   1.255   3.390   5.490
 9459SOL     OW29275   5.641   4.252   2.616
 9459SOL    HW129276   5.620   4.235   2.520
 9459SOL    HW229277   5.589   4.331   2.648
 9460SOL     OW29278   0.064   1.601   4.287
 9460SOL    HW129279   0.134   1.533   4.264
 9460SOL    HW229280   6.998   1.561   4.275
 9461SOL     OW29281   6.452   1.921   3.513
 9461SOL    HW129282   6.434   1.907   3.611
 9461SOL    HW229283   6.413   1.845   3.461
 9462SOL     OW29284   2.197   4.125   3.096
 9462SOL    HW129285   2.130   4.199   3.099
 9462SOL    HW229286   2.225   4.109   3.001
 9463SOL     OW29287   0.367   1.012   1.748
 9463SOL    HW129288   0.314   1.002   1.664
 9463SOL    HW229289   0.346   1.101   1.790
 9464SOL     OW29290   5.795   6.209   0.507
 9464SOL    HW129291   5.837   6.159   0.432
 9464SOL    HW229292   5.850   6.198   0.590
 9465SOL     OW29293   0.175   6.531   3.318
 9465SOL    HW129294   0.125   6.481   3.248
 9465SOL    HW229295   0.233   6.468   3.369
 9466SOL     OW29296   3.768   3.664   5.231
 9466SOL    HW129297   3.763   3.761   5.252
 9466SOL    HW229298   3.752   3.650   5.133
 9467SOL     OW29299   1.041   2.685   1.988
 9467SOL    HW129300   1.026   2.670   1.890
 9467SOL    HW229301   1.129   2.646   2.014
 9468SOL     OW29302   5.788   2.135   6.449
 9468SOL    HW129303   5.763   2.224   6.411
 9468SOL    HW229304   5.717   2.103   6.511
 9469SOL     OW29305   6.412   5.533   1.464
 9469SOL    HW129306   6.363   5.446   1.468
 9469SOL    HW229307   6.510   5.516   1.463
 9470SOL     OW29308   5.636   2.911   5.934
 9470SOL    HW129309   5.631   3.011   5.940
 9470SOL    HW229310   5.731   2.882   5.948
 9471SOL     OW29311   5.877   2.009   4.684
 9471SOL    HW129312   5.836   2.081   4.628
 9471SOL    HW229313   5.836   1.921   4.658
 9472SOL     OW29314   6.980   3.943   4.058
 9472SOL    HW129315   6.900   3.941   4.118
 9472SOL    HW229316   6.993   4.036   4.024
 9473SOL     OW29317   3.377   6.125   5.805
 9473SOL    HW129318   3.394   6.039   5.757
 9473SOL    HW229319   3.432   6.127   5.889
 9474SOL     OW29320   6.542   3.347   0.520
 9474SOL    HW129321   6.486   3.412   0.571
 9474SOL    HW229322   6.484   3.276   0.480
 9475SOL     OW29323   2.831   3.426   0.501
 9475SOL    HW129324   2.782   3.512   0.516
 9475SOL    HW229325   2.917   3.445   0.455
 9476SOL     OW29326   3.467   3.828   5.257
 9476SOL    HW129327   3.437   3.899   5.193
 9476SOL    HW229328   3.394   3.760   5.267
 9477SOL     OW29329   0.131   2.978   2.276
 9477SOL    HW129330   0.174   2.925   2.349
 9477SOL    HW229331   0.150   2.936   2.187
 9478SOL     OW29332   5.803   3.212   6.656
 9478SOL    HW129333   5.771   3.127   6.614
 9478SOL    HW229334   5.738   3.242   6.725
 9479SOL     OW29335   5.885   6.160   6.501
 9479SOL    HW129336   5.832   6.228   6.553
 9479SOL    HW229337   5.944   6.110   6.564
 9480SOL     OW29338   4.332   4.647   0.006
 9480SOL    HW129339   4.309   4.568   6.974
 9480SOL    HW229340   4.398   4.705   6.983
 9481SOL     OW29341   5.709   3.689   1.230
 9481SOL    HW129342   5.688   3.783   1.258
 9481SOL    HW229343   5.803   3.667   1.255
 9482SOL     OW29344   5.693   1.583   3.397
 9482SOL    HW129345   5.638   1.661   3.428
 9482SOL    HW229346   5.745   1.610   3.315
 9483SOL     OW29347   1.262   2.119   0.496
 9483SOL    HW129348   1.181   2.108   0.438
 9483SOL    HW229349   1.308   2.031   0.505
 9484SOL     OW29350   4.470   1.139   3.300
 9484SOL    HW129351   4.485   1.040   3.301
 9484SOL    HW229352   4.444   1.170   3.391
 9485SOL     OW29353   1.035   6.935   2.148
 9485SOL    HW129354   1.116   6.987   2.119
 9485SOL    HW229355   0.953   6.988   2.127
 9486SOL     OW29356   2.426   4.827   1.563
 9486SOL    HW129357   2.360   4.823   1.488
 9486SOL    HW229358   2.462   4.735   1.581
 9487SOL     OW29359   2.910   3.742   3.302
 9487SOL    HW129360   2.931   3.682   3.224
 9487SOL    HW229361   2.917   3.837   3.273
 9488SOL     OW29362   2.866   6.402   1.029
 9488SOL    HW129363   2.799   6.332   1.057
 9488SOL    HW229364   2.956   6.359   1.020
 9489SOL     OW29365   3.847   4.084   1.421
 9489SOL    HW129366   3.867   4.007   1.360
 9489SOL    HW229367   3.867   4.058   1.515
 9490SOL     OW29368   6.426   6.450   0.224
 9490SOL    HW129369   6.402   6.543   0.198
 9490SOL    HW229370   6.422   6.391   0.144
 9491SOL     OW29371   0.578   4.640   3.605
 9491SOL    HW129372   0.563   4.676   3.513
 9491SOL    HW229373   0.502   4.667   3.664
 9492SOL     OW29374   3.251   3.692   2.581
 9492SOL    HW129375   3.273   3.738   2.495
 9492SOL    HW229376   3.243   3.760   2.654
 9493SOL     OW29377   4.063   5.057   4.138
 9493SOL    HW129378   4.036   4.967   4.103
 9493SOL    HW229379   4.159   5.075   4.115
 9494SOL     OW29380   4.570   4.320   1.147
 9494SOL    HW129381   4.640   4.380   1.108
 9494SOL    HW229382   4.515   4.372   1.212
 9495SOL     OW29383   5.958   1.897   4.372
 9495SOL    HW129384   5.914   1.971   4.422
 9495SOL    HW229385   6.014   1.843   4.435
 9496SOL     OW29386   5.862   4.566   0.411
 9496SOL    HW129387   5.864   4.466   0.413
 9496SOL    HW229388   5.776   4.596   0.368
 9497SOL     OW29389   5.246   4.509   0.053
 9497SOL    HW129390   5.314   4.522   7.005
 9497SOL    HW229391   5.168   4.568   0.035
 9498SOL     OW29392   5.672   0.947   6.276
 9498SOL    HW129393   5.745   0.921   6.213
 9498SOL    HW229394   5.645   0.868   6.330
 9499SOL     OW29395   2.082   3.343   5.808
 9499SOL    HW129396   2.074   3.340   5.709
 9499SOL    HW229397   2.129   3.261   5.840
 9500SOL     OW29398   3.598   0.044   1.530
 9500SOL    HW129399   3.579   0.141   1.518
 9500SOL    HW229400   3.683   0.032   1.582
 9501SOL     OW29401   2.617   1.381   4.210
 9501SOL    HW129402   2.662   1.292   4.198
 9501SOL    HW229403   2.683   1.446   4.247
 9502SOL     OW29404   0.363   1.999   4.377
 9502SOL    HW129405   0.333   1.919   4.429
 9502SOL    HW229406   0.406   1.969   4.292
 9503SOL     OW29407   0.872   1.542   1.441
 9503SOL    HW129408   0.805   1.608   1.406
 9503SOL    HW229409   0.825   1.462   1.477
 9504SOL     OW29410   0.643   2.272   1.075
 9504SOL    HW129411   0.615   2.286   0.980
 9504SOL    HW229412   0.702   2.191   1.080
 9505SOL     OW29413   5.218   4.362   3.382
 9505SOL    HW129414   5.197   4.282   3.325
 9505SOL    HW229415   5.164   4.440   3.351
 9506SOL     OW29416   0.059   3.463   6.597
 9506SOL    HW129417   0.041   3.365   6.605
 9506SOL    HW229418   0.115   3.480   6.516
 9507SOL     OW29419   1.529   1.046   3.601
 9507SOL    HW129420   1.619   1.081   3.625
 9507SOL    HW229421   1.517   0.955   3.640
 9508SOL     OW29422   6.101   2.831   0.592
 9508SOL    HW129423   6.028   2.835   0.660
 9508SOL    HW229424   6.062   2.809   0.503
 9509SOL     OW29425   1.042   7.017   5.631
 9509SOL    HW129426   1.132   7.018   5.674
 9509SOL    HW229427   1.041   0.057   5.554
 9510SOL     OW29428   0.914   4.086   1.475
 9510SOL    HW129429   0.951   4.176   1.450
 9510SOL    HW229430   0.984   4.034   1.525
 9511SOL     OW29431   0.993   1.578   6.985
 9511SOL    HW129432   1.089   1.566   6.960
 9511SOL    HW229433   0.967   1.508   0.026
 9512SOL     OW29434   5.521   1.816   2.960
 9512SOL    HW129435   5.563   1.840   3.047
 9512SOL    HW229436   5.466   1.893   2.927
 9513SOL     OW29437   1.251   2.967   5.134
 9513SOL    HW129438   1.349   2.986   5.132
 9513SOL    HW229439   1.235   2.870   5.120
 9514SOL     OW29440   1.582   3.786   6.587
 9514SOL    HW129441   1.612   3.877   6.558
 9514SOL    HW229442   1.539   3.740   6.510
 9515SOL     OW29443   1.690   5.729   0.169
 9515SOL    HW129444   1.665   5.732   0.072
 9515SOL    HW229445   1.715   5.636   0.195
 9516SOL     OW29446   5.165   3.487   4.708
 9516SOL    HW129447   5.148   3.556   4.778
 9516SOL    HW229448   5.081   3.473   4.654
 9517SOL     OW29449   1.302   5.400   0.077
 9517SOL    HW129450   1.305   5.410   7.002
 9517SOL    HW229451   1.395   5.391   0.112
 9518SOL     OW29452   0.684   2.168   6.739
 9518SOL    HW129453   0.706   2.083   6.693
 9518SOL    HW229454   0.714   2.164   6.835
 9519SOL     OW29455   4.030   3.405   3.525
 9519SOL    HW129456   4.040   3.306   3.513
 9519SOL    HW229457   4.040   3.450   3.437
 9520SOL     OW29458   6.840   1.342   3.350
 9520SOL    HW129459   6.802   1.292   3.428
 9520SOL    HW229460   6.785   1.424   3.333
 9521SOL     OW29461   3.128   3.806   1.323
 9521SOL    HW129462   3.124   3.802   1.423
 9521SOL    HW229463   3.180   3.886   1.295
 9522SOL     OW29464   3.900   5.847   2.795
 9522SOL    HW129465   3.937   5.841   2.887
 9522SOL    HW229466   3.866   5.940   2.779
 9523SOL     OW29467   2.614   5.023   5.117
 9523SOL    HW129468   2.603   5.122   5.129
 9523SOL    HW229469   2.618   5.001   5.020
 9524SOL     OW29470   1.809   2.859   0.700
 9524SOL    HW129471   1.788   2.761   0.702
 9524SOL    HW229472   1.738   2.909   0.748
 9525SOL     OW29473   1.202   2.196   4.943
 9525SOL    HW129474   1.118   2.249   4.934
 9525SOL    HW229475   1.206   2.154   5.034
 9526SOL     OW29476   6.130   4.383   1.429
 9526SOL    HW129477   6.054   4.446   1.415
 9526SOL    HW229478   6.131   4.352   1.524
 9527SOL     OW29479   2.917   0.801   5.018
 9527SOL    HW129480   2.828   0.756   5.024
 9527SOL    HW229481   2.918   0.883   5.075
 9528SOL     OW29482   6.280   1.332   0.908
 9528SOL    HW129483   6.340   1.402   0.869
 9528SOL    HW229484   6.187   1.369   0.918
 9529SOL     OW29485   5.898   3.838   6.785
 9529SOL    HW129486   5.887   3.754   6.733
 9529SOL    HW229487   5.885   3.818   6.883
 9530SOL     OW29488   0.786   4.282   3.899
 9530SOL    HW129489   0.775   4.242   3.990
 9530SOL    HW229490   0.761   4.215   3.829
 9531SOL     OW29491   4.770   4.177   2.442
 9531SOL    HW129492   4.870   4.169   2.447
 9531SOL    HW229493   4.737   4.138   2.356
 9532SOL     OW29494   0.245   5.383   1.308
 9532SOL    HW129495   0.336   5.388   1.266
 9532SOL    HW229496   0.230   5.291   1.344
 9533SOL     OW29497   1.082   5.421   3.923
 9533SOL    HW129498   1.086   5.473   4.008
 9533SOL    HW229499   1.067   5.483   3.846
 9534SOL     OW29500   5.781   4.389   4.535
 9534SOL    HW129501   5.737   4.299   4.541
 9534SOL    HW229502   5.876   4.378   4.507
 9535SOL     OW29503   1.832   1.172   6.022
 9535SOL    HW129504   1.823   1.161   5.923
 9535SOL    HW229505   1.745   1.202   6.061
 9536SOL     OW29506   3.005   3.697   5.551
 9536SOL    HW129507   3.041   3.670   5.640
 9536SOL    HW229508   3.076   3.685   5.481
 9537SOL     OW29509   2.430   1.064   4.883
 9537SOL    HW129510   2.378   1.146   4.904
 9537SOL    HW229511   2.518   1.089   4.843
 9538SOL     OW29512   5.040   0.301   4.819
 9538SOL    HW129513   4.979   0.237   4.866
 9538SOL    HW229514   5.134   0.286   4.849
 9539SOL     OW29515   2.875   3.670   4.375
 9539SOL    HW129516   2.844   3.687   4.468
 9539SOL    HW229517   2.876   3.756   4.324
 9540SOL     OW29518   5.582   4.902   4.597
 9540SOL    HW129519   5.490   4.879   4.628
 9540SOL    HW229520   5.642   4.822   4.606
 9541SOL     OW29521   2.819   0.969   6.322
 9541SOL    HW129522   2.800   0.871   6.311
 9541SOL    HW229523   2.762   1.021   6.258
 9542SOL     OW29524   5.154   4.558   4.402
 9542SOL    HW129525   5.209   4.641   4.405
 9542SOL    HW229526   5.057   4.583   4.410
 9543SOL     OW29527   3.915   1.009   6.401
 9543SOL    HW129528   3.975   1.080   6.437
 9543SOL    HW229529   3.939   0.990   6.305
 9544SOL     OW29530   5.839   3.014   4.001
 9544SOL    HW129531   5.775   3.088   3.981
 9544SOL    HW229532   5.792   2.926   3.998
 9545SOL     OW29533   5.611   5.574   2.575
 9545SOL    HW129534   5.589   5.621   2.660
 9545SOL    HW229535   5.709   5.557   2.571
 9546SOL     OW29536   4.044   1.309   6.233
 9546SOL    HW129537   3.982   1.340   6.161
 9546SOL    HW229538   3.992   1.291   6.317
 9547SOL     OW29539   2.494   5.132   4.018
 9547SOL    HW129540   2.427   5.164   3.951
 9547SOL    HW229541   2.547   5.057   3.980
 9548SOL     OW29542   0.098   5.061   4.745
 9548SOL    HW129543   0.102   5.091   4.841
 9548SOL    HW229544   0.091   5.141   4.685
 9549SOL     OW29545   3.297   1.468   1.556
 9549SOL    HW129546   3.310   1.491   1.653
 9549SOL    HW229547   3.364   1.517   1.501
 9550SOL     OW29548   0.011   1.170   0.259
 9550SOL    HW129549   0.058   1.254   0.285
 9550SOL    HW229550   0.061   1.091   0.295
 9551SOL     OW29551   5.611   3.164   5.959
 9551SOL    HW129552   5.519   3.193   5.983
 9551SOL    HW229553   5.663   3.242   5.923
 9552SOL     OW29554   2.408   5.909   5.512
 9552SOL    HW129555   2.386   5.811   5.509
 9552SOL    HW229556   2.352   5.958   5.445
 9553SOL     OW29557   5.884   2.061   0.324
 9553SOL    HW129558   5.876   2.022   0.415
 9553SOL    HW229559   5.908   2.158   0.331
 9554SOL     OW29560   1.702   6.375   3.411
 9554SOL    HW129561   1.654   6.419   3.487
 9554SOL    HW229562   1.758   6.443   3.364
 9555SOL     OW29563   0.123   0.944   2.734
 9555SOL    HW129564   0.127   0.865   2.795
 9555SOL    HW229565   0.194   1.010   2.759
 9556SOL     OW29566   1.410   3.932   0.952
 9556SOL    HW129567   1.319   3.897   0.972
 9556SOL    HW229568   1.404   4.005   0.884
 9557SOL     OW29569   5.631   6.916   1.448
 9557SOL    HW129570   5.624   6.927   1.548
 9557SOL    HW229571   5.605   6.823   1.423
 9558SOL     OW29572   5.950   5.638   5.232
 9558SOL    HW129573   5.999   5.631   5.319
 9558SOL    HW229574   5.950   5.733   5.201
 9559SOL     OW29575   0.668   4.923   0.581
 9559SOL    HW129576   0.716   4.993   0.529
 9559SOL    HW229577   0.570   4.944   0.583
 9560SOL     OW29578   2.315   1.090   2.795
 9560SOL    HW129579   2.409   1.107   2.765
 9560SOL    HW229580   2.251   1.127   2.728
 9561SOL     OW29581   0.972   1.007   1.394
 9561SOL    HW129582   0.975   0.983   1.491
 9561SOL    HW229583   1.042   1.075   1.374
 9562SOL     OW29584   2.937   0.192   4.888
 9562SOL    HW129585   2.891   0.239   4.964
 9562SOL    HW229586   3.031   0.227   4.881
 9563SOL     OW29587   0.023   0.166   0.449
 9563SOL    HW129588   6.962   0.122   0.423
 9563SOL    HW229589   0.014   0.206   0.540
 9564SOL     OW29590   2.519   0.800   0.165
 9564SOL    HW129591   2.594   0.839   0.220
 9564SOL    HW229592   2.432   0.837   0.197
 9565SOL     OW29593   3.865   0.617   5.153
 9565SOL    HW129594   3.782   0.659   5.115
 9565SOL    HW229595   3.842   0.562   5.233
 9566SOL     OW29596   3.184   5.610   6.729
 9566SOL    HW129597   3.272   5.656   6.742
 9566SOL    HW229598   3.178   5.576   6.636
 9567SOL     OW29599   4.968   4.777   0.764
 9567SOL    HW129600   4.999   4.728   0.846
 9567SOL    HW229601   4.876   4.746   0.741
 9568SOL     OW29602   4.556   2.020   6.387
 9568SOL    HW129603   4.502   1.942   6.356
 9568SOL    HW229604   4.640   1.988   6.429
 9569SOL     OW29605   6.531   1.405   2.590
 9569SOL    HW129606   6.606   1.344   2.561
 9569SOL    HW229607   6.454   1.349   2.622
 9570SOL     OW29608   0.443   3.305   1.482
 9570SOL    HW129609   0.436   3.400   1.515
 9570SOL    HW229610   0.429   3.304   1.383
 9571SOL     OW29611   3.485   3.068   5.967
 9571SOL    HW129612   3.463   2.972   5.986
 9571SOL    HW229613   3.577   3.075   5.930
 9572SOL     OW29614   2.290   5.144   2.130
 9572SOL    HW129615   2.259   5.182   2.044
 9572SOL    HW229616   2.318   5.049   2.117
 9573SOL     OW29617   1.053   2.261   6.743
 9573SOL    HW129618   1.053   2.231   6.647
 9573SOL    HW229619   1.026   2.185   6.801
 9574SOL     OW29620   3.788   3.166   2.957
 9574SOL    HW129621   3.804   3.255   2.915
 9574SOL    HW229622   3.747   3.104   2.890
 9575SOL     OW29623   0.911   0.967   1.693
 9575SOL    HW129624   0.817   1.000   1.695
 9575SOL    HW229625   0.916   0.876   1.735
 9576SOL     OW29626   2.352   1.546   0.501
 9576SOL    HW129627   2.345   1.624   0.439
 9576SOL    HW229628   2.318   1.464   0.456
 9577SOL     OW29629   0.854   0.689   5.977
 9577SOL    HW129630   0.929   0.639   6.021
 9577SOL    HW229631   0.801   0.627   5.921
 9578SOL     OW29632   1.085   3.751   2.660
 9578SOL    HW129633   1.113   3.701   2.578
 9578SOL    HW229634   1.166   3.770   2.717
 9579SOL     OW29635   0.672   4.869   3.896
 9579SOL    HW129636   0.745   4.806   3.870
 9579SOL    HW229637   0.635   4.913   3.815
 9580SOL     OW29638   4.358   3.282   0.951
 9580SOL    HW129639   4.267   3.243   0.942
 9580SOL    HW229640   4.365   3.365   0.896
 9581SOL     OW29641   0.613   0.083   6.052
 9581SOL    HW129642   0.676   0.148   6.095
 9581SOL    HW229643   0.519   0.115   6.065
 9582SOL     OW29644   4.825   5.099   5.067
 9582SOL    HW129645   4.751   5.049   5.113
 9582SOL    HW229646   4.908   5.043   5.068
 9583SOL     OW29647   3.121   3.669   1.604
 9583SOL    HW129648   3.214   3.702   1.619
 9583SOL    HW229649   3.120   3.607   1.525
 9584SOL     OW29650   0.375   4.781   6.277
 9584SOL    HW129651   0.307   4.839   6.234
 9584SOL    HW229652   0.330   4.707   6.328
 9585SOL     OW29653   6.229   6.543   4.049
 9585SOL    HW129654   6.227   6.446   4.024
 9585SOL    HW229655   6.292   6.592   3.989
 9586SOL     OW29656   5.025   5.175   2.240
 9586SOL    HW129657   4.942   5.126   2.210
 9586SOL    HW229658   5.086   5.186   2.161
 9587SOL     OW29659   1.245   0.288   1.286
 9587SOL    HW129660   1.314   0.237   1.234
 9587SOL    HW229661   1.203   0.228   1.354
 9588SOL     OW29662   6.528   6.875   1.921
 9588SOL    HW129663   6.548   6.968   1.951
 9588SOL    HW229664   6.593   6.847   1.851
 9589SOL     OW29665   2.352   5.031   6.818
 9589SOL    HW129666   2.333   5.112   6.763
 9589SOL    HW229667   2.378   5.058   6.911
 9590SOL     OW29668   5.988   3.089   1.974
 9590SOL    HW129669   5.912   3.081   1.909
 9590SOL    HW229670   5.990   3.009   2.033
 9591SOL     OW29671   2.772   5.508   5.589
 9591SOL    HW129672   2.862   5.545   5.567
 9591SOL    HW229673   2.774   5.408   5.583
 9592SOL     OW29674   2.922   4.452   0.483
 9592SOL    HW129675   2.891   4.478   0.392
 9592SOL    HW229676   2.872   4.371   0.514
 9593SOL     OW29677   0.360   0.966   5.839
 9593SOL    HW129678   0.413   0.966   5.924
 9593SOL    HW229679   0.408   0.914   5.769
 9594SOL     OW29680   1.655   5.195   3.435
 9594SOL    HW129681   1.715   5.275   3.426
 9594SOL    HW229682   1.701   5.115   3.396
 9595SOL     OW29683   0.576   2.658   4.334
 9595SOL    HW129684   0.515   2.585   4.303
 9595SOL    HW229685   0.528   2.746   4.326
 9596SOL     OW29686   0.585   5.185   6.173
 9596SOL    HW129687   0.492   5.192   6.210
 9596SOL    HW229688   0.596   5.096   6.128
 9597SOL     OW29689   0.073   4.537   1.119
 9597SOL    HW129690   0.149   4.507   1.062
 9597SOL    HW229691   7.023   4.472   1.112
 9598SOL     OW29692   1.466   4.565   3.627
 9598SOL    HW129693   1.511   4.654   3.613
 9598SOL    HW229694   1.385   4.559   3.567
 9599SOL     OW29695   3.032   0.521   4.712
 9599SOL    HW129696   3.046   0.620   4.710
 9599SOL    HW229697   2.941   0.499   4.678
 9600SOL     OW29698   2.861   6.835   6.814
 9600SOL    HW129699   2.868   6.736   6.821
 9600SOL    HW229700   2.770   6.865   6.842
 9601SOL     OW29701   4.531   4.036   0.782
 9601SOL    HW129702   4.567   4.003   0.695
 9601SOL    HW229703   4.607   4.065   0.841
 9602SOL     OW29704   6.293   4.507   5.501
 9602SOL    HW129705   6.233   4.437   5.463
 9602SOL    HW229706   6.380   4.465   5.529
 9603SOL     OW29707   4.389   1.401   4.750
 9603SOL    HW129708   4.485   1.385   4.773
 9603SOL    HW229709   4.364   1.347   4.670
 9604SOL     OW29710   4.754   0.298   0.123
 9604SOL    HW129711   4.664   0.337   0.106
 9604SOL    HW229712   4.796   0.270   0.036
 9605SOL     OW29713   0.990   6.161   3.628
 9605SOL    HW129714   0.989   6.065   3.656
 9605SOL    HW229715   0.917   6.210   3.676
 9606SOL     OW29716   2.566   6.118   6.869
 9606SOL    HW129717   2.645   6.057   6.879
 9606SOL    HW229718   2.564   6.182   6.945
 9607SOL     OW29719   1.511   1.723   6.946
 9607SOL    HW129720   1.461   1.800   6.985
 9607SOL    HW229721   1.548   1.748   6.857
 9608SOL     OW29722   6.633   5.651   2.497
 9608SOL    HW129723   6.603   5.723   2.559
 9608SOL    HW229724   6.655   5.569   2.549
 9609SOL     OW29725   1.858   4.073   6.654
 9609SOL    HW129726   1.781   4.044   6.597
 9609SOL    HW229727   1.944   4.059   6.604
 9610SOL     OW29728   2.031   4.831   3.535
 9610SOL    HW129729   2.020   4.930   3.524
 9610SOL    HW229730   1.941   4.787   3.533
 9611SOL     OW29731   0.899   6.517   6.609
 9611SOL    HW129732   0.985   6.559   6.638
 9611SOL    HW229733   0.843   6.497   6.690
 9612SOL     OW29734   0.364   4.110   1.207
 9612SOL    HW129735   0.451   4.080   1.246
 9612SOL    HW229736   0.355   4.074   1.114
 9613SOL     OW29737   5.398   0.373   3.721
 9613SOL    HW129738   5.346   0.458   3.724
 9613SOL    HW229739   5.459   0.375   3.641
 9614SOL     OW29740   3.574   2.393   1.196
 9614SOL    HW129741   3.536   2.366   1.285
 9614SOL    HW229742   3.500   2.398   1.129
 9615SOL     OW29743   2.649   6.940   0.020
 9615SOL    HW129744   2.561   6.915   0.059
 9615SOL    HW229745   2.722   6.918   0.084
 9616SOL     OW29746   3.944   3.891   0.820
 9616SOL    HW129747   3.919   3.984   0.791
 9616SOL    HW229748   4.027   3.894   0.875
 9617SOL     OW29749   1.239   3.300   3.246
 9617SOL    HW129750   1.324   3.332   3.288
 9617SOL    HW229751   1.234   3.201   3.252
 9618SOL     OW29752   3.658   6.884   6.316
 9618SOL    HW129753   3.593   6.856   6.387
 9618SOL    HW229754   3.653   6.821   6.239
 9619SOL     OW29755   1.497   6.633   6.811
 9619SOL    HW129756   1.512   6.727   6.781
 9619SOL    HW229757   1.478   6.633   6.909
 9620SOL     OW29758   4.593   0.970   6.071
 9620SOL    HW129759   4.606   0.907   6.147
 9620SOL    HW229760   4.624   1.061   6.097
 9621SOL     OW29761   0.920   1.367   2.181
 9621SOL    HW129762   0.855   1.335   2.250
 9621SOL    HW229763   0.880   1.355   2.090
 9622SOL     OW29764   0.259   1.012   0.807
 9622SOL    HW129765   0.311   0.994   0.891
 9622SOL    HW229766   0.256   0.930   0.751
 9623SOL     OW29767   2.941   3.909   5.696
 9623SOL    HW129768   2.925   3.826   5.642
 9623SOL    HW229769   2.909   3.989   5.645
 9624SOL     OW29770   0.067   4.276   2.267
 9624SOL    HW129771   0.090   4.325   2.351
 9624SOL    HW229772   0.131   4.201   2.254
 9625SOL     OW29773   4.874   5.331   6.707
 9625SOL    HW129774   4.888   5.414   6.760
 9625SOL    HW229775   4.830   5.262   6.764
 9626SOL     OW29776   3.636   4.787   0.062
 9626SOL    HW129777   3.674   4.861   0.117
 9626SOL    HW229778   3.619   4.707   0.121
 9627SOL     OW29779   6.653   5.678   4.154
 9627SOL    HW129780   6.723   5.676   4.083
 9627SOL    HW229781   6.601   5.763   4.147
 9628SOL     OW29782   4.986   4.623   7.021
 9628SOL    HW129783   4.968   4.644   6.925
 9628SOL    HW229784   4.960   4.529   0.016
 9629SOL     OW29785   0.261   0.109   2.134
 9629SOL    HW129786   0.248   0.087   2.231
 9629SOL    HW229787   0.357   0.098   2.110
 9630SOL     OW29788   6.281   6.686   5.229
 9630SOL    HW129789   6.276   6.590   5.255
 9630SOL    HW229790   6.289   6.743   5.311
 9631SOL     OW29791   6.942   6.625   6.694
 9631SOL    HW129792   6.985   6.715   6.686
 9631SOL    HW229793   7.012   6.555   6.706
 9632SOL     OW29794   1.146   6.797   3.066
 9632SOL    HW129795   1.090   6.744   3.131
 9632SOL    HW229796   1.195   6.868   3.116
 9633SOL     OW29797   5.231   4.646   6.006
 9633SOL    HW129798   5.176   4.722   5.971
 9633SOL    HW229799   5.262   4.590   5.929
 9634SOL     OW29800   1.390   5.594   3.726
 9634SOL    HW129801   1.387   5.498   3.698
 9634SOL    HW229802   1.483   5.628   3.719
 9635SOL     OW29803   1.872   4.879   5.495
 9635SOL    HW129804   1.930   4.811   5.450
 9635SOL    HW229805   1.778   4.870   5.461
 9636SOL     OW29806   4.430   1.646   6.120
 9636SOL    HW129807   4.411   1.549   6.108
 9636SOL    HW229808   4.383   1.698   6.049
 9637SOL     OW29809   2.648   2.323   6.239
 9637SOL    HW129810   2.715   2.277   6.298
 9637SOL    HW229811   2.696   2.366   6.162
 9638SOL     OW29812   6.519   3.448   6.539
 9638SOL    HW129813   6.599   3.427   6.596
 9638SOL    HW229814   6.480   3.535   6.568
 9639SOL     OW29815   3.512   1.695   2.252
 9639SOL    HW129816   3.555   1.679   2.340
 9639SOL    HW229817   3.566   1.652   2.180
 9640SOL     OW29818   2.441   2.579   3.183
 9640SOL    HW129819   2.459   2.527   3.100
 9640SOL    HW229820   2.517   2.569   3.247
 9641SOL     OW29821   4.127   6.577   0.980
 9641SOL    HW129822   4.225   6.595   0.966
 9641SOL    HW229823   4.099   6.616   1.067
 9642SOL     OW29824   3.886   6.493   4.906
 9642SOL    HW129825   3.896   6.593   4.904
 9642SOL    HW229826   3.798   6.467   4.866
 9643SOL     OW29827   5.132   5.382   3.805
 9643SOL    HW129828   5.037   5.353   3.792
 9643SOL    HW229829   5.136   5.455   3.873
 9644SOL     OW29830   1.231   4.269   5.280
 9644SOL    HW129831   1.268   4.317   5.201
 9644SOL    HW229832   1.279   4.299   5.363
 9645SOL     OW29833   3.664   5.571   3.319
 9645SOL    HW129834   3.678   5.568   3.418
 9645SOL    HW229835   3.705   5.490   3.277
 9646SOL     OW29836   2.979   4.810   2.057
 9646SOL    HW129837   2.930   4.743   2.000
 9646SOL    HW229838   2.933   4.818   2.145
 9647SOL     OW29839   5.889   5.373   1.191
 9647SOL    HW129840   5.869   5.275   1.188
 9647SOL    HW229841   5.897   5.402   1.287
 9648SOL     OW29842   4.373   1.747   6.963
 9648SOL    HW129843   4.312   1.753   6.884
 9648SOL    HW229844   4.421   1.660   6.961
 9649SOL     OW29845   2.636   6.646   6.711
 9649SOL    HW129846   2.557   6.592   6.741
 9649SOL    HW229847   2.615   6.744   6.720
 9650SOL     OW29848   5.629   5.208   2.651
 9650SOL    HW129849   5.622   5.124   2.599
 9650SOL    HW229850   5.725   5.237   2.656
 9651SOL     OW29851   6.830   1.067   6.284
 9651SOL    HW129852   6.901   1.069   6.214
 9651SOL    HW229853   6.854   1.000   6.355
 9652SOL     OW29854   2.200   4.592   0.970
 9652SOL    HW129855   2.239   4.535   0.897
 9652SOL    HW229856   2.102   4.601   0.957
 9653SOL     OW29857   3.816   5.224   4.680
 9653SOL    HW129858   3.867   5.269   4.607
 9653SOL    HW229859   3.757   5.291   4.725
 9654SOL     OW29860   3.634   3.527   1.373
 9654SOL    HW129861   3.570   3.458   1.406
 9654SOL    HW229862   3.651   3.514   1.275
 9655SOL     OW29863   0.011   1.762   6.884
 9655SOL    HW129864   0.105   1.791   6.864
 9655SOL    HW229865   6.985   1.839   6.922
 9656SOL     OW29866   2.911   2.328   1.088
 9656SOL    HW129867   2.832   2.279   1.125
 9656SOL    HW229868   2.930   2.408   1.145
 9657SOL     OW29869   6.302   0.945   4.410
 9657SOL    HW129870   6.368   0.998   4.357
 9657SOL    HW229871   6.277   0.863   4.360
 9658SOL     OW29872   6.395   2.330   2.505
 9658SOL    HW129873   6.462   2.386   2.456
 9658SOL    HW229874   6.437   2.295   2.589
 9659SOL     OW29875   6.585   4.421   0.106
 9659SOL    HW129876   6.663   4.473   0.142
 9659SOL    HW229877   6.534   4.478   0.042
 9660SOL     OW29878   0.772   5.823   0.674
 9660SOL    HW129879   0.788   5.825   0.575
 9660SOL    HW229880   0.674   5.833   0.692
 9661SOL     OW29881   3.690   6.439   2.348
 9661SOL    HW129882   3.657   6.534   2.348
 9661SOL    HW229883   3.743   6.422   2.430
 9662SOL     OW29884   5.565   2.046   4.822
 9662SOL    HW129885   5.653   2.046   4.871
 9662SOL    HW229886   5.510   2.122   4.854
 9663SOL     OW29887   0.842   5.708   4.253
 9663SOL    HW129888   0.829   5.643   4.327
 9663SOL    HW229889   0.766   5.702   4.189
 9664SOL     OW29890   6.454   6.760   3.659
 9664SOL    HW129891   6.401   6.828   3.608
 9664SOL    HW229892   6.551   6.783   3.654
 9665SOL     OW29893   5.288   5.871   6.035
 9665SOL    HW129894   5.258   5.886   5.941
 9665SOL    HW229895   5.377   5.826   6.035
 9666SOL     OW29896   5.536   4.216   2.362
 9666SOL    HW129897   5.528   4.316   2.362
 9666SOL    HW229898   5.630   4.191   2.338
 9667SOL     OW29899   3.208   2.913   4.432
 9667SOL    HW129900   3.177   2.818   4.425
 9667SOL    HW229901   3.210   2.955   4.342
 9668SOL     OW29902   5.785   1.043   6.959
 9668SOL    HW129903   5.769   1.044   6.860
 9668SOL    HW229904   5.712   1.093   7.005
 9669SOL     OW29905   1.142   0.283   1.758
 9669SOL    HW129906   1.080   0.300   1.682
 9669SOL    HW229907   1.210   0.214   1.730
 9670SOL     OW29908   4.995   4.639   6.229
 9670SOL    HW129909   4.899   4.646   6.201
 9670SOL    HW229910   5.053   4.651   6.149
 9671SOL     OW29911   0.183   5.397   6.246
 9671SOL    HW129912   0.085   5.413   6.256
 9671SOL    HW229913   0.230   5.484   6.234
 9672SOL     OW29914   1.105   6.070   4.719
 9672SOL    HW129915   1.169   6.058   4.795
 9672SOL    HW229916   1.027   6.125   4.749
 9673SOL     OW29917   5.432   4.119   6.937
 9673SOL    HW129918   5.436   4.083   0.006
 9673SOL    HW229919   5.524   4.147   6.909
 9674SOL     OW29920   2.743   6.665   3.499
 9674SOL    HW129921   2.680   6.587   3.491
 9674SOL    HW229922   2.692   6.750   3.488
 9675SOL     OW29923   5.870   1.876   1.417
 9675SOL    HW129924   5.954   1.924   1.442
 9675SOL    HW229925   5.812   1.866   1.497
 9676SOL     OW29926   1.370   3.638   5.268
 9676SOL    HW129927   1.371   3.541   5.293
 9676SOL    HW229928   1.293   3.656   5.207
 9677SOL     OW29929   2.433   5.541   5.893
 9677SOL    HW129930   2.455   5.504   5.803
 9677SOL    HW229931   2.388   5.470   5.948
 9678SOL     OW29932   3.098   3.912   2.417
 9678SOL    HW129933   3.032   3.840   2.439
 9678SOL    HW229934   3.068   3.962   2.337
 9679SOL     OW29935   1.830   1.255   2.727
 9679SOL    HW129936   1.797   1.306   2.807
 9679SOL    HW229937   1.791   1.294   2.644
 9680SOL     OW29938   5.913   0.403   4.145
 9680SOL    HW129939   5.954   0.415   4.236
 9680SOL    HW229940   5.974   0.349   4.088
 9681SOL     OW29941   2.981   1.063   0.698
 9681SOL    HW129942   2.908   1.001   0.725
 9681SOL    HW229943   3.047   1.014   0.641
 9682SOL     OW29944   4.760   5.177   3.923
 9682SOL    HW129945   4.791   5.262   3.965
 9682SOL    HW229946   4.684   5.196   3.861
 9683SOL     OW29947   3.052   5.142   0.857
 9683SOL    HW129948   3.130   5.148   0.795
 9683SOL    HW229949   3.076   5.181   0.945
 9684SOL     OW29950   6.897   2.344   5.263
 9684SOL    HW129951   6.918   2.428   5.214
 9684SOL    HW229952   6.798   2.337   5.276
 9685SOL     OW29953   1.929   3.353   0.749
 9685SOL    HW129954   1.889   3.435   0.791
 9685SOL    HW229955   2.026   3.349   0.771
 9686SOL     OW29956   5.660   2.257   0.757
 9686SOL    HW129957   5.641   2.336   0.698
 9686SOL    HW229958   5.639   2.282   0.852
 9687SOL     OW29959   2.226   0.770   3.794
 9687SOL    HW129960   2.304   0.812   3.746
 9687SOL    HW229961   2.252   0.678   3.823
 9688SOL     OW29962   6.887   2.426   3.480
 9688SOL    HW129963   6.881   2.329   3.501
 9688SOL    HW229964   6.954   2.469   3.540
 9689SOL     OW29965   2.049   6.120   0.921
 9689SOL    HW129966   2.115   6.190   0.948
 9689SOL    HW229967   2.096   6.032   0.913
 9690SOL     OW29968   5.695   5.641   6.601
 9690SOL    HW129969   5.612   5.627   6.653
 9690SOL    HW229970   5.714   5.560   6.545
 9691SOL     OW29971   2.518   4.563   1.582
 9691SOL    HW129972   2.454   4.490   1.559
 9691SOL    HW229973   2.606   4.523   1.607
 9692SOL     OW29974   3.079   4.862   2.695
 9692SOL    HW129975   3.041   4.951   2.667
 9692SOL    HW229976   3.009   4.810   2.743
 9693SOL     OW29977   6.247   5.318   1.489
 9693SOL    HW129978   6.263   5.220   1.475
 9693SOL    HW229979   6.153   5.340   1.461
 9694SOL     OW29980   2.262   1.245   5.888
 9694SOL    HW129981   2.283   1.157   5.931
 9694SOL    HW229982   2.339   1.274   5.831
 9695SOL     OW29983   0.016   3.705   1.510
 9695SOL    HW129984   6.957   3.751   1.479
 9695SOL    HW229985   0.034   3.626   1.452
 9696SOL     OW29986   5.096   2.146   1.062
 9696SOL    HW129987   5.080   2.235   1.020
 9696SOL    HW229988   5.035   2.135   1.141
 9697SOL     OW29989   6.796   5.772   6.917
 9697SOL    HW129990   6.697   5.770   6.924
 9697SOL    HW229991   6.826   5.706   6.848
 9698SOL     OW29992   5.592   1.552   6.127
 9698SOL    HW129993   5.565   1.629   6.069
 9698SOL    HW229994   5.555   1.467   6.089
 9699SOL     OW29995   0.564   4.421   6.847
 9699SOL    HW129996   0.623   4.341   6.850
 9699SOL    HW229997   0.598   4.486   6.779
 9700SOL     OW29998   4.029   5.601   5.190
 9700SOL    HW129999   4.085   5.555   5.259
 9700SOL    HW230000   4.086   5.627   5.112
 9701SOL     OW30001   3.887   5.032   4.856
 9701SOL    HW130002   3.869   5.032   4.954
 9701SOL    HW230003   3.853   5.117   4.815
 9702SOL     OW30004   5.220   0.393   0.370
 9702SOL    HW130005   5.194   0.482   0.331
 9702SOL    HW230006   5.159   0.371   0.446
 9703SOL     OW30007   4.043   5.686   3.588
 9703SOL    HW130008   4.113   5.756   3.575
 9703SOL    HW230009   4.079   5.613   3.645
 9704SOL     OW30010   3.240   1.105   1.987
 9704SOL    HW130011   3.154   1.080   1.943
 9704SOL    HW230012   3.228   1.189   2.039
 9705SOL     OW30013   4.916   5.761   0.351
 9705SOL    HW130014   5.004   5.739   0.308
 9705SOL    HW230015   4.921   5.740   0.449
 9706SOL     OW30016   1.205   2.600   0.536
 9706SOL    HW130017   1.280   2.535   0.550
 9706SOL    HW230018   1.117   2.552   0.543
 9707SOL     OW30019   6.467   3.965   1.798
 9707SOL    HW130020   6.408   4.026   1.746
 9707SOL    HW230021   6.563   3.992   1.786
 9708SOL     OW30022   0.985   1.907   2.935
 9708SOL    HW130023   0.986   1.816   2.975
 9708SOL    HW230024   1.076   1.930   2.900
 9709SOL     OW30025   5.906   5.576   2.813
 9709SOL    HW130026   5.966   5.536   2.744
 9709SOL    HW230027   5.895   5.674   2.794
 9710SOL     OW30028   0.312   1.864   2.311
 9710SOL    HW130029   0.342   1.884   2.404
 9710SOL    HW230030   0.218   1.830   2.314
 9711SOL     OW30031   1.740   3.017   5.743
 9711SOL    HW130032   1.797   3.097   5.721
 9711SOL    HW230033   1.680   2.997   5.665
 9712SOL     OW30034   5.521   3.839   5.598
 9712SOL    HW130035   5.606   3.863   5.644
 9712SOL    HW230036   5.444   3.849   5.662
 9713SOL     OW30037   1.231   4.580   3.455
 9713SOL    HW130038   1.195   4.654   3.511
 9713SOL    HW230039   1.155   4.522   3.425
 9714SOL     OW30040   2.551   1.654   1.546
 9714SOL    HW130041   2.544   1.554   1.549
 9714SOL    HW230042   2.600   1.681   1.463
 9715SOL     OW30043   5.917   4.692   5.803
 9715SOL    HW130044   5.911   4.712   5.705
 9715SOL    HW230045   5.866   4.761   5.854
 9716SOL     OW30046   3.712   2.709   6.854
 9716SOL    HW130047   3.736   2.652   6.932
 9716SOL    HW230048   3.654   2.785   6.885
 9717SOL     OW30049   5.797   5.505   5.946
 9717SOL    HW130050   5.782   5.603   5.934
 9717SOL    HW230051   5.749   5.474   6.028
 9718SOL     OW30052   4.968   3.073   1.835
 9718SOL    HW130053   4.883   3.056   1.884
 9718SOL    HW230054   5.044   3.071   1.899
 9719SOL     OW30055   0.403   2.181   6.805
 9719SOL    HW130056   0.494   2.213   6.781
 9719SOL    HW230057   0.376   2.105   6.745
 9720SOL     OW30058   0.476   5.599   1.641
 9720SOL    HW130059   0.470   5.532   1.715
 9720SOL    HW230060   0.500   5.689   1.679
 9721SOL     OW30061   1.139   2.844   1.175
 9721SOL    HW130062   1.047   2.831   1.211
 9721SOL    HW230063   1.135   2.888   1.085
 9722SOL     OW30064   0.313   0.080   3.536
 9722SOL    HW130065   0.369   0.096   3.454
 9722SOL    HW230066   0.302   7.007   3.551
 9723SOL     OW30067   2.363   6.065   3.602
 9723SOL    HW130068   2.318   6.106   3.523
 9723SOL    HW230069   2.338   5.968   3.609
 9724SOL     OW30070   2.911   3.234   0.696
 9724SOL    HW130071   2.845   3.159   0.702
 9724SOL    HW230072   2.881   3.299   0.626
 9725SOL     OW30073   4.040   3.827   6.572
 9725SOL    HW130074   3.966   3.773   6.613
 9725SOL    HW230075   4.087   3.771   6.504
 9726SOL     OW30076   4.331   6.464   4.031
 9726SOL    HW130077   4.246   6.472   4.083
 9726SOL    HW230078   4.377   6.378   4.056
 9727SOL     OW30079   0.816   3.597   5.152
 9727SOL    HW130080   0.866   3.672   5.109
 9727SOL    HW230081   0.870   3.558   5.226
 9728SOL     OW30082   0.682   0.270   6.446
 9728SOL    HW130083   0.708   0.174   6.455
 9728SOL    HW230084   0.639   0.284   6.357
 9729SOL     OW30085   1.061   4.583   2.393
 9729SOL    HW130086   1.006   4.505   2.423
 9729SOL    HW230087   1.005   4.646   2.340
 9730SOL     OW30088   0.361   3.196   2.598
 9730SOL    HW130089   0.320   3.278   2.638
 9730SOL    HW230090   0.410   3.145   2.668
 9731SOL     OW30091   4.521   4.361   0.351
 9731SOL    HW130092   4.455   4.292   0.381
 9731SOL    HW230093   4.477   4.451   0.350
 9732SOL     OW30094   5.140   5.795   3.123
 9732SOL    HW130095   5.146   5.831   3.217
 9732SOL    HW230096   5.054   5.826   3.081
 9733SOL     OW30097   5.340   4.921   6.135
 9733SOL    HW130098   5.275   4.860   6.088
 9733SOL    HW230099   5.289   4.992   6.184
 9734SOL     OW30100   5.261   2.212   3.609
 9734SOL    HW130101   5.321   2.280   3.651
 9734SOL    HW230102   5.190   2.258   3.556
 9735SOL     OW30103   1.673   4.596   2.628
 9735SOL    HW130104   1.619   4.513   2.642
 9735SOL    HW230105   1.769   4.572   2.613
 9736SOL     OW30106   6.489   1.470   6.082
 9736SOL    HW130107   6.469   1.490   6.178
 9736SOL    HW230108   6.548   1.389   6.076
 9737SOL     OW30109   6.683   3.152   4.923
 9737SOL    HW130110   6.594   3.107   4.922
 9737SOL    HW230111   6.715   3.166   4.829
 9738SOL     OW30112   1.852   0.250   2.912
 9738SOL    HW130113   1.853   0.347   2.887
 9738SOL    HW230114   1.770   0.207   2.874
 9739SOL     OW30115   6.446   5.402   1.853
 9739SOL    HW130116   6.493   5.401   1.941
 9739SOL    HW230117   6.464   5.316   1.805
 9740SOL     OW30118   6.858   3.331   3.444
 9740SOL    HW130119   6.916   3.251   3.461
 9740SOL    HW230120   6.822   3.327   3.351
 9741SOL     OW30121   4.521   1.433   2.344
 9741SOL    HW130122   4.425   1.408   2.332
 9741SOL    HW230123   4.535   1.527   2.312
 9742SOL     OW30124   4.312   6.903   2.667
 9742SOL    HW130125   4.326   6.994   2.704
 9742SOL    HW230126   4.389   6.878   2.608
 9743SOL     OW30127   1.658   1.816   4.974
 9743SOL    HW130128   1.595   1.793   4.900
 9743SOL    HW230129   1.723   1.885   4.942
 9744SOL     OW30130   0.323   7.011   2.762
 9744SOL    HW130131   0.307   0.046   2.841
 9744SOL    HW230132   0.234   6.983   2.724
 9745SOL     OW30133   6.695   2.842   6.013
 9745SOL    HW130134   6.724   2.895   5.934
 9745SOL    HW230135   6.706   2.896   6.096
 9746SOL     OW30136   6.056   1.293   6.563
 9746SOL    HW130137   5.966   1.337   6.559
 9746SOL    HW230138   6.119   1.342   6.503
 9747SOL     OW30139   2.051   0.854   1.489
 9747SOL    HW130140   2.150   0.856   1.474
 9747SOL    HW230141   2.031   0.808   1.575
 9748SOL     OW30142   1.257   0.944   4.180
 9748SOL    HW130143   1.193   0.961   4.106
 9748SOL    HW230144   1.213   0.890   4.251
 9749SOL     OW30145   2.368   1.966   4.970
 9749SOL    HW130146   2.345   1.869   4.979
 9749SOL    HW230147   2.342   1.999   4.880
 9750SOL     OW30148   5.046   5.097   3.732
 9750SOL    HW130149   4.959   5.141   3.710
 9750SOL    HW230150   5.120   5.141   3.680
 9751SOL     OW30151   2.000   1.626   0.693
 9751SOL    HW130152   1.919   1.679   0.716
 9751SOL    HW230153   2.023   1.641   0.597
 9752SOL     OW30154   4.787   0.996   0.281
 9752SOL    HW130155   4.860   0.969   0.344
 9752SOL    HW230156   4.707   1.023   0.333
 9753SOL     OW30157   5.914   5.479   4.869
 9753SOL    HW130158   5.927   5.419   4.948
 9753SOL    HW230159   5.894   5.572   4.900
 9754SOL     OW30160   0.934   1.864   0.018
 9754SOL    HW130161   0.987   1.783   7.019
 9754SOL    HW230162   0.863   1.840   0.083
 9755SOL     OW30163   4.290   3.320   5.280
 9755SOL    HW130164   4.246   3.311   5.190
 9755SOL    HW230165   4.236   3.271   5.348
 9756SOL     OW30166   6.339   3.278   0.287
 9756SOL    HW130167   6.274   3.209   0.257
 9756SOL    HW230168   6.422   3.272   0.232
 9757SOL     OW30169   5.454   3.267   3.063
 9757SOL    HW130170   5.356   3.276   3.045
 9757SOL    HW230171   5.502   3.344   3.020
 9758SOL     OW30172   1.827   6.622   6.469
 9758SOL    HW130173   1.888   6.634   6.391
 9758SOL    HW230174   1.847   6.535   6.513
 9759SOL     OW30175   2.375   6.952   0.114
 9759SOL    HW130176   2.295   6.947   0.054
 9759SOL    HW230177   2.346   6.975   0.206
 9760SOL     OW30178   4.710   3.629   5.512
 9760SOL    HW130179   4.654   3.659   5.434
 9760SOL    HW230180   4.778   3.564   5.481
 9761SOL     OW30181   6.251   6.325   2.120
 9761SOL    HW130182   6.208   6.414   2.137
 9761SOL    HW230183   6.204   6.280   2.044
 9762SOL     OW30184   2.466   2.419   4.850
 9762SOL    HW130185   2.393   2.487   4.854
 9762SOL    HW230186   2.536   2.448   4.785
 9763SOL     OW30187   4.255   2.316   1.750
 9763SOL    HW130188   4.330   2.332   1.687
 9763SOL    HW230189   4.181   2.267   1.703
 9764SOL     OW30190   1.120   2.480   2.508
 9764SOL    HW130191   1.063   2.415   2.558
 9764SOL    HW230192   1.216   2.463   2.531
 9765SOL     OW30193   6.128   2.035   3.843
 9765SOL    HW130194   6.140   2.085   3.930
 9765SOL    HW230195   6.217   2.004   3.811
 9766SOL     OW30196   2.487   0.639   2.819
 9766SOL    HW130197   2.550   0.569   2.853
 9766SOL    HW230198   2.406   0.641   2.877
 9767SOL     OW30199   5.107   1.910   5.172
 9767SOL    HW130200   5.141   1.969   5.098
 9767SOL    HW230201   5.068   1.827   5.132
 9768SOL     OW30202   4.600   1.700   2.255
 9768SOL    HW130203   4.623   1.783   2.203
 9768SOL    HW230204   4.661   1.692   2.333
 9769SOL     OW30205   2.008   1.260   2.068
 9769SOL    HW130206   2.007   1.320   1.987
 9769SOL    HW230207   2.051   1.173   2.044
 9770SOL     OW30208   5.832   0.048   7.013
 9770SOL    HW130209   5.823   6.988   6.960
 9770SOL    HW230210   5.900   0.034   0.060
 9771SOL     OW30211   3.995   4.647   1.483
 9771SOL    HW130212   3.934   4.704   1.536
 9771SOL    HW230213   4.049   4.589   1.544
 9772SOL     OW30214   0.914   6.141   1.890
 9772SOL    HW130215   0.891   6.234   1.862
 9772SOL    HW230216   1.010   6.122   1.870
 9773SOL     OW30217   5.534   6.672   4.177
 9773SOL    HW130218   5.562   6.593   4.123
 9773SOL    HW230219   5.469   6.727   4.125
 9774SOL     OW30220   5.980   5.007   2.473
 9774SOL    HW130221   5.892   4.977   2.436
 9774SOL    HW230222   6.020   4.933   2.527
 9775SOL     OW30223   2.848   1.331   3.991
 9775SOL    HW130224   2.815   1.286   3.908
 9775SOL    HW230225   2.802   1.419   4.001
 9776SOL     OW30226   6.913   5.508   4.558
 9776SOL    HW130227   6.881   5.579   4.496
 9776SOL    HW230228   7.003   5.533   4.593
 9777SOL     OW30229   5.538   4.797   6.309
 9777SOL    HW130230   5.468   4.848   6.259
 9777SOL    HW230231   5.628   4.838   6.293
 9778SOL     OW30232   6.539   0.564   3.903
 9778SOL    HW130233   6.495   0.590   3.817
 9778SOL    HW230234   6.528   0.637   3.970
 9779SOL     OW30235   2.620   1.861   4.614
 9779SOL    HW130236   2.597   1.946   4.660
 9779SOL    HW230237   2.695   1.815   4.662
 9780SOL     OW30238   2.195   1.843   0.866
 9780SOL    HW130239   2.250   1.919   0.833
 9780SOL    HW230240   2.098   1.869   0.864
 9781SOL     OW30241   1.843   3.859   3.703
 9781SOL    HW130242   1.750   3.883   3.731
 9781SOL    HW230243   1.839   3.805   3.619
 9782SOL     OW30244   0.169   0.625   1.671
 9782SOL    HW130245   0.222   0.634   1.586
 9782SOL    HW230246   0.221   0.664   1.747
 9783SOL     OW30247   4.702   1.669   1.723
 9783SOL    HW130248   4.706   1.626   1.813
 9783SOL    HW230249   4.610   1.659   1.686
 9784SOL     OW30250   4.901   1.029   3.936
 9784SOL    HW130251   4.963   0.951   3.949
 9784SOL    HW230252   4.826   1.002   3.876
 9785SOL     OW30253   0.141   4.100   4.952
 9785SOL    HW130254   0.109   4.006   4.963
 9785SOL    HW230255   0.108   4.137   4.865
 9786SOL     OW30256   1.790   5.136   6.173
 9786SOL    HW130257   1.697   5.136   6.135
 9786SOL    HW230258   1.794   5.072   6.249
 9787SOL     OW30259   5.426   3.856   0.903
 9787SOL    HW130260   5.462   3.763   0.889
 9787SOL    HW230261   5.402   3.896   0.815
 9788SOL     OW30262   0.231   0.481   3.928
 9788SOL    HW130263   0.137   0.459   3.951
 9788SOL    HW230264   0.254   0.443   3.839
 9789SOL     OW30265   2.373   5.955   6.457
 9789SOL    HW130266   2.450   5.910   6.503
 9789SOL    HW230267   2.311   5.993   6.526
 9790SOL     OW30268   5.574   3.607   5.426
 9790SOL    HW130269   5.651   3.547   5.446
 9790SOL    HW230270   5.530   3.634   5.512
 9791SOL     OW30271   0.711   0.657   3.088
 9791SOL    HW130272   0.737   0.575   3.137
 9791SOL    HW230273   0.681   0.632   2.995
 9792SOL     OW30274   4.999   5.151   1.484
 9792SOL    HW130275   5.072   5.208   1.524
 9792SOL    HW230276   4.944   5.111   1.557
 9793SOL     OW30277   5.804   5.962   3.207
 9793SOL    HW130278   5.791   5.945   3.109
 9793SOL    HW230279   5.840   5.879   3.251
 9794SOL     OW30280   6.088   3.765   6.512
 9794SOL    HW130281   6.015   3.710   6.553
 9794SOL    HW230282   6.140   3.709   6.448
 9795SOL     OW30283   1.347   2.174   3.945
 9795SOL    HW130284   1.373   2.155   4.040
 9795SOL    HW230285   1.394   2.109   3.885
 9796SOL     OW30286   3.467   3.971   0.560
 9796SOL    HW130287   3.486   3.958   0.657
 9796SOL    HW230288   3.370   3.956   0.542
 9797SOL     OW30289   3.715   3.925   6.703
 9797SOL    HW130290   3.788   3.994   6.699
 9797SOL    HW230291   3.666   3.933   6.789
 9798SOL     OW30292   2.306   0.664   0.448
 9798SOL    HW130293   2.243   0.614   0.389
 9798SOL    HW230294   2.257   0.697   0.529
 9799SOL     OW30295   3.103   3.489   2.681
 9799SOL    HW130296   3.159   3.532   2.611
 9799SOL    HW230297   3.144   3.403   2.709
 9800SOL     OW30298   3.715   5.930   5.845
 9800SOL    HW130299   3.631   5.932   5.899
 9800SOL    HW230300   3.729   6.018   5.800
 9801SOL     OW30301   4.246   4.912   0.149
 9801SOL    HW130302   4.205   4.892   0.237
 9801SOL    HW230303   4.276   4.826   0.105
 9802SOL     OW30304   0.039   2.610   2.254
 9802SOL    HW130305   0.029   2.675   2.328
 9802SOL    HW230306   6.987   2.546   2.255
 9803SOL     OW30307   6.168   0.695   6.986
 9803SOL    HW130308   6.183   0.752   0.043
 9803SOL    HW230309   6.081   0.647   6.995
 9804SOL     OW30310   0.270   5.368   3.370
 9804SOL    HW130311   0.364   5.370   3.404
 9804SOL    HW230312   0.267   5.321   3.282
 9805SOL     OW30313   1.318   5.693   6.944
 9805SOL    HW130314   1.236   5.729   6.900
 9805SOL    HW230315   1.310   5.704   0.018
 9806SOL     OW30316   0.984   2.126   1.116
 9806SOL    HW130317   1.006   2.213   1.161
 9806SOL    HW230318   0.938   2.066   1.181
 9807SOL     OW30319   2.874   2.863   0.152
 9807SOL    HW130320   2.889   2.820   0.241
 9807SOL    HW230321   2.845   2.794   0.086
 9808SOL     OW30322   5.665   0.851   5.619
 9808SOL    HW130323   5.578   0.817   5.655
 9808SOL    HW230324   5.736   0.783   5.634
 9809SOL     OW30325   0.306   1.887   6.116
 9809SOL    HW130326   0.353   1.955   6.060
 9809SOL    HW230327   0.349   1.798   6.103
 9810SOL     OW30328   2.710   2.203   3.056
 9810SOL    HW130329   2.739   2.219   3.150
 9810SOL    HW230330   2.624   2.151   3.056
 9811SOL     OW30331   5.590   5.796   3.901
 9811SOL    HW130332   5.658   5.775   3.971
 9811SOL    HW230333   5.612   5.746   3.817
 9812SOL     OW30334   3.755   2.405   6.460
 9812SOL    HW130335   3.704   2.386   6.376
 9812SOL    HW230336   3.717   2.487   6.504
 9813SOL     OW30337   5.818   5.919   6.892
 9813SOL    HW130338   5.774   5.992   6.841
 9813SOL    HW230339   5.859   5.957   6.975
 9814SOL     OW30340   0.503   0.625   5.879
 9814SOL    HW130341   0.547   0.708   5.845
 9814SOL    HW230342   0.411   0.617   5.839
 9815SOL     OW30343   6.734   2.000   1.428
 9815SOL    HW130344   6.808   1.982   1.364
 9815SOL    HW230345   6.655   2.037   1.380
 9816SOL     OW30346   6.709   0.901   6.692
 9816SOL    HW130347   6.691   0.862   6.602
 9816SOL    HW230348   6.628   0.950   6.724
 9817SOL     OW30349   2.939   5.688   1.821
 9817SOL    HW130350   2.959   5.595   1.848
 9817SOL    HW230351   3.012   5.749   1.851
 9818SOL     OW30352   1.766   1.139   3.678
 9818SOL    HW130353   1.755   1.227   3.726
 9818SOL    HW230354   1.861   1.111   3.682
 9819SOL     OW30355   5.400   3.697   4.921
 9819SOL    HW130356   5.386   3.694   5.020
 9819SOL    HW230357   5.488   3.654   4.899
 9820SOL     OW30358   2.938   2.086   6.612
 9820SOL    HW130359   2.965   2.165   6.668
 9820SOL    HW230360   2.937   2.004   6.669
 9821SOL     OW30361   4.185   1.858   1.009
 9821SOL    HW130362   4.178   1.812   0.921
 9821SOL    HW230363   4.097   1.856   1.056
 9822SOL     OW30364   3.792   6.313   4.113
 9822SOL    HW130365   3.713   6.359   4.153
 9822SOL    HW230366   3.819   6.235   4.170
 9823SOL     OW30367   1.339   0.681   2.264
 9823SOL    HW130368   1.342   0.773   2.225
 9823SOL    HW230369   1.366   0.685   2.360
 9824SOL     OW30370   2.780   5.809   5.754
 9824SOL    HW130371   2.752   5.873   5.683
 9824SOL    HW230372   2.760   5.715   5.725
 9825SOL     OW30373   5.688   5.511   5.173
 9825SOL    HW130374   5.612   5.471   5.225
 9825SOL    HW230375   5.769   5.516   5.231
 9826SOL     OW30376   3.601   6.403   5.482
 9826SOL    HW130377   3.560   6.366   5.566
 9826SOL    HW230378   3.537   6.467   5.439
 9827SOL     OW30379   2.190   5.042   2.673
 9827SOL    HW130380   2.116   5.029   2.738
 9827SOL    HW230381   2.276   5.057   2.722
 9828SOL     OW30382   3.853   2.006   4.743
 9828SOL    HW130383   3.770   1.989   4.689
 9828SOL    HW230384   3.903   2.083   4.703
 9829SOL     OW30385   5.191   6.758   6.249
 9829SOL    HW130386   5.135   6.791   6.173
 9829SOL    HW230387   5.136   6.759   6.333
 9830SOL     OW30388   5.661   1.306   2.357
 9830SOL    HW130389   5.660   1.330   2.454
 9830SOL    HW230390   5.664   1.207   2.346
 9831SOL     OW30391   0.400   4.223   1.750
 9831SOL    HW130392   0.482   4.186   1.794
 9831SOL    HW230393   0.319   4.193   1.801
 9832SOL     OW30394   4.911   5.282   4.214
 9832SOL    HW130395   4.841   5.334   4.164
 9832SOL    HW230396   4.873   5.250   4.300
 9833SOL     OW30397   3.331   4.070   3.611
 9833SOL    HW130398   3.245   4.019   3.617
 9833SOL    HW230399   3.373   4.053   3.522
 9834SOL     OW30400   2.203   5.179   5.738
 9834SOL    HW130401   2.186   5.207   5.833
 9834SOL    HW230402   2.253   5.093   5.738
 9835SOL     OW30403   3.919   3.914   3.910
 9835SOL    HW130404   3.882   3.825   3.885
 9835SOL    HW230405   3.934   3.917   4.009
 9836SOL     OW30406   0.847   4.392   5.398
 9836SOL    HW130407   0.872   4.381   5.302
 9836SOL    HW230408   0.916   4.446   5.445
 9837SOL     OW30409   5.551   2.019   2.194
 9837SOL    HW130410   5.648   2.035   2.210
 9837SOL    HW230411   5.505   2.107   2.180
 9838SOL     OW30412   1.470   6.500   0.886
 9838SOL    HW130413   1.495   6.404   0.892
 9838SOL    HW230414   1.531   6.547   0.822
 9839SOL     OW30415   4.754   0.957   3.718
 9839SOL    HW130416   4.661   0.959   3.681
 9839SOL    HW230417   4.820   0.961   3.643
 9840SOL     OW30418   4.869   1.352   0.032
 9840SOL    HW130419   4.825   1.414   0.098
 9840SOL    HW230420   4.968   1.352   0.048
 9841SOL     OW30421   0.512   5.215   3.405
 9841SOL    HW130422   0.611   5.208   3.415
 9841SOL    HW230423   0.481   5.147   3.338
 9842SOL     OW30424   3.760   3.217   0.421
 9842SOL    HW130425   3.841   3.229   0.479
 9842SOL    HW230426   3.707   3.138   0.454
 9843SOL     OW30427   6.429   0.284   1.836
 9843SOL    HW130428   6.470   0.375   1.824
 9843SOL    HW230429   6.343   0.293   1.886
 9844SOL     OW30430   5.782   0.458   4.744
 9844SOL    HW130431   5.850   0.391   4.772
 9844SOL    HW230432   5.823   0.523   4.681
 9845SOL     OW30433   1.274   2.669   2.698
 9845SOL    HW130434   1.190   2.627   2.732
 9845SOL    HW230435   1.322   2.712   2.774
 9846SOL     OW30436   4.818   1.620   0.995
 9846SOL    HW130437   4.774   1.671   1.070
 9846SOL    HW230438   4.901   1.576   1.029
 9847SOL     OW30439   3.991   3.100   2.058
 9847SOL    HW130440   4.051   3.112   2.138
 9847SOL    HW230441   4.046   3.096   1.975
 9848SOL     OW30442   3.386   4.005   5.601
 9848SOL    HW130443   3.308   3.961   5.557
 9848SOL    HW230444   3.466   3.999   5.540
 9849SOL     OW30445   0.933   0.532   6.532
 9849SOL    HW130446   0.950   0.502   6.438
 9849SOL    HW230447   0.900   0.455   6.587
 9850SOL     OW30448   7.021   0.411   4.068
 9850SOL    HW130449   6.977   0.340   4.013
 9850SOL    HW230450   6.992   0.402   4.163
 9851SOL     OW30451   2.694   5.506   4.920
 9851SOL    HW130452   2.691   5.596   4.877
 9851SOL    HW230453   2.757   5.447   4.869
 9852SOL     OW30454   1.095   2.132   5.871
 9852SOL    HW130455   1.123   2.174   5.957
 9852SOL    HW230456   1.161   2.062   5.846
 9853SOL     OW30457   0.289   3.941   5.199
 9853SOL    HW130458   0.305   3.888   5.116
 9853SOL    HW230459   0.192   3.935   5.224
 9854SOL     OW30460   1.045   5.673   5.373
 9854SOL    HW130461   1.006   5.589   5.412
 9854SOL    HW230462   1.131   5.651   5.326
 9855SOL     OW30463   0.703   3.330   1.224
 9855SOL    HW130464   0.741   3.391   1.294
 9855SOL    HW230465   0.604   3.343   1.219
 9856SOL     OW30466   5.618   4.898   4.206
 9856SOL    HW130467   5.637   4.808   4.168
 9856SOL    HW230468   5.697   4.931   4.257
 9857SOL     OW30469   5.576   3.032   3.044
 9857SOL    HW130470   5.640   3.034   2.967
 9857SOL    HW230471   5.555   3.126   3.072
 9858SOL     OW30472   1.368   6.528   2.184
 9858SOL    HW130473   1.341   6.618   2.220
 9858SOL    HW230474   1.305   6.458   2.219
 9859SOL     OW30475   6.983   5.064   5.131
 9859SOL    HW130476   6.914   5.034   5.065
 9859SOL    HW230477   6.969   5.019   5.218
 9860SOL     OW30478   1.910   2.306   5.115
 9860SOL    HW130479   1.815   2.288   5.139
 9860SOL    HW230480   1.970   2.257   5.179
 9861SOL     OW30481   3.411   1.117   3.614
 9861SOL    HW130482   3.386   1.024   3.641
 9861SOL    HW230483   3.327   1.170   3.598
 9862SOL     OW30484   2.643   4.154   1.319
 9862SOL    HW130485   2.717   4.104   1.363
 9862SOL    HW230486   2.624   4.238   1.370
 9863SOL     OW30487   3.321   5.754   0.937
 9863SOL    HW130488   3.287   5.712   1.021
 9863SOL    HW230489   3.303   5.693   0.860
 9864SOL     OW30490   2.999   6.633   5.420
 9864SOL    HW130491   3.086   6.664   5.381
 9864SOL    HW230492   3.000   6.534   5.430
 9865SOL     OW30493   0.202   0.049   5.200
 9865SOL    HW130494   0.221   7.014   5.279
 9865SOL    HW230495   0.167   7.019   5.124
 9866SOL     OW30496   5.805   4.428   4.805
 9866SOL    HW130497   5.804   4.405   4.708
 9866SOL    HW230498   5.899   4.428   4.838
 9867SOL     OW30499   4.773   2.306   2.773
 9867SOL    HW130500   4.855   2.364   2.768
 9867SOL    HW230501   4.766   2.265   2.864
 9868SOL     OW30502   0.713   4.124   3.371
 9868SOL    HW130503   0.670   4.142   3.282
 9868SOL    HW230504   0.680   4.037   3.407
 9869SOL     OW30505   0.781   2.515   1.155
 9869SOL    HW130506   0.732   2.544   1.238
 9869SOL    HW230507   0.736   2.435   1.116
 9870SOL     OW30508   4.203   1.180   2.078
 9870SOL    HW130509   4.232   1.121   2.003
 9870SOL    HW230510   4.109   1.212   2.062
 9871SOL     OW30511   6.479   2.769   5.682
 9871SOL    HW130512   6.563   2.823   5.683
 9871SOL    HW230513   6.501   2.671   5.688
 9872SOL     OW30514   2.382   5.629   5.342
 9872SOL    HW130515   2.383   5.543   5.292
 9872SOL    HW230516   2.445   5.624   5.420
 9873SOL     OW30517   1.623   2.361   5.471
 9873SOL    HW130518   1.530   2.342   5.438
 9873SOL    HW230519   1.649   2.291   5.537
 9874SOL     OW30520   1.015   2.842   4.345
 9874SOL    HW130521   0.958   2.789   4.283
 9874SOL    HW230522   1.007   2.939   4.323
 9875SOL     OW30523   0.649   6.362   1.347
 9875SOL    HW130524   0.738   6.376   1.306
 9875SOL    HW230525   0.611   6.449   1.378
 9876SOL     OW30526   3.399   0.198   3.802
 9876SOL    HW130527   3.477   0.185   3.741
 9876SOL    HW230528   3.373   0.110   3.841
 9877SOL     OW30529   6.837   4.331   4.144
 9877SOL    HW130530   6.929   4.317   4.182
 9877SOL    HW230531   6.811   4.427   4.154
 9878SOL     OW30532   2.049   2.823   6.894
 9878SOL    HW130533   2.055   2.857   6.988
 9878SOL    HW230534   2.065   2.899   6.831
 9879SOL     OW30535   1.360   4.502   5.520
 9879SOL    HW130536   1.301   4.439   5.571
 9879SOL    HW230537   1.360   4.591   5.566
 9880SOL     OW30538   2.799   0.934   6.592
 9880SOL    HW130539   2.744   0.939   6.509
 9880SOL    HW230540   2.751   0.979   6.667
 9881SOL     OW30541   5.521   0.574   4.690
 9881SOL    HW130542   5.588   0.533   4.628
 9881SOL    HW230543   5.472   0.647   4.644
 9882SOL     OW30544   3.820   3.550   4.473
 9882SOL    HW130545   3.827   3.540   4.373
 9882SOL    HW230546   3.888   3.493   4.517
 9883SOL     OW30547   1.793   5.623   1.999
 9883SOL    HW130548   1.775   5.693   1.930
 9883SOL    HW230549   1.881   5.641   2.043
 9884SOL     OW30550   1.738   3.302   6.975
 9884SOL    HW130551   1.791   3.381   7.005
 9884SOL    HW230552   1.726   3.306   6.876
 9885SOL     OW30553   0.386   3.052   3.728
 9885SOL    HW130554   0.482   3.069   3.706
 9885SOL    HW230555   0.361   3.103   3.810
 9886SOL     OW30556   5.717   6.062   1.725
 9886SOL    HW130557   5.812   6.063   1.693
 9886SOL    HW230558   5.671   6.146   1.696
 9887SOL     OW30559   4.383   6.781   0.508
 9887SOL    HW130560   4.412   6.876   0.497
 9887SOL    HW230561   4.297   6.779   0.560
 9888SOL     OW30562   5.517   5.743   2.778
 9888SOL    HW130563   5.563   5.712   2.861
 9888SOL    HW230564   5.555   5.831   2.749
 9889SOL     OW30565   6.838   4.746   3.106
 9889SOL    HW130566   6.874   4.696   3.185
 9889SOL    HW230567   6.817   4.840   3.133
 9890SOL     OW30568   6.128   2.564   0.427
 9890SOL    HW130569   6.204   2.503   0.448
 9890SOL    HW230570   6.081   2.589   0.512
 9891SOL     OW30571   5.076   4.905   1.179
 9891SOL    HW130572   5.027   4.992   1.168
 9891SOL    HW230573   5.132   4.888   1.098
 9892SOL     OW30574   2.419   4.870   3.704
 9892SOL    HW130575   2.460   4.848   3.615
 9892SOL    HW230576   2.417   4.970   3.715
 9893SOL     OW30577   6.100   6.151   2.798
 9893SOL    HW130578   6.109   6.171   2.701
 9893SOL    HW230579   6.144   6.223   2.852
 9894SOL     OW30580   3.839   1.935   6.209
 9894SOL    HW130581   3.841   1.836   6.194
 9894SOL    HW230582   3.765   1.976   6.155
 9895SOL     OW30583   5.560   2.048   6.562
 9895SOL    HW130584   5.512   2.132   6.539
 9895SOL    HW230585   5.547   2.028   6.659
 9896SOL     OW30586   4.120   3.161   0.835
 9896SOL    HW130587   4.054   3.232   0.859
 9896SOL    HW230588   4.086   3.072   0.866
 9897SOL     OW30589   5.101   1.557   2.927
 9897SOL    HW130590   5.111   1.478   2.866
 9897SOL    HW230591   5.144   1.536   3.015
 9898SOL     OW30592   1.018   4.636   5.281
 9898SOL    HW130593   0.941   4.700   5.273
 9898SOL    HW230594   1.041   4.622   5.377
 9899SOL     OW30595   5.510   4.501   2.381
 9899SOL    HW130596   5.563   4.558   2.318
 9899SOL    HW230597   5.419   4.540   2.393
 9900SOL     OW30598   1.479   1.965   3.573
 9900SOL    HW130599   1.541   1.889   3.552
 9900SOL    HW230600   1.530   2.050   3.578
 9901SOL     OW30601   1.691   1.966   6.285
 9901SOL    HW130602   1.692   2.056   6.241
 9901SOL    HW230603   1.783   1.928   6.286
 9902SOL     OW30604   3.914   3.461   0.767
 9902SOL    HW130605   3.848   3.535   0.753
 9902SOL    HW230606   3.878   3.397   0.835
 9903SOL     OW30607   4.764   0.907   2.469
 9903SOL    HW130608   4.724   0.989   2.510
 9903SOL    HW230609   4.700   0.831   2.477
 9904SOL     OW30610   6.550   3.136   0.118
 9904SOL    HW130611   6.545   3.227   0.076
 9904SOL    HW230612   6.498   3.071   0.062
 9905SOL     OW30613   1.318   6.449   6.917
 9905SOL    HW130614   1.370   6.487   6.841
 9905SOL    HW230615   1.355   6.359   6.941
 9906SOL     OW30616   1.586   3.045   6.299
 9906SOL    HW130617   1.639   3.060   6.215
 9906SOL    HW230618   1.573   2.947   6.312
 9907SOL     OW30619   2.995   5.944   3.448
 9907SOL    HW130620   2.912   5.908   3.490
 9907SOL    HW230621   3.062   5.965   3.520
 9908SOL     OW30622   0.532   3.131   6.239
 9908SOL    HW130623   0.454   3.170   6.190
 9908SOL    HW230624   0.512   3.127   6.336
 9909SOL     OW30625   2.767   1.000   3.181
 9909SOL    HW130626   2.763   1.007   3.281
 9909SOL    HW230627   2.804   0.910   3.156
 9910SOL     OW30628   0.542   4.866   0.899
 9910SOL    HW130629   0.624   4.923   0.896
 9910SOL    HW230630   0.554   4.787   0.839
 9911SOL     OW30631   5.089   5.166   2.508
 9911SOL    HW130632   5.044   5.078   2.523
 9911SOL    HW230633   5.094   5.184   2.410
 9912SOL     OW30634   4.134   0.700   2.467
 9912SOL    HW130635   4.047   0.726   2.510
 9912SOL    HW230636   4.139   0.740   2.376
 9913SOL     OW30637   5.554   2.808   2.213
 9913SOL    HW130638   5.596   2.728   2.255
 9913SOL    HW230639   5.455   2.805   2.226
 9914SOL     OW30640   1.692   0.609   5.671
 9914SOL    HW130641   1.768   0.543   5.671
 9914SOL    HW230642   1.724   0.696   5.635
 9915SOL     OW30643   5.492   3.658   4.169
 9915SOL    HW130644   5.434   3.705   4.102
 9915SOL    HW230645   5.530   3.575   4.127
 9916SOL     OW30646   2.120   3.347   2.837
 9916SOL    HW130647   2.149   3.333   2.931
 9916SOL    HW230648   2.134   3.442   2.810
 9917SOL     OW30649   3.378   3.767   4.832
 9917SOL    HW130650   3.329   3.681   4.821
 9917SOL    HW230651   3.326   3.827   4.892
 9918SOL     OW30652   1.649   1.693   5.891
 9918SOL    HW130653   1.657   1.793   5.896
 9918SOL    HW230654   1.681   1.652   5.976
 9919SOL     OW30655   1.311   5.489   2.706
 9919SOL    HW130656   1.244   5.558   2.678
 9919SOL    HW230657   1.393   5.499   2.649
 9920SOL     OW30658   3.853   0.078   1.649
 9920SOL    HW130659   3.905   0.120   1.724
 9920SOL    HW230660   3.900   0.094   1.563
 9921SOL     OW30661   5.906   6.663   3.300
 9921SOL    HW130662   5.945   6.621   3.219
 9921SOL    HW230663   5.920   6.762   3.296
 9922SOL     OW30664   4.691   4.723   0.797
 9922SOL    HW130665   4.668   4.642   0.851
 9922SOL    HW230666   4.645   4.803   0.835
 9923SOL     OW30667   6.418   2.584   6.610
 9923SOL    HW130668   6.478   2.654   6.570
 9923SOL    HW230669   6.332   2.581   6.559
 9924SOL     OW30670   5.833   1.353   2.155
 9924SOL    HW130671   5.827   1.427   2.087
 9924SOL    HW230672   5.754   1.358   2.216
 9925SOL     OW30673   2.287   3.536   5.625
 9925SOL    HW130674   2.314   3.588   5.706
 9925SOL    HW230675   2.352   3.553   5.551
 9926SOL     OW30676   2.462   1.793   1.049
 9926SOL    HW130677   2.536   1.812   0.985
 9926SOL    HW230678   2.374   1.807   1.004
 9927SOL     OW30679   1.141   1.968   2.506
 9927SOL    HW130680   1.102   1.932   2.421
 9927SOL    HW230681   1.191   1.896   2.553
 9928SOL     OW30682   0.115   4.551   1.773
 9928SOL    HW130683   0.168   4.633   1.797
 9928SOL    HW230684   0.124   4.483   1.846
 9929SOL     OW30685   3.295   4.256   5.352
 9929SOL    HW130686   3.319   4.292   5.442
 9929SOL    HW230687   3.229   4.317   5.308
 9930SOL     OW30688   0.255   0.659   5.724
 9930SOL    HW130689   0.294   0.720   5.655
 9930SOL    HW230690   0.264   0.564   5.693
 9931SOL     OW30691   1.000   6.547   4.543
 9931SOL    HW130692   0.932   6.620   4.543
 9931SOL    HW230693   1.091   6.587   4.532
 9932SOL     OW30694   1.723   1.947   0.445
 9932SOL    HW130695   1.765   1.920   0.359
 9932SOL    HW230696   1.760   2.035   0.475
 9933SOL     OW30697   2.354   0.538   3.821
 9933SOL    HW130698   2.329   0.501   3.732
 9933SOL    HW230699   2.453   0.543   3.829
 9934SOL     OW30700   6.065   1.107   7.002
 9934SOL    HW130701   6.065   1.159   0.063
 9934SOL    HW230702   5.975   1.066   6.988
 9935SOL     OW30703   2.788   2.528   0.841
 9935SOL    HW130704   2.817   2.434   0.861
 9935SOL    HW230705   2.821   2.589   0.913
 9936SOL     OW30706   5.178   4.904   5.842
 9936SOL    HW130707   5.211   4.996   5.865
 9936SOL    HW230708   5.243   4.861   5.779
 9937SOL     OW30709   0.234   0.256   2.814
 9937SOL    HW130710   0.157   0.193   2.823
 9937SOL    HW230711   0.285   0.235   2.731
 9938SOL     OW30712   5.987   1.087   4.734
 9938SOL    HW130713   6.036   1.172   4.717
 9938SOL    HW230714   5.935   1.094   4.819
 9939SOL     OW30715   1.497   3.505   0.636
 9939SOL    HW130716   1.521   3.561   0.714
 9939SOL    HW230717   1.565   3.517   0.563
 9940SOL     OW30718   6.547   0.157   3.273
 9940SOL    HW130719   6.612   0.084   3.293
 9940SOL    HW230720   6.586   0.245   3.301
 9941SOL     OW30721   3.701   5.329   5.671
 9941SOL    HW130722   3.645   5.290   5.744
 9941SOL    HW230723   3.798   5.320   5.695
 9942SOL     OW30724   4.930   5.284   2.698
 9942SOL    HW130725   4.973   5.272   2.609
 9942SOL    HW230726   4.934   5.198   2.749
 9943SOL     OW30727   1.504   3.890   6.150
 9943SOL    HW130728   1.547   3.800   6.162
 9943SOL    HW230729   1.522   3.924   6.058
 9944SOL     OW30730   1.288   5.190   6.528
 9944SOL    HW130731   1.212   5.128   6.512
 9944SOL    HW230732   1.270   5.246   6.609
 9945SOL     OW30733   6.377   3.670   6.593
 9945SOL    HW130734   6.426   3.753   6.569
 9945SOL    HW230735   6.291   3.665   6.541
 9946SOL     OW30736   5.558   0.777   3.288
 9946SOL    HW130737   5.564   0.862   3.236
 9946SOL    HW230738   5.650   0.746   3.313
 9947SOL     OW30739   1.050   2.263   4.160
 9947SOL    HW130740   1.125   2.312   4.204
 9947SOL    HW230741   1.007   2.203   4.227
 9948SOL     OW30742   6.796   6.887   5.033
 9948SOL    HW130743   6.781   6.818   5.104
 9948SOL    HW230744   6.731   6.873   4.958
 9949SOL     OW30745   0.001   4.556   4.997
 9949SOL    HW130746   0.015   4.556   4.898
 9949SOL    HW230747   0.035   4.641   5.036
 9950SOL     OW30748   6.252   4.599   6.711
 9950SOL    HW130749   6.325   4.548   6.665
 9950SOL    HW230750   6.191   4.637   6.642
 9951SOL     OW30751   1.780   3.157   2.510
 9951SOL    HW130752   1.694   3.145   2.560
 9951SOL    HW230753   1.833   3.231   2.552
 9952SOL     OW30754   0.687   3.812   1.490
 9952SOL    HW130755   0.723   3.783   1.579
 9952SOL    HW230756   0.639   3.899   1.500
 9953SOL     OW30757   6.352   2.708   3.477
 9953SOL    HW130758   6.276   2.726   3.414
 9953SOL    HW230759   6.390   2.795   3.509
 9954SOL     OW30760   2.673   1.725   5.359
 9954SOL    HW130761   2.736   1.789   5.316
 9954SOL    HW230762   2.694   1.717   5.456
 9955SOL     OW30763   4.488   3.516   0.511
 9955SOL    HW130764   4.585   3.506   0.490
 9955SOL    HW230765   4.434   3.470   0.440
 9956SOL     OW30766   0.807   3.754   2.562
 9956SOL    HW130767   0.834   3.792   2.473
 9956SOL    HW230768   0.879   3.694   2.596
 9957SOL     OW30769   5.613   0.219   1.505
 9957SOL    HW130770   5.559   0.287   1.455
 9957SOL    HW230771   5.580   0.127   1.483
 9958SOL     OW30772   3.634   4.946   6.249
 9958SOL    HW130773   3.545   4.954   6.204
 9958SOL    HW230774   3.668   5.037   6.273
 9959SOL     OW30775   4.722   3.654   1.451
 9959SOL    HW130776   4.696   3.566   1.492
 9959SOL    HW230777   4.665   3.671   1.371
 9960SOL     OW30778   6.241   6.923   1.538
 9960SOL    HW130779   6.211   7.015   1.564
 9960SOL    HW230780   6.339   6.925   1.515
 9961SOL     OW30781   1.248   4.379   1.701
 9961SOL    HW130782   1.195   4.454   1.662
 9961SOL    HW230783   1.219   4.363   1.795
 9962SOL     OW30784   3.689   6.847   1.728
 9962SOL    HW130785   3.779   6.807   1.711
 9962SOL    HW230786   3.700   6.943   1.755
 9963SOL     OW30787   2.877   2.328   0.254
 9963SOL    HW130788   2.911   2.235   0.246
 9963SOL    HW230789   2.900   2.364   0.345
 9964SOL     OW30790   4.652   4.632   5.122
 9964SOL    HW130791   4.660   4.553   5.061
 9964SOL    HW230792   4.743   4.656   5.157
 9965SOL     OW30793   3.539   5.963   4.935
 9965SOL    HW130794   3.446   5.994   4.955
 9965SOL    HW230795   3.557   5.877   4.983
 9966SOL     OW30796   3.028   4.988   2.438
 9966SOL    HW130797   2.968   5.031   2.506
 9966SOL    HW230798   3.107   4.947   2.484
 9967SOL     OW30799   5.963   6.408   2.505
 9967SOL    HW130800   5.908   6.456   2.437
 9967SOL    HW230801   5.952   6.453   2.594
 9968SOL     OW30802   4.531   5.783   6.842
 9968SOL    HW130803   4.591   5.788   6.762
 9968SOL    HW230804   4.436   5.794   6.813
 9969SOL     OW30805   1.372   4.287   4.414
 9969SOL    HW130806   1.402   4.192   4.421
 9969SOL    HW230807   1.424   4.333   4.341
 9970SOL     OW30808   5.372   5.121   1.436
 9970SOL    HW130809   5.337   5.191   1.499
 9970SOL    HW230810   5.455   5.154   1.392
 9971SOL     OW30811   1.412   2.831   1.061
 9971SOL    HW130812   1.320   2.847   1.096
 9971SOL    HW230813   1.477   2.832   1.137
 9972SOL     OW30814   3.276   4.112   1.414
 9972SOL    HW130815   3.210   4.058   1.466
 9972SOL    HW230816   3.271   4.208   1.442
 9973SOL     OW30817   4.640   2.761   4.934
 9973SOL    HW130818   4.575   2.718   4.872
 9973SOL    HW230819   4.726   2.710   4.932
 9974SOL     OW30820   6.631   2.279   3.346
 9974SOL    HW130821   6.582   2.366   3.350
 9974SOL    HW230822   6.567   2.207   3.317
 9975SOL     OW30823   0.782   5.207   6.326
 9975SOL    HW130824   0.735   5.241   6.407
 9975SOL    HW230825   0.716   5.193   6.252
 9976SOL     OW30826   1.239   5.078   5.740
 9976SOL    HW130827   1.195   5.045   5.657
 9976SOL    HW230828   1.254   5.002   5.803
 9977SOL     OW30829   5.017   5.313   5.420
 9977SOL    HW130830   4.930   5.292   5.465
 9977SOL    HW230831   5.087   5.248   5.451
 9978SOL     OW30832   0.209   2.206   6.024
 9978SOL    HW130833   0.304   2.176   6.019
 9978SOL    HW230834   0.159   2.169   5.946
 9979SOL     OW30835   5.443   3.870   6.003
 9979SOL    HW130836   5.536   3.905   6.014
 9979SOL    HW230837   5.411   3.831   6.089
 9980SOL     OW30838   1.876   1.129   0.499
 9980SOL    HW130839   1.863   1.225   0.523
 9980SOL    HW230840   1.787   1.087   0.481
 9981SOL     OW30841   1.681   2.337   0.662
 9981SOL    HW130842   1.695   2.294   0.752
 9981SOL    HW230843   1.759   2.314   0.603
 9982SOL     OW30844   2.144   1.492   4.460
 9982SOL    HW130845   2.046   1.483   4.444
 9982SOL    HW230846   2.164   1.582   4.498
 9983SOL     OW30847   6.303   2.898   2.581
 9983SOL    HW130848   6.258   2.841   2.650
 9983SOL    HW230849   6.253   2.983   2.571
 9984SOL     OW30850   0.211   5.858   0.956
 9984SOL    HW130851   0.212   5.861   0.856
 9984SOL    HW230852   0.179   5.945   0.992
 9985SOL     OW30853   2.899   5.566   1.168
 9985SOL    HW130854   2.965   5.582   1.241
 9985SOL    HW230855   2.946   5.564   1.080
 9986SOL     OW30856   5.899   4.418   0.793
 9986SOL    HW130857   5.957   4.409   0.712
 9986SOL    HW230858   5.905   4.511   0.828
 9987SOL     OW30859   5.354   3.398   1.964
 9987SOL    HW130860   5.432   3.438   2.013
 9987SOL    HW230861   5.384   3.315   1.918
 9988SOL     OW30862   0.060   5.256   4.527
 9988SOL    HW130863   0.007   5.341   4.526
 9988SOL    HW230864   0.007   5.184   4.482
 9989SOL     OW30865   6.187   3.520   2.051
 9989SOL    HW130866   6.204   3.422   2.044
 9989SOL    HW230867   6.107   3.535   2.109
 9990SOL     OW30868   1.018   6.491   3.468
 9990SOL    HW130869   1.117   6.481   3.474
 9990SOL    HW230870   0.984   6.544   3.546
 9991SOL     OW30871   1.613   3.550   3.754
 9991SOL    HW130872   1.544   3.481   3.773
 9991SOL    HW230873   1.672   3.518   3.680
 9992SOL     OW30874   3.420   3.818   1.268
 9992SOL    HW130875   3.383   3.729   1.241
 9992SOL    HW230876   3.515   3.807   1.298
 9993SOL     OW30877   3.008   6.095   4.039
 9993SOL    HW130878   2.972   6.173   3.986
 9993SOL    HW230879   2.981   6.010   3.995
 9994SOL     OW30880   6.710   4.118   3.176
 9994SOL    HW130881   6.701   4.177   3.096
 9994SOL    HW230882   6.696   4.172   3.259
 9995SOL     OW30883   3.116   0.996   3.262
 9995SOL    HW130884   3.072   1.006   3.352
 9995SOL    HW230885   3.122   1.085   3.218
 9996SOL     OW30886   3.341   3.589   0.909
 9996SOL    HW130887   3.301   3.589   1.001
 9996SOL    HW230888   3.270   3.608   0.842
 9997SOL     OW30889   4.723   1.346   3.391
 9997SOL    HW130890   4.760   1.426   3.345
 9997SOL    HW230891   4.758   1.263   3.348
 9998SOL     OW30892   4.850   3.784   2.676
 9998SOL    HW130893   4.839   3.865   2.734
 9998SOL    HW230894   4.913   3.805   2.601
 9999SOL     OW30895   0.115   6.853   4.102
 9999SOL    HW130896   0.116   6.947   4.136
 9999SOL    HW230897   0.165   6.794   4.166
10000SOL     OW30898   5.901   1.484   1.544
10000SOL    HW130899   5.924   1.554   1.611
10000SOL    HW230900   5.833   1.421   1.583
10001SOL     OW30901   3.418   6.403   2.427
10001SOL    HW130902   3.388   6.492   2.392
10001SOL    HW230903   3.513   6.387   2.401
10002SOL     OW30904   2.578   1.456   1.253
10002SOL    HW130905   2.648   1.527   1.254
10002SOL    HW230906   2.510   1.476   1.182
10003SOL     OW30907   3.346   1.853   2.432
10003SOL    HW130908   3.386   1.942   2.411
10003SOL    HW230909   3.410   1.781   2.406
10004SOL     OW30910   5.178   4.211   4.898
10004SOL    HW130911   5.108   4.283   4.894
10004SOL    HW230912   5.158   4.148   4.973
10005SOL     OW30913   3.295   5.290   2.623
10005SOL    HW130914   3.347   5.208   2.647
10005SOL    HW230915   3.335   5.369   2.670
10006SOL     OW30916   5.215   0.486   5.202
10006SOL    HW130917   5.154   0.527   5.270
10006SOL    HW230918   5.310   0.501   5.229
10007SOL     OW30919   0.633   3.692   4.494
10007SOL    HW130920   0.705   3.761   4.495
10007SOL    HW230921   0.551   3.730   4.450
10008SOL     OW30922   4.757   1.721   3.595
10008SOL    HW130923   4.709   1.660   3.531
10008SOL    HW230924   4.855   1.705   3.590
10009SOL     OW30925   1.471   4.348   1.358
10009SOL    HW130926   1.561   4.311   1.382
10009SOL    HW230927   1.467   4.445   1.383
10010SOL     OW30928   3.074   5.836   6.844
10010SOL    HW130929   3.103   5.749   6.804
10010SOL    HW230930   3.124   5.910   6.799
10011SOL     OW30931   0.325   3.959   6.739
10011SOL    HW130932   0.388   3.978   6.663
10011SOL    HW230933   0.232   3.951   6.703
10012SOL     OW30934   4.649   0.179   2.636
10012SOL    HW130935   4.734   0.229   2.623
10012SOL    HW230936   4.575   0.225   2.587
10013SOL     OW30937   0.817   4.108   3.641
10013SOL    HW130938   0.817   4.118   3.542
10013SOL    HW230939   0.864   4.023   3.666
10014SOL     OW30940   1.294   6.782   2.261
10014SOL    HW130941   1.370   6.833   2.303
10014SOL    HW230942   1.248   6.840   2.195
10015SOL     OW30943   3.971   5.102   0.315
10015SOL    HW130944   3.972   5.181   0.254
10015SOL    HW230945   4.024   5.124   0.397
10016SOL     OW30946   2.522   1.539   4.909
10016SOL    HW130947   2.550   1.505   4.819
10016SOL    HW230948   2.603   1.572   4.958
10017SOL     OW30949   1.614   1.218   3.218
10017SOL    HW130950   1.712   1.227   3.206
10017SOL    HW230951   1.572   1.309   3.219
10018SOL     OW30952   6.478   4.160   5.361
10018SOL    HW130953   6.421   4.094   5.410
10018SOL    HW230954   6.575   4.140   5.377
10019SOL     OW30955   0.609   1.375   3.254
10019SOL    HW130956   0.516   1.400   3.280
10019SOL    HW230957   0.675   1.424   3.312
10020SOL     OW30958   0.530   0.929   2.184
10020SOL    HW130959   0.584   0.885   2.112
10020SOL    HW230960   0.439   0.952   2.148
10021SOL     OW30961   0.837   3.064   2.236
10021SOL    HW130962   0.780   3.077   2.317
10021SOL    HW230963   0.919   3.013   2.261
10022SOL     OW30964   2.768   5.304   0.302
10022SOL    HW130965   2.677   5.290   0.342
10022SOL    HW230966   2.815   5.378   0.351
10023SOL     OW30967   2.797   5.422   5.266
10023SOL    HW130968   2.793   5.338   5.213
10023SOL    HW230969   2.755   5.408   5.356
10024SOL     OW30970   0.711   5.181   3.182
10024SOL    HW130971   0.776   5.185   3.259
10024SOL    HW230972   0.740   5.110   3.118
10025SOL     OW30973   1.600   2.865   2.502
10025SOL    HW130974   1.590   2.835   2.597
10025SOL    HW230975   1.512   2.857   2.455
10026SOL     OW30976   4.995   7.024   3.636
10026SOL    HW130977   5.009   0.093   3.605
10026SOL    HW230978   4.901   6.996   3.615
10027SOL     OW30979   0.684   2.244   5.234
10027SOL    HW130980   0.714   2.173   5.170
10027SOL    HW230981   0.636   2.315   5.184
10028SOL     OW30982   2.448   1.255   1.004
10028SOL    HW130983   2.415   1.227   0.914
10028SOL    HW230984   2.422   1.349   1.021
10029SOL     OW30985   1.364   3.041   3.619
10029SOL    HW130986   1.355   3.140   3.603
10029SOL    HW230987   1.422   3.001   3.549
10030SOL     OW30988   3.561   0.409   5.059
10030SOL    HW130989   3.604   0.476   4.998
10030SOL    HW230990   3.556   0.321   5.014
10031SOL     OW30991   4.771   5.034   4.553
10031SOL    HW130992   4.700   4.968   4.578
10031SOL    HW230993   4.860   5.002   4.584
10032SOL     OW30994   3.836   0.309   6.102
10032SOL    HW130995   3.926   0.293   6.061
10032SOL    HW230996   3.799   0.222   6.136
10033SOL     OW30997   4.930   2.002   4.591
10033SOL    HW130998   4.852   2.061   4.609
10033SOL    HW230999   4.909   1.909   4.622
10034SOL     OW31000   2.292   1.275   3.737
10034SOL    HW131001   2.380   1.302   3.776
10034SOL    HW231002   2.223   1.344   3.759
10035SOL     OW31003   6.340   4.113   0.195
10035SOL    HW131004   6.426   4.132   0.243
10035SOL    HW231005   6.352   4.034   0.136
10036SOL     OW31006   6.855   1.079   1.068
10036SOL    HW131007   6.829   1.018   0.993
10036SOL    HW231008   6.944   1.051   1.105
10037SOL     OW31009   6.140   6.921   6.794
10037SOL    HW131010   6.147   6.934   6.893
10037SOL    HW231011   6.126   7.010   6.750
10038SOL     OW31012   4.698   0.069   5.949
10038SOL    HW131013   4.615   0.020   5.977
10038SOL    HW231014   4.718   0.049   5.853
10039SOL     OW31015   5.679   6.538   5.419
10039SOL    HW131016   5.603   6.506   5.476
10039SOL    HW231017   5.647   6.608   5.355
10040SOL     OW31018   4.511   6.224   5.726
10040SOL    HW131019   4.503   6.126   5.741
10040SOL    HW231020   4.536   6.269   5.811
10041SOL     OW31021   5.499   5.412   6.313
10041SOL    HW131022   5.591   5.421   6.351
10041SOL    HW231023   5.459   5.503   6.303
10042SOL     OW31024   0.236   1.118   5.413
10042SOL    HW131025   0.173   1.183   5.370
10042SOL    HW231026   0.274   1.058   5.343
10043SOL     OW31027   0.579   0.827   4.095
10043SOL    HW131028   0.600   0.822   3.997
10043SOL    HW231029   0.480   0.820   4.108
10044SOL     OW31030   2.827   2.242   3.310
10044SOL    HW131031   2.839   2.267   3.406
10044SOL    HW231032   2.915   2.218   3.270
10045SOL     OW31033   4.985   0.270   4.105
10045SOL    HW131034   4.950   0.319   4.185
10045SOL    HW231035   5.081   0.247   4.118
10046SOL     OW31036   1.708   2.232   1.277
10046SOL    HW131037   1.653   2.312   1.252
10046SOL    HW231038   1.665   2.150   1.240
10047SOL     OW31039   5.785   3.493   5.081
10047SOL    HW131040   5.775   3.443   5.166
10047SOL    HW231041   5.856   3.563   5.092
10048SOL     OW31042   3.801   1.769   2.638
10048SOL    HW131043   3.839   1.836   2.574
10048SOL    HW231044   3.875   1.723   2.686
10049SOL     OW31045   0.550   0.963   0.293
10049SOL    HW131046   0.492   1.009   0.226
10049SOL    HW231047   0.498   0.951   0.378
10050SOL     OW31048   6.290   2.648   5.177
10050SOL    HW131049   6.211   2.694   5.219
10050SOL    HW231050   6.362   2.715   5.160
10051SOL     OW31051   6.066   2.275   5.030
10051SOL    HW131052   6.041   2.309   4.939
10051SOL    HW231053   6.076   2.353   5.092
10052SOL     OW31054   2.285   2.367   2.502
10052SOL    HW131055   2.321   2.282   2.541
10052SOL    HW231056   2.283   2.360   2.403
10053SOL     OW31057   3.479   5.349   1.672
10053SOL    HW131058   3.516   5.434   1.709
10053SOL    HW231059   3.380   5.347   1.684
10054SOL     OW31060   4.561   5.939   6.110
10054SOL    HW131061   4.529   5.865   6.050
10054SOL    HW231062   4.487   6.004   6.125
10055SOL     OW31063   5.694   1.838   5.560
10055SOL    HW131064   5.748   1.871   5.483
10055SOL    HW231065   5.612   1.894   5.571
10056SOL     OW31066   6.799   5.184   0.879
10056SOL    HW131067   6.833   5.156   0.789
10056SOL    HW231068   6.865   5.160   0.950
10057SOL     OW31069   3.828   1.397   4.367
10057SOL    HW131070   3.920   1.358   4.369
10057SOL    HW231071   3.788   1.392   4.459
10058SOL     OW31072   0.166   3.856   4.757
10058SOL    HW131073   0.233   3.928   4.737
10058SOL    HW231074   0.137   3.813   4.671
10059SOL     OW31075   5.344   6.183   0.451
10059SOL    HW131076   5.419   6.149   0.508
10059SOL    HW231077   5.338   6.282   0.460
10060SOL     OW31078   2.228   1.431   2.293
10060SOL    HW131079   2.163   1.371   2.339
10060SOL    HW231080   2.218   1.421   2.194
10061SOL     OW31081   5.099   0.789   4.595
10061SOL    HW131082   5.139   0.862   4.540
10061SOL    HW231083   5.169   0.751   4.656
10062SOL     OW31084   6.162   6.603   4.907
10062SOL    HW131085   6.144   6.531   4.974
10062SOL    HW231086   6.204   6.682   4.952
10063SOL     OW31087   1.600   1.725   3.523
10063SOL    HW131088   1.537   1.654   3.555
10063SOL    HW231089   1.656   1.688   3.449
10064SOL     OW31090   5.357   6.190   6.786
10064SOL    HW131091   5.390   6.121   6.722
10064SOL    HW231092   5.356   6.279   6.741
10065SOL     OW31093   2.114   0.931   1.899
10065SOL    HW131094   2.180   0.937   1.824
10065SOL    HW231095   2.150   0.980   1.979
10066SOL     OW31096   1.679   1.058   3.950
10066SOL    HW131097   1.695   1.153   3.977
10066SOL    HW231098   1.664   1.055   3.851
10067SOL     OW31099   6.045   4.095   5.024
10067SOL    HW131100   6.120   4.076   4.960
10067SOL    HW231101   5.971   4.030   5.008
10068SOL     OW31102   6.020   3.267   3.649
10068SOL    HW131103   6.088   3.239   3.582
10068SOL    HW231104   6.015   3.367   3.652
10069SOL     OW31105   2.034   5.145   3.468
10069SOL    HW131106   2.003   5.229   3.513
10069SOL    HW231107   1.960   5.109   3.410
10070SOL     OW31108   6.975   0.299   5.458
10070SOL    HW131109   6.885   0.257   5.449
10070SOL    HW231110   0.019   0.228   5.471
10071SOL     OW31111   5.252   5.893   3.692
10071SOL    HW131112   5.167   5.865   3.737
10071SOL    HW231113   5.318   5.922   3.761
10072SOL     OW31114   0.416   6.211   3.786
10072SOL    HW131115   0.433   6.149   3.862
10072SOL    HW231116   0.323   6.198   3.752
10073SOL     OW31117   5.735   4.631   4.320
10073SOL    HW131118   5.724   4.584   4.232
10073SOL    HW231119   5.721   4.567   4.395
10074SOL     OW31120   1.629   1.011   5.329
10074SOL    HW131121   1.599   0.918   5.306
10074SOL    HW231122   1.725   1.009   5.356
10075SOL     OW31123   1.458   2.220   2.761
10075SOL    HW131124   1.377   2.205   2.705
10075SOL    HW231125   1.457   2.314   2.796
10076SOL     OW31126   6.065   6.786   3.895
10076SOL    HW131127   6.063   6.857   3.965
10076SOL    HW231128   6.014   6.706   3.926
10077SOL     OW31129   3.746   2.790   6.159
10077SOL    HW131130   3.768   2.800   6.256
10077SOL    HW231131   3.822   2.744   6.112
10078SOL     OW31132   0.106   6.159   4.066
10078SOL    HW131133   0.087   6.240   4.122
10078SOL    HW231134   0.063   6.169   3.977
10079SOL     OW31135   0.612   3.384   2.224
10079SOL    HW131136   0.558   3.311   2.266
10079SOL    HW231137   0.628   3.362   2.127
10080SOL     OW31138   3.601   1.382   5.503
10080SOL    HW131139   3.677   1.318   5.491
10080SOL    HW231140   3.606   1.453   5.433
10081SOL     OW31141   0.815   0.899   0.667
10081SOL    HW131142   0.876   0.970   0.703
10081SOL    HW231143   0.801   0.914   0.569
10082SOL     OW31144   7.016   4.812   2.271
10082SOL    HW131145   0.062   4.748   2.302
10082SOL    HW231146   0.029   4.873   2.203
10083SOL     OW31147   4.991   0.475   3.152
10083SOL    HW131148   5.087   0.473   3.182
10083SOL    HW231149   4.933   0.495   3.230
10084SOL     OW31150   3.198   1.267   6.367
10084SOL    HW131151   3.165   1.283   6.459
10084SOL    HW231152   3.289   1.308   6.356
10085SOL     OW31153   0.983   6.346   2.471
10085SOL    HW131154   1.078   6.341   2.441
10085SOL    HW231155   0.940   6.256   2.461
10086SOL     OW31156   5.696   4.983   1.725
10086SOL    HW131157   5.630   5.022   1.789
10086SOL    HW231158   5.648   4.942   1.647
10087SOL     OW31159   6.890   6.836   3.984
10087SOL    HW131160   6.982   6.836   4.024
10087SOL    HW231161   6.885   6.908   3.914
10088SOL     OW31162   0.156   0.460   0.186
10088SOL    HW131163   0.112   0.498   0.104
10088SOL    HW231164   0.141   0.361   0.188
10089SOL     OW31165   2.546   2.411   2.954
10089SOL    HW131166   2.619   2.346   2.976
10089SOL    HW231167   2.564   2.452   2.864
10090SOL     OW31168   1.454   4.859   1.129
10090SOL    HW131169   1.504   4.921   1.189
10090SOL    HW231170   1.485   4.765   1.146
10091SOL     OW31171   1.533   3.137   5.349
10091SOL    HW131172   1.556   3.063   5.411
10091SOL    HW231173   1.546   3.107   5.254
10092SOL     OW31174   1.991   3.674   4.886
10092SOL    HW131175   2.041   3.590   4.865
10092SOL    HW231176   2.025   3.713   4.972
10093SOL     OW31177   0.386   4.372   4.732
10093SOL    HW131178   0.392   4.472   4.735
10093SOL    HW231179   0.397   4.341   4.638
10094SOL     OW31180   1.630   6.000   2.093
10094SOL    HW131181   1.726   6.000   2.119
10094SOL    HW231182   1.622   5.998   1.993
10095SOL     OW31183   6.030   1.726   5.315
10095SOL    HW131184   6.064   1.707   5.223
10095SOL    HW231185   6.071   1.812   5.348
10096SOL     OW31186   5.455   5.134   2.165
10096SOL    HW131187   5.438   5.159   2.261
10096SOL    HW231188   5.476   5.036   2.159
10097SOL     OW31189   1.230   1.167   6.983
10097SOL    HW131190   1.306   1.220   7.023
10097SOL    HW231191   1.182   1.118   0.032
10098SOL     OW31192   2.591   0.639   4.997
10098SOL    HW131193   2.554   0.556   5.038
10098SOL    HW231194   2.590   0.713   5.064
10099SOL     OW31195   0.144   5.178   0.365
10099SOL    HW131196   0.089   5.251   0.405
10099SOL    HW231197   0.190   5.127   0.437
10100SOL     OW31198   4.782   0.139   4.632
10100SOL    HW131199   4.798   0.068   4.564
10100SOL    HW231200   4.769   0.097   4.722
10101SOL     OW31201   5.970   3.675   1.366
10101SOL    HW131202   5.984   3.684   1.465
10101SOL    HW231203   6.016   3.751   1.319
10102SOL     OW31204   1.390   0.750   2.525
10102SOL    HW131205   1.377   0.670   2.583
10102SOL    HW231206   1.487   0.778   2.527
10103SOL     OW31207   2.180   1.876   6.086
10103SOL    HW131208   2.178   1.953   6.022
10103SOL    HW231209   2.270   1.833   6.085
10104SOL     OW31210   1.302   2.772   4.309
10104SOL    HW131211   1.346   2.720   4.382
10104SOL    HW231212   1.225   2.824   4.347
10105SOL     OW31213   1.380   0.731   0.100
10105SOL    HW131214   1.287   0.716   0.066
10105SOL    HW231215   1.395   0.675   0.182
10106SOL     OW31216   4.399   6.611   0.926
10106SOL    HW131217   4.423   6.591   0.831
10106SOL    HW231218   4.478   6.652   0.972
10107SOL     OW31219   0.249   1.451   7.000
10107SOL    HW131220   0.176   1.499   0.025
10107SOL    HW231221   0.208   1.387   6.935
10108SOL     OW31222   6.766   6.509   0.036
10108SOL    HW131223   6.716   6.574   0.092
10108SOL    HW231224   6.705   6.469   6.993
10109SOL     OW31225   3.936   6.935   1.275
10109SOL    HW131226   3.883   6.883   1.209
10109SOL    HW231227   3.883   7.013   1.308
10110SOL     OW31228   4.734   6.076   4.749
10110SOL    HW131229   4.826   6.065   4.787
10110SOL    HW231230   4.676   6.122   4.816
10111SOL     OW31231   5.564   3.684   3.662
10111SOL    HW131232   5.469   3.656   3.677
10111SOL    HW231233   5.604   3.626   3.591
10112SOL     OW31234   6.002   3.747   3.770
10112SOL    HW131235   5.965   3.809   3.840
10112SOL    HW231236   6.012   3.796   3.684
10113SOL     OW31237   4.300   6.760   5.230
10113SOL    HW131238   4.238   6.827   5.190
10113SOL    HW231239   4.275   6.668   5.199
10114SOL     OW31240   5.674   0.829   1.111
10114SOL    HW131241   5.718   0.843   1.022
10114SOL    HW231242   5.589   0.881   1.115
10115SOL     OW31243   3.580   1.468   4.176
10115SOL    HW131244   3.566   1.437   4.082
10115SOL    HW231245   3.646   1.543   4.177
10116SOL     OW31246   6.900   6.106   0.403
10116SOL    HW131247   6.873   6.131   0.310
10116SOL    HW231248   6.942   6.186   0.447
10117SOL     OW31249   0.223   6.692   5.096
10117SOL    HW131250   0.319   6.714   5.115
10117SOL    HW231251   0.188   6.753   5.025
10118SOL     OW31252   1.385   5.099   3.165
10118SOL    HW131253   1.339   5.037   3.100
10118SOL    HW231254   1.364   5.194   3.141
10119SOL     OW31255   0.278   6.254   4.424
10119SOL    HW131256   0.370   6.272   4.461
10119SOL    HW231257   0.216   6.327   4.451
10120SOL     OW31258   1.833   3.875   4.724
10120SOL    HW131259   1.794   3.960   4.688
10120SOL    HW231260   1.761   3.822   4.768
10121SOL     OW31261   6.372   4.339   6.344
10121SOL    HW131262   6.460   4.327   6.299
10121SOL    HW231263   6.311   4.264   6.319
10122SOL     OW31264   6.097   2.969   0.908
10122SOL    HW131265   6.148   2.884   0.923
10122SOL    HW231266   6.002   2.956   0.937
10123SOL     OW31267   6.265   0.151   6.916
10123SOL    HW131268   6.212   0.218   6.864
10123SOL    HW231269   6.361   0.178   6.918
10124SOL     OW31270   2.071   3.516   6.736
10124SOL    HW131271   2.164   3.546   6.759
10124SOL    HW231272   2.032   3.579   6.669
10125SOL     OW31273   1.663   0.848   2.415
10125SOL    HW131274   1.630   0.904   2.339
10125SOL    HW231275   1.714   0.905   2.479
10126SOL     OW31276   0.620   6.856   6.154
10126SOL    HW131277   0.549   6.850   6.224
10126SOL    HW231278   0.609   6.940   6.102
10127SOL     OW31279   2.349   4.403   6.254
10127SOL    HW131280   2.302   4.385   6.168
10127SOL    HW231281   2.402   4.323   6.281
10128SOL     OW31282   1.833   0.977   1.357
10128SOL    HW131283   1.778   1.056   1.383
10128SOL    HW231284   1.892   0.951   1.434
10129SOL     OW31285   5.903   2.680   3.355
10129SOL    HW131286   5.885   2.776   3.375
10129SOL    HW231287   5.922   2.669   3.257
10130SOL     OW31288   1.664   4.122   2.191
10130SOL    HW131289   1.755   4.162   2.177
10130SOL    HW231290   1.658   4.085   2.283
10131SOL     OW31291   0.372   0.150   4.184
10131SOL    HW131292   0.337   0.111   4.099
10131SOL    HW231293   0.367   0.250   4.180
10132SOL     OW31294   3.300   6.988   4.833
10132SOL    HW131295   3.397   6.978   4.811
10132SOL    HW231296   3.288   0.038   4.898
10133SOL     OW31297   4.781   6.667   1.332
10133SOL    HW131298   4.811   6.572   1.334
10133SOL    HW231299   4.836   6.720   1.398
10134SOL     OW31300   6.976   5.972   3.857
10134SOL    HW131301   6.944   5.901   3.795
10134SOL    HW231302   6.938   5.956   3.948
10135SOL     OW31303   4.964   3.235   3.535
10135SOL    HW131304   4.911   3.289   3.601
10135SOL    HW231305   4.975   3.288   3.451
10136SOL     OW31306   5.107   0.752   3.490
10136SOL    HW131307   5.040   0.688   3.451
10136SOL    HW231308   5.102   0.839   3.442
10137SOL     OW31309   5.713   4.280   3.982
10137SOL    HW131310   5.798   4.255   4.028
10137SOL    HW231311   5.656   4.199   3.972
10138SOL     OW31312   5.099   2.375   0.957
10138SOL    HW131313   5.147   2.448   0.909
10138SOL    HW231314   5.009   2.409   0.986
10139SOL     OW31315   3.794   4.084   3.412
10139SOL    HW131316   3.810   4.175   3.375
10139SOL    HW231317   3.850   4.070   3.494
10140SOL     OW31318   6.217   6.105   6.220
10140SOL    HW131319   6.271   6.042   6.277
10140SOL    HW231320   6.243   6.199   6.241
10141SOL     OW31321   4.314   1.881   4.639
10141SOL    HW131322   4.246   1.943   4.600
10141SOL    HW231323   4.370   1.930   4.706
10142SOL     OW31324   6.267   0.062   4.616
10142SOL    HW131325   6.208   0.075   4.696
10142SOL    HW231326   6.297   6.992   4.612
10143SOL     OW31327   4.296   0.935   0.181
10143SOL    HW131328   4.265   1.025   0.152
10143SOL    HW231329   4.329   0.883   0.102
10144SOL     OW31330   3.648   0.267   6.630
10144SOL    HW131331   3.686   0.206   6.560
10144SOL    HW231332   3.706   0.264   6.712
10145SOL     OW31333   3.036   5.399   5.399
10145SOL    HW131334   3.065   5.304   5.407
10145SOL    HW231335   2.968   5.408   5.328
10146SOL     OW31336   3.912   5.398   4.393
10146SOL    HW131337   3.948   5.462   4.326
10146SOL    HW231338   3.872   5.319   4.346
10147SOL     OW31339   5.519   4.163   5.295
10147SOL    HW131340   5.449   4.095   5.317
10147SOL    HW231341   5.594   4.157   5.360
10148SOL     OW31342   4.629   5.533   6.854
10148SOL    HW131343   4.596   5.625   6.874
10148SOL    HW231344   4.704   5.510   6.917
10149SOL     OW31345   5.960   2.791   0.359
10149SOL    HW131346   5.981   2.820   0.266
10149SOL    HW231347   5.908   2.706   0.357
10150SOL     OW31348   4.146   3.795   0.399
10150SOL    HW131349   4.171   3.836   0.487
10150SOL    HW231350   4.054   3.825   0.374
10151SOL     OW31351   0.923   6.759   6.933
10151SOL    HW131352   0.845   6.735   6.875
10151SOL    HW231353   0.899   6.743   0.004
10152SOL     OW31354   0.373   6.072   4.662
10152SOL    HW131355   0.448   6.049   4.725
10152SOL    HW231356   0.402   6.149   4.604
10153SOL     OW31357   4.847   6.285   3.880
10153SOL    HW131358   4.819   6.380   3.897
10153SOL    HW231359   4.828   6.230   3.961
10154SOL     OW31360   5.463   0.224   5.178
10154SOL    HW131361   5.482   0.186   5.087
10154SOL    HW231362   5.549   0.247   5.223
10155SOL     OW31363   3.968   1.941   5.576
10155SOL    HW131364   3.918   1.878   5.636
10155SOL    HW231365   3.975   2.030   5.621
10156SOL     OW31366   5.857   1.307   3.201
10156SOL    HW131367   5.808   1.270   3.280
10156SOL    HW231368   5.812   1.277   3.116
10157SOL     OW31369   6.353   2.446   0.150
10157SOL    HW131370   6.440   2.427   0.197
10157SOL    HW231371   6.320   2.537   0.176
10158SOL     OW31372   6.095   3.797   1.122
10158SOL    HW131373   6.052   3.763   1.039
10158SOL    HW231374   6.192   3.773   1.121
10159SOL     OW31375   2.862   3.450   6.916
10159SOL    HW131376   2.853   3.495   6.827
10159SOL    HW231377   2.805   3.368   6.918
10160SOL     OW31378   2.126   2.842   2.168
10160SOL    HW131379   2.168   2.822   2.257
10160SOL    HW231380   2.194   2.884   2.107
10161SOL     OW31381   2.899   2.810   6.462
10161SOL    HW131382   2.908   2.892   6.406
10161SOL    HW231383   2.888   2.730   6.402
10162SOL     OW31384   3.463   4.489   0.975
10162SOL    HW131385   3.407   4.541   0.911
10162SOL    HW231386   3.404   4.432   1.033
10163SOL     OW31387   5.900   4.655   6.135
10163SOL    HW131388   5.849   4.576   6.102
10163SOL    HW231389   5.984   4.624   6.179
10164SOL     OW31390   5.864   4.036   4.669
10164SOL    HW131391   5.936   4.066   4.731
10164SOL    HW231392   5.787   4.099   4.675
10165SOL     OW31393   0.061   1.999   3.183
10165SOL    HW131394   0.069   1.940   3.264
10165SOL    HW231395   7.023   2.075   3.204
10166SOL     OW31396   3.470   2.012   1.720
10166SOL    HW131397   3.383   1.990   1.764
10166SOL    HW231398   3.474   2.109   1.700
10167SOL     OW31399   2.580   3.363   6.781
10167SOL    HW131400   2.648   3.317   6.723
10167SOL    HW231401   2.492   3.365   6.734
10168SOL     OW31402   6.165   3.823   5.676
10168SOL    HW131403   6.070   3.803   5.697
10168SOL    HW231404   6.204   3.746   5.624
10169SOL     OW31405   6.876   4.148   3.749
10169SOL    HW131406   6.949   4.125   3.813
10169SOL    HW231407   6.805   4.200   3.796
10170SOL     OW31408   1.010   5.269   5.408
10170SOL    HW131409   1.059   5.199   5.460
10170SOL    HW231410   0.978   5.340   5.470
10171SOL     OW31411   6.687   2.632   5.318
10171SOL    HW131412   6.738   2.599   5.239
10171SOL    HW231413   6.615   2.695   5.288
10172SOL     OW31414   6.988   6.898   5.290
10172SOL    HW131415   6.993   6.958   5.210
10172SOL    HW231416   6.973   6.804   5.260
10173SOL     OW31417   1.050   3.223   1.629
10173SOL    HW131418   1.044   3.279   1.712
10173SOL    HW231419   1.130   3.163   1.635
10174SOL     OW31420   5.362   5.463   2.649
10174SOL    HW131421   5.455   5.485   2.618
10174SOL    HW231422   5.316   5.547   2.677
10175SOL     OW31423   4.918   1.644   4.023
10175SOL    HW131424   4.903   1.706   3.947
10175SOL    HW231425   5.008   1.601   4.014
10176SOL     OW31426   1.018   3.842   5.372
10176SOL    HW131427   1.035   3.747   5.397
10176SOL    HW231428   0.966   3.887   5.445
10177SOL     OW31429   2.567   0.493   0.705
10177SOL    HW131430   2.542   0.414   0.648
10177SOL    HW231431   2.548   0.577   0.654
10178SOL     OW31432   0.095   0.614   6.251
10178SOL    HW131433   0.174   0.635   6.194
10178SOL    HW231434   0.124   0.606   6.347
10179SOL     OW31435   0.808   1.827   6.784
10179SOL    HW131436   0.834   1.731   6.783
10179SOL    HW231437   0.857   1.873   6.859
10180SOL     OW31438   4.379   0.408   5.848
10180SOL    HW131439   4.411   0.376   5.937
10180SOL    HW231440   4.426   0.493   5.825
10181SOL     OW31441   6.125   2.836   1.610
10181SOL    HW131442   6.185   2.827   1.531
10181SOL    HW231443   6.179   2.845   1.693
10182SOL     OW31444   4.292   1.216   1.679
10182SOL    HW131445   4.330   1.199   1.588
10182SOL    HW231446   4.320   1.143   1.741
10183SOL     OW31447   6.815   2.369   6.732
10183SOL    HW131448   6.886   2.300   6.718
10183SOL    HW231449   6.734   2.345   6.678
10184SOL     OW31450   4.756   0.814   6.242
10184SOL    HW131451   4.729   0.723   6.211
10184SOL    HW231452   4.854   0.827   6.226
10185SOL     OW31453   5.885   6.231   2.208
10185SOL    HW131454   5.829   6.188   2.279
10185SOL    HW231455   5.975   6.188   2.207
10186SOL     OW31456   5.743   3.539   3.842
10186SOL    HW131457   5.818   3.580   3.791
10186SOL    HW231458   5.662   3.596   3.834
10187SOL     OW31459   0.507   3.277   0.425
10187SOL    HW131460   0.598   3.284   0.383
10187SOL    HW231461   0.507   3.204   0.493
10188SOL     OW31462   3.673   5.543   0.438
10188SOL    HW131463   3.764   5.560   0.476
10188SOL    HW231464   3.626   5.630   0.424
10189SOL     OW31465   0.837   1.545   6.284
10189SOL    HW131466   0.862   1.621   6.224
10189SOL    HW231467   0.876   1.560   6.375
10190SOL     OW31468   4.895   3.220   2.182
10190SOL    HW131469   4.829   3.153   2.149
10190SOL    HW231470   4.964   3.237   2.111
10191SOL     OW31471   5.644   4.951   5.635
10191SOL    HW131472   5.686   4.974   5.723
10191SOL    HW231473   5.710   4.905   5.577
10192SOL     OW31474   4.217   1.074   5.402
10192SOL    HW131475   4.180   1.110   5.316
10192SOL    HW231476   4.255   1.149   5.456
10193SOL     OW31477   4.050   3.415   2.011
10193SOL    HW131478   4.092   3.336   1.967
10193SOL    HW231479   4.044   3.399   2.110
10194SOL     OW31480   5.547   5.547   5.854
10194SOL    HW131481   5.639   5.511   5.869
10194SOL    HW231482   5.537   5.634   5.902
10195SOL     OW31483   6.424   5.639   0.584
10195SOL    HW131484   6.513   5.598   0.600
10195SOL    HW231485   6.355   5.590   0.638
10196SOL     OW31486   4.849   1.388   3.631
10196SOL    HW131487   4.792   1.378   3.549
10196SOL    HW231488   4.897   1.476   3.629
10197SOL     OW31489   5.559   1.605   5.733
10197SOL    HW131490   5.639   1.634   5.785
10197SOL    HW231491   5.588   1.574   5.642
10198SOL     OW31492   2.565   6.876   2.097
10198SOL    HW131493   2.626   6.930   2.038
10198SOL    HW231494   2.615   6.796   2.132
10199SOL     OW31495   2.398   2.867   0.164
10199SOL    HW131496   2.405   2.868   0.264
10199SOL    HW231497   2.302   2.861   0.136
10200SOL     OW31498   5.128   2.114   0.208
10200SOL    HW131499   5.032   2.121   0.180
10200SOL    HW231500   5.136   2.140   0.304
10201SOL     OW31501   1.408   4.756   0.835
10201SOL    HW131502   1.457   4.670   0.819
10201SOL    HW231503   1.310   4.739   0.833
10202SOL     OW31504   3.666   3.670   0.188
10202SOL    HW131505   3.747   3.728   0.181
10202SOL    HW231506   3.693   3.580   0.222
10203SOL     OW31507   6.396   3.159   2.864
10203SOL    HW131508   6.316   3.100   2.852
10203SOL    HW231509   6.401   3.224   2.788
10204SOL     OW31510   5.190   6.124   0.253
10204SOL    HW131511   5.245   6.134   0.335
10204SOL    HW231512   5.239   6.163   0.175
10205SOL     OW31513   1.616   0.138   1.358
10205SOL    HW131514   1.541   0.147   1.293
10205SOL    HW231515   1.630   0.224   1.406
10206SOL     OW31516   0.175   0.908   0.415
10206SOL    HW131517   0.203   0.861   0.332
10206SOL    HW231518   0.252   0.910   0.479
10207SOL     OW31519   1.341   2.192   0.055
10207SOL    HW131520   1.380   2.222   6.993
10207SOL    HW231521   1.251   2.234   0.067
10208SOL     OW31522   6.203   4.176   4.281
10208SOL    HW131523   6.199   4.271   4.312
10208SOL    HW231524   6.265   4.124   4.339
10209SOL     OW31525   0.403   0.295   0.331
10209SOL    HW131526   0.342   0.343   0.394
10209SOL    HW231527   0.484   0.350   0.313
10210SOL     OW31528   4.584   6.629   1.883
10210SOL    HW131529   4.586   6.543   1.935
10210SOL    HW231530   4.651   6.624   1.809
10211SOL     OW31531   3.912   6.208   4.792
10211SOL    HW131532   3.986   6.268   4.821
10211SOL    HW231533   3.859   6.253   4.720
10212SOL     OW31534   0.797   0.396   5.181
10212SOL    HW131535   0.730   0.438   5.120
10212SOL    HW231536   0.798   0.297   5.165
10213SOL     OW31537   5.721   2.999   1.401
10213SOL    HW131538   5.802   3.004   1.344
10213SOL    HW231539   5.730   3.062   1.478
10214SOL     OW31540   1.636   1.908   2.331
10214SOL    HW131541   1.633   1.835   2.263
10214SOL    HW231542   1.545   1.948   2.341
10215SOL     OW31543   4.107   3.504   3.279
10215SOL    HW131544   4.173   3.563   3.232
10215SOL    HW231545   4.024   3.497   3.225
10216SOL     OW31546   0.126   1.267   1.537
10216SOL    HW131547   0.089   1.268   1.444
10216SOL    HW231548   0.060   1.310   1.599
10217SOL     OW31549   3.139   1.836   3.129
10217SOL    HW131550   3.170   1.885   3.047
10217SOL    HW231551   3.119   1.902   3.202
10218SOL     OW31552   2.073   1.606   1.307
10218SOL    HW131553   2.157   1.653   1.336
10218SOL    HW231554   2.070   1.602   1.207
10219SOL     OW31555   0.068   2.061   2.447
10219SOL    HW131556   0.068   1.977   2.392
10219SOL    HW231557   0.162   2.087   2.468
10220SOL     OW31558   4.732   2.095   1.011
10220SOL    HW131559   4.705   2.183   0.972
10220SOL    HW231560   4.695   2.021   0.954
10221SOL     OW31561   0.789   4.838   3.449
10221SOL    HW131562   0.789   4.814   3.546
10221SOL    HW231563   0.860   4.905   3.430
10222SOL     OW31564   2.657   3.666   5.888
10222SOL    HW131565   2.643   3.736   5.818
10222SOL    HW231566   2.689   3.582   5.845
10223SOL     OW31567   1.160   5.071   1.415
10223SOL    HW131568   1.142   5.065   1.514
10223SOL    HW231569   1.114   4.995   1.368
10224SOL     OW31570   6.975   3.198   4.594
10224SOL    HW131571   7.017   3.286   4.574
10224SOL    HW231572   0.017   3.138   4.638
10225SOL     OW31573   1.275   4.777   5.573
10225SOL    HW131574   1.360   4.822   5.602
10225SOL    HW231575   1.220   4.754   5.653
10226SOL     OW31576   2.802   1.524   6.066
10226SOL    HW131577   2.731   1.526   6.137
10226SOL    HW231578   2.887   1.488   6.105
10227SOL     OW31579   5.876   4.970   0.759
10227SOL    HW131580   5.820   4.981   0.677
10227SOL    HW231581   5.961   5.021   0.748
10228SOL     OW31582   0.246   6.620   1.876
10228SOL    HW131583   0.166   6.586   1.827
10228SOL    HW231584   0.306   6.543   1.899
10229SOL     OW31585   0.866   3.383   4.773
10229SOL    HW131586   0.851   3.479   4.793
10229SOL    HW231587   0.841   3.328   4.854
10230SOL     OW31588   5.521   6.056   3.202
10230SOL    HW131589   5.519   6.124   3.275
10230SOL    HW231590   5.605   6.002   3.209
10231SOL     OW31591   6.850   5.655   5.380
10231SOL    HW131592   6.905   5.573   5.359
10231SOL    HW231593   6.909   5.736   5.377
10232SOL     OW31594   2.896   1.242   3.435
10232SOL    HW131595   2.919   1.306   3.362
10232SOL    HW231596   2.805   1.204   3.418
10233SOL     OW31597   3.848   4.246   5.200
10233SOL    HW131598   3.912   4.319   5.223
10233SOL    HW231599   3.754   4.277   5.215
10234SOL     OW31600   6.063   1.378   1.805
10234SOL    HW131601   6.041   1.476   1.807
10234SOL    HW231602   6.080   1.351   1.710
10235SOL     OW31603   2.237   2.906   1.916
10235SOL    HW131604   2.209   2.999   1.941
10235SOL    HW231605   2.313   2.910   1.851
10236SOL     OW31606   2.962   0.094   0.001
10236SOL    HW131607   3.031   0.159   0.031
10236SOL    HW231608   2.956   0.095   6.926
10237SOL     OW31609   0.399   3.596   6.720
10237SOL    HW131610   0.425   3.685   6.684
10237SOL    HW231611   0.480   3.540   6.734
10238SOL     OW31612   3.657   4.285   1.625
10238SOL    HW131613   3.579   4.346   1.638
10238SOL    HW231614   3.659   4.217   1.698
10239SOL     OW31615   1.455   3.052   4.489
10239SOL    HW131616   1.520   3.116   4.448
10239SOL    HW231617   1.504   2.977   4.533
10240SOL     OW31618   2.310   5.325   2.464
10240SOL    HW131619   2.364   5.315   2.547
10240SOL    HW231620   2.369   5.352   2.388
10241SOL     OW31621   6.297   0.150   2.448
10241SOL    HW131622   6.217   0.175   2.503
10241SOL    HW231623   6.342   0.233   2.416
10242SOL     OW31624   0.307   1.657   0.699
10242SOL    HW131625   0.256   1.742   0.711
10242SOL    HW231626   0.244   1.584   0.671
10243SOL     OW31627   2.409   4.650   2.132
10243SOL    HW131628   2.457   4.611   2.053
10243SOL    HW231629   2.348   4.724   2.102
10244SOL     OW31630   1.942   4.252   0.424
10244SOL    HW131631   1.921   4.244   0.326
10244SOL    HW231632   2.027   4.303   0.436
10245SOL     OW31633   3.786   3.696   0.720
10245SOL    HW131634   3.818   3.785   0.753
10245SOL    HW231635   3.742   3.707   0.631
10246SOL     OW31636   3.402   4.018   4.185
10246SOL    HW131637   3.366   4.070   4.107
10246SOL    HW231638   3.499   4.037   4.195
10247SOL     OW31639   6.192   4.098   5.631
10247SOL    HW131640   6.160   4.003   5.624
10247SOL    HW231641   6.228   4.115   5.723
10248SOL     OW31642   1.490   6.652   3.090
10248SOL    HW131643   1.475   6.652   2.991
10248SOL    HW231644   1.567   6.592   3.112
10249SOL     OW31645   3.070   6.011   6.483
10249SOL    HW131646   3.104   5.948   6.413
10249SOL    HW231647   2.978   6.042   6.459
10250SOL     OW31648   6.576   3.243   1.374
10250SOL    HW131649   6.507   3.299   1.328
10250SOL    HW231650   6.539   3.151   1.390
10251SOL     OW31651   2.090   1.760   4.532
10251SOL    HW131652   2.158   1.832   4.544
10251SOL    HW231653   2.024   1.789   4.462
10252SOL     OW31654   4.342   4.083   6.297
10252SOL    HW131655   4.388   4.050   6.379
10252SOL    HW231656   4.297   4.170   6.316
10253SOL     OW31657   2.989   5.373   0.456
10253SOL    HW131658   2.971   5.287   0.408
10253SOL    HW231659   2.967   5.363   0.553
10254SOL     OW31660   4.986   1.173   5.151
10254SOL    HW131661   4.984   1.256   5.095
10254SOL    HW231662   5.018   1.096   5.096
10255SOL     OW31663   2.537   6.674   1.074
10255SOL    HW131664   2.586   6.587   1.062
10255SOL    HW231665   2.587   6.747   1.028
10256SOL     OW31666   3.860   1.840   2.319
10256SOL    HW131667   3.927   1.778   2.361
10256SOL    HW231668   3.853   1.820   2.221
10257SOL     OW31669   2.297   5.235   3.852
10257SOL    HW131670   2.264   5.230   3.757
10257SOL    HW231671   2.226   5.203   3.914
10258SOL     OW31672   3.881   2.127   3.714
10258SOL    HW131673   3.896   2.038   3.757
10258SOL    HW231674   3.934   2.132   3.629
10259SOL     OW31675   0.564   3.791   2.938
10259SOL    HW131676   0.534   3.702   2.905
10259SOL    HW231677   0.573   3.854   2.860
10260SOL     OW31678   0.943   1.462   3.320
10260SOL    HW131679   1.009   1.421   3.258
10260SOL    HW231680   0.916   1.395   3.389
10261SOL     OW31681   6.649   4.985   1.348
10261SOL    HW131682   6.747   4.973   1.363
10261SOL    HW231683   6.629   4.977   1.250
10262SOL     OW31684   2.841   0.194   5.722
10262SOL    HW131685   2.784   0.246   5.786
10262SOL    HW231686   2.796   0.192   5.633
10263SOL     OW31687   5.753   6.865   0.993
10263SOL    HW131688   5.803   6.895   0.912
10263SOL    HW231689   5.672   6.921   1.006
10264SOL     OW31690   0.124   6.411   6.784
10264SOL    HW131691   0.141   6.328   6.731
10264SOL    HW231692   0.203   6.472   6.777
10265SOL     OW31693   3.245   2.381   1.077
10265SOL    HW131694   3.243   2.321   1.158
10265SOL    HW231695   3.229   2.326   0.995
10266SOL     OW31696   3.559   3.076   3.713
10266SOL    HW131697   3.497   3.132   3.770
10266SOL    HW231698   3.640   3.052   3.766
10267SOL     OW31699   5.280   1.714   0.502
10267SOL    HW131700   5.254   1.691   0.596
10267SOL    HW231701   5.271   1.813   0.489
10268SOL     OW31702   6.278   6.775   2.315
10268SOL    HW131703   6.349   6.713   2.280
10268SOL    HW231704   6.194   6.723   2.332
10269SOL     OW31705   0.958   3.654   5.851
10269SOL    HW131706   0.989   3.562   5.826
10269SOL    HW231707   0.896   3.688   5.780
10270SOL     OW31708   3.336   4.926   2.318
10270SOL    HW131709   3.343   4.910   2.417
10270SOL    HW231710   3.305   4.842   2.273
10271SOL     OW31711   3.819   2.564   0.030
10271SOL    HW131712   3.805   2.617   0.113
10271SOL    HW231713   3.917   2.546   0.017
10272SOL     OW31714   1.300   0.933   5.532
10272SOL    HW131715   1.366   0.861   5.510
10272SOL    HW231716   1.236   0.900   5.600
10273SOL     OW31717   2.848   5.741   2.708
10273SOL    HW131718   2.811   5.812   2.768
10273SOL    HW231719   2.947   5.750   2.703
10274SOL     OW31720   0.688   4.578   6.138
10274SOL    HW131721   0.712   4.595   6.043
10274SOL    HW231722   0.640   4.658   6.175
10275SOL     OW31723   0.843   6.645   1.935
10275SOL    HW131724   0.775   6.610   1.999
10275SOL    HW231725   0.926   6.669   1.984
10276SOL     OW31726   5.524   6.140   5.259
10276SOL    HW131727   5.601   6.172   5.203
10276SOL    HW231728   5.552   6.059   5.310
10277SOL     OW31729   1.957   5.979   5.135
10277SOL    HW131730   2.000   6.069   5.137
10277SOL    HW231731   1.959   5.939   5.226
10278SOL     OW31732   1.507   1.461   3.202
10278SOL    HW131733   1.447   1.468   3.282
10278SOL    HW231734   1.453   1.433   3.122
10279SOL     OW31735   1.458   4.819   4.305
10279SOL    HW131736   1.500   4.795   4.392
10279SOL    HW231737   1.383   4.756   4.286
10280SOL     OW31738   6.660   2.437   6.299
10280SOL    HW131739   6.585   2.403   6.241
10280SOL    HW231740   6.747   2.423   6.252
10281SOL     OW31741   6.016   1.763   3.376
10281SOL    HW131742   6.076   1.816   3.316
10281SOL    HW231743   5.936   1.818   3.400
10282SOL     OW31744   5.442   3.316   4.234
10282SOL    HW131745   5.505   3.257   4.183
10282SOL    HW231746   5.493   3.365   4.304
10283SOL     OW31747   1.580   3.209   0.998
10283SOL    HW131748   1.638   3.277   1.041
10283SOL    HW231749   1.486   3.219   1.030
10284SOL     OW31750   5.144   1.993   5.429
10284SOL    HW131751   5.126   1.980   5.331
10284SOL    HW231752   5.079   1.939   5.482
10285SOL     OW31753   5.024   6.650   3.217
10285SOL    HW131754   5.080   6.624   3.138
10285SOL    HW231755   4.935   6.605   3.210
10286SOL     OW31756   3.637   1.264   3.865
10286SOL    HW131757   3.721   1.238   3.913
10286SOL    HW231758   3.655   1.270   3.767
10287SOL     OW31759   3.211   5.342   1.808
10287SOL    HW131760   3.213   5.256   1.860
10287SOL    HW231761   3.137   5.338   1.741
10288SOL     OW31762   4.505   6.062   2.906
10288SOL    HW131763   4.416   6.036   2.868
10288SOL    HW231764   4.508   6.038   3.003
10289SOL     OW31765   2.796   6.423   6.716
10289SOL    HW131766   2.850   6.481   6.655
10289SOL    HW231767   2.706   6.464   6.731
10290SOL     OW31768   2.983   3.623   3.066
10290SOL    HW131769   2.955   3.631   2.970
10290SOL    HW231770   3.044   3.544   3.075
10291SOL     OW31771   3.595   1.659   2.503
10291SOL    HW131772   3.640   1.704   2.581
10291SOL    HW231773   3.511   1.615   2.535
10292SOL     OW31774   1.510   1.875   5.183
10292SOL    HW131775   1.561   1.862   5.099
10292SOL    HW231776   1.563   1.931   5.246
10293SOL     OW31777   1.352   3.631   2.218
10293SOL    HW131778   1.305   3.657   2.134
10293SOL    HW231779   1.360   3.531   2.222
10294SOL     OW31780   4.485   1.757   3.395
10294SOL    HW131781   4.520   1.686   3.456
10294SOL    HW231782   4.421   1.717   3.330
10295SOL     OW31783   0.359   3.334   5.799
10295SOL    HW131784   0.425   3.278   5.750
10295SOL    HW231785   0.394   3.427   5.809
10296SOL     OW31786   5.180   1.030   7.007
10296SOL    HW131787   5.232   1.038   0.067
10296SOL    HW231788   5.083   1.048   0.000
10297SOL     OW31789   2.004   1.255   5.748
10297SOL    HW131790   2.097   1.244   5.783
10297SOL    HW231791   1.980   1.352   5.747
10298SOL     OW31792   3.076   4.065   1.085
10298SOL    HW131793   3.017   4.014   1.022
10298SOL    HW231794   3.030   4.075   1.173
10299SOL     OW31795   3.987   4.843   3.094
10299SOL    HW131796   4.043   4.777   3.044
10299SOL    HW231797   3.907   4.868   3.039
10300SOL     OW31798   1.546   4.387   2.142
10300SOL    HW131799   1.630   4.416   2.096
10300SOL    HW231800   1.550   4.288   2.158
10301SOL     OW31801   4.934   2.159   5.221
10301SOL    HW131802   4.884   2.218   5.285
10301SOL    HW231803   4.947   2.069   5.262
10302SOL     OW31804   2.575   6.570   4.629
10302SOL    HW131805   2.523   6.649   4.596
10302SOL    HW231806   2.659   6.602   4.674
10303SOL     OW31807   1.466   5.654   2.966
10303SOL    HW131808   1.371   5.637   2.941
10303SOL    HW231809   1.480   5.629   3.062
10304SOL     OW31810   5.639   6.966   1.739
10304SOL    HW131811   5.711   7.014   1.790
10304SOL    HW231812   5.576   6.923   1.803
10305SOL     OW31813   1.207   4.128   5.937
10305SOL    HW131814   1.166   4.219   5.934
10305SOL    HW231815   1.156   4.067   5.878
10306SOL     OW31816   5.353   5.793   0.075
10306SOL    HW131817   5.294   5.854   0.022
10306SOL    HW231818   5.410   5.847   0.136
10307SOL     OW31819   3.174   2.075   5.277
10307SOL    HW131820   3.192   2.117   5.188
10307SOL    HW231821   3.085   2.105   5.311
10308SOL     OW31822   2.127   3.846   2.891
10308SOL    HW131823   2.063   3.910   2.848
10308SOL    HW231824   2.213   3.892   2.912
10309SOL     OW31825   6.586   2.380   0.230
10309SOL    HW131826   6.617   2.451   0.166
10309SOL    HW231827   6.665   2.338   0.274
10310SOL     OW31828   3.528   3.868   0.808
10310SOL    HW131829   3.498   3.803   0.878
10310SOL    HW231830   3.570   3.947   0.852
10311SOL     OW31831   6.488   5.922   0.627
10311SOL    HW131832   6.569   5.924   0.569
10311SOL    HW231833   6.435   5.839   0.608
10312SOL     OW31834   4.180   6.290   2.309
10312SOL    HW131835   4.160   6.372   2.363
10312SOL    HW231836   4.110   6.281   2.237
10313SOL     OW31837   4.296   6.032   1.804
10313SOL    HW131838   4.376   5.982   1.838
10313SOL    HW231839   4.212   5.989   1.839
10314SOL     OW31840   6.524   0.397   1.457
10314SOL    HW131841   6.604   0.368   1.509
10314SOL    HW231842   6.441   0.374   1.508
10315SOL     OW31843   5.705   5.726   4.967
10315SOL    HW131844   5.611   5.741   4.936
10315SOL    HW231845   5.709   5.643   5.022
10316SOL     OW31846   6.184   1.959   5.373
10316SOL    HW131847   6.132   2.023   5.316
10316SOL    HW231848   6.282   1.973   5.358
10317SOL     OW31849   5.083   6.289   6.207
10317SOL    HW131850   5.100   6.380   6.245
10317SOL    HW231851   5.027   6.237   6.271
10318SOL     OW31852   4.901   0.522   6.823
10318SOL    HW131853   4.997   0.548   6.833
10318SOL    HW231854   4.889   0.427   6.852
10319SOL     OW31855   0.399   2.929   5.397
10319SOL    HW131856   0.407   2.915   5.496
10319SOL    HW231857   0.491   2.939   5.358
10320SOL     OW31858   1.029   6.878   2.437
10320SOL    HW131859   0.954   6.828   2.480
10320SOL    HW231860   1.040   6.848   2.343
10321SOL     OW31861   4.068   2.238   2.050
10321SOL    HW131862   4.007   2.170   2.090
10321SOL    HW231863   4.091   2.307   2.119
10322SOL     OW31864   5.960   5.317   5.082
10322SOL    HW131865   6.047   5.346   5.122
10322SOL    HW231866   5.905   5.270   5.152
10323SOL     OW31867   6.065   3.787   4.894
10323SOL    HW131868   6.049   3.706   4.839
10323SOL    HW231869   5.982   3.810   4.945
10324SOL     OW31870   3.371   2.963   2.337
10324SOL    HW131871   3.294   3.007   2.382
10324SOL    HW231872   3.425   3.032   2.289
10325SOL     OW31873   6.892   4.056   2.276
10325SOL    HW131874   6.884   4.028   2.180
10325SOL    HW231875   6.945   4.141   2.281
10326SOL     OW31876   3.532   4.829   0.378
10326SOL    HW131877   3.484   4.894   0.319
10326SOL    HW231878   3.498   4.736   0.360
10327SOL     OW31879   2.000   1.964   0.610
10327SOL    HW131880   2.077   1.916   0.568
10327SOL    HW231881   1.931   1.897   0.638
10328SOL     OW31882   6.613   2.513   1.089
10328SOL    HW131883   6.597   2.425   1.133
10328SOL    HW231884   6.708   2.518   1.058
10329SOL     OW31885   3.134   1.189   3.561
10329SOL    HW131886   3.108   1.129   3.636
10329SOL    HW231887   3.053   1.236   3.525
10330SOL     OW31888   4.123   1.200   2.471
10330SOL    HW131889   4.029   1.199   2.505
10330SOL    HW231890   4.183   1.155   2.538
10331SOL     OW31891   6.471   0.756   6.076
10331SOL    HW131892   6.427   0.837   6.116
10331SOL    HW231893   6.401   0.699   6.033
10332SOL     OW31894   0.078   0.330   1.474
10332SOL    HW131895   0.112   0.392   1.404
10332SOL    HW231896   0.047   0.383   1.553
10333SOL     OW31897   0.731   4.561   5.007
10333SOL    HW131898   0.747   4.587   5.102
10333SOL    HW231899   0.811   4.513   4.971
10334SOL     OW31900   3.439   0.449   3.446
10334SOL    HW131901   3.408   0.355   3.445
10334SOL    HW231902   3.428   0.489   3.354
10335SOL     OW31903   3.038   4.387   6.337
10335SOL    HW131904   2.950   4.434   6.328
10335SOL    HW231905   3.045   4.316   6.268
10336SOL     OW31906   6.868   0.054   1.921
10336SOL    HW131907   6.935   0.027   1.851
10336SOL    HW231908   6.855   7.002   1.985
10337SOL     OW31909   0.165   6.089   6.154
10337SOL    HW131910   0.118   6.048   6.076
10337SOL    HW231911   0.230   6.022   6.192
10338SOL     OW31912   1.691   5.987   2.536
10338SOL    HW131913   1.720   6.025   2.624
10338SOL    HW231914   1.771   5.954   2.485
10339SOL     OW31915   4.403   3.870   6.462
10339SOL    HW131916   4.317   3.892   6.416
10339SOL    HW231917   4.391   3.787   6.516
10340SOL     OW31918   1.164   3.929   1.073
10340SOL    HW131919   1.102   3.856   1.101
10340SOL    HW231920   1.165   4.001   1.142
10341SOL     OW31921   2.123   3.611   2.429
10341SOL    HW131922   2.108   3.605   2.331
10341SOL    HW231923   2.218   3.639   2.447
10342SOL     OW31924   1.926   0.415   5.014
10342SOL    HW131925   1.884   0.399   4.924
10342SOL    HW231926   2.021   0.386   5.012
10343SOL     OW31927   3.686   5.629   6.867
10343SOL    HW131928   3.774   5.616   6.912
10343SOL    HW231929   3.676   5.725   6.840
10344SOL     OW31930   4.574   3.132   0.993
10344SOL    HW131931   4.490   3.171   0.954
10344SOL    HW231932   4.568   3.132   1.093
10345SOL     OW31933   1.650   1.580   6.487
10345SOL    HW131934   1.610   1.513   6.549
10345SOL    HW231935   1.740   1.548   6.457
10346SOL     OW31936   0.402   5.144   1.634
10346SOL    HW131937   0.383   5.217   1.699
10346SOL    HW231938   0.440   5.183   1.550
10347SOL     OW31939   4.161   1.993   3.677
10347SOL    HW131940   4.093   1.946   3.735
10347SOL    HW231941   4.118   2.070   3.631
10348SOL     OW31942   6.730   2.108   0.477
10348SOL    HW131943   6.785   2.151   0.405
10348SOL    HW231944   6.636   2.098   0.445
10349SOL     OW31945   1.248   0.781   0.495
10349SOL    HW131946   1.295   0.746   0.576
10349SOL    HW231947   1.168   0.724   0.477
10350SOL     OW31948   2.288   6.594   5.194
10350SOL    HW131949   2.314   6.666   5.129
10350SOL    HW231950   2.353   6.594   5.271
10351SOL     OW31951   4.235   4.602   5.846
10351SOL    HW131952   4.297   4.628   5.772
10351SOL    HW231953   4.263   4.513   5.882
10352SOL     OW31954   3.895   1.395   5.983
10352SOL    HW131955   3.952   1.323   5.945
10352SOL    HW231956   3.883   1.467   5.915
10353SOL     OW31957   6.505   2.847   5.167
10353SOL    HW131958   6.495   2.899   5.251
10353SOL    HW231959   6.592   2.871   5.123
10354SOL     OW31960   5.667   2.635   2.415
10354SOL    HW131961   5.689   2.693   2.494
10354SOL    HW231962   5.712   2.547   2.424
10355SOL     OW31963   1.979   6.733   1.950
10355SOL    HW131964   1.981   6.791   1.869
10355SOL    HW231965   1.979   6.790   2.032
10356SOL     OW31966   1.246   4.760   4.844
10356SOL    HW131967   1.278   4.853   4.860
10356SOL    HW231968   1.324   4.697   4.851
10357SOL     OW31969   1.795   3.114   6.539
10357SOL    HW131970   1.893   3.092   6.541
10357SOL    HW231971   1.763   3.116   6.444
10358SOL     OW31972   6.685   3.191   3.101
10358SOL    HW131973   6.695   3.194   3.001
10358SOL    HW231974   6.633   3.109   3.126
10359SOL     OW31975   0.690   1.585   1.903
10359SOL    HW131976   0.748   1.505   1.921
10359SOL    HW231977   0.633   1.603   1.983
10360SOL     OW31978   5.549   5.102   2.900
10360SOL    HW131979   5.493   5.150   2.968
10360SOL    HW231980   5.547   5.153   2.814
10361SOL     OW31981   3.010   6.995   3.476
10361SOL    HW131982   2.988   7.004   3.379
10361SOL    HW231983   3.043   6.902   3.494
10362SOL     OW31984   0.843   5.058   4.769
10362SOL    HW131985   0.862   4.968   4.809
10362SOL    HW231986   0.808   5.046   4.676
10363SOL     OW31987   4.733   1.211   1.770
10363SOL    HW131988   4.651   1.200   1.713
10363SOL    HW231989   4.776   1.122   1.783
10364SOL     OW31990   2.995   3.381   1.182
10364SOL    HW131991   3.035   3.290   1.197
10364SOL    HW231992   2.971   3.391   1.085
10365SOL     OW31993   4.697   4.593   6.435
10365SOL    HW131994   4.609   4.583   6.480
10365SOL    HW231995   4.743   4.504   6.433
10366SOL     OW31996   3.079   0.851   3.982
10366SOL    HW131997   3.107   0.768   3.935
10366SOL    HW231998   3.156   0.888   4.034
10367SOL     OW31999   6.540   2.073   2.585
10367SOL    HW132000   6.593   2.152   2.554
10367SOL    HW232001   6.593   1.989   2.569
10368SOL     OW32002   1.982   1.268   1.573
10368SOL    HW132003   1.954   1.353   1.619
10368SOL    HW232004   2.078   1.250   1.592
10369SOL     OW32005   3.922   0.741   5.536
10369SOL    HW132006   3.933   0.691   5.621
10369SOL    HW232007   4.007   0.737   5.484
10370SOL     OW32008   5.496   1.237   4.735
10370SOL    HW132009   5.484   1.333   4.760
10370SOL    HW232010   5.423   1.183   4.778
10371SOL     OW32011   3.274   6.046   4.989
10371SOL    HW132012   3.195   5.986   4.976
10371SOL    HW232013   3.269   6.088   5.079
10372SOL     OW32014   0.885   1.857   6.279
10372SOL    HW132015   0.958   1.831   6.342
10372SOL    HW232016   0.922   1.917   6.209
10373SOL     OW32017   2.057   6.021   4.845
10373SOL    HW132018   2.064   6.121   4.850
10373SOL    HW232019   2.097   5.981   4.927
10374SOL     OW32020   3.886   1.123   2.575
10374SOL    HW132021   3.823   1.184   2.622
10374SOL    HW232022   3.860   1.028   2.591
10375SOL     OW32023   3.588   1.735   6.249
10375SOL    HW132024   3.615   1.720   6.344
10375SOL    HW232025   3.503   1.788   6.247
10376SOL     OW32026   0.847   6.492   3.851
10376SOL    HW132027   0.900   6.546   3.917
10376SOL    HW232028   0.758   6.534   3.836
10377SOL     OW32029   6.410   0.742   4.196
10377SOL    HW132030   6.383   0.804   4.122
10377SOL    HW232031   6.510   0.741   4.203
10378SOL     OW32032   6.484   0.446   5.623
10378SOL    HW132033   6.571   0.462   5.669
10378SOL    HW232034   6.435   0.533   5.612
10379SOL     OW32035   3.902   6.769   4.888
10379SOL    HW132036   3.904   6.808   4.796
10379SOL    HW232037   3.823   6.805   4.937
10380SOL     OW32038   0.012   1.244   3.682
10380SOL    HW132039   0.033   1.341   3.673
10380SOL    HW232040   7.002   1.226   3.774
10381SOL     OW32041   4.410   5.418   6.207
10381SOL    HW132042   4.315   5.396   6.184
10381SOL    HW232043   4.424   5.405   6.305
10382SOL     OW32044   2.470   4.607   6.828
10382SOL    HW132045   2.502   4.690   6.783
10382SOL    HW232046   2.516   4.597   6.916
10383SOL     OW32047   0.237   3.151   0.862
10383SOL    HW132048   0.330   3.175   0.834
10383SOL    HW232049   0.197   3.087   0.797
10384SOL     OW32050   0.606   0.240   0.827
10384SOL    HW132051   0.549   0.165   0.795
10384SOL    HW232052   0.592   0.253   0.925
10385SOL     OW32053   4.519   0.204   6.738
10385SOL    HW132054   4.518   0.106   6.760
10385SOL    HW232055   4.613   0.238   6.744
10386SOL     OW32056   6.573   3.464   4.893
10386SOL    HW132057   6.483   3.479   4.850
10386SOL    HW232058   6.625   3.399   4.838
10387SOL     OW32059   3.792   2.094   2.399
10387SOL    HW132060   3.861   2.143   2.345
10387SOL    HW232061   3.789   1.999   2.370
10388SOL     OW32062   0.966   5.895   3.632
10388SOL    HW132063   0.946   5.889   3.534
10388SOL    HW232064   1.051   5.846   3.651
10389SOL     OW32065   0.448   6.094   2.145
10389SOL    HW132066   0.504   6.143   2.078
10389SOL    HW232067   0.388   6.159   2.192
10390SOL     OW32068   1.713   3.981   1.503
10390SOL    HW132069   1.676   3.921   1.433
10390SOL    HW232070   1.689   3.945   1.594
10391SOL     OW32071   1.269   5.591   5.234
10391SOL    HW132072   1.267   5.561   5.139
10391SOL    HW232073   1.359   5.572   5.273
10392SOL     OW32074   6.829   4.124   0.304
10392SOL    HW132075   6.830   4.089   0.210
10392SOL    HW232076   6.734   4.143   0.331
10393SOL     OW32077   1.350   1.433   2.983
10393SOL    HW132078   1.390   1.344   2.960
10393SOL    HW232079   1.317   1.478   2.899
10394SOL     OW32080   2.347   6.762   6.111
10394SOL    HW132081   2.289   6.688   6.075
10394SOL    HW232082   2.343   6.762   6.211
10395SOL     OW32083   6.131   0.822   4.900
10395SOL    HW132084   6.084   0.871   4.827
10395SOL    HW232085   6.064   0.790   4.967
10396SOL     OW32086   1.321   0.146   3.979
10396SOL    HW132087   1.385   0.126   3.905
10396SOL    HW232088   1.261   0.067   3.993
10397SOL     OW32089   3.959   1.626   3.663
10397SOL    HW132090   3.920   1.635   3.571
10397SOL    HW232091   4.051   1.587   3.657
10398SOL     OW32092   6.198   2.261   0.281
10398SOL    HW132093   6.184   2.176   0.230
10398SOL    HW232094   6.240   2.329   0.222
10399SOL     OW32095   4.367   1.477   5.122
10399SOL    HW132096   4.340   1.443   5.212
10399SOL    HW232097   4.365   1.402   5.056
10400SOL     OW32098   3.537   5.586   1.745
10400SOL    HW132099   3.531   5.589   1.845
10400SOL    HW232100   3.627   5.619   1.716
10401SOL     OW32101   6.914   0.500   2.313
10401SOL    HW132102   7.007   0.490   2.279
10401SOL    HW232103   6.851   0.450   2.253
10402SOL     OW32104   0.434   2.869   5.671
10402SOL    HW132105   0.430   2.773   5.699
10402SOL    HW232106   0.348   2.914   5.696
10403SOL     OW32107   5.570   1.821   2.575
10403SOL    HW132108   5.569   1.801   2.477
10403SOL    HW232109   5.499   1.888   2.597
10404SOL     OW32110   0.518   6.638   3.592
10404SOL    HW132111   0.477   6.558   3.637
10404SOL    HW232112   0.550   6.703   3.661
10405SOL     OW32113   1.586   5.400   5.076
10405SOL    HW132114   1.495   5.418   5.040
10405SOL    HW232115   1.633   5.486   5.093
10406SOL     OW32116   2.023   4.263   4.854
10406SOL    HW132117   2.093   4.331   4.875
10406SOL    HW232118   2.062   4.171   4.860
10407SOL     OW32119   1.408   0.947   6.602
10407SOL    HW132120   1.355   0.936   6.685
10407SOL    HW232121   1.432   0.857   6.565
10408SOL     OW32122   4.085   6.118   2.841
10408SOL    HW132123   4.084   6.184   2.766
10408SOL    HW232124   4.030   6.152   2.917
10409SOL     OW32125   0.652   4.910   1.254
10409SOL    HW132126   0.638   4.877   1.347
10409SOL    HW232127   0.691   5.001   1.257
10410SOL     OW32128   5.315   1.176   1.247
10410SOL    HW132129   5.262   1.166   1.331
10410SOL    HW232130   5.412   1.186   1.270
10411SOL     OW32131   2.201   4.871   4.298
10411SOL    HW132132   2.132   4.934   4.333
10411SOL    HW232133   2.174   4.837   4.208
10412SOL     OW32134   0.885   1.597   0.659
10412SOL    HW132135   0.975   1.640   0.656
10412SOL    HW232136   0.896   1.498   0.651
10413SOL     OW32137   1.083   2.184   0.694
10413SOL    HW132138   1.146   2.142   0.629
10413SOL    HW232139   1.127   2.263   0.736
10414SOL     OW32140   4.851   6.439   6.409
10414SOL    HW132141   4.793   6.372   6.456
10414SOL    HW232142   4.945   6.430   6.442
10415SOL     OW32143   2.194   4.632   3.718
10415SOL    HW132144   2.259   4.661   3.788
10415SOL    HW232145   2.164   4.711   3.665
10416SOL     OW32146   6.710   1.904   5.989
10416SOL    HW132147   6.762   1.919   5.905
10416SOL    HW232148   6.708   1.807   6.011
10417SOL     OW32149   4.399   4.645   3.365
10417SOL    HW132150   4.460   4.575   3.328
10417SOL    HW232151   4.443   4.691   3.442
10418SOL     OW32152   6.564   4.327   5.159
10418SOL    HW132153   6.538   4.275   5.239
10418SOL    HW232154   6.496   4.399   5.142
10419SOL     OW32155   2.818   1.495   5.212
10419SOL    HW132156   2.780   1.561   5.277
10419SOL    HW232157   2.743   1.451   5.163
10420SOL     OW32158   6.946   3.862   2.484
10420SOL    HW132159   6.874   3.848   2.552
10420SOL    HW232160   6.923   3.940   2.426
10421SOL     OW32161   1.408   3.882   4.009
10421SOL    HW132162   1.392   3.949   3.936
10421SOL    HW232163   1.381   3.923   4.097
10422SOL     OW32164   6.766   4.166   5.062
10422SOL    HW132165   6.849   4.221   5.072
10422SOL    HW232166   6.688   4.216   5.098
10423SOL     OW32167   3.923   4.907   4.411
10423SOL    HW132168   3.823   4.902   4.405
10423SOL    HW232169   3.952   4.877   4.502
10424SOL     OW32170   4.733   1.466   0.281
10424SOL    HW132171   4.697   1.560   0.283
10424SOL    HW232172   4.780   1.446   0.367
10425SOL     OW32173   1.099   6.563   1.622
10425SOL    HW132174   1.170   6.602   1.680
10425SOL    HW232175   1.027   6.631   1.607
10426SOL     OW32176   4.612   3.260   5.506
10426SOL    HW132177   4.578   3.176   5.464
10426SOL    HW232178   4.666   3.311   5.439
10427SOL     OW32179   5.350   5.389   5.769
10427SOL    HW132180   5.414   5.464   5.783
10427SOL    HW232181   5.396   5.315   5.721
10428SOL     OW32182   1.424   1.592   3.684
10428SOL    HW132183   1.437   1.573   3.781
10428SOL    HW232184   1.352   1.533   3.647
10429SOL     OW32185   1.157   3.626   2.431
10429SOL    HW132186   1.155   3.537   2.477
10429SOL    HW232187   1.242   3.635   2.378
10430SOL     OW32188   3.516   5.913   4.280
10430SOL    HW132189   3.584   5.932   4.351
10430SOL    HW232190   3.522   5.982   4.208
10431SOL     OW32191   2.765   1.540   4.563
10431SOL    HW132192   2.799   1.586   4.481
10431SOL    HW232193   2.781   1.598   4.643
10432SOL     OW32194   0.909   0.566   5.379
10432SOL    HW132195   0.858   0.652   5.383
10432SOL    HW232196   0.858   0.499   5.324
10433SOL     OW32197   1.600   6.332   1.781
10433SOL    HW132198   1.612   6.418   1.731
10433SOL    HW232199   1.584   6.352   1.878
10434SOL     OW32200   5.066   6.604   4.964
10434SOL    HW132201   5.154   6.563   4.942
10434SOL    HW232202   5.030   6.652   4.884
10435SOL     OW32203   0.923   2.483   6.054
10435SOL    HW132204   0.974   2.465   6.138
10435SOL    HW232205   0.844   2.422   6.049
10436SOL     OW32206   6.354   3.874   4.637
10436SOL    HW132207   6.261   3.896   4.608
10436SOL    HW232208   6.412   3.864   4.557
10437SOL     OW32209   5.132   4.953   5.371
10437SOL    HW132210   5.161   4.861   5.398
10437SOL    HW232211   5.190   4.986   5.296
10438SOL     OW32212   6.828   6.910   5.492
10438SOL    HW132213   6.886   6.932   5.570
10438SOL    HW232214   6.884   6.908   5.409
10439SOL     OW32215   6.569   1.060   5.028
10439SOL    HW132216   6.560   1.155   5.060
10439SOL    HW232217   6.565   1.058   4.928
10440SOL     OW32218   6.821   1.430   0.085
10440SOL    HW132219   6.780   1.450   7.021
10440SOL    HW232220   6.823   1.332   0.101
10441SOL     OW32221   3.918   1.521   1.018
10441SOL    HW132222   3.960   1.481   1.099
10441SOL    HW232223   3.927   1.620   1.022
10442SOL     OW32224   3.178   0.810   5.497
10442SOL    HW132225   3.095   0.802   5.552
10442SOL    HW232226   3.236   0.884   5.532
10443SOL     OW32227   0.093   2.085   2.761
10443SOL    HW132228   0.053   2.030   2.834
10443SOL    HW232229   0.030   2.086   2.682
10444SOL     OW32230   3.606   4.921   3.698
10444SOL    HW132231   3.538   4.907   3.769
10444SOL    HW232232   3.561   4.925   3.608
10445SOL     OW32233   0.077   3.751   2.112
10445SOL    HW132234   0.046   3.690   2.039
10445SOL    HW232235   0.042   3.718   2.200
10446SOL     OW32236   1.793   4.474   5.382
10446SOL    HW132237   1.774   4.518   5.294
10446SOL    HW232238   1.873   4.415   5.373
10447SOL     OW32239   6.153   2.329   2.639
10447SOL    HW132240   6.219   2.363   2.573
10447SOL    HW232241   6.174   2.233   2.661
10448SOL     OW32242   3.025   0.848   3.659
10448SOL    HW132243   3.063   0.766   3.701
10448SOL    HW232244   3.016   0.920   3.728
10449SOL     OW32245   3.441   5.432   0.019
10449SOL    HW132246   3.504   5.418   0.096
10449SOL    HW232247   3.484   5.491   6.976
10450SOL     OW32248   6.408   0.628   6.472
10450SOL    HW132249   6.327   0.681   6.495
10450SOL    HW232250   6.474   0.634   6.547
10451SOL     OW32251   2.652   0.536   3.831
10451SOL    HW132252   2.710   0.546   3.912
10451SOL    HW232253   2.673   0.608   3.765
10452SOL     OW32254   7.024   2.639   2.739
10452SOL    HW132255   7.011   2.548   2.702
10452SOL    HW232256   0.048   2.633   2.827
10453SOL     OW32257   4.538   6.172   2.520
10453SOL    HW132258   4.575   6.182   2.613
10453SOL    HW232259   4.438   6.174   2.524
10454SOL     OW32260   6.367   1.055   0.004
10454SOL    HW132261   6.274   1.088   7.012
10454SOL    HW232262   6.425   1.132   0.032
10455SOL     OW32263   6.064   6.214   4.205
10455SOL    HW132264   6.156   6.241   4.235
10455SOL    HW232265   5.996   6.258   4.264
10456SOL     OW32266   0.127   5.578   0.243
10456SOL    HW132267   0.048   5.518   0.235
10456SOL    HW232268   0.205   5.536   0.196
10457SOL     OW32269   4.722   3.915   6.781
10457SOL    HW132270   4.708   3.821   6.812
10457SOL    HW232271   4.640   3.969   6.803
10458SOL     OW32272   6.685   0.509   5.884
10458SOL    HW132273   6.758   0.511   5.953
10458SOL    HW232274   6.687   0.595   5.832
10459SOL     OW32275   6.431   5.190   0.779
10459SOL    HW132276   6.453   5.213   0.684
10459SOL    HW232277   6.438   5.092   0.792
10460SOL     OW32278   6.692   4.151   1.833
10460SOL    HW132279   6.761   4.110   1.892
10460SOL    HW232280   6.622   4.196   1.890
10461SOL     OW32281   6.185   4.758   5.487
10461SOL    HW132282   6.225   4.676   5.529
10461SOL    HW232283   6.246   4.836   5.503
10462SOL     OW32284   4.669   1.555   1.976
10462SOL    HW132285   4.634   1.461   1.971
10462SOL    HW232286   4.663   1.588   2.070
10463SOL     OW32287   4.638   1.443   6.246
10463SOL    HW132288   4.615   1.429   6.342
10463SOL    HW232289   4.670   1.536   6.233
10464SOL     OW32290   5.635   5.899   2.308
10464SOL    HW132291   5.631   5.929   2.212
10464SOL    HW232292   5.542   5.893   2.344
10465SOL     OW32293   5.049   4.403   3.027
10465SOL    HW132294   5.018   4.387   3.121
10465SOL    HW232295   4.979   4.370   2.963
10466SOL     OW32296   5.195   4.447   6.194
10466SOL    HW132297   5.222   4.523   6.134
10466SOL    HW232298   5.103   4.417   6.170
10467SOL     OW32299   1.893   2.716   6.672
10467SOL    HW132300   1.795   2.699   6.682
10467SOL    HW232301   1.932   2.741   6.760
10468SOL     OW32302   3.881   5.362   3.597
10468SOL    HW132303   3.783   5.357   3.581
10468SOL    HW232304   3.899   5.358   3.695
10469SOL     OW32305   5.071   4.068   5.891
10469SOL    HW132306   4.981   4.027   5.904
10469SOL    HW232307   5.132   4.003   5.847
10470SOL     OW32308   2.530   1.637   3.509
10470SOL    HW132309   2.540   1.734   3.490
10470SOL    HW232310   2.532   1.586   3.423
10471SOL     OW32311   2.714   0.662   6.879
10471SOL    HW132312   2.656   0.600   6.932
10471SOL    HW232313   2.796   0.684   6.930
10472SOL     OW32314   2.695   5.315   0.971
10472SOL    HW132315   2.671   5.400   1.019
10472SOL    HW232316   2.727   5.337   0.879
10473SOL     OW32317   5.569   6.029   6.068
10473SOL    HW132318   5.490   6.039   6.128
10473SOL    HW232319   5.647   6.076   6.108
10474SOL     OW32320   5.063   0.807   3.973
10474SOL    HW132321   5.083   0.778   4.066
10474SOL    HW232322   5.021   0.732   3.922
10475SOL     OW32323   2.311   6.093   1.414
10475SOL    HW132324   2.401   6.135   1.425
10475SOL    HW232325   2.270   6.078   1.504
10476SOL     OW32326   5.078   6.424   5.932
10476SOL    HW132327   5.001   6.388   5.880
10476SOL    HW232328   5.112   6.353   5.994
10477SOL     OW32329   6.801   6.919   4.322
10477SOL    HW132330   6.837   6.981   4.253
10477SOL    HW232331   6.878   6.877   4.371
10478SOL     OW32332   6.688   6.692   0.212
10478SOL    HW132333   6.628   6.772   0.203
10478SOL    HW232334   6.713   6.680   0.308
10479SOL     OW32335   6.811   1.862   2.245
10479SOL    HW132336   6.731   1.814   2.209
10479SOL    HW232337   6.814   1.955   2.210
10480SOL     OW32338   1.679   0.254   1.894
10480SOL    HW132339   1.722   0.300   1.972
10480SOL    HW232340   1.612   0.316   1.852
10481SOL     OW32341   1.183   6.308   3.081
10481SOL    HW132342   1.092   6.347   3.070
10481SOL    HW232343   1.245   6.377   3.116
10482SOL     OW32344   6.118   4.847   4.659
10482SOL    HW132345   6.058   4.839   4.738
10482SOL    HW232346   6.190   4.777   4.665
10483SOL     OW32347   5.295   5.891   0.448
10483SOL    HW132348   5.257   5.891   0.541
10483SOL    HW232349   5.253   5.817   0.396
10484SOL     OW32350   4.623   1.364   1.242
10484SOL    HW132351   4.651   1.381   1.337
10484SOL    HW232352   4.582   1.447   1.205
10485SOL     OW32353   3.404   4.203   6.788
10485SOL    HW132354   3.333   4.221   6.720
10485SOL    HW232355   3.409   4.105   6.806
10486SOL     OW32356   6.938   1.364   1.028
10486SOL    HW132357   6.857   1.419   1.043
10486SOL    HW232358   6.916   1.285   0.970
10487SOL     OW32359   5.206   6.570   2.194
10487SOL    HW132360   5.302   6.564   2.222
10487SOL    HW232361   5.180   6.666   2.187
10488SOL     OW32362   2.905   2.863   6.173
10488SOL    HW132363   2.908   2.775   6.126
10488SOL    HW232364   2.915   2.937   6.106
10489SOL     OW32365   0.599   6.974   5.795
10489SOL    HW132366   0.605   0.027   5.859
10489SOL    HW232367   0.550   6.899   5.838
10490SOL     OW32368   6.276   1.920   2.256
10490SOL    HW132369   6.343   1.920   2.182
10490SOL    HW232370   6.247   2.013   2.276
10491SOL     OW32371   1.741   3.648   6.780
10491SOL    HW132372   1.705   3.698   6.702
10491SOL    HW232373   1.747   3.551   6.757
10492SOL     OW32374   5.869   3.729   5.535
10492SOL    HW132375   5.827   3.716   5.625
10492SOL    HW232376   5.864   3.826   5.510
10493SOL     OW32377   3.232   1.079   1.617
10493SOL    HW132378   3.311   1.138   1.632
10493SOL    HW232379   3.167   1.125   1.557
10494SOL     OW32380   5.082   2.601   5.338
10494SOL    HW132381   5.130   2.641   5.416
10494SOL    HW232382   5.074   2.502   5.350
10495SOL     OW32383   2.217   6.960   0.326
10495SOL    HW132384   2.117   6.950   0.332
10495SOL    HW232385   2.261   6.881   0.368
10496SOL     OW32386   0.768   6.479   1.034
10496SOL    HW132387   0.776   6.379   1.033
10496SOL    HW232388   0.739   6.511   0.944
10497SOL     OW32389   2.306   6.752   2.196
10497SOL    HW132390   2.394   6.705   2.195
10497SOL    HW232391   2.317   6.845   2.163
10498SOL     OW32392   3.001   6.248   1.718
10498SOL    HW132393   3.044   6.313   1.655
10498SOL    HW232394   2.985   6.162   1.670
10499SOL     OW32395   3.113   6.014   2.486
10499SOL    HW132396   3.188   6.055   2.434
10499SOL    HW232397   3.026   6.052   2.453
10500SOL     OW32398   0.277   1.166   5.682
10500SOL    HW132399   0.322   1.099   5.742
10500SOL    HW232400   0.296   1.144   5.587
10501SOL     OW32401   1.743   5.457   3.343
10501SOL    HW132402   1.671   5.507   3.295
10501SOL    HW232403   1.779   5.513   3.418
10502SOL     OW32404   3.385   0.510   0.490
10502SOL    HW132405   3.436   0.513   0.576
10502SOL    HW232406   3.290   0.485   0.509
10503SOL     OW32407   4.237   2.627   0.259
10503SOL    HW132408   4.263   2.539   0.298
10503SOL    HW232409   4.150   2.657   0.299
10504SOL     OW32410   1.652   2.314   0.015
10504SOL    HW132411   1.662   2.333   0.112
10504SOL    HW232412   1.574   2.365   7.003
10505SOL     OW32413   6.255   5.458   0.701
10505SOL    HW132414   6.160   5.487   0.696
10505SOL    HW232415   6.260   5.358   0.705
10506SOL     OW32416   0.611   5.437   6.040
10506SOL    HW132417   0.589   5.341   6.054
10506SOL    HW232418   0.651   5.450   5.949
10507SOL     OW32419   2.661   6.554   0.081
10507SOL    HW132420   2.637   6.557   0.178
10507SOL    HW232421   2.597   6.610   0.029
10508SOL     OW32422   5.616   5.788   4.677
10508SOL    HW132423   5.593   5.701   4.633
10508SOL    HW232424   5.559   5.800   4.758
10509SOL     OW32425   0.119   6.498   6.227
10509SOL    HW132426   0.112   6.504   6.127
10509SOL    HW232427   0.040   6.543   6.269
10510SOL     OW32428   5.615   5.305   6.087
10510SOL    HW132429   5.556   5.328   6.009
10510SOL    HW232430   5.572   5.335   6.172
10511SOL     OW32431   4.472   2.753   1.062
10511SOL    HW132432   4.563   2.717   1.041
10511SOL    HW232433   4.421   2.764   0.977
10512SOL     OW32434   3.516   0.751   6.067
10512SOL    HW132435   3.475   0.672   6.111
10512SOL    HW232436   3.548   0.815   6.136
10513SOL     OW32437   0.026   3.068   5.433
10513SOL    HW132438   0.007   2.988   5.377
10513SOL    HW232439   0.096   3.124   5.389
10514SOL     OW32440   0.513   3.791   6.900
10514SOL    HW132441   0.419   3.815   6.879
10514SOL    HW232442   0.528   3.694   6.882
10515SOL     OW32443   6.230   2.758   2.800
10515SOL    HW132444   6.310   2.705   2.771
10515SOL    HW232445   6.175   2.704   2.863
10516SOL     OW32446   4.831   0.955   6.802
10516SOL    HW132447   4.757   1.020   6.786
10516SOL    HW232448   4.883   0.983   6.883
10517SOL     OW32449   0.507   2.063   2.796
10517SOL    HW132450   0.536   1.975   2.833
10517SOL    HW232451   0.474   2.121   2.871
10518SOL     OW32452   1.022   4.806   6.855
10518SOL    HW132453   1.004   4.753   6.772
10518SOL    HW232454   0.985   4.898   6.845
10519SOL     OW32455   2.721   2.542   6.488
10519SOL    HW132456   2.671   2.532   6.402
10519SOL    HW232457   2.693   2.627   6.533
10520SOL     OW32458   1.919   2.519   6.396
10520SOL    HW132459   1.826   2.556   6.385
10520SOL    HW232460   1.948   2.533   6.491
10521SOL     OW32461   5.975   5.321   1.463
10521SOL    HW132462   5.901   5.324   1.530
10521SOL    HW232463   6.003   5.226   1.448
10522SOL     OW32464   6.646   0.683   0.642
10522SOL    HW132465   6.658   0.594   0.599
10522SOL    HW232466   6.552   0.715   0.629
10523SOL     OW32467   0.271   6.489   4.890
10523SOL    HW132468   0.263   6.551   4.968
10523SOL    HW232469   0.349   6.515   4.833
10524SOL     OW32470   1.869   2.045   5.016
10524SOL    HW132471   1.855   2.124   5.076
10524SOL    HW232472   1.958   2.004   5.035
10525SOL     OW32473   3.007   7.002   5.769
10525SOL    HW132474   3.048   6.993   5.860
10525SOL    HW232475   2.942   0.054   5.769
10526SOL     OW32476   0.305   6.903   3.285
10526SOL    HW132477   0.233   6.866   3.344
10526SOL    HW232478   0.290   7.001   3.272
10527SOL     OW32479   0.186   2.768   4.397
10527SOL    HW132480   0.247   2.723   4.462
10527SOL    HW232481   0.201   2.867   4.399
10528SOL     OW32482   0.521   3.735   5.439
10528SOL    HW132483   0.528   3.728   5.539
10528SOL    HW232484   0.544   3.828   5.411
10529SOL     OW32485   2.276   6.290   3.730
10529SOL    HW132486   2.348   6.230   3.697
10529SOL    HW232487   2.225   6.328   3.653
10530SOL     OW32488   1.786   1.545   6.096
10530SOL    HW132489   1.851   1.520   6.168
10530SOL    HW232490   1.700   1.496   6.110
10531SOL     OW32491   1.048   3.116   4.639
10531SOL    HW132492   0.952   3.099   4.620
10531SOL    HW232493   1.072   3.074   4.727
10532SOL     OW32494   2.188   3.755   0.017
10532SOL    HW132495   2.236   3.719   0.097
10532SOL    HW232496   2.090   3.760   0.036
10533SOL     OW32497   3.210   1.593   4.095
10533SOL    HW132498   3.271   1.537   4.037
10533SOL    HW232499   3.260   1.673   4.128
10534SOL     OW32500   6.312   5.554   1.184
10534SOL    HW132501   6.356   5.476   1.140
10534SOL    HW232502   6.326   5.550   1.283
10535SOL     OW32503   0.276   2.243   1.731
10535SOL    HW132504   0.351   2.261   1.794
10535SOL    HW232505   0.226   2.327   1.713
10536SOL     OW32506   3.550   0.932   2.787
10536SOL    HW132507   3.601   1.009   2.826
10536SOL    HW232508   3.594   0.846   2.813
10537SOL     OW32509   3.332   5.918   3.112
10537SOL    HW132510   3.380   5.862   3.179
10537SOL    HW232511   3.234   5.902   3.118
10538SOL     OW32512   4.756   3.104   6.944
10538SOL    HW132513   4.781   3.009   6.924
10538SOL    HW232514   4.772   3.160   6.863
10539SOL     OW32515   0.759   3.912   6.319
10539SOL    HW132516   0.709   3.863   6.390
10539SOL    HW232517   0.697   3.973   6.270
10540SOL     OW32518   1.616   1.613   5.308
10540SOL    HW132519   1.574   1.701   5.285
10540SOL    HW232520   1.648   1.616   5.403
10541SOL     OW32521   3.640   3.480   1.952
10541SOL    HW132522   3.591   3.478   1.865
10541SOL    HW232523   3.650   3.574   1.983
10542SOL     OW32524   6.794   1.848   0.269
10542SOL    HW132525   6.767   1.879   0.361
10542SOL    HW232526   6.713   1.840   0.212
10543SOL     OW32527   0.768   1.389   4.740
10543SOL    HW132528   0.669   1.403   4.738
10543SOL    HW232529   0.814   1.478   4.745
10544SOL     OW32530   1.174   7.012   2.812
10544SOL    HW132531   1.080   0.015   2.797
10544SOL    HW232532   1.207   6.962   2.732
10545SOL     OW32533   5.716   1.217   2.982
10545SOL    HW132534   5.754   1.206   2.890
10545SOL    HW232535   5.671   1.131   3.010
10546SOL     OW32536   0.541   1.001   6.051
10546SOL    HW132537   0.544   1.082   6.109
10546SOL    HW232538   0.632   0.982   6.015
10547SOL     OW32539   4.643   1.994   1.252
10547SOL    HW132540   4.599   2.055   1.318
10547SOL    HW232541   4.696   2.048   1.187
10548SOL     OW32542   5.056   3.528   4.979
10548SOL    HW132543   4.980   3.582   5.014
10548SOL    HW232544   5.022   3.444   4.939
10549SOL     OW32545   6.480   0.490   2.067
10549SOL    HW132546   6.512   0.507   1.974
10549SOL    HW232547   6.441   0.575   2.104
10550SOL     OW32548   4.432   6.421   4.917
10550SOL    HW132549   4.370   6.360   4.869
10550SOL    HW232550   4.504   6.453   4.854
10551SOL     OW32551   1.785   2.584   5.512
10551SOL    HW132552   1.720   2.533   5.455
10551SOL    HW232553   1.735   2.646   5.572
10552SOL     OW32554   4.192   1.876   6.012
10552SOL    HW132555   4.162   1.886   6.107
10552SOL    HW232556   4.291   1.887   6.006
10553SOL     OW32557   1.186   4.728   2.150
10553SOL    HW132558   1.271   4.705   2.197
10553SOL    HW232559   1.191   4.696   2.056
10554SOL     OW32560   5.000   4.939   6.475
10554SOL    HW132561   4.901   4.924   6.485
10554SOL    HW232562   5.046   4.851   6.467
10555SOL     OW32563   2.920   2.998   1.194
10555SOL    HW132564   2.829   3.024   1.225
10555SOL    HW232565   2.925   3.004   1.094
10556SOL     OW32566   1.774   2.945   4.977
10556SOL    HW132567   1.770   3.033   5.025
10556SOL    HW232568   1.841   2.886   5.023
10557SOL     OW32569   1.193   2.687   3.099
10557SOL    HW132570   1.155   2.719   3.185
10557SOL    HW232571   1.176   2.589   3.089
10558SOL     OW32572   3.904   6.931   4.164
10558SOL    HW132573   3.874   7.018   4.203
10558SOL    HW232574   3.867   6.923   4.071
10559SOL     OW32575   3.949   0.834   1.141
10559SOL    HW132576   3.896   0.887   1.207
10559SOL    HW232577   3.909   0.843   1.050
10560SOL     OW32578   2.459   5.971   4.313
10560SOL    HW132579   2.507   5.892   4.276
10560SOL    HW232580   2.376   5.942   4.360
10561SOL     OW32581   2.678   4.688   0.647
10561SOL    HW132582   2.592   4.710   0.601
10561SOL    HW232583   2.671   4.599   0.691
10562SOL     OW32584   5.529   6.540   0.639
10562SOL    HW132585   5.587   6.564   0.717
10562SOL    HW232586   5.581   6.552   0.554
10563SOL     OW32587   1.343   0.601   4.003
10563SOL    HW132588   1.341   0.609   3.904
10563SOL    HW232589   1.412   0.664   4.040
10564SOL     OW32590   5.811   6.501   2.227
10564SOL    HW132591   5.835   6.405   2.234
10564SOL    HW232592   5.877   6.548   2.169
10565SOL     OW32593   0.504   0.803   5.659
10565SOL    HW132594   0.588   0.857   5.665
10565SOL    HW232595   0.517   0.731   5.591
10566SOL     OW32596   4.296   3.114   6.968
10566SOL    HW132597   4.231   3.105   0.019
10566SOL    HW232598   4.324   3.210   6.960
10567SOL     OW32599   2.402   2.598   3.796
10567SOL    HW132600   2.390   2.674   3.733
10567SOL    HW232601   2.313   2.566   3.828
10568SOL     OW32602   5.698   1.308   1.660
10568SOL    HW132603   5.735   1.216   1.676
10568SOL    HW232604   5.666   1.347   1.746
10569SOL     OW32605   6.693   2.561   1.494
10569SOL    HW132606   6.726   2.614   1.572
10569SOL    HW232607   6.766   2.500   1.463
10570SOL     OW32608   1.552   4.856   2.884
10570SOL    HW132609   1.623   4.786   2.886
10570SOL    HW232610   1.527   4.875   2.790
10571SOL     OW32611   0.477   4.885   4.346
10571SOL    HW132612   0.534   4.966   4.333
10571SOL    HW232613   0.422   4.869   4.264
10572SOL     OW32614   6.544   3.546   3.312
10572SOL    HW132615   6.632   3.509   3.285
10572SOL    HW232616   6.550   3.583   3.405
10573SOL     OW32617   5.338   5.957   4.417
10573SOL    HW132618   5.316   5.863   4.389
10573SOL    HW232619   5.329   6.018   4.339
10574SOL     OW32620   1.878   1.832   4.343
10574SOL    HW132621   1.922   1.901   4.285
10574SOL    HW232622   1.788   1.864   4.370
10575SOL     OW32623   0.007   0.802   3.601
10575SOL    HW132624   0.052   0.719   3.570
10575SOL    HW232625   0.066   0.881   3.581
10576SOL     OW32626   0.090   6.486   5.236
10576SOL    HW132627   0.157   6.548   5.195
10576SOL    HW232628   0.066   6.518   5.328
10577SOL     OW32629   1.359   2.578   6.380
10577SOL    HW132630   1.411   2.638   6.441
10577SOL    HW232631   1.305   2.633   6.317
10578SOL     OW32632   6.224   0.578   3.807
10578SOL    HW132633   6.177   0.584   3.896
10578SOL    HW232634   6.299   0.512   3.814
10579SOL     OW32635   3.597   1.851   0.409
10579SOL    HW132636   3.617   1.831   0.313
10579SOL    HW232637   3.627   1.775   0.467
10580SOL     OW32638   6.854   0.411   0.394
10580SOL    HW132639   6.878   0.357   0.474
10580SOL    HW232640   6.904   0.498   0.395
10581SOL     OW32641   5.938   0.006   2.855
10581SOL    HW132642   5.936   0.072   2.931
10581SOL    HW232643   6.028   6.989   2.850
10582SOL     OW32644   4.213   5.031   6.689
10582SOL    HW132645   4.271   5.042   6.769
10582SOL    HW232646   4.137   4.970   6.710
10583SOL     OW32647   3.951   0.944   5.875
10583SOL    HW132648   3.903   0.999   5.806
10583SOL    HW232649   3.966   0.852   5.839
10584SOL     OW32650   6.342   0.079   0.876
10584SOL    HW132651   6.258   0.071   0.930
10584SOL    HW232652   6.362   7.015   0.834
10585SOL     OW32653   1.625   3.378   5.441
10585SOL    HW132654   1.699   3.355   5.504
10585SOL    HW232655   1.575   3.295   5.417
10586SOL     OW32656   1.621   5.817   5.721
10586SOL    HW132657   1.646   5.854   5.811
10586SOL    HW232658   1.673   5.734   5.704
10587SOL     OW32659   5.775   4.578   6.875
10587SOL    HW132660   5.750   4.509   6.943
10587SOL    HW232661   5.741   4.667   6.905
10588SOL     OW32662   0.750   4.491   1.714
10588SOL    HW132663   0.701   4.567   1.755
10588SOL    HW232664   0.738   4.409   1.770
10589SOL     OW32665   5.350   1.442   4.548
10589SOL    HW132666   5.428   1.491   4.507
10589SOL    HW232667   5.365   1.344   4.542
10590SOL     OW32668   0.998   0.359   1.515
10590SOL    HW132669   1.052   0.413   1.450
10590SOL    HW232670   0.903   0.356   1.485
10591SOL     OW32671   1.158   1.655   6.057
10591SOL    HW132672   1.180   1.629   6.151
10591SOL    HW232673   1.241   1.656   6.002
10592SOL     OW32674   5.706   2.466   0.549
10592SOL    HW132675   5.805   2.458   0.565
10592SOL    HW232676   5.690   2.517   0.465
10593SOL     OW32677   3.029   5.033   0.371
10593SOL    HW132678   2.971   5.002   0.446
10593SOL    HW232679   2.978   5.027   0.285
10594SOL     OW32680   5.395   1.420   3.762
10594SOL    HW132681   5.339   1.471   3.827
10594SOL    HW232682   5.367   1.323   3.764
10595SOL     OW32683   3.463   0.346   6.368
10595SOL    HW132684   3.482   0.398   6.450
10595SOL    HW232685   3.500   0.393   6.288
10596SOL     OW32686   4.194   0.108   1.604
10596SOL    HW132687   4.289   0.084   1.582
10596SOL    HW232688   4.138   0.025   1.604
10597SOL     OW32689   2.651   1.157   4.731
10597SOL    HW132690   2.605   1.244   4.712
10597SOL    HW232691   2.660   1.105   4.646
10598SOL     OW32692   2.941   2.471   0.007
10598SOL    HW132693   2.865   2.528   0.037
10598SOL    HW232694   2.989   2.435   0.088
10599SOL     OW32695   5.496   1.757   0.208
10599SOL    HW132696   5.425   1.796   0.150
10599SOL    HW232697   5.491   1.797   0.299
10600SOL     OW32698   1.973   3.427   0.345
10600SOL    HW132699   2.036   3.381   0.407
10600SOL    HW232700   2.007   3.418   0.251
10601SOL     OW32701   1.979   5.147   5.964
10601SOL    HW132702   1.980   5.072   5.898
10601SOL    HW232703   1.932   5.117   6.048
10602SOL     OW32704   5.154   1.455   3.180
10602SOL    HW132705   5.155   1.391   3.256
10602SOL    HW232706   5.219   1.529   3.198
10603SOL     OW32707   2.578   5.746   3.349
10603SOL    HW132708   2.536   5.836   3.337
10603SOL    HW232709   2.522   5.676   3.307
10604SOL     OW32710   5.633   4.174   4.692
10604SOL    HW132711   5.594   4.095   4.739
10604SOL    HW232712   5.561   4.239   4.669
10605SOL     OW32713   1.541   4.935   0.671
10605SOL    HW132714   1.621   4.953   0.728
10605SOL    HW232715   1.481   4.870   0.717
10606SOL     OW32716   6.144   0.479   2.447
10606SOL    HW132717   6.107   0.392   2.479
10606SOL    HW232718   6.176   0.532   2.525
10607SOL     OW32719   4.328   3.715   5.661
10607SOL    HW132720   4.240   3.753   5.633
10607SOL    HW232721   4.329   3.703   5.760
10608SOL     OW32722   5.834   2.088   4.928
10608SOL    HW132723   5.866   2.038   4.848
10608SOL    HW232724   5.912   2.122   4.980
10609SOL     OW32725   3.103   5.901   1.814
10609SOL    HW132726   3.184   5.956   1.798
10609SOL    HW232727   3.046   5.900   1.731
10610SOL     OW32728   0.226   4.040   6.295
10610SOL    HW132729   0.149   4.079   6.346
10610SOL    HW232730   0.217   3.941   6.291
10611SOL     OW32731   4.936   3.192   6.706
10611SOL    HW132732   4.892   3.114   6.661
10611SOL    HW232733   4.929   3.273   6.648
10612SOL     OW32734   2.372   0.109   5.415
10612SOL    HW132735   2.393   0.117   5.513
10612SOL    HW232736   2.392   0.016   5.385
10613SOL     OW32737   0.214   6.710   5.883
10613SOL    HW132738   0.193   6.798   5.840
10613SOL    HW232739   0.313   6.700   5.893
10614SOL     OW32740   7.019   1.878   4.226
10614SOL    HW132741   0.025   1.785   4.246
10614SOL    HW232742   6.943   1.902   4.287
10615SOL     OW32743   4.216   5.589   5.671
10615SOL    HW132744   4.293   5.544   5.626
10615SOL    HW232745   4.220   5.687   5.653
10616SOL     OW32746   3.694   6.406   0.636
10616SOL    HW132747   3.611   6.378   0.683
10616SOL    HW232748   3.671   6.447   0.548
10617SOL     OW32749   2.543   2.647   0.583
10617SOL    HW132750   2.642   2.645   0.591
10617SOL    HW232751   2.502   2.591   0.655
10618SOL     OW32752   5.732   3.528   6.948
10618SOL    HW132753   5.667   3.499   7.019
10618SOL    HW232754   5.824   3.535   6.987
10619SOL     OW32755   0.216   3.629   1.751
10619SOL    HW132756   0.243   3.725   1.743
10619SOL    HW232757   0.137   3.621   1.811
10620SOL     OW32758   1.103   6.194   5.480
10620SOL    HW132759   1.089   6.106   5.435
10620SOL    HW232760   1.064   6.190   5.572
10621SOL     OW32761   1.770   5.706   0.995
10621SOL    HW132762   1.854   5.707   1.049
10621SOL    HW232763   1.791   5.728   0.900
10622SOL     OW32764   4.784   1.143   1.262
10622SOL    HW132765   4.711   1.210   1.255
10622SOL    HW232766   4.837   1.142   1.178
10623SOL     OW32767   5.825   3.589   3.388
10623SOL    HW132768   5.830   3.550   3.297
10623SOL    HW232769   5.776   3.676   3.385
10624SOL     OW32770   0.968   1.001   4.578
10624SOL    HW132771   0.880   0.959   4.600
10624SOL    HW232772   0.954   1.076   4.514
10625SOL     OW32773   0.872   4.291   0.030
10625SOL    HW132774   0.963   4.332   0.035
10625SOL    HW232775   0.831   4.312   6.966
10626SOL     OW32776   0.889   2.600   1.468
10626SOL    HW132777   0.920   2.672   1.406
10626SOL    HW232778   0.806   2.557   1.431
10627SOL     OW32779   5.240   6.166   2.240
10627SOL    HW132780   5.334   6.199   2.225
10627SOL    HW232781   5.207   6.200   2.328
10628SOL     OW32782   5.583   5.007   6.073
10628SOL    HW132783   5.584   5.107   6.078
10628SOL    HW232784   5.492   4.974   6.099
10629SOL     OW32785   2.722   4.583   5.315
10629SOL    HW132786   2.813   4.575   5.274
10629SOL    HW232787   2.659   4.623   5.248
10630SOL     OW32788   6.156   0.918   3.716
10630SOL    HW132789   6.103   0.904   3.800
10630SOL    HW232790   6.165   0.831   3.667
10631SOL     OW32791   1.637   5.515   4.436
10631SOL    HW132792   1.675   5.441   4.492
10631SOL    HW232793   1.709   5.553   4.378
10632SOL     OW32794   5.619   2.238   4.191
10632SOL    HW132795   5.563   2.296   4.250
10632SOL    HW232796   5.599   2.259   4.095
10633SOL     OW32797   3.100   3.995   1.600
10633SOL    HW132798   3.078   3.909   1.647
10633SOL    HW232799   3.072   4.072   1.657
10634SOL     OW32800   3.602   5.282   0.746
10634SOL    HW132801   3.690   5.288   0.791
10634SOL    HW232802   3.540   5.224   0.799
10635SOL     OW32803   2.769   1.126   1.585
10635SOL    HW132804   2.801   1.209   1.539
10635SOL    HW232805   2.798   1.127   1.681
10636SOL     OW32806   1.456   2.366   2.078
10636SOL    HW132807   1.491   2.276   2.105
10636SOL    HW232808   1.518   2.437   2.111
10637SOL     OW32809   3.708   3.960   5.739
10637SOL    HW132810   3.643   3.927   5.807
10637SOL    HW232811   3.686   3.919   5.650
10638SOL     OW32812   6.855   5.894   2.682
10638SOL    HW132813   6.870   5.867   2.587
10638SOL    HW232814   6.757   5.907   2.697
10639SOL     OW32815   0.805   1.820   3.614
10639SOL    HW132816   0.876   1.862   3.558
10639SOL    HW232817   0.718   1.823   3.564
10640SOL     OW32818   4.125   0.055   6.738
10640SOL    HW132819   4.060   0.002   6.792
10640SOL    HW232820   4.089   0.148   6.724
10641SOL     OW32821   3.671   2.153   0.079
10641SOL    HW132822   3.745   2.134   0.144
10641SOL    HW232823   3.701   2.220   0.012
10642SOL     OW32824   0.325   2.805   1.503
10642SOL    HW132825   0.243   2.748   1.492
10642SOL    HW232826   0.303   2.900   1.480
10643SOL     OW32827   1.809   4.736   6.177
10643SOL    HW132828   1.761   4.649   6.162
10643SOL    HW232829   1.790   4.799   6.102
10644SOL     OW32830   4.827   2.188   3.822
10644SOL    HW132831   4.735   2.169   3.788
10644SOL    HW232832   4.859   2.112   3.878
10645SOL     OW32833   0.721   0.914   4.309
10645SOL    HW132834   0.735   1.012   4.317
10645SOL    HW232835   0.655   0.896   4.235
10646SOL     OW32836   0.757   1.835   4.860
10646SOL    HW132837   0.802   1.847   4.772
10646SOL    HW232838   0.675   1.778   4.848
10647SOL     OW32839   5.345   5.859   6.809
10647SOL    HW132840   5.404   5.926   6.765
10647SOL    HW232841   5.402   5.791   6.855
10648SOL     OW32842   5.276   3.012   6.397
10648SOL    HW132843   5.242   3.008   6.491
10648SOL    HW232844   5.212   2.964   6.336
10649SOL     OW32845   0.105   4.639   3.614
10649SOL    HW132846   0.124   4.679   3.524
10649SOL    HW232847   0.191   4.613   3.657
10650SOL     OW32848   1.443   6.224   3.373
10650SOL    HW132849   1.530   6.232   3.422
10650SOL    HW232850   1.423   6.310   3.326
10651SOL     OW32851   4.969   0.062   5.725
10651SOL    HW132852   4.974   0.085   5.822
10651SOL    HW232853   4.877   0.029   5.703
10652SOL     OW32854   3.476   0.245   0.124
10652SOL    HW132855   3.482   0.344   0.110
10652SOL    HW232856   3.505   0.198   0.041
10653SOL     OW32857   5.189   4.927   4.079
10653SOL    HW132858   5.216   4.946   4.174
10653SOL    HW232859   5.124   4.997   4.049
10654SOL     OW32860   4.336   0.533   1.496
10654SOL    HW132861   4.429   0.506   1.469
10654SOL    HW232862   4.326   0.632   1.485
10655SOL     OW32863   3.530   5.209   1.430
10655SOL    HW132864   3.593   5.265   1.376
10655SOL    HW232865   3.507   5.257   1.515
10656SOL     OW32866   6.298   1.974   0.552
10656SOL    HW132867   6.199   1.974   0.569
10656SOL    HW232868   6.337   1.888   0.582
10657SOL     OW32869   6.524   6.896   0.286
10657SOL    HW132870   6.512   6.994   0.273
10657SOL    HW232871   6.438   6.849   0.266
10658SOL     OW32872   0.406   4.126   4.842
10658SOL    HW132873   0.388   4.216   4.803
10658SOL    HW232874   0.323   4.090   4.883
10659SOL     OW32875   0.052   6.483   1.064
10659SOL    HW132876   0.008   6.438   0.986
10659SOL    HW232877   0.015   6.446   1.149
10660SOL     OW32878   5.452   4.190   6.514
10660SOL    HW132879   5.531   4.249   6.494
10660SOL    HW232880   5.483   4.108   6.562
10661SOL     OW32881   6.922   6.423   2.941
10661SOL    HW132882   6.914   6.369   2.857
10661SOL    HW232883   6.835   6.420   2.991
10662SOL     OW32884   5.967   0.933   2.297
10662SOL    HW132885   5.906   1.003   2.335
10662SOL    HW232886   5.997   0.962   2.206
10663SOL     OW32887   0.777   6.790   1.050
10663SOL    HW132888   0.861   6.784   0.997
10663SOL    HW232889   0.785   6.735   1.133
10664SOL     OW32890   1.916   4.287   6.251
10664SOL    HW132891   1.952   4.376   6.279
10664SOL    HW232892   1.972   4.214   6.291
10665SOL     OW32893   0.945   0.769   6.916
10665SOL    HW132894   1.009   0.703   6.955
10665SOL    HW232895   0.860   0.722   6.890
10666SOL     OW32896   3.984   4.260   0.355
10666SOL    HW132897   4.035   4.286   0.273
10666SOL    HW232898   3.918   4.188   0.332
10667SOL     OW32899   3.900   1.512   5.496
10667SOL    HW132900   3.901   1.413   5.487
10667SOL    HW232901   3.826   1.549   5.440
10668SOL     OW32902   1.191   1.644   5.678
10668SOL    HW132903   1.278   1.607   5.709
10668SOL    HW232904   1.127   1.647   5.755
10669SOL     OW32905   6.943   6.786   0.751
10669SOL    HW132906   6.978   6.880   0.752
10669SOL    HW232907   7.019   6.722   0.736
10670SOL     OW32908   4.884   4.695   5.611
10670SOL    HW132909   4.901   4.723   5.705
10670SOL    HW232910   4.821   4.759   5.568
10671SOL     OW32911   2.099   3.610   2.763
10671SOL    HW132912   2.080   3.622   2.666
10671SOL    HW232913   2.124   3.698   2.803
10672SOL     OW32914   7.005   2.818   0.786
10672SOL    HW132915   6.934   2.847   0.850
10672SOL    HW232916   0.052   2.888   0.783
10673SOL     OW32917   2.332   2.287   5.798
10673SOL    HW132918   2.399   2.313   5.729
10673SOL    HW232919   2.376   2.282   5.888
10674SOL     OW32920   3.973   3.340   0.529
10674SOL    HW132921   3.968   3.373   0.623
10674SOL    HW232922   4.005   3.414   0.469
10675SOL     OW32923   1.077   0.560   6.078
10675SOL    HW132924   1.066   0.476   6.130
10675SOL    HW232925   1.174   0.585   6.076
10676SOL     OW32926   6.013   0.136   6.312
10676SOL    HW132927   5.954   0.065   6.273
10676SOL    HW232928   6.091   0.151   6.252
10677SOL     OW32929   0.963   0.979   2.183
10677SOL    HW132930   0.884   0.977   2.122
10677SOL    HW232931   1.032   1.041   2.145
10678SOL     OW32932   3.686   5.389   2.757
10678SOL    HW132933   3.706   5.319   2.826
10678SOL    HW232934   3.704   5.480   2.796
10679SOL     OW32935   5.562   5.043   5.146
10679SOL    HW132936   5.584   4.964   5.088
10679SOL    HW232937   5.647   5.079   5.186
10680SOL     OW32938   1.494   3.411   3.293
10680SOL    HW132939   1.540   3.493   3.261
10680SOL    HW232940   1.562   3.347   3.331
10681SOL     OW32941   6.673   4.158   6.626
10681SOL    HW132942   6.733   4.086   6.663
10681SOL    HW232943   6.622   4.200   6.701
10682SOL     OW32944   1.763   1.821   2.923
10682SOL    HW132945   1.769   1.752   2.995
10682SOL    HW232946   1.673   1.864   2.925
10683SOL     OW32947   2.702   2.266   3.738
10683SOL    HW132948   2.799   2.277   3.714
10683SOL    HW232949   2.693   2.258   3.837
10684SOL     OW32950   4.988   3.984   0.294
10684SOL    HW132951   4.914   4.041   0.329
10684SOL    HW232952   4.994   3.996   0.195
10685SOL     OW32953   0.596   3.862   3.202
10685SOL    HW132954   0.610   3.884   3.105
10685SOL    HW232955   0.524   3.793   3.211
10686SOL     OW32956   3.992   6.074   6.784
10686SOL    HW132957   4.012   5.986   6.742
10686SOL    HW232958   4.016   6.147   6.720
10687SOL     OW32959   6.906   5.387   2.299
10687SOL    HW132960   6.853   5.326   2.357
10687SOL    HW232961   6.853   5.412   2.218
10688SOL     OW32962   6.303   4.394   2.321
10688SOL    HW132963   6.381   4.372   2.380
10688SOL    HW232964   6.332   4.456   2.248
10689SOL     OW32965   6.752   7.022   3.199
10689SOL    HW132966   6.778   6.929   3.170
10689SOL    HW232967   6.823   0.061   3.172
10690SOL     OW32968   4.633   5.431   3.010
10690SOL    HW132969   4.549   5.389   3.044
10690SOL    HW232970   4.650   5.402   2.916
10691SOL     OW32971   6.574   1.583   1.489
10691SOL    HW132972   6.563   1.664   1.547
10691SOL    HW232973   6.668   1.579   1.456
10692SOL     OW32974   2.953   5.899   3.774
10692SOL    HW132975   2.964   5.801   3.785
10692SOL    HW232976   2.873   5.918   3.717
10693SOL     OW32977   1.745   1.234   1.411
10693SOL    HW132978   1.780   1.287   1.334
10693SOL    HW232979   1.815   1.226   1.482
10694SOL     OW32980   3.425   6.290   1.272
10694SOL    HW132981   3.495   6.273   1.203
10694SOL    HW232982   3.353   6.347   1.233
10695SOL     OW32983   6.672   2.323   3.778
10695SOL    HW132984   6.640   2.244   3.727
10695SOL    HW232985   6.653   2.407   3.726
10696SOL     OW32986   6.885   5.151   1.405
10696SOL    HW132987   6.798   5.194   1.382
10696SOL    HW232988   6.960   5.208   1.371
10697SOL     OW32989   7.014   6.317   3.465
10697SOL    HW132990   6.988   6.363   3.380
10697SOL    HW232991   0.075   6.268   3.451
10698SOL     OW32992   2.569   0.272   3.794
10698SOL    HW132993   2.591   0.369   3.806
10698SOL    HW232994   2.605   0.220   3.871
10699SOL     OW32995   4.433   1.490   2.968
10699SOL    HW132996   4.370   1.422   2.932
10699SOL    HW232997   4.507   1.505   2.903
10700SOL     OW32998   0.883   0.204   0.315
10700SOL    HW132999   0.838   0.138   0.255
10700SOL    HW233000   0.816   0.268   0.351
10701SOL     OW33001   4.443   6.125   6.679
10701SOL    HW133002   4.398   6.185   6.613
10701SOL    HW233003   4.392   6.040   6.687
10702SOL     OW33004   5.704   2.092   1.726
10702SOL    HW133005   5.628   2.121   1.784
10702SOL    HW233006   5.759   2.171   1.701
10703SOL     OW33007   3.553   3.819   2.934
10703SOL    HW133008   3.641   3.773   2.921
10703SOL    HW233009   3.484   3.752   2.961
10704SOL     OW33010   4.942   6.481   1.995
10704SOL    HW133011   5.034   6.468   2.032
10704SOL    HW233012   4.878   6.498   2.070
10705SOL     OW33013   1.395   3.570   6.786
10705SOL    HW133014   1.321   3.637   6.782
10705SOL    HW233015   1.443   3.578   6.874
10706SOL     OW33016   4.436   0.296   2.515
10706SOL    HW133017   4.387   0.381   2.496
10706SOL    HW233018   4.429   0.235   2.437
10707SOL     OW33019   0.029   6.518   5.978
10707SOL    HW133020   0.082   6.581   5.920
10707SOL    HW233021   0.028   6.427   5.935
10708SOL     OW33022   5.137   0.949   1.453
10708SOL    HW133023   5.164   0.872   1.512
10708SOL    HW233024   5.175   1.034   1.490
10709SOL     OW33025   6.141   0.403   5.524
10709SOL    HW133026   6.206   0.328   5.512
10709SOL    HW233027   6.190   0.491   5.519
10710SOL     OW33028   6.602   6.249   4.242
10710SOL    HW133029   6.686   6.269   4.191
10710SOL    HW233030   6.624   6.196   4.323
10711SOL     OW33031   2.138   0.432   4.021
10711SOL    HW133032   2.219   0.489   4.007
10711SOL    HW233033   2.134   0.403   4.117
10712SOL     OW33034   3.613   0.963   4.517
10712SOL    HW133035   3.632   1.036   4.451
10712SOL    HW233036   3.660   0.982   4.603
10713SOL     OW33037   2.059   5.479   1.839
10713SOL    HW133038   2.127   5.408   1.856
10713SOL    HW233039   2.086   5.563   1.885
10714SOL     OW33040   0.428   4.939   4.608
10714SOL    HW133041   0.524   4.920   4.628
10714SOL    HW233042   0.415   4.936   4.509
10715SOL     OW33043   5.246   1.936   4.173
10715SOL    HW133044   5.308   1.939   4.252
10715SOL    HW233045   5.170   1.874   4.192
10716SOL     OW33046   6.313   1.312   4.144
10716SOL    HW133047   6.296   1.311   4.046
10716SOL    HW233048   6.250   1.248   4.190
10717SOL     OW33049   0.608   1.605   1.245
10717SOL    HW133050   0.511   1.592   1.224
10717SOL    HW233051   0.664   1.549   1.183
10718SOL     OW33052   6.709   5.542   0.683
10718SOL    HW133053   6.782   5.528   0.615
10718SOL    HW233054   6.737   5.502   0.770
10719SOL     OW33055   4.842   0.297   2.923
10719SOL    HW133056   4.831   0.198   2.936
10719SOL    HW233057   4.936   0.323   2.943
10720SOL     OW33058   6.800   3.518   5.810
10720SOL    HW133059   6.826   3.614   5.826
10720SOL    HW233060   6.879   3.460   5.826
10721SOL     OW33061   6.247   2.300   4.480
10721SOL    HW133062   6.309   2.377   4.465
10721SOL    HW233063   6.197   2.281   4.396
10722SOL     OW33064   6.804   3.617   0.033
10722SOL    HW133065   6.890   3.667   0.039
10722SOL    HW233066   6.800   3.547   0.104
10723SOL     OW33067   5.249   3.902   6.929
10723SOL    HW133068   5.315   3.973   6.906
10723SOL    HW233069   5.232   3.844   6.849
10724SOL     OW33070   4.568   6.741   6.029
10724SOL    HW133071   4.569   6.683   6.111
10724SOL    HW233072   4.576   6.684   5.947
10725SOL     OW33073   0.472   6.072   4.308
10725SOL    HW133074   0.383   6.098   4.346
10725SOL    HW233075   0.544   6.095   4.373
10726SOL     OW33076   5.332   0.839   5.119
10726SOL    HW133077   5.232   0.836   5.110
10726SOL    HW233078   5.356   0.894   5.198
10727SOL     OW33079   2.187   4.881   5.147
10727SOL    HW133080   2.090   4.902   5.135
10727SOL    HW233081   2.235   4.961   5.183
10728SOL     OW33082   4.724   6.923   2.781
10728SOL    HW133083   4.806   6.869   2.803
10728SOL    HW233084   4.747   6.994   2.715
10729SOL     OW33085   6.095   2.051   2.938
10729SOL    HW133086   6.188   2.043   2.900
10729SOL    HW233087   6.051   2.132   2.900
10730SOL     OW33088   2.129   5.850   2.365
10730SOL    HW133089   2.224   5.857   2.334
10730SOL    HW233090   2.092   5.942   2.381
10731SOL     OW33091   3.248   5.678   0.215
10731SOL    HW133092   3.312   5.740   0.170
10731SOL    HW233093   3.298   5.601   0.254
10732SOL     OW33094   5.417   6.590   3.021
10732SOL    HW133095   5.321   6.570   3.039
10732SOL    HW233096   5.474   6.515   3.056
10733SOL     OW33097   5.408   1.176   0.480
10733SOL    HW133098   5.499   1.146   0.449
10733SOL    HW233099   5.416   1.264   0.527
10734SOL     OW33100   0.396   0.058   6.534
10734SOL    HW133101   0.433   7.003   6.580
10734SOL    HW233102   0.357   0.120   6.601
10735SOL     OW33103   0.715   5.502   2.427
10735SOL    HW133104   0.622   5.518   2.459
10735SOL    HW233105   0.760   5.436   2.486
10736SOL     OW33106   0.017   0.944   4.062
10736SOL    HW133107   0.039   0.915   4.155
10736SOL    HW233108   0.067   1.028   4.040
10737SOL     OW33109   0.521   2.022   1.358
10737SOL    HW133110   0.570   1.944   1.318
10737SOL    HW233111   0.438   1.989   1.403
10738SOL     OW33112   2.564   0.846   2.388
10738SOL    HW133113   2.600   0.932   2.424
10738SOL    HW233114   2.535   0.788   2.464
10739SOL     OW33115   5.964   1.795   2.833
10739SOL    HW133116   5.918   1.807   2.746
10739SOL    HW233117   5.984   1.885   2.873
10740SOL     OW33118   1.665   6.467   5.371
10740SOL    HW133119   1.647   6.551   5.421
10740SOL    HW233120   1.627   6.389   5.421
10741SOL     OW33121   1.447   2.782   3.318
10741SOL    HW133122   1.500   2.805   3.399
10741SOL    HW233123   1.356   2.750   3.345
10742SOL     OW33124   6.227   5.897   1.775
10742SOL    HW133125   6.149   5.880   1.835
10742SOL    HW233126   6.291   5.958   1.821
10743SOL     OW33127   3.506   0.980   5.238
10743SOL    HW133128   3.419   0.967   5.189
10743SOL    HW233129   3.519   0.904   5.301
10744SOL     OW33130   3.059   0.611   1.583
10744SOL    HW133131   3.140   0.666   1.567
10744SOL    HW233132   3.084   0.514   1.586
10745SOL     OW33133   2.328   4.548   1.320
10745SOL    HW133134   2.277   4.618   1.270
10745SOL    HW233135   2.424   4.576   1.329
10746SOL     OW33136   2.837   5.677   0.714
10746SOL    HW133137   2.820   5.647   0.807
10746SOL    HW233138   2.934   5.701   0.704
10747SOL     OW33139   5.760   2.559   4.264
10747SOL    HW133140   5.781   2.578   4.360
10747SOL    HW233141   5.701   2.478   4.258
10748SOL     OW33142   4.553   5.482   1.213
10748SOL    HW133143   4.480   5.415   1.225
10748SOL    HW233144   4.515   5.573   1.206
10749SOL     OW33145   6.173   4.844   3.571
10749SOL    HW133146   6.188   4.814   3.665
10749SOL    HW233147   6.184   4.944   3.565
10750SOL     OW33148   4.841   4.044   3.876
10750SOL    HW133149   4.810   4.096   3.796
10750SOL    HW233150   4.784   4.067   3.955
10751SOL     OW33151   1.499   3.388   4.962
10751SOL    HW133152   1.542   3.417   5.047
10751SOL    HW233153   1.400   3.379   4.977
10752SOL     OW33154   6.279   5.167   6.986
10752SOL    HW133155   6.328   5.254   6.979
10752SOL    HW233156   6.323   5.099   6.929
10753SOL     OW33157   4.293   6.439   4.468
10753SOL    HW133158   4.199   6.407   4.473
10753SOL    HW233159   4.296   6.530   4.426
10754SOL     OW33160   0.511   2.997   1.749
10754SOL    HW133161   0.451   2.934   1.699
10754SOL    HW233162   0.558   2.948   1.822
10755SOL     OW33163   6.856   1.864   1.867
10755SOL    HW133164   6.925   1.799   1.898
10755SOL    HW233165   6.770   1.847   1.916
10756SOL     OW33166   5.898   2.374   0.292
10756SOL    HW133167   5.922   2.327   0.207
10756SOL    HW233168   5.981   2.405   0.338
10757SOL     OW33169   0.135   3.944   0.444
10757SOL    HW133170   0.205   3.970   0.511
10757SOL    HW233171   0.054   3.911   0.493
10758SOL     OW33172   1.126   5.443   6.637
10758SOL    HW133173   1.074   5.529   6.630
10758SOL    HW233174   1.073   5.369   6.597
10759SOL     OW33175   1.144   2.632   5.907
10759SOL    HW133176   1.157   2.689   5.988
10759SOL    HW233177   1.070   2.567   5.924
10760SOL     OW33178   1.327   6.078   0.435
10760SOL    HW133179   1.357   6.167   0.468
10760SOL    HW233180   1.304   6.084   0.337
10761SOL     OW33181   0.663   2.310   6.503
10761SOL    HW133182   0.687   2.264   6.588
10761SOL    HW233183   0.665   2.245   6.427
10762SOL     OW33184   3.983   0.544   6.119
10762SOL    HW133185   3.900   0.598   6.133
10762SOL    HW233186   3.959   0.448   6.105
10763SOL     OW33187   5.876   1.077   2.796
10763SOL    HW133188   5.934   1.157   2.791
10763SOL    HW233189   5.928   0.996   2.767
10764SOL     OW33190   4.395   0.760   4.970
10764SOL    HW133191   4.322   0.774   5.037
10764SOL    HW233192   4.483   0.754   5.018
10765SOL     OW33193   5.590   1.587   2.829
10765SOL    HW133194   5.613   1.607   2.734
10765SOL    HW233195   5.560   1.670   2.875
10766SOL     OW33196   1.931   5.258   0.029
10766SOL    HW133197   1.887   5.197   6.987
10766SOL    HW233198   1.883   5.251   0.117
10767SOL     OW33199   1.920   6.667   0.424
10767SOL    HW133200   1.994   6.607   0.393
10767SOL    HW233201   1.833   6.637   0.383
10768SOL     OW33202   5.200   5.471   0.536
10768SOL    HW133203   5.251   5.437   0.457
10768SOL    HW233204   5.263   5.492   0.611
10769SOL     OW33205   2.820   4.107   5.535
10769SOL    HW133206   2.857   4.195   5.566
10769SOL    HW233207   2.731   4.122   5.492
10770SOL     OW33208   5.599   6.843   4.386
10770SOL    HW133209   5.599   6.825   4.485
10770SOL    HW233210   5.558   6.765   4.338
10771SOL     OW33211   4.341   0.466   5.352
10771SOL    HW133212   4.364   0.373   5.383
10771SOL    HW233213   4.244   0.470   5.329
10772SOL     OW33214   5.893   6.625   4.283
10772SOL    HW133215   5.804   6.669   4.275
10772SOL    HW233216   5.960   6.691   4.318
10773SOL     OW33217   6.830   4.559   0.151
10773SOL    HW133218   6.891   4.513   0.215
10773SOL    HW233219   6.829   4.510   0.064
10774SOL     OW33220   1.294   2.346   0.883
10774SOL    HW133221   1.324   2.359   0.789
10774SOL    HW233222   1.374   2.337   0.942
10775SOL     OW33223   1.515   4.378   1.071
10775SOL    HW133224   1.476   4.343   1.156
10775SOL    HW233225   1.444   4.381   1.000
10776SOL     OW33226   6.223   0.602   2.946
10776SOL    HW133227   6.248   0.582   3.040
10776SOL    HW233228   6.296   0.654   2.902
10777SOL     OW33229   3.021   1.084   3.836
10777SOL    HW133230   2.926   1.100   3.811
10777SOL    HW233231   3.025   1.034   3.923
10778SOL     OW33232   6.739   6.398   5.009
10778SOL    HW133233   6.669   6.374   5.076
10778SOL    HW233234   6.796   6.319   4.990
10779SOL     OW33235   5.572   4.531   3.268
10779SOL    HW133236   5.549   4.626   3.244
10779SOL    HW233237   5.568   4.474   3.187
10780SOL     OW33238   0.658   5.954   4.789
10780SOL    HW133239   0.758   5.954   4.790
10780SOL    HW233240   0.626   5.864   4.821
10781SOL     OW33241   6.206   1.400   4.961
10781SOL    HW133242   6.260   1.322   4.993
10781SOL    HW233243   6.168   1.380   4.871
10782SOL     OW33244   6.837   3.361   5.064
10782SOL    HW133245   6.780   3.284   5.035
10782SOL    HW233246   6.805   3.395   5.153
10783SOL     OW33247   1.707   2.510   2.185
10783SOL    HW133248   1.726   2.588   2.245
10783SOL    HW233249   1.732   2.425   2.233
10784SOL     OW33250   3.106   5.957   2.080
10784SOL    HW133251   3.178   6.023   2.101
10784SOL    HW233252   3.112   5.931   1.983
10785SOL     OW33253   1.400   5.370   1.776
10785SOL    HW133254   1.478   5.431   1.776
10785SOL    HW233255   1.425   5.283   1.820
10786SOL     OW33256   4.386   2.327   2.580
10786SOL    HW133257   4.341   2.353   2.494
10786SOL    HW233258   4.475   2.371   2.585
10787SOL     OW33259   3.096   1.497   4.320
10787SOL    HW133260   3.149   1.532   4.243
10787SOL    HW233261   3.147   1.509   4.405
10788SOL     OW33262   0.925   4.639   0.302
10788SOL    HW133263   0.998   4.572   0.318
10788SOL    HW233264   0.839   4.602   0.336
10789SOL     OW33265   6.445   0.844   0.543
10789SOL    HW133266   6.353   0.861   0.508
10789SOL    HW233267   6.504   0.922   0.521
10790SOL     OW33268   0.493   2.048   5.417
10790SOL    HW133269   0.584   2.007   5.414
10790SOL    HW233270   0.464   2.073   5.324
10791SOL     OW33271   2.489   1.914   2.191
10791SOL    HW133272   2.461   1.870   2.277
10791SOL    HW233273   2.580   1.881   2.165
10792SOL     OW33274   3.417   2.311   1.402
10792SOL    HW133275   3.435   2.276   1.494
10792SOL    HW233276   3.318   2.313   1.386
10793SOL     OW33277   5.105   1.660   5.032
10793SOL    HW133278   5.141   1.584   4.979
10793SOL    HW233279   5.068   1.729   4.969
10794SOL     OW33280   4.434   3.084   1.730
10794SOL    HW133281   4.517   3.060   1.781
10794SOL    HW233282   4.382   3.000   1.710
10795SOL     OW33283   0.218   3.842   2.500
10795SOL    HW133284   0.184   3.868   2.590
10795SOL    HW233285   0.143   3.808   2.444
10796SOL     OW33286   5.842   6.849   6.590
10796SOL    HW133287   5.923   6.905   6.570
10796SOL    HW233288   5.821   6.855   6.688
10797SOL     OW33289   3.896   2.900   0.464
10797SOL    HW133290   3.970   2.967   0.460
10797SOL    HW233291   3.816   2.943   0.507
10798SOL     OW33292   2.395   0.203   6.223
10798SOL    HW133293   2.376   0.162   6.135
10798SOL    HW233294   2.423   0.299   6.211
10799SOL     OW33295   3.064   1.732   2.559
10799SOL    HW133296   3.154   1.762   2.592
10799SOL    HW233297   3.069   1.637   2.528
10800SOL     OW33298   1.498   0.208   0.600
10800SOL    HW133299   1.537   0.209   0.692
10800SOL    HW233300   1.472   0.300   0.573
10801SOL     OW33301   2.184   6.253   5.558
10801SOL    HW133302   2.159   6.191   5.632
10801SOL    HW233303   2.273   6.226   5.521
10802SOL     OW33304   1.336   3.620   3.965
10802SOL    HW133305   1.334   3.719   3.951
10802SOL    HW233306   1.372   3.600   4.056
10803SOL     OW33307   5.267   4.621   5.186
10803SOL    HW133308   5.227   4.638   5.096
10803SOL    HW233309   5.194   4.604   5.252
10804SOL     OW33310   6.124   3.934   1.811
10804SOL    HW133311   6.158   3.994   1.883
10804SOL    HW233312   6.079   3.854   1.852
10805SOL     OW33313   3.926   0.004   0.688
10805SOL    HW133314   3.894   6.975   0.766
10805SOL    HW233315   3.929   6.971   0.606
10806SOL     OW33316   5.581   3.287   0.357
10806SOL    HW133317   5.533   3.199   0.354
10806SOL    HW233318   5.549   3.339   0.437
10807SOL     OW33319   3.504   6.252   3.703
10807SOL    HW133320   3.407   6.246   3.726
10807SOL    HW233321   3.516   6.227   3.607
10808SOL     OW33322   0.818   3.118   6.470
10808SOL    HW133323   0.862   3.186   6.528
10808SOL    HW233324   0.887   3.056   6.434
10809SOL     OW33325   2.847   1.612   4.299
10809SOL    HW133326   2.847   1.681   4.226
10809SOL    HW233327   2.939   1.574   4.307
10810SOL     OW33328   0.227   1.501   5.608
10810SOL    HW133329   0.203   1.405   5.624
10810SOL    HW233330   0.152   1.547   5.560
10811SOL     OW33331   4.316   5.238   5.424
10811SOL    HW133332   4.310   5.140   5.403
10811SOL    HW233333   4.387   5.253   5.494
10812SOL     OW33334   6.784   3.182   2.835
10812SOL    HW133335   6.881   3.183   2.811
10812SOL    HW233336   6.733   3.133   2.764
10813SOL     OW33337   2.734   5.770   1.656
10813SOL    HW133338   2.643   5.751   1.692
10813SOL    HW233339   2.804   5.740   1.721
10814SOL     OW33340   2.198   0.494   5.328
10814SOL    HW133341   2.160   0.402   5.313
10814SOL    HW233342   2.279   0.487   5.386
10815SOL     OW33343   5.100   4.085   2.794
10815SOL    HW133344   5.184   4.123   2.755
10815SOL    HW233345   5.123   4.017   2.863
10816SOL     OW33346   1.771   1.015   2.187
10816SOL    HW133347   1.857   0.994   2.233
10816SOL    HW233348   1.751   1.112   2.198
10817SOL     OW33349   5.350   0.532   2.561
10817SOL    HW133350   5.423   0.466   2.582
10817SOL    HW233351   5.336   0.592   2.640
10818SOL     OW33352   5.390   2.991   6.715
10818SOL    HW133353   5.439   3.073   6.683
10818SOL    HW233354   5.454   2.931   6.762
10819SOL     OW33355   0.618   4.390   6.442
10819SOL    HW133356   0.569   4.379   6.356
10819SOL    HW233357   0.665   4.305   6.465
10820SOL     OW33358   0.318   6.821   3.877
10820SOL    HW133359   0.227   6.812   3.918
10820SOL    HW233360   0.312   6.800   3.780
10821SOL     OW33361   0.215   0.017   1.887
10821SOL    HW133362   0.234   0.066   1.972
10821SOL    HW233363   0.184   6.949   1.908
10822SOL     OW33364   1.158   3.232   2.289
10822SOL    HW133365   1.090   3.289   2.241
10822SOL    HW233366   1.246   3.279   2.290
10823SOL     OW33367   2.760   5.837   1.350
10823SOL    HW133368   2.809   5.764   1.399
10823SOL    HW233369   2.710   5.798   1.273
10824SOL     OW33370   5.141   0.455   3.467
10824SOL    HW133371   5.205   0.432   3.393
10824SOL    HW233372   5.190   0.500   3.541
10825SOL     OW33373   2.837   1.320   1.383
10825SOL    HW133374   2.860   1.407   1.338
10825SOL    HW233375   2.765   1.274   1.331
10826SOL     OW33376   6.762   3.781   1.792
10826SOL    HW133377   6.715   3.701   1.828
10826SOL    HW233378   6.731   3.799   1.698
10827SOL     OW33379   6.825   3.579   4.353
10827SOL    HW133380   6.796   3.561   4.447
10827SOL    HW233381   6.836   3.677   4.339
10828SOL     OW33382   1.216   5.614   1.225
10828SOL    HW133383   1.284   5.554   1.183
10828SOL    HW233384   1.172   5.568   1.302
10829SOL     OW33385   3.010   3.544   1.818
10829SOL    HW133386   3.041   3.546   1.722
10829SOL    HW233387   3.073   3.598   1.874
10830SOL     OW33388   6.082   3.446   4.519
10830SOL    HW133389   6.064   3.469   4.423
10830SOL    HW233390   6.051   3.353   4.537
10831SOL     OW33391   4.975   0.710   2.764
10831SOL    HW133392   5.005   0.781   2.699
10831SOL    HW233393   5.035   0.710   2.843
10832SOL     OW33394   0.942   2.122   6.932
10832SOL    HW133395   0.853   2.146   6.970
10832SOL    HW233396   0.977   2.041   6.980
10833SOL     OW33397   2.410   0.971   4.171
10833SOL    HW133398   2.339   1.041   4.179
10833SOL    HW233399   2.366   0.882   4.153
10834SOL     OW33400   0.696   0.983   5.567
10834SOL    HW133401   0.783   1.025   5.595
10834SOL    HW233402   0.631   1.055   5.542
10835SOL     OW33403   6.086   1.762   2.381
10835SOL    HW133404   6.130   1.686   2.428
10835SOL    HW233405   6.156   1.818   2.336
10836SOL     OW33406   0.473   1.463   5.500
10836SOL    HW133407   0.388   1.488   5.547
10836SOL    HW233408   0.504   1.539   5.443
10837SOL     OW33409   6.628   4.754   0.195
10837SOL    HW133410   6.703   4.696   0.162
10837SOL    HW233411   6.643   4.848   0.167
10838SOL     OW33412   6.013   0.082   6.602
10838SOL    HW133413   6.005   0.127   6.513
10838SOL    HW233414   5.947   0.123   6.665
10839SOL     OW33415   2.636   1.693   0.249
10839SOL    HW133416   2.607   1.676   0.155
10839SOL    HW233417   2.702   1.768   0.251
10840SOL     OW33418   3.159   5.875   1.398
10840SOL    HW133419   3.204   5.891   1.310
10840SOL    HW233420   3.227   5.869   1.470
10841SOL     OW33421   4.071   6.222   6.165
10841SOL    HW133422   3.994   6.160   6.176
10841SOL    HW233423   4.083   6.243   6.067
10842SOL     OW33424   6.371   2.903   1.094
10842SOL    HW133425   6.338   2.831   1.033
10842SOL    HW233426   6.313   2.984   1.085
10843SOL     OW33427   1.323   1.790   2.081
10843SOL    HW133428   1.416   1.798   2.046
10843SOL    HW233429   1.312   1.701   2.126
10844SOL     OW33430   6.673   6.518   4.415
10844SOL    HW133431   6.689   6.608   4.455
10844SOL    HW233432   6.749   6.493   4.355
10845SOL     OW33433   1.030   1.224   1.792
10845SOL    HW133434   0.991   1.137   1.760
10845SOL    HW233435   1.121   1.235   1.754
10846SOL     OW33436   4.345   2.065   0.918
10846SOL    HW133437   4.279   2.002   0.959
10846SOL    HW233438   4.343   2.054   0.818
10847SOL     OW33439   3.040   1.740   5.907
10847SOL    HW133440   3.086   1.712   5.991
10847SOL    HW233441   3.104   1.790   5.849
10848SOL     OW33442   2.265   1.123   7.020
10848SOL    HW133443   2.322   1.193   6.977
10848SOL    HW233444   2.196   1.166   0.052
10849SOL     OW33445   3.166   4.895   4.007
10849SOL    HW133446   3.185   4.895   4.105
10849SOL    HW233447   3.073   4.861   3.991
10850SOL     OW33448   4.970   6.606   6.933
10850SOL    HW133449   4.875   6.616   6.905
10850SOL    HW233450   4.984   6.515   6.971
10851SOL     OW33451   2.651   2.877   6.306
10851SOL    HW133452   2.603   2.935   6.241
10851SOL    HW233453   2.749   2.874   6.282
10852SOL     OW33454   0.281   1.157   6.286
10852SOL    HW133455   0.360   1.150   6.225
10852SOL    HW233456   0.297   1.103   6.368
10853SOL     OW33457   3.329   2.119   4.498
10853SOL    HW133458   3.285   2.155   4.416
10853SOL    HW233459   3.292   2.028   4.519
10854SOL     OW33460   5.351   0.029   6.682
10854SOL    HW133461   5.391   0.115   6.712
10854SOL    HW233462   5.353   6.988   6.757
10855SOL     OW33463   1.891   6.243   2.581
10855SOL    HW133464   1.837   6.304   2.639
10855SOL    HW233465   1.967   6.206   2.634
10856SOL     OW33466   6.081   6.284   0.338
10856SOL    HW133467   6.174   6.317   0.355
10856SOL    HW233468   6.079   6.184   0.347
10857SOL     OW33469   5.999   2.443   3.464
10857SOL    HW133470   5.947   2.489   3.392
10857SOL    HW233471   5.996   2.497   3.548
10858SOL     OW33472   1.885   3.533   7.021
10858SOL    HW133473   1.977   3.496   0.011
10858SOL    HW233474   1.886   3.592   6.940
10859SOL     OW33475   0.706   4.174   3.095
10859SOL    HW133476   0.785   4.172   3.034
10859SOL    HW233477   0.628   4.129   3.051
10860SOL     OW33478   0.228   1.187   0.590
10860SOL    HW133479   0.219   1.143   0.679
10860SOL    HW233480   0.140   1.183   0.542
10861SOL     OW33481   3.287   2.716   1.691
10861SOL    HW133482   3.286   2.749   1.785
10861SOL    HW233483   3.266   2.791   1.628
10862SOL     OW33484   2.894   2.630   6.041
10862SOL    HW133485   2.927   2.586   5.957
10862SOL    HW233486   2.797   2.652   6.030
10863SOL     OW33487   2.220   0.318   3.288
10863SOL    HW133488   2.294   0.275   3.340
10863SOL    HW233489   2.228   0.293   3.191
10864SOL     OW33490   2.990   4.451   1.423
10864SOL    HW133491   2.987   4.497   1.512
10864SOL    HW233492   2.903   4.404   1.407
10865SOL     OW33493   5.514   3.122   3.680
10865SOL    HW133494   5.582   3.182   3.638
10865SOL    HW233495   5.471   3.169   3.757
10866SOL     OW33496   6.656   2.338   0.586
10866SOL    HW133497   6.675   2.241   0.571
10866SOL    HW233498   6.732   2.393   0.551
10867SOL     OW33499   2.732   2.945   0.454
10867SOL    HW133500   2.802   2.877   0.432
10867SOL    HW233501   2.641   2.905   0.445
10868SOL     OW33502   0.554   1.814   3.408
10868SOL    HW133503   0.455   1.806   3.415
10868SOL    HW233504   0.582   1.796   3.313
10869NA      NA33505   0.088   1.935   6.059
10870NA      NA33506   4.403   4.572   5.240
10871NA      NA33507   1.683   5.222   2.828
10872NA      NA33508   5.153   4.378   3.793
10873NA      NA33509   4.245   2.309   5.247
10874NA      NA33510   2.952   5.053   1.250
10875NA      NA33511   1.253   5.229   0.572
10876NA      NA33512   3.721   4.279   1.387
10877NA      NA33513   4.715   4.349   0.494
10878NA      NA33514   3.606   1.238   6.232
10879NA      NA33515   5.116   5.987   2.176
10880NA      NA33516   1.454   0.372   5.324
10881NA      NA33517   4.753   4.987   1.814
10882NA      NA33518   3.332   3.367   0.169
   7.02474   7.02474   7.02474
