Generated by trjconv : CNT in water t= 370.00000
33518
    1C        C    1   2.844   2.770   4.745
    1C        C    2   2.894   2.718   4.867
    1C        C    3   2.835   2.771   4.982
    1C        C    4   2.849   2.777   4.259
    1C        C    5   2.901   2.729   4.381
    1C        C    6   2.846   2.775   4.503
    1C        C    7   3.008   2.638   4.624
    1C        C    8   2.890   2.715   4.623
    1C        C    9   3.072   2.604   4.746
    1C        C   10   3.005   2.632   4.867
    1C        C   11   3.181   2.492   4.973
    1C        C   12   3.056   2.556   4.973
    1C        C   13   2.846   2.768   3.769
    1C        C   14   2.898   2.723   3.892
    1C        C   15   2.847   2.772   4.015
    1C        C   16   3.018   2.648   4.138
    1C        C   17   2.901   2.726   4.137
    1C        C   18   3.080   2.614   4.261
    1C        C   19   3.017   2.649   4.382
    1C        C   20   3.206   2.554   4.504
    1C        C   21   3.076   2.610   4.504
    1C        C   22   3.278   2.535   4.624
    1C        C   23   3.202   2.546   4.743
    1C        C   24   3.409   2.475   4.862
    1C        C   25   3.268   2.500   4.860
    1C        C   26   3.489   2.467   4.978
    1C        C   27   2.847   2.764   3.281
    1C        C   28   2.899   2.716   3.404
    1C        C   29   2.851   2.768   3.526
    1C        C   30   3.016   2.639   3.649
    1C        C   31   2.897   2.715   3.648
    1C        C   32   3.077   2.606   3.773
    1C        C   33   3.012   2.640   3.894
    1C        C   34   3.207   2.554   4.015
    1C        C   35   3.077   2.610   4.016
    1C        C   36   3.274   2.528   4.137
    1C        C   37   3.208   2.555   4.259
    1C        C   38   3.413   2.508   4.378
    1C        C   39   3.273   2.529   4.382
    1C        C   40   3.484   2.504   4.500
    1C        C   41   3.415   2.502   4.623
    1C        C   42   3.629   2.482   4.742
    1C        C   43   3.487   2.481   4.743
    1C        C   44   3.704   2.484   4.862
    1C        C   45   3.627   2.478   4.979
    1C        C   46   2.837   2.750   2.791
    1C        C   47   2.893   2.709   2.915
    1C        C   48   2.840   2.760   3.035
    1C        C   49   3.016   2.641   3.158
    1C        C   50   2.899   2.721   3.157
    1C        C   51   3.077   2.606   3.281
    1C        C   52   3.015   2.636   3.404
    1C        C   53   3.207   2.548   3.525
    1C        C   54   3.076   2.600   3.527
    1C        C   55   3.274   2.527   3.647
    1C        C   56   3.207   2.551   3.769
    1C        C   57   3.413   2.512   3.893
    1C        C   58   3.274   2.534   3.892
    1C        C   59   3.485   2.501   4.015
    1C        C   60   3.413   2.501   4.136
    1C        C   61   3.627   2.491   4.257
    1C        C   62   3.485   2.494   4.257
    1C        C   63   3.696   2.506   4.379
    1C        C   64   3.625   2.499   4.501
    1C        C   65   3.834   2.545   4.618
    1C        C   66   3.700   2.502   4.621
    1C        C   67   3.902   2.563   4.741
    1C        C   68   3.838   2.526   4.861
    1C        C   69   4.048   2.582   4.976
    1C        C   70   3.918   2.530   4.977
    1C        C   71   2.821   2.731   2.305
    1C        C   72   2.879   2.689   2.426
    1C        C   73   2.827   2.739   2.548
    1C        C   74   3.006   2.623   2.669
    1C        C   75   2.887   2.699   2.669
    1C        C   76   3.071   2.595   2.791
    1C        C   77   3.008   2.627   2.914
    1C        C   78   3.204   2.546   3.034
    1C        C   79   3.075   2.603   3.036
    1C        C   80   3.273   2.528   3.156
    1C        C   81   3.209   2.555   3.279
    1C        C   82   3.413   2.504   3.403
    1C        C   83   3.275   2.533   3.402
    1C        C   84   3.484   2.500   3.525
    1C        C   85   3.414   2.503   3.647
    1C        C   86   3.624   2.503   3.765
    1C        C   87   3.483   2.502   3.771
    1C        C   88   3.692   2.514   3.889
    1C        C   89   3.626   2.503   4.013
    1C        C   90   3.831   2.548   4.133
    1C        C   91   3.696   2.506   4.136
    1C        C   92   3.899   2.572   4.255
    1C        C   93   3.831   2.547   4.377
    1C        C   94   4.030   2.631   4.496
    1C        C   95   3.901   2.572   4.497
    1C        C   96   4.091   2.666   4.618
    1C        C   97   4.030   2.624   4.739
    1C        C   98   4.191   2.760   4.861
    1C        C   99   4.097   2.652   4.861
    1C        C  100   4.219   2.834   4.976
    1C        C  101   2.818   2.731   2.069
    1C        C  102   2.990   2.595   2.188
    1C        C  103   2.870   2.672   2.185
    1C        C  104   3.059   2.565   2.309
    1C        C  105   2.999   2.614   2.427
    1C        C  106   3.197   2.534   2.549
    1C        C  107   3.063   2.580   2.548
    1C        C  108   3.270   2.519   2.669
    1C        C  109   3.201   2.539   2.790
    1C        C  110   3.410   2.499   2.912
    1C        C  111   3.271   2.520   2.912
    1C        C  112   3.481   2.496   3.034
    1C        C  113   3.412   2.500   3.157
    1C        C  114   3.622   2.497   3.277
    1C        C  115   3.481   2.491   3.280
    1C        C  116   3.693   2.506   3.399
    1C        C  117   3.626   2.501   3.523
    1C        C  118   3.834   2.544   3.645
    1C        C  119   3.697   2.507   3.644
    1C        C  120   3.898   2.570   3.768
    1C        C  121   3.830   2.546   3.889
    1C        C  122   4.025   2.633   4.011
    1C        C  123   3.896   2.573   4.010
    1C        C  124   4.084   2.676   4.132
    1C        C  125   4.023   2.639   4.254
    1C        C  126   4.198   2.762   4.375
    1C        C  127   4.089   2.673   4.374
    1C        C  128   4.242   2.816   4.498
    1C        C  129   4.192   2.764   4.619
    1C        C  130   4.333   2.924   4.743
    1C        C  131   4.247   2.811   4.741
    1C        C  132   4.356   2.999   4.860
    1C        C  133   4.289   2.954   4.975
    1C        C  134   3.173   2.473   2.078
    1C        C  135   3.038   2.514   2.080
    1C        C  136   3.260   2.478   2.187
    1C        C  137   3.192   2.516   2.306
    1C        C  138   3.402   2.483   2.424
    1C        C  139   3.263   2.504   2.428
    1C        C  140   3.477   2.483   2.544
    1C        C  141   3.409   2.495   2.667
    1C        C  142   3.622   2.507   2.787
    1C        C  143   3.481   2.501   2.789
    1C        C  144   3.692   2.511   2.910
    1C        C  145   3.623   2.500   3.032
    1C        C  146   3.829   2.544   3.156
    1C        C  147   3.692   2.509   3.155
    1C        C  148   3.897   2.566   3.278
    1C        C  149   3.830   2.540   3.400
    1C        C  150   4.025   2.629   3.521
    1C        C  151   3.898   2.566   3.521
    1C        C  152   4.083   2.668   3.644
    1C        C  153   4.024   2.634   3.768
    1C        C  154   4.198   2.758   3.885
    1C        C  155   4.085   2.673   3.890
    1C        C  156   4.246   2.811   4.006
    1C        C  157   4.194   2.764   4.129
    1C        C  158   4.332   2.922   4.249
    1C        C  159   4.250   2.808   4.251
    1C        C  160   4.372   2.981   4.372
    1C        C  161   4.328   2.928   4.496
    1C        C  162   4.430   3.110   4.614
    1C        C  163   4.371   2.981   4.619
    1C        C  164   4.463   3.178   4.733
    1C        C  165   4.429   3.120   4.857
    1C        C  166   4.506   3.322   4.971
    1C        C  167   4.469   3.188   4.973
    1C        C  168   3.477   2.423   2.073
    1C        C  169   3.399   2.458   2.185
    1C        C  170   3.617   2.468   2.303
    1C        C  171   3.474   2.467   2.304
    1C        C  172   3.690   2.490   2.422
    1C        C  173   3.618   2.492   2.544
    1C        C  174   3.828   2.537   2.666
    1C        C  175   3.691   2.505   2.664
    1C        C  176   3.897   2.560   2.787
    1C        C  177   3.830   2.541   2.910
    1C        C  178   4.021   2.627   3.031
    1C        C  179   3.896   2.562   3.033
    1C        C  180   4.085   2.666   3.151
    1C        C  181   4.024   2.628   3.273
    1C        C  182   4.193   2.748   3.394
    1C        C  183   4.085   2.658   3.397
    1C        C  184   4.243   2.802   3.515
    1C        C  185   4.193   2.756   3.638
    1C        C  186   4.339   2.910   3.762
    1C        C  187   4.249   2.801   3.760
    1C        C  188   4.379   2.972   3.882
    1C        C  189   4.338   2.919   4.007
    1C        C  190   4.443   3.104   4.128
    1C        C  191   4.377   2.979   4.128
    1C        C  192   4.466   3.171   4.250
    1C        C  193   4.439   3.105   4.372
    1C        C  194   4.497   3.312   4.489
    1C        C  195   4.457   3.177   4.493
    1C        C  196   4.517   3.385   4.609
    1C        C  197   4.502   3.315   4.731
    1C        C  198   4.553   3.529   4.845
    1C        C  199   4.529   3.388   4.850
    1C        C  200   4.580   3.615   4.957
    1C        C  201   3.616   2.410   2.072
    1C        C  202   3.828   2.506   2.180
    1C        C  203   3.692   2.461   2.183
    1C        C  204   3.899   2.535   2.299
    1C        C  205   3.828   2.519   2.420
    1C        C  206   4.016   2.623   2.542
    1C        C  207   3.892   2.554   2.541
    1C        C  208   4.083   2.658   2.661
    1C        C  209   4.022   2.626   2.784
    1C        C  210   4.196   2.743   2.904
    1C        C  211   4.082   2.660   2.907
    1C        C  212   4.251   2.788   3.026
    1C        C  213   4.205   2.740   3.151
    1C        C  214   4.337   2.906   3.271
    1C        C  215   4.252   2.793   3.273
    1C        C  216   4.373   2.966   3.393
    1C        C  217   4.336   2.908   3.517
    1C        C  218   4.431   3.098   3.638
    1C        C  219   4.374   2.969   3.639
    1C        C  220   4.457   3.166   3.759
    1C        C  221   4.440   3.099   3.883
    1C        C  222   4.498   3.306   4.002
    1C        C  223   4.465   3.168   4.004
    1C        C  224   4.511   3.377   4.123
    1C        C  225   4.499   3.308   4.245
    1C        C  226   4.525   3.521   4.366
    1C        C  227   4.509   3.380   4.366
    1C        C  228   4.521   3.596   4.486
    1C        C  229   4.525   3.526   4.608
    1C        C  230   4.502   3.741   4.726
    1C        C  231   4.538   3.604   4.725
    1C        C  232   4.495   3.819   4.843
    1C        C  233   4.543   3.750   4.955
    1C        C  234   4.014   2.611   2.061
    1C        C  235   3.894   2.541   2.062
    1C        C  236   4.084   2.644   2.177
    1C        C  237   4.026   2.599   2.298
    1C        C  238   4.200   2.724   2.419
    1C        C  239   4.083   2.643   2.419
    1C        C  240   4.254   2.778   2.538
    1C        C  241   4.201   2.736   2.662
    1C        C  242   4.341   2.898   2.782
    1C        C  243   4.256   2.786   2.783
    1C        C  244   4.383   2.955   2.905
    1C        C  245   4.340   2.898   3.027
    1C        C  246   4.439   3.089   3.146
    1C        C  247   4.375   2.963   3.147
    1C        C  248   4.462   3.155   3.269
    1C        C  249   4.434   3.094   3.393
    1C        C  250   4.494   3.298   3.514
    1C        C  251   4.460   3.161   3.514
    1C        C  252   4.501   3.371   3.635
    1C        C  253   4.489   3.303   3.758
    1C        C  254   4.517   3.516   3.877
    1C        C  255   4.508   3.374   3.879
    1C        C  256   4.514   3.587   3.998
    1C        C  257   4.514   3.519   4.122
    1C        C  258   4.488   3.729   4.240
    1C        C  259   4.515   3.590   4.244
    1C        C  260   4.468   3.800   4.360
    1C        C  261   4.488   3.733   4.483
    1C        C  262   4.424   3.938   4.602
    1C        C  263   4.477   3.807   4.603
    1C        C  264   4.394   4.005   4.722
    1C        C  265   4.432   3.945   4.845
    1C        C  266   4.325   4.133   4.956
    1C        C  267   4.396   4.014   4.961
    1C        C  268   4.260   2.768   2.059
    1C        C  269   4.199   2.727   2.178
    1C        C  270   4.344   2.885   2.296
    1C        C  271   4.255   2.774   2.299
    1C        C  272   4.380   2.949   2.416
    1C        C  273   4.341   2.889   2.538
    1C        C  274   4.446   3.078   2.659
    1C        C  275   4.379   2.954   2.658
    1C        C  276   4.472   3.146   2.780
    1C        C  277   4.448   3.080   2.902
    1C        C  278   4.498   3.289   3.024
    1C        C  279   4.469   3.151   3.023
    1C        C  280   4.508   3.359   3.146
    1C        C  281   4.499   3.291   3.269
    1C        C  282   4.514   3.505   3.388
    1C        C  283   4.510   3.364   3.390
    1C        C  284   4.510   3.579   3.508
    1C        C  285   4.511   3.512   3.633
    1C        C  286   4.484   3.724   3.751
    1C        C  287   4.513   3.586   3.754
    1C        C  288   4.470   3.791   3.874
    1C        C  289   4.486   3.726   3.999
    1C        C  290   4.423   3.932   4.114
    1C        C  291   4.471   3.799   4.118
    1C        C  292   4.397   3.998   4.236
    1C        C  293   4.425   3.935   4.359
    1C        C  294   4.323   4.124   4.476
    1C        C  295   4.394   4.002   4.479
    1C        C  296   4.284   4.186   4.596
    1C        C  297   4.329   4.131   4.718
    1C        C  298   4.196   4.308   4.835
    1C        C  299   4.283   4.194   4.837
    1C        C  300   4.167   4.399   4.941
    1C        C  301   4.346   2.878   2.059
    1C        C  302   4.469   3.062   2.176
    1C        C  303   4.395   2.940   2.175
    1C        C  304   4.482   3.137   2.296
    1C        C  305   4.451   3.071   2.417
    1C        C  306   4.501   3.281   2.536
    1C        C  307   4.477   3.142   2.536
    1C        C  308   4.508   3.354   2.657
    1C        C  309   4.503   3.284   2.780
    1C        C  310   4.515   3.498   2.898
    1C        C  311   4.512   3.357   2.901
    1C        C  312   4.507   3.569   3.020
    1C        C  313   4.512   3.501   3.143
    1C        C  314   4.483   3.712   3.262
    1C        C  315   4.505   3.573   3.265
    1C        C  316   4.467   3.784   3.383
    1C        C  317   4.486   3.718   3.506
    1C        C  318   4.421   3.923   3.627
    1C        C  319   4.467   3.789   3.627
    1C        C  320   4.390   3.987   3.749
    1C        C  321   4.426   3.925   3.871
    1C        C  322   4.325   4.117   3.990
    1C        C  323   4.397   3.995   3.990
    1C        C  324   4.280   4.174   4.111
    1C        C  325   4.325   4.120   4.233
    1C        C  326   4.184   4.282   4.351
    1C        C  327   4.283   4.181   4.353
    1C        C  328   4.132   4.333   4.472
    1C        C  329   4.188   4.290   4.594
    1C        C  330   4.020   4.431   4.712
    1C        C  331   4.135   4.347   4.712
    1C        C  332   3.967   4.489   4.829
    1C        C  333   4.050   4.475   4.941
    1C        C  334   4.543   3.265   2.059
    1C        C  335   4.527   3.126   2.061
    1C        C  336   4.532   3.347   2.172
    1C        C  337   4.517   3.275   2.292
    1C        C  338   4.517   3.490   2.410
    1C        C  339   4.513   3.349   2.413
    1C        C  340   4.516   3.564   2.530
    1C        C  341   4.517   3.495   2.653
    1C        C  342   4.487   3.705   2.775
    1C        C  343   4.514   3.566   2.775
    1C        C  344   4.470   3.778   2.895
    1C        C  345   4.485   3.709   3.017
    1C        C  346   4.420   3.913   3.136
    1C        C  347   4.464   3.778   3.138
    1C        C  348   4.390   3.979   3.257
    1C        C  349   4.416   3.916   3.381
    1C        C  350   4.312   4.098   3.501
    1C        C  351   4.395   3.984   3.502
    1C        C  352   4.271   4.162   3.621
    1C        C  353   4.317   4.107   3.743
    1C        C  354   4.177   4.264   3.864
    1C        C  355   4.275   4.163   3.866
    1C        C  356   4.119   4.311   3.985
    1C        C  357   4.179   4.273   4.107
    1C        C  358   4.013   4.405   4.227
    1C        C  359   4.130   4.326   4.228
    1C        C  360   3.950   4.443   4.347
    1C        C  361   4.014   4.411   4.469
    1C        C  362   3.823   4.507   4.590
    1C        C  363   3.954   4.454   4.589
    1C        C  364   3.757   4.541   4.710
    1C        C  365   3.834   4.537   4.828
    1C        C  366   3.629   4.589   4.945
    1C        C  367   3.767   4.570   4.946
    1C        C  368   4.504   3.560   2.048
    1C        C  369   4.518   3.488   2.167
    1C        C  370   4.497   3.701   2.285
    1C        C  371   4.511   3.561   2.288
    1C        C  372   4.473   3.770   2.406
    1C        C  373   4.486   3.702   2.530
    1C        C  374   4.418   3.903   2.647
    1C        C  375   4.471   3.772   2.652
    1C        C  376   4.386   3.971   2.767
    1C        C  377   4.420   3.910   2.890
    1C        C  378   4.318   4.095   3.010
    1C        C  379   4.391   3.974   3.012
    1C        C  380   4.270   4.150   3.131
    1C        C  381   4.314   4.098   3.254
    1C        C  382   4.172   4.254   3.375
    1C        C  383   4.269   4.151   3.377
    1C        C  384   4.119   4.307   3.495
    1C        C  385   4.173   4.263   3.618
    1C        C  386   4.008   4.392   3.740
    1C        C  387   4.123   4.309   3.742
    1C        C  388   3.942   4.428   3.860
    1C        C  389   4.005   4.394   3.982
    1C        C  390   3.817   4.488   4.104
    1C        C  391   3.946   4.431   4.105
    1C        C  392   3.750   4.515   4.226
    1C        C  393   3.819   4.496   4.348
    1C        C  394   3.614   4.551   4.473
    1C        C  395   3.752   4.523   4.469
    1C        C  396   3.542   4.562   4.594
    1C        C  397   3.617   4.561   4.714
    1C        C  398   3.406   4.546   4.839
    1C        C  399   3.545   4.570   4.835
    1C        C  400   3.336   4.512   4.956
    1C        C  401   4.494   3.699   2.048
    1C        C  402   4.453   3.913   2.165
    1C        C  403   4.487   3.776   2.165
    1C        C  404   4.406   3.973   2.283
    1C        C  405   4.424   3.902   2.404
    1C        C  406   4.325   4.092   2.523
    1C        C  407   4.391   3.967   2.525
    1C        C  408   4.278   4.151   2.643
    1C        C  409   4.315   4.093   2.766
    1C        C  410   4.177   4.254   2.887
    1C        C  411   4.276   4.152   2.888
    1C        C  412   4.121   4.299   3.008
    1C        C  413   4.169   4.250   3.131
    1C        C  414   3.998   4.376   3.252
    1C        C  415   4.117   4.299   3.253
    1C        C  416   3.934   4.408   3.373
    1C        C  417   4.000   4.382   3.496
    1C        C  418   3.813   4.477   3.616
    1C        C  419   3.945   4.426   3.618
    1C        C  420   3.744   4.499   3.737
    1C        C  421   3.812   4.482   3.860
    1C        C  422   3.607   4.532   3.987
    1C        C  423   3.747   4.509   3.983
    1C        C  424   3.538   4.545   4.110
    1C        C  425   3.611   4.540   4.230
    1C        C  426   3.400   4.545   4.355
    1C        C  427   3.541   4.553   4.352
    1C        C  428   3.328   4.543   4.477
    1C        C  429   3.401   4.551   4.597
    1C        C  430   3.191   4.519   4.719
    1C        C  431   3.331   4.542   4.719
    1C        C  432   3.124   4.492   4.842
    1C        C  433   3.199   4.487   4.960
    1C        C  434   4.387   4.120   2.052
    1C        C  435   4.445   3.992   2.049
    1C        C  436   4.300   4.158   2.159
    1C        C  437   4.325   4.090   2.282
    1C        C  438   4.180   4.249   2.400
    1C        C  439   4.275   4.145   2.402
    1C        C  440   4.124   4.295   2.521
    1C        C  441   4.178   4.251   2.644
    1C        C  442   4.008   4.380   2.763
    1C        C  443   4.124   4.300   2.764
    1C        C  444   3.941   4.412   2.884
    1C        C  445   4.000   4.373   3.006
    1C        C  446   3.812   4.468   3.129
    1C        C  447   3.941   4.412   3.128
    1C        C  448   3.743   4.490   3.250
    1C        C  449   3.807   4.470   3.374
    1C        C  450   3.603   4.526   3.496
    1C        C  451   3.742   4.496   3.496
    1C        C  452   3.537   4.539   3.620
    1C        C  453   3.606   4.529   3.743
    1C        C  454   3.395   4.539   3.864
    1C        C  455   3.537   4.542   3.865
    1C        C  456   3.329   4.523   3.987
    1C        C  457   3.397   4.534   4.111
    1C        C  458   3.191   4.498   4.237
    1C        C  459   3.328   4.533   4.234
    1C        C  460   3.122   4.483   4.359
    1C        C  461   3.192   4.505   4.481
    1C        C  462   2.989   4.436   4.602
    1C        C  463   3.119   4.492   4.601
    1C        C  464   2.922   4.406   4.723
    1C        C  465   2.990   4.440   4.843
    1C        C  466   2.804   4.330   4.957
    1C        C  467   2.909   4.423   4.960
    1C        C  468   4.124   4.286   2.040
    1C        C  469   4.193   4.252   2.157
    1C        C  470   4.010   4.373   2.276
    1C        C  471   4.130   4.298   2.277
    1C        C  472   3.944   4.404   2.397
    1C        C  473   4.007   4.374   2.520
    1C        C  474   3.811   4.458   2.640
    1C        C  475   3.943   4.408   2.641
    1C        C  476   3.742   4.484   2.761
    1C        C  477   3.811   4.468   2.883
    1C        C  478   3.605   4.510   3.009
    1C        C  479   3.744   4.489   3.006
    1C        C  480   3.533   4.522   3.130
    1C        C  481   3.605   4.520   3.251
    1C        C  482   3.393   4.526   3.378
    1C        C  483   3.534   4.528   3.373
    1C        C  484   3.323   4.531   3.500
    1C        C  485   3.395   4.540   3.621
    1C        C  486   3.185   4.502   3.744
    1C        C  487   3.323   4.532   3.742
    1C        C  488   3.124   4.472   3.868
    1C        C  489   3.192   4.486   3.990
    1C        C  490   2.999   4.410   4.112
    1C        C  491   3.128   4.466   4.114
    1C        C  492   2.939   4.379   4.236
    1C        C  493   2.995   4.423   4.358
    1C        C  494   2.823   4.302   4.481
    1C        C  495   2.932   4.391   4.481
    1C        C  496   2.769   4.252   4.601
    1C        C  497   2.815   4.313   4.720
    1C        C  498   2.663   4.163   4.842
    1C        C  499   2.752   4.272   4.840
    1C        C  500   2.598   4.114   4.956
    1C        C  501   4.005   4.359   2.041
    1C        C  502   3.815   4.467   2.156
    1C        C  503   3.942   4.406   2.157
    1C        C  504   3.745   4.487   2.278
    1C        C  505   3.813   4.458   2.398
    1C        C  506   3.603   4.501   2.521
    1C        C  507   3.742   4.475   2.518
    1C        C  508   3.532   4.509   2.643
    1C        C  509   3.602   4.506   2.765
    1C        C  510   3.391   4.514   2.888
    1C        C  511   3.532   4.515   2.888
    1C        C  512   3.319   4.516   3.009
    1C        C  513   3.391   4.523   3.131
    1C        C  514   3.185   4.492   3.254
    1C        C  515   3.323   4.519   3.255
    1C        C  516   3.118   4.469   3.377
    1C        C  517   3.185   4.497   3.498
    1C        C  518   2.992   4.416   3.623
    1C        C  519   3.119   4.477   3.621
    1C        C  520   2.934   4.376   3.745
    1C        C  521   2.998   4.408   3.867
    1C        C  522   2.831   4.281   3.997
    1C        C  523   2.938   4.372   3.990
    1C        C  524   2.778   4.236   4.120
    1C        C  525   2.828   4.292   4.241
    1C        C  526   2.689   4.131   4.362
    1C        C  527   2.774   4.244   4.362
    1C        C  528   2.650   4.073   4.485
    1C        C  529   2.681   4.142   4.605
    1C        C  530   2.581   3.955   4.727
    1C        C  531   2.636   4.087   4.727
    1C        C  532   2.541   3.898   4.851
    1C        C  533   2.533   3.990   4.960
    1C        C  534   3.615   4.553   2.038
    1C        C  535   3.747   4.504   2.040
    1C        C  536   3.536   4.531   2.155
    1C        C  537   3.604   4.505   2.277
    1C        C  538   3.392   4.514   2.398
    1C        C  539   3.533   4.513   2.399
    1C        C  540   3.322   4.499   2.520
    1C        C  541   3.390   4.507   2.643
    1C        C  542   3.181   4.484   2.763
    1C        C  543   3.320   4.504   2.766
    1C        C  544   3.115   4.465   2.886
    1C        C  545   3.181   4.486   3.009
    1C        C  546   2.987   4.410   3.133
    1C        C  547   3.115   4.469   3.133
    1C        C  548   2.931   4.372   3.256
    1C        C  549   2.991   4.407   3.379
    1C        C  550   2.825   4.282   3.503
    1C        C  551   2.930   4.376   3.502
    1C        C  552   2.779   4.232   3.628
    1C        C  553   2.827   4.284   3.750
    1C        C  554   2.697   4.120   3.871
    1C        C  555   2.780   4.235   3.873
    1C        C  556   2.660   4.061   3.993
    1C        C  557   2.697   4.121   4.116
    1C        C  558   2.595   3.940   4.245
    1C        C  559   2.659   4.066   4.240
    1C        C  560   2.569   3.873   4.367
    1C        C  561   2.590   3.945   4.486
    1C        C  562   2.526   3.745   4.616
    1C        C  563   2.558   3.882   4.609
    1C        C  564   2.515   3.677   4.739
    1C        C  565   2.524   3.756   4.857
    1C        C  566   2.528   3.544   4.977
    1C        C  567   2.530   3.683   4.977
    1C        C  568   3.329   4.466   2.041
    1C        C  569   3.396   4.504   2.158
    1C        C  570   3.181   4.471   2.278
    1C        C  571   3.319   4.508   2.277
    1C        C  572   3.112   4.455   2.400
    1C        C  573   3.183   4.473   2.521
    1C        C  574   2.983   4.401   2.644
    1C        C  575   3.112   4.457   2.642
    1C        C  576   2.927   4.363   2.768
    1C        C  577   2.991   4.398   2.890
    1C        C  578   2.819   4.276   3.012
    1C        C  579   2.928   4.366   3.012
    1C        C  580   2.775   4.224   3.136
    1C        C  581   2.826   4.277   3.257
    1C        C  582   2.689   4.119   3.383
    1C        C  583   2.777   4.230   3.381
    1C        C  584   2.656   4.057   3.506
    1C        C  585   2.694   4.119   3.627
    1C        C  586   2.592   3.935   3.754
    1C        C  587   2.652   4.063   3.750
    1C        C  588   2.572   3.870   3.878
    1C        C  589   2.601   3.933   4.001
    1C        C  590   2.533   3.734   4.126
    1C        C  591   2.569   3.871   4.124
    1C        C  592   2.521   3.667   4.250
    1C        C  593   2.530   3.737   4.372
    1C        C  594   2.501   3.530   4.496
    1C        C  595   2.514   3.671   4.496
    1C        C  596   2.515   3.461   4.619
    1C        C  597   2.515   3.535   4.739
    1C        C  598   2.533   3.324   4.861
    1C        C  599   2.522   3.465   4.862
    1C        C  600   2.536   3.247   4.978
    1C        C  601   3.193   4.439   2.042
    1C        C  602   2.978   4.392   2.156
    1C        C  603   3.114   4.437   2.157
    1C        C  604   2.921   4.356   2.282
    1C        C  605   2.983   4.396   2.402
    1C        C  606   2.812   4.272   2.527
    1C        C  607   2.919   4.365   2.524
    1C        C  608   2.768   4.220   2.651
    1C        C  609   2.816   4.276   2.771
    1C        C  610   2.682   4.110   2.895
    1C        C  611   2.765   4.224   2.892
    1C        C  612   2.645   4.052   3.019
    1C        C  613   2.687   4.114   3.139
    1C        C  614   2.597   3.926   3.263
    1C        C  615   2.652   4.056   3.262
    1C        C  616   2.571   3.865   3.388
    1C        C  617   2.599   3.928   3.511
    1C        C  618   2.526   3.730   3.636
    1C        C  619   2.568   3.865   3.634
    1C        C  620   2.507   3.666   3.761
    1C        C  621   2.530   3.735   3.881
    1C        C  622   2.504   3.524   4.010
    1C        C  623   2.518   3.665   4.003
    1C        C  624   2.507   3.454   4.132
    1C        C  625   2.508   3.526   4.253
    1C        C  626   2.523   3.316   4.377
    1C        C  627   2.505   3.456   4.376
    1C        C  628   2.547   3.249   4.499
    1C        C  629   2.539   3.322   4.620
    1C        C  630   2.595   3.117   4.740
    1C        C  631   2.546   3.250   4.741
    1C        C  632   2.615   3.049   4.864
    1C        C  633   2.553   3.107   4.978
    1C        C  634   2.784   4.300   2.054
    1C        C  635   2.890   4.391   2.043
    1C        C  636   2.741   4.228   2.166
    1C        C  637   2.804   4.276   2.283
    1C        C  638   2.675   4.110   2.409
    1C        C  639   2.757   4.224   2.407
    1C        C  640   2.638   4.049   2.531
    1C        C  641   2.682   4.108   2.652
    1C        C  642   2.589   3.917   2.775
    1C        C  643   2.645   4.047   2.774
    1C        C  644   2.566   3.852   2.899
    1C        C  645   2.587   3.923   3.019
    1C        C  646   2.531   3.722   3.146
    1C        C  647   2.567   3.858   3.142
    1C        C  648   2.519   3.656   3.270
    1C        C  649   2.534   3.729   3.391
    1C        C  650   2.513   3.520   3.517
    1C        C  651   2.518   3.661   3.513
    1C        C  652   2.514   3.453   3.642
    1C        C  653   2.505   3.524   3.764
    1C        C  654   2.537   3.316   3.889
    1C        C  655   2.511   3.455   3.887
    1C        C  656   2.551   3.247   4.011
    1C        C  657   2.528   3.314   4.134
    1C        C  658   2.598   3.116   4.257
    1C        C  659   2.537   3.244   4.256
    1C        C  660   2.619   3.049   4.380
    1C        C  661   2.579   3.111   4.500
    1C        C  662   2.708   2.937   4.624
    1C        C  663   2.620   3.048   4.620
    1C        C  664   2.750   2.877   4.745
    1C        C  665   2.694   2.929   4.865
    1C        C  666   2.741   2.873   4.984
    1C        C  667   2.680   4.021   2.050
    1C        C  668   2.684   4.099   2.166
    1C        C  669   2.587   3.912   2.291
    1C        C  670   2.646   4.041   2.289
    1C        C  671   2.558   3.846   2.413
    1C        C  672   2.583   3.919   2.531
    1C        C  673   2.525   3.715   2.657
    1C        C  674   2.563   3.851   2.653
    1C        C  675   2.511   3.646   2.779
    1C        C  676   2.524   3.717   2.901
    1C        C  677   2.505   3.509   3.030
    1C        C  678   2.516   3.650   3.025
    1C        C  679   2.509   3.441   3.154
    1C        C  680   2.508   3.515   3.274
    1C        C  681   2.535   3.306   3.401
    1C        C  682   2.510   3.445   3.397
    1C        C  683   2.558   3.242   3.524
    1C        C  684   2.539   3.314   3.645
    1C        C  685   2.603   3.113   3.768
    1C        C  686   2.554   3.246   3.767
    1C        C  687   2.635   3.051   3.891
    1C        C  688   2.605   3.116   4.013
    1C        C  689   2.712   2.936   4.136
    1C        C  690   2.631   3.052   4.136
    1C        C  691   2.753   2.881   4.260
    1C        C  692   2.707   2.939   4.381
    1C        C  693   2.754   2.883   4.502
    1C        C  694   2.630   3.890   2.055
    1C        C  695   2.522   3.706   2.176
    1C        C  696   2.574   3.837   2.172
    1C        C  697   2.512   3.634   2.297
    1C        C  698   2.523   3.709   2.416
    1C        C  699   2.487   3.501   2.542
    1C        C  700   2.504   3.641   2.538
    1C        C  701   2.501   3.432   2.665
    1C        C  702   2.497   3.505   2.786
    1C        C  703   2.521   3.297   2.910
    1C        C  704   2.498   3.437   2.909
    1C        C  705   2.542   3.231   3.033
    1C        C  706   2.526   3.301   3.155
    1C        C  707   2.600   3.105   3.277
    1C        C  708   2.549   3.237   3.278
    1C        C  709   2.634   3.044   3.400
    1C        C  710   2.608   3.110   3.523
    1C        C  711   2.706   2.927   3.646
    1C        C  712   2.631   3.046   3.647
    1C        C  713   2.752   2.874   3.769
    1C        C  714   2.713   2.933   3.891
    1C        C  715   2.756   2.880   4.014
    1C        C  716   2.449   3.498   2.062
    1C        C  717   2.484   3.633   2.062
    1C        C  718   2.466   3.420   2.181
    1C        C  719   2.486   3.494   2.300
    1C        C  720   2.512   3.286   2.424
    1C        C  721   2.486   3.425   2.423
    1C        C  722   2.531   3.219   2.547
    1C        C  723   2.521   3.293   2.667
    1C        C  724   2.587   3.093   2.788
    1C        C  725   2.537   3.225   2.790
    1C        C  726   2.621   3.032   2.911
    1C        C  727   2.593   3.099   3.033
    1C        C  728   2.706   2.921   3.158
    1C        C  729   2.626   3.037   3.156
    1C        C  730   2.750   2.867   3.281
    1C        C  731   2.707   2.923   3.403
    1C        C  732   2.752   2.869   3.525
    1C        C  733   2.485   3.196   2.069
    1C        C  734   2.483   3.278   2.183
    1C        C  735   2.578   3.082   2.306
    1C        C  736   2.524   3.214   2.303
    1C        C  737   2.612   3.019   2.427
    1C        C  738   2.584   3.088   2.547
    1C        C  739   2.689   2.903   2.669
    1C        C  740   2.617   3.024   2.669
    1C        C  741   2.736   2.849   2.791
    1C        C  742   2.699   2.915   2.910
    1C        C  743   2.745   2.865   3.034
    1C        C  744   2.542   3.069   2.073
    1C        C  745   2.678   2.893   2.186
    1C        C  746   2.600   3.010   2.187
    1C        C  747   2.723   2.834   2.306
    1C        C  748   2.685   2.898   2.427
    1C        C  749   2.733   2.844   2.548
    1C        C  750   2.732   2.840   2.068
    1C        C  751   3.684   2.309   1.988
    1C        O  752   3.702   2.196   2.041
    1C        O  753   3.679   2.306   1.848
    1C        C  754   4.645   3.068   1.993
    1C        O  755   4.627   3.012   1.881
    1C        O  756   4.775   3.052   2.041
    1C        C  757   4.440   4.222   1.959
    1C        O  758   4.539   4.293   1.990
    1C        O  759   4.422   4.210   1.820
    1C        C  760   3.604   4.678   1.959
    1C        O  761   3.662   4.782   1.998
    1C        O  762   3.519   4.704   1.850
    1C        C  763   2.875   4.506   1.952
    1C        O  764   2.901   4.478   1.832
    1C        O  765   2.800   4.622   1.975
    1C        C  766   2.337   3.461   1.972
    1C        O  767   2.341   3.496   1.851
    1C        O  768   2.203   3.471   2.013
    1C        C  769   4.706   3.594   5.031
    1C        O  770   4.705   3.582   5.157
    1C        O  771   4.828   3.613   4.965
    1C        C  772   4.268   4.427   5.047
    1C        O  773   4.247   4.411   5.170
    1C        O  774   4.344   4.544   5.047
    1C        C  775   4.134   2.540   5.089
    1C        O  776   4.154   2.418   5.113
    1C        O  777   4.111   2.607   5.210
    1C        C  778   2.910   4.493   5.090
    1C        O  779   2.883   4.616   5.091
    1C        O  780   2.933   4.439   5.217
    1C        C  781   2.438   3.049   5.053
    1C        O  782   2.331   3.033   4.988
    1C        O  783   2.441   2.996   5.181
    1C        C  784   2.419   3.987   5.055
    1C        O  785   2.301   4.015   5.021
    1C        O  786   2.428   3.957   5.192
    1C        C  787   2.955   2.409   2.018
    1C        O  788   2.926   2.408   1.895
    1C        O  789   2.874   2.325   2.095
    1C        C  790   3.183   2.373   5.061
    1C        O  791   3.144   2.260   5.023
    1C        O  792   3.186   2.371   5.201
    1C        H  793   4.275   3.017   5.061
    1C        H  794   4.237   2.774   5.063
    1C        H  795   4.468   3.135   5.066
    1C        H  796   4.545   3.357   5.064
    1C        H  797   4.501   3.774   5.051
    1C        H  798   4.446   3.983   5.051
    1C        H  799   4.274   4.162   5.045
    1C        H  800   4.033   4.547   5.018
    1C        H  801   3.812   4.564   5.043
    1C        H  802   3.598   4.666   5.013
    1C        H  803   3.392   4.489   5.044
    1C        H  804   3.156   4.517   5.053
    1C        H  805   3.895   2.478   5.067
    1C        H  806   3.674   2.504   5.072
    1C        H  807   2.983   2.511   5.039
    1C        H  808   3.452   2.414   5.063
    1C        H  809   2.892   2.758   5.072
    1C        H  810   2.658   2.858   5.050
    1C        H  811   2.511   3.294   5.070
    1C        H  812   2.491   3.507   5.070
    1C        H  813   2.582   3.726   5.060
    1C        H  814   2.583   4.181   5.038
    1C        H  815   2.746   4.316   5.046
    1C        H  816   2.694   2.875   1.974
    1C        H  817   2.794   2.662   1.990
    1C        H  818   3.218   2.497   1.983
    1C        H  819   3.429   2.420   1.977
    1C        H  820   3.833   2.556   1.974
    1C        H  821   4.053   2.633   1.963
    1C        H  822   4.292   2.693   1.989
    1C        H  823   4.397   2.883   1.965
    1C        H  824   4.566   3.307   1.963
    1C        H  825   4.478   3.503   1.962
    1C        H  826   4.559   3.737   1.973
    1C        H  827   3.778   4.459   1.948
    1C        H  828   3.939   4.329   1.962
    1C        H  829   4.180   4.285   1.949
    1C        H  830   4.529   3.988   1.982
    1C        H  831   2.674   3.826   1.982
    1C        H  832   2.669   4.068   1.955
    1C        H  833   2.715   4.297   1.972
    1C        H  834   3.374   4.481   1.946
    1C        H  835   3.140   4.467   1.953
    1C        H  836   2.509   3.005   1.994
    1C        H  837   2.464   3.241   1.974
    1C        H  838   2.464   3.682   1.969
    2V3OU   H29  839   2.807   3.552   3.982
    2V3OU   C27  840   2.793   3.505   4.083
    2V3OU   H27  841   2.730   3.565   4.154
    2V3OU   H28  842   2.746   3.405   4.067
    2V3OU   O11  843   2.914   3.480   4.154
    2V3OU   C15  844   2.928   3.398   4.264
    2V3OU   C13  845   3.052   3.372   4.325
    2V3OU   C14  846   3.079   3.265   4.412
    2V3OU   C16  847   2.977   3.184   4.460
    2V3OU    H6  848   2.992   3.091   4.516
    2V3OU   C12  849   3.215   3.228   4.456
    2V3OU    O2  850   3.235   3.120   4.516
    2V3OU   C10  851   3.324   3.303   4.390
    2V3OU    C8  852   3.457   3.267   4.409
    2V3OU   O10  853   3.489   3.147   4.465
    2V3OU   H26  854   3.403   3.108   4.488
    2V3OU    C6  855   3.567   3.346   4.365
    2V3OU    C5  856   3.534   3.465   4.301
    2V3OU    C4  857   3.704   3.288   4.380
    2V3OU    H4  858   3.718   3.223   4.471
    2V3OU    H5  859   3.711   3.224   4.287
    2V3OU    C2  860   3.816   3.392   4.377
    2V3OU    O6  861   3.809   3.473   4.495
    2V3OU   H21  862   3.775   3.559   4.468
    2V3OU    C3  863   3.780   3.492   4.267
    2V3OU    H2  864   3.860   3.570   4.263
    2V3OU    H3  865   3.781   3.435   4.171
    2V3OU   C25  866   3.950   3.321   4.356
    2V3OU    O7  867   3.997   3.293   4.246
    2V3OU   C26  868   4.029   3.288   4.482
    2V3OU   H22  869   4.066   3.379   4.536
    2V3OU   H23  870   4.116   3.223   4.457
    2V3OU    O8  871   3.961   3.206   4.574
    2V3OU   H24  872   3.914   3.262   4.639
    2V3OU    C1  873   3.645   3.562   4.271
    2V3OU    H1  874   3.626   3.618   4.175
    2V3OU    O3  875   3.656   3.655   4.379
    2V3OU   C19  876   3.615   3.791   4.377
    2V3OU    H9  877   3.516   3.806   4.324
    2V3OU    O4  878   3.714   3.851   4.295
    2V3OU   C20  879   3.846   3.872   4.346
    2V3OU   H10  880   3.884   3.769   4.372
    2V3OU   C24  881   3.609   3.856   4.516
    2V3OU   H16  882   3.536   3.803   4.582
    2V3OU   H17  883   3.567   3.957   4.493
    2V3OU   C23  884   3.749   3.872   4.577
    2V3OU   H15  885   3.790   3.767   4.590
    2V3OU    N1  886   3.734   3.953   4.696
    2V3OU   H19  887   3.799   3.928   4.768
    2V3OU   H20  888   3.640   3.938   4.728
    2V3OU   C21  889   3.846   3.947   4.480
    2V3OU   H11  890   3.950   3.931   4.520
    2V3OU    O5  891   3.824   4.087   4.483
    2V3OU   H18  892   3.771   4.092   4.564
    2V3OU   C22  893   3.910   3.951   4.233
    2V3OU   H12  894   3.858   4.049   4.218
    2V3OU   H13  895   3.902   3.895   4.136
    2V3OU   H14  896   4.020   3.956   4.253
    2V3OU   C11  897   3.160   3.468   4.296
    2V3OU    O1  898   3.137   3.584   4.256
    2V3OU    C9  899   3.299   3.423   4.319
    2V3OU    C7  900   3.400   3.504   4.269
    2V3OU    O9  901   3.381   3.620   4.197
    2V3OU   H25  902   3.287   3.624   4.176
    2V3OU   C17  903   2.828   3.317   4.322
    2V3OU    H7  904   2.733   3.351   4.278
    2V3OU   C18  905   2.850   3.214   4.412
    2V3OU    H8  906   2.786   3.170   4.490
    3SOL     OW  907   3.126   4.273   5.304
    3SOL    HW1  908   3.044   4.313   5.264
    3SOL    HW2  909   3.100   4.202   5.370
    4SOL     OW  910   0.092   0.129   0.430
    4SOL    HW1  911   7.019   0.150   0.462
    4SOL    HW2  912   0.152   0.206   0.451
    5SOL     OW  913   4.664   1.240   2.081
    5SOL    HW1  914   4.627   1.328   2.053
    5SOL    HW2  915   4.596   1.191   2.135
    6SOL     OW  916   5.577   2.004   3.071
    6SOL    HW1  917   5.534   2.069   3.009
    6SOL    HW2  918   5.664   2.042   3.104
    7SOL     OW  919   1.097   4.325   4.696
    7SOL    HW1  920   1.056   4.293   4.610
    7SOL    HW2  921   1.188   4.362   4.677
    8SOL     OW  922   2.510   2.371   5.445
    8SOL    HW1  923   2.450   2.413   5.378
    8SOL    HW2  924   2.554   2.442   5.500
    9SOL     OW  925   6.834   1.640   6.080
    9SOL    HW1  926   6.907   1.708   6.068
    9SOL    HW2  927   6.866   1.567   6.140
   10SOL     OW  928   3.661   5.154   3.767
   10SOL    HW1  929   3.726   5.174   3.840
   10SOL    HW2  930   3.680   5.064   3.729
   11SOL     OW  931   1.977   0.308   6.941
   11SOL    HW1  932   1.913   0.348   7.006
   11SOL    HW2  933   1.928   0.246   6.880
   12SOL     OW  934   2.563   4.630   3.817
   12SOL    HW1  935   2.637   4.681   3.773
   12SOL    HW2  936   2.486   4.691   3.835
   13SOL     OW  937   3.519   6.082   2.887
   13SOL    HW1  938   3.444   6.063   2.950
   13SOL    HW2  939   3.582   6.147   2.930
   14SOL     OW  940   4.514   4.910   5.747
   14SOL    HW1  941   4.542   5.005   5.741
   14SOL    HW2  942   4.482   4.890   5.840
   15SOL     OW  943   0.096   6.124   6.240
   15SOL    HW1  944   0.073   6.214   6.275
   15SOL    HW2  945   0.026   6.058   6.269
   16SOL     OW  946   5.601   2.690   6.343
   16SOL    HW1  947   5.611   2.732   6.433
   16SOL    HW2  948   5.539   2.746   6.287
   17SOL     OW  949   6.111   0.350   5.765
   17SOL    HW1  950   6.025   0.351   5.816
   17SOL    HW2  951   6.151   0.442   5.766
   18SOL     OW  952   3.124   1.594   5.290
   18SOL    HW1  953   3.032   1.615   5.255
   18SOL    HW2  954   3.179   1.678   5.289
   19SOL     OW  955   0.811   2.540   2.538
   19SOL    HW1  956   0.830   2.490   2.454
   19SOL    HW2  957   0.825   2.480   2.616
   20SOL     OW  958   6.013   1.966   5.878
   20SOL    HW1  959   6.011   2.030   5.801
   20SOL    HW2  960   6.104   1.964   5.918
   21SOL     OW  961   3.238   6.581   2.713
   21SOL    HW1  962   3.240   6.483   2.734
   21SOL    HW2  963   3.252   6.594   2.615
   22SOL     OW  964   1.389   5.827   5.426
   22SOL    HW1  965   1.291   5.819   5.441
   22SOL    HW2  966   1.407   5.867   5.336
   23SOL     OW  967   4.784   4.621   2.510
   23SOL    HW1  968   4.734   4.566   2.443
   23SOL    HW2  969   4.827   4.561   2.577
   24SOL     OW  970   3.796   0.279   1.192
   24SOL    HW1  971   3.788   0.218   1.271
   24SOL    HW2  972   3.880   0.334   1.201
   25SOL     OW  973   3.257   6.855   3.635
   25SOL    HW1  974   3.245   6.945   3.677
   25SOL    HW2  975   3.251   6.863   3.535
   26SOL     OW  976   1.488   2.135   6.958
   26SOL    HW1  977   1.433   2.062   6.917
   26SOL    HW2  978   1.567   2.095   7.005
   27SOL     OW  979   0.461   1.152   2.682
   27SOL    HW1  980   0.505   1.064   2.700
   27SOL    HW2  981   0.409   1.146   2.597
   28SOL     OW  982   1.347   0.936   4.481
   28SOL    HW1  983   1.290   0.909   4.558
   28SOL    HW2  984   1.419   0.999   4.512
   29SOL     OW  985   6.288   1.238   1.174
   29SOL    HW1  986   6.210   1.244   1.237
   29SOL    HW2  987   6.338   1.153   1.191
   30SOL     OW  988   3.763   0.259   4.947
   30SOL    HW1  989   3.845   0.216   4.984
   30SOL    HW2  990   3.682   0.209   4.977
   31SOL     OW  991   0.077   2.014   5.149
   31SOL    HW1  992   0.144   2.057   5.210
   31SOL    HW2  993   0.065   2.072   5.068
   32SOL     OW  994   1.708   1.618   1.590
   32SOL    HW1  995   1.679   1.646   1.681
   32SOL    HW2  996   1.768   1.688   1.550
   33SOL     OW  997   0.023   3.658   4.994
   33SOL    HW1  998   6.963   3.718   4.983
   33SOL    HW2  999   0.106   3.706   4.963
   34SOL     OW 1000   1.868   4.987   5.007
   34SOL    HW1 1001   1.911   4.897   4.999
   34SOL    HW2 1002   1.890   5.041   4.926
   35SOL     OW 1003   3.599   2.432   6.015
   35SOL    HW1 1004   3.672   2.433   5.946
   35SOL    HW2 1005   3.576   2.338   6.037
   36SOL     OW 1006   5.061   1.428   4.023
   36SOL    HW1 1007   5.091   1.333   4.021
   36SOL    HW2 1008   5.132   1.485   4.064
   37SOL     OW 1009   2.234   1.281   3.390
   37SOL    HW1 1010   2.262   1.338   3.312
   37SOL    HW2 1011   2.313   1.230   3.424
   38SOL     OW 1012   2.202   4.792   1.847
   38SOL    HW1 1013   2.226   4.889   1.841
   38SOL    HW2 1014   2.267   4.745   1.907
   39SOL     OW 1015   6.208   4.558   6.667
   39SOL    HW1 1016   6.204   4.476   6.609
   39SOL    HW2 1017   6.227   4.638   6.610
   40SOL     OW 1018   3.263   0.296   6.109
   40SOL    HW1 1019   3.261   0.388   6.148
   40SOL    HW2 1020   3.334   0.291   6.039
   41SOL     OW 1021   5.978   3.904   2.457
   41SOL    HW1 1022   5.994   3.974   2.526
   41SOL    HW2 1023   6.007   3.815   2.493
   42SOL     OW 1024   3.009   6.241   4.880
   42SOL    HW1 1025   2.959   6.179   4.819
   42SOL    HW2 1026   2.981   6.335   4.862
   43SOL     OW 1027   3.999   6.588   4.502
   43SOL    HW1 1028   3.992   6.516   4.433
   43SOL    HW2 1029   3.908   6.624   4.523
   44SOL     OW 1030   5.932   3.123   4.901
   44SOL    HW1 1031   5.844   3.120   4.854
   44SOL    HW2 1032   5.920   3.092   4.995
   45SOL     OW 1033   4.647   5.751   1.690
   45SOL    HW1 1034   4.633   5.824   1.756
   45SOL    HW2 1035   4.563   5.697   1.683
   46SOL     OW 1036   0.616   3.083   4.295
   46SOL    HW1 1037   0.591   2.991   4.326
   46SOL    HW2 1038   0.682   3.123   4.359
   47SOL     OW 1039   5.158   3.863   1.977
   47SOL    HW1 1040   5.148   3.901   1.885
   47SOL    HW2 1041   5.166   3.763   1.970
   48SOL     OW 1042   0.541   3.183   6.765
   48SOL    HW1 1043   0.557   3.110   6.831
   48SOL    HW2 1044   0.459   3.234   6.792
   49SOL     OW 1045   5.200   2.582   0.600
   49SOL    HW1 1046   5.139   2.629   0.665
   49SOL    HW2 1047   5.160   2.585   0.508
   50SOL     OW 1048   6.211   1.659   5.943
   50SOL    HW1 1049   6.253   1.707   6.020
   50SOL    HW2 1050   6.278   1.598   5.901
   51SOL     OW 1051   2.336   5.049   2.411
   51SOL    HW1 1052   2.420   5.104   2.413
   51SOL    HW2 1053   2.341   4.979   2.483
   52SOL     OW 1054   5.550   2.841   1.252
   52SOL    HW1 1055   5.497   2.922   1.276
   52SOL    HW2 1056   5.507   2.760   1.293
   53SOL     OW 1057   5.152   0.319   3.516
   53SOL    HW1 1058   5.123   0.277   3.430
   53SOL    HW2 1059   5.126   0.260   3.592
   54SOL     OW 1060   5.752   6.438   0.497
   54SOL    HW1 1061   5.663   6.436   0.451
   54SOL    HW2 1062   5.744   6.492   0.581
   55SOL     OW 1063   2.279   2.362   6.334
   55SOL    HW1 1064   2.337   2.443   6.323
   55SOL    HW2 1065   2.332   2.280   6.313
   56SOL     OW 1066   1.395   1.832   0.714
   56SOL    HW1 1067   1.465   1.785   0.661
   56SOL    HW2 1068   1.375   1.781   0.797
   57SOL     OW 1069   3.611   0.529   6.645
   57SOL    HW1 1070   3.556   0.612   6.637
   57SOL    HW2 1071   3.699   0.552   6.687
   58SOL     OW 1072   0.604   1.033   6.188
   58SOL    HW1 1073   0.598   0.960   6.257
   58SOL    HW2 1074   0.579   0.995   6.098
   59SOL     OW 1075   6.523   3.594   6.217
   59SOL    HW1 1076   6.461   3.610   6.293
   59SOL    HW2 1077   6.470   3.568   6.136
   60SOL     OW 1078   5.910   0.941   3.810
   60SOL    HW1 1079   5.884   0.958   3.715
   60SOL    HW2 1080   5.828   0.928   3.866
   61SOL     OW 1081   0.532   1.284   4.505
   61SOL    HW1 1082   0.601   1.318   4.441
   61SOL    HW2 1083   0.443   1.323   4.482
   62SOL     OW 1084   1.373   1.423   1.912
   62SOL    HW1 1085   1.466   1.397   1.884
   62SOL    HW2 1086   1.307   1.382   1.850
   63SOL     OW 1087   4.045   6.853   4.226
   63SOL    HW1 1088   4.048   6.950   4.202
   63SOL    HW2 1089   4.125   6.831   4.282
   64SOL     OW 1090   0.880   3.458   6.639
   64SOL    HW1 1091   0.820   3.503   6.574
   64SOL    HW2 1092   0.856   3.361   6.645
   65SOL     OW 1093   6.941   0.199   5.470
   65SOL    HW1 1094   6.872   0.176   5.402
   65SOL    HW2 1095   6.965   0.117   5.522
   66SOL     OW 1096   3.244   0.463   2.872
   66SOL    HW1 1097   3.330   0.413   2.867
   66SOL    HW2 1098   3.177   0.422   2.811
   67SOL     OW 1099   0.335   2.659   0.264
   67SOL    HW1 1100   0.425   2.668   0.223
   67SOL    HW2 1101   0.342   2.664   0.364
   68SOL     OW 1102   6.948   1.546   5.845
   68SOL    HW1 1103   6.927   1.537   5.942
   68SOL    HW2 1104   7.008   1.625   5.831
   69SOL     OW 1105   1.281   4.626   6.084
   69SOL    HW1 1106   1.250   4.720   6.094
   69SOL    HW2 1107   1.365   4.624   6.030
   70SOL     OW 1108   5.234   4.055   4.969
   70SOL    HW1 1109   5.235   4.150   5.002
   70SOL    HW2 1110   5.314   4.039   4.912
   71SOL     OW 1111   4.716   1.777   4.410
   71SOL    HW1 1112   4.748   1.828   4.490
   71SOL    HW2 1113   4.777   1.796   4.332
   72SOL     OW 1114   0.450   0.922   3.023
   72SOL    HW1 1115   0.517   0.914   3.097
   72SOL    HW2 1116   0.496   0.915   2.935
   73SOL     OW 1117   3.409   0.984   6.962
   73SOL    HW1 1118   3.345   0.997   0.019
   73SOL    HW2 1119   3.441   0.889   6.961
   74SOL     OW 1120   1.970   1.830   6.232
   74SOL    HW1 1121   1.929   1.831   6.141
   74SOL    HW2 1122   2.009   1.740   6.251
   75SOL     OW 1123   4.495   1.648   1.310
   75SOL    HW1 1124   4.500   1.580   1.237
   75SOL    HW2 1125   4.502   1.602   1.398
   76SOL     OW 1126   2.813   4.272   5.951
   76SOL    HW1 1127   2.736   4.256   6.013
   76SOL    HW2 1128   2.831   4.370   5.944
   77SOL     OW 1129   1.879   5.487   4.363
   77SOL    HW1 1130   1.925   5.463   4.448
   77SOL    HW2 1131   1.780   5.494   4.379
   78SOL     OW 1132   4.140   1.230   1.070
   78SOL    HW1 1133   4.140   1.143   1.120
   78SOL    HW2 1134   4.070   1.227   0.999
   79SOL     OW 1135   2.412   5.281   1.703
   79SOL    HW1 1136   2.479   5.258   1.774
   79SOL    HW2 1137   2.386   5.198   1.654
   80SOL     OW 1138   4.755   2.078   4.954
   80SOL    HW1 1139   4.689   2.074   4.878
   80SOL    HW2 1140   4.780   2.174   4.970
   81SOL     OW 1141   1.915   0.456   0.836
   81SOL    HW1 1142   1.897   0.554   0.843
   81SOL    HW2 1143   1.916   0.415   0.927
   82SOL     OW 1144   0.271   6.242   2.469
   82SOL    HW1 1145   0.257   6.340   2.464
   82SOL    HW2 1146   0.368   6.223   2.486
   83SOL     OW 1147   6.884   1.802   5.594
   83SOL    HW1 1148   6.961   1.813   5.531
   83SOL    HW2 1149   6.903   1.851   5.679
   84SOL     OW 1150   6.162   3.033   3.632
   84SOL    HW1 1151   6.229   2.979   3.683
   84SOL    HW2 1152   6.160   3.003   3.536
   85SOL     OW 1153   1.668   6.931   4.002
   85SOL    HW1 1154   1.652   0.011   4.006
   85SOL    HW2 1155   1.584   6.885   3.974
   86SOL     OW 1156   6.103   0.982   6.666
   86SOL    HW1 1157   6.064   1.037   6.592
   86SOL    HW2 1158   6.112   1.038   6.748
   87SOL     OW 1159   4.467   4.301   6.869
   87SOL    HW1 1160   4.418   4.387   6.853
   87SOL    HW2 1161   4.554   4.303   6.820
   88SOL     OW 1162   2.898   2.151   5.533
   88SOL    HW1 1163   2.958   2.193   5.600
   88SOL    HW2 1164   2.907   2.200   5.445
   89SOL     OW 1165   3.070   4.031   2.420
   89SOL    HW1 1166   2.992   4.093   2.427
   89SOL    HW2 1167   3.077   3.995   2.327
   90SOL     OW 1168   4.666   4.267   3.116
   90SOL    HW1 1169   4.740   4.216   3.073
   90SOL    HW2 1170   4.652   4.353   3.069
   91SOL     OW 1171   6.096   5.786   5.969
   91SOL    HW1 1172   6.122   5.839   6.050
   91SOL    HW2 1173   6.109   5.842   5.887
   92SOL     OW 1174   4.805   4.107   0.376
   92SOL    HW1 1175   4.811   4.069   0.284
   92SOL    HW2 1176   4.814   4.034   0.444
   93SOL     OW 1177   3.234   3.312   1.008
   93SOL    HW1 1178   3.249   3.333   1.104
   93SOL    HW2 1179   3.179   3.229   1.000
   94SOL     OW 1180   2.541   0.217   6.657
   94SOL    HW1 1181   2.529   0.175   6.567
   94SOL    HW2 1182   2.619   0.280   6.655
   95SOL     OW 1183   0.651   0.418   4.419
   95SOL    HW1 1184   0.710   0.451   4.493
   95SOL    HW2 1185   0.560   0.399   4.455
   96SOL     OW 1186   5.034   5.366   0.249
   96SOL    HW1 1187   4.965   5.435   0.274
   96SOL    HW2 1188   5.075   5.391   0.162
   97SOL     OW 1189   1.947   4.501   5.448
   97SOL    HW1 1190   1.861   4.467   5.485
   97SOL    HW2 1191   2.012   4.517   5.522
   98SOL     OW 1192   0.684   2.528   1.976
   98SOL    HW1 1193   0.665   2.593   2.049
   98SOL    HW2 1194   0.598   2.496   1.936
   99SOL     OW 1195   3.724   3.712   3.135
   99SOL    HW1 1196   3.656   3.706   3.062
   99SOL    HW2 1197   3.768   3.623   3.146
  100SOL     OW 1198   0.118   6.961   3.796
  100SOL    HW1 1199   0.124   0.010   3.723
  100SOL    HW2 1200   0.109   6.870   3.756
  101SOL     OW 1201   0.639   4.937   2.190
  101SOL    HW1 1202   0.552   4.932   2.239
  101SOL    HW2 1203   0.636   5.011   2.123
  102SOL     OW 1204   2.615   6.148   2.178
  102SOL    HW1 1205   2.548   6.091   2.226
  102SOL    HW2 1206   2.660   6.093   2.107
  103SOL     OW 1207   1.949   1.240   2.464
  103SOL    HW1 1208   1.894   1.282   2.536
  103SOL    HW2 1209   2.024   1.302   2.438
  104SOL     OW 1210   1.039   4.729   2.437
  104SOL    HW1 1211   1.108   4.799   2.420
  104SOL    HW2 1212   0.948   4.771   2.437
  105SOL     OW 1213   5.517   1.164   6.483
  105SOL    HW1 1214   5.443   1.195   6.543
  105SOL    HW2 1215   5.492   1.182   6.388
  106SOL     OW 1216   4.941   5.037   1.636
  106SOL    HW1 1217   4.944   5.137   1.635
  106SOL    HW2 1218   5.034   5.002   1.626
  107SOL     OW 1219   6.568   0.852   0.407
  107SOL    HW1 1220   6.662   0.854   0.370
  107SOL    HW2 1221   6.535   0.758   0.408
  108SOL     OW 1222   2.749   0.455   4.443
  108SOL    HW1 1223   2.762   0.489   4.536
  108SOL    HW2 1224   2.741   0.532   4.380
  109SOL     OW 1225   3.357   0.798   2.692
  109SOL    HW1 1226   3.356   0.861   2.615
  109SOL    HW2 1227   3.323   0.708   2.663
  110SOL     OW 1228   2.328   4.374   5.118
  110SOL    HW1 1229   2.233   4.384   5.149
  110SOL    HW2 1230   2.378   4.315   5.183
  111SOL     OW 1231   6.747   1.476   2.626
  111SOL    HW1 1232   6.844   1.483   2.603
  111SOL    HW2 1233   6.725   1.381   2.650
  112SOL     OW 1234   3.901   6.214   6.850
  112SOL    HW1 1235   3.854   6.296   6.883
  112SOL    HW2 1236   3.834   6.142   6.834
  113SOL     OW 1237   6.617   5.505   2.840
  113SOL    HW1 1238   6.697   5.453   2.809
  113SOL    HW2 1239   6.613   5.592   2.789
  114SOL     OW 1240   1.437   4.818   3.130
  114SOL    HW1 1241   1.425   4.720   3.120
  114SOL    HW2 1242   1.452   4.841   3.226
  115SOL     OW 1243   5.817   1.146   3.510
  115SOL    HW1 1244   5.894   1.105   3.461
  115SOL    HW2 1245   5.738   1.152   3.449
  116SOL     OW 1246   0.303   6.047   1.111
  116SOL    HW1 1247   0.346   6.118   1.167
  116SOL    HW2 1248   0.225   6.009   1.160
  117SOL     OW 1249   2.877   1.680   6.692
  117SOL    HW1 1250   2.783   1.647   6.703
  117SOL    HW2 1251   2.926   1.672   6.778
  118SOL     OW 1252   1.422   1.373   3.311
  118SOL    HW1 1253   1.385   1.284   3.340
  118SOL    HW2 1254   1.361   1.446   3.341
  119SOL     OW 1255   6.929   6.807   0.087
  119SOL    HW1 1256   6.869   6.787   0.165
  119SOL    HW2 1257   0.005   6.803   0.116
  120SOL     OW 1258   4.677   0.542   5.332
  120SOL    HW1 1259   4.667   0.445   5.306
  120SOL    HW2 1260   4.690   0.597   5.249
  121SOL     OW 1261   1.258   4.042   0.179
  121SOL    HW1 1262   1.282   3.945   0.174
  121SOL    HW2 1263   1.303   4.083   0.258
  122SOL     OW 1264   0.950   4.606   0.050
  122SOL    HW1 1265   1.046   4.633   0.051
  122SOL    HW2 1266   0.942   4.509   0.027
  123SOL     OW 1267   1.551   1.238   1.533
  123SOL    HW1 1268   1.567   1.209   1.439
  123SOL    HW2 1269   1.502   1.166   1.582
  124SOL     OW 1270   3.344   2.408   0.832
  124SOL    HW1 1271   3.283   2.485   0.814
  124SOL    HW2 1272   3.329   2.337   0.764
  125SOL     OW 1273   3.059   2.527   6.893
  125SOL    HW1 1274   3.145   2.476   6.882
  125SOL    HW2 1275   2.999   2.507   6.816
  126SOL     OW 1276   2.896   3.442   3.459
  126SOL    HW1 1277   2.943   3.373   3.515
  126SOL    HW2 1278   2.918   3.426   3.362
  127SOL     OW 1279   6.883   5.923   5.459
  127SOL    HW1 1280   6.811   5.924   5.528
  127SOL    HW2 1281   6.844   5.943   5.369
  128SOL     OW 1282   4.901   3.726   2.286
  128SOL    HW1 1283   4.839   3.769   2.352
  128SOL    HW2 1284   4.860   3.640   2.254
  129SOL     OW 1285   2.136   5.482   0.890
  129SOL    HW1 1286   2.054   5.464   0.944
  129SOL    HW2 1287   2.204   5.412   0.910
  130SOL     OW 1288   5.862   1.775   4.199
  130SOL    HW1 1289   5.906   1.686   4.189
  130SOL    HW2 1290   5.767   1.763   4.226
  131SOL     OW 1291   6.535   1.520   4.141
  131SOL    HW1 1292   6.502   1.557   4.227
  131SOL    HW2 1293   6.486   1.564   4.065
  132SOL     OW 1294   3.455   4.067   1.622
  132SOL    HW1 1295   3.359   4.094   1.628
  132SOL    HW2 1296   3.489   4.047   1.713
  133SOL     OW 1297   5.097   0.746   4.097
  133SOL    HW1 1298   5.156   0.695   4.159
  133SOL    HW2 1299   5.091   0.697   4.009
  134SOL     OW 1300   6.473   0.653   2.251
  134SOL    HW1 1301   6.472   0.608   2.162
  134SOL    HW2 1302   6.460   0.752   2.238
  135SOL     OW 1303   5.107   3.591   4.490
  135SOL    HW1 1304   5.071   3.506   4.454
  135SOL    HW2 1305   5.032   3.650   4.520
  136SOL     OW 1306   2.475   6.019   4.817
  136SOL    HW1 1307   2.488   5.922   4.836
  136SOL    HW2 1308   2.384   6.047   4.848
  137SOL     OW 1309   3.999   1.358   4.660
  137SOL    HW1 1310   4.034   1.425   4.725
  137SOL    HW2 1311   4.024   1.266   4.690
  138SOL     OW 1312   0.727   5.475   3.526
  138SOL    HW1 1313   0.643   5.527   3.543
  138SOL    HW2 1314   0.790   5.530   3.471
  139SOL     OW 1315   2.188   5.594   6.460
  139SOL    HW1 1316   2.095   5.613   6.428
  139SOL    HW2 1317   2.230   5.678   6.494
  140SOL     OW 1318   2.179   0.155   3.236
  140SOL    HW1 1319   2.221   0.081   3.289
  140SOL    HW2 1320   2.082   0.134   3.221
  141SOL     OW 1321   6.493   3.292   0.079
  141SOL    HW1 1322   6.548   3.310   7.017
  141SOL    HW2 1323   6.554   3.270   0.156
  142SOL     OW 1324   1.265   4.572   1.526
  142SOL    HW1 1325   1.320   4.587   1.443
  142SOL    HW2 1326   1.325   4.552   1.603
  143SOL     OW 1327   5.875   6.270   1.705
  143SOL    HW1 1328   5.792   6.325   1.714
  143SOL    HW2 1329   5.946   6.324   1.660
  144SOL     OW 1330   3.040   4.822   3.765
  144SOL    HW1 1331   3.130   4.815   3.809
  144SOL    HW2 1332   3.050   4.866   3.676
  145SOL     OW 1333   0.254   4.422   2.425
  145SOL    HW1 1334   0.247   4.428   2.525
  145SOL    HW2 1335   0.350   4.424   2.398
  146SOL     OW 1336   6.093   1.509   6.181
  146SOL    HW1 1337   6.115   1.573   6.255
  146SOL    HW2 1338   6.058   1.560   6.102
  147SOL     OW 1339   5.332   1.294   4.887
  147SOL    HW1 1340   5.234   1.309   4.876
  147SOL    HW2 1341   5.381   1.380   4.874
  148SOL     OW 1342   1.152   5.030   1.416
  148SOL    HW1 1343   1.129   5.011   1.511
  148SOL    HW2 1344   1.111   5.117   1.388
  149SOL     OW 1345   2.633   2.112   5.390
  149SOL    HW1 1346   2.571   2.049   5.436
  149SOL    HW2 1347   2.598   2.206   5.400
  150SOL     OW 1348   4.064   1.862   5.494
  150SOL    HW1 1349   4.137   1.836   5.558
  150SOL    HW2 1350   4.018   1.779   5.462
  151SOL     OW 1351   4.062   1.706   0.816
  151SOL    HW1 1352   3.969   1.713   0.782
  151SOL    HW2 1353   4.109   1.794   0.805
  152SOL     OW 1354   0.627   1.516   7.007
  152SOL    HW1 1355   0.636   1.543   6.911
  152SOL    HW2 1356   0.562   1.441   7.015
  153SOL     OW 1357   2.929   1.118   3.164
  153SOL    HW1 1358   2.890   1.029   3.188
  153SOL    HW2 1359   3.028   1.109   3.155
  154SOL     OW 1360   6.554   1.740   0.737
  154SOL    HW1 1361   6.619   1.708   0.669
  154SOL    HW2 1362   6.601   1.754   0.824
  155SOL     OW 1363   0.142   0.111   1.651
  155SOL    HW1 1364   0.099   0.188   1.699
  155SOL    HW2 1365   0.116   0.025   1.694
  156SOL     OW 1366   5.161   0.890   0.362
  156SOL    HW1 1367   5.235   0.918   0.301
  156SOL    HW2 1368   5.199   0.837   0.438
  157SOL     OW 1369   5.526   3.547   0.303
  157SOL    HW1 1370   5.570   3.604   0.234
  157SOL    HW2 1371   5.596   3.498   0.355
  158SOL     OW 1372   1.531   2.767   2.249
  158SOL    HW1 1373   1.566   2.743   2.339
  158SOL    HW2 1374   1.431   2.759   2.249
  159SOL     OW 1375   4.770   5.083   0.806
  159SOL    HW1 1376   4.809   5.043   0.723
  159SOL    HW2 1377   4.822   5.052   0.886
  160SOL     OW 1378   5.969   0.084   0.679
  160SOL    HW1 1379   5.911   0.097   0.598
  160SOL    HW2 1380   5.951   0.157   0.745
  161SOL     OW 1381   1.162   6.827   0.874
  161SOL    HW1 1382   1.085   6.812   0.813
  161SOL    HW2 1383   1.130   6.827   0.969
  162SOL     OW 1384   2.220   6.410   0.019
  162SOL    HW1 1385   2.286   6.415   0.093
  162SOL    HW2 1386   2.170   6.323   0.024
  163SOL     OW 1387   6.941   4.723   2.906
  163SOL    HW1 1388   6.873   4.781   2.861
  163SOL    HW2 1389   7.002   4.684   2.837
  164SOL     OW 1390   1.930   2.143   3.283
  164SOL    HW1 1391   1.929   2.176   3.377
  164SOL    HW2 1392   1.842   2.162   3.240
  165SOL     OW 1393   0.356   5.356   2.231
  165SOL    HW1 1394   0.399   5.313   2.310
  165SOL    HW2 1395   0.259   5.329   2.227
  166SOL     OW 1396   6.217   4.077   1.292
  166SOL    HW1 1397   6.309   4.115   1.287
  166SOL    HW2 1398   6.220   3.987   1.336
  167SOL     OW 1399   5.027   1.830   0.068
  167SOL    HW1 1400   5.036   1.734   0.094
  167SOL    HW2 1401   5.050   1.841   6.991
  168SOL     OW 1402   4.106   3.225   2.130
  168SOL    HW1 1403   4.056   3.293   2.076
  168SOL    HW2 1404   4.202   3.225   2.103
  169SOL     OW 1405   6.047   2.961   0.445
  169SOL    HW1 1406   5.987   3.041   0.455
  169SOL    HW2 1407   6.140   2.991   0.425
  170SOL     OW 1408   1.325   5.807   2.765
  170SOL    HW1 1409   1.322   5.731   2.830
  170SOL    HW2 1410   1.388   5.877   2.798
  171SOL     OW 1411   1.597   3.135   0.012
  171SOL    HW1 1412   1.575   3.191   6.952
  171SOL    HW2 1413   1.690   3.156   0.044
  172SOL     OW 1414   5.693   2.018   1.716
  172SOL    HW1 1415   5.636   1.940   1.740
  172SOL    HW2 1416   5.705   2.077   1.795
  173SOL     OW 1417   6.052   0.882   5.082
  173SOL    HW1 1418   6.086   0.969   5.049
  173SOL    HW2 1419   5.981   0.847   5.021
  174SOL     OW 1420   5.130   5.320   5.535
  174SOL    HW1 1421   5.170   5.396   5.484
  174SOL    HW2 1422   5.199   5.249   5.549
  175SOL     OW 1423   1.892   1.068   0.796
  175SOL    HW1 1424   1.908   0.980   0.751
  175SOL    HW2 1425   1.901   1.056   0.895
  176SOL     OW 1426   5.247   4.812   2.984
  176SOL    HW1 1427   5.239   4.720   2.947
  176SOL    HW2 1428   5.313   4.864   2.929
  177SOL     OW 1429   4.814   1.903   4.648
  177SOL    HW1 1430   4.860   1.852   4.721
  177SOL    HW2 1431   4.821   2.001   4.667
  178SOL     OW 1432   2.530   5.519   5.161
  178SOL    HW1 1433   2.448   5.575   5.175
  178SOL    HW2 1434   2.587   5.559   5.090
  179SOL     OW 1435   4.211   5.502   0.260
  179SOL    HW1 1436   4.297   5.462   0.291
  179SOL    HW2 1437   4.178   5.451   0.180
  180SOL     OW 1438   3.577   6.751   1.119
  180SOL    HW1 1439   3.605   6.771   1.212
  180SOL    HW2 1440   3.545   6.835   1.075
  181SOL     OW 1441   2.850   2.629   5.371
  181SOL    HW1 1442   2.821   2.546   5.324
  181SOL    HW2 1443   2.942   2.654   5.341
  182SOL     OW 1444   4.964   3.380   0.383
  182SOL    HW1 1445   4.965   3.442   0.304
  182SOL    HW2 1446   5.032   3.411   0.450
  183SOL     OW 1447   3.992   2.137   4.367
  183SOL    HW1 1448   3.987   2.157   4.465
  183SOL    HW2 1449   3.900   2.132   4.329
  184SOL     OW 1450   0.996   5.719   3.710
  184SOL    HW1 1451   0.992   5.655   3.787
  184SOL    HW2 1452   0.991   5.668   3.624
  185SOL     OW 1453   0.736   1.811   4.244
  185SOL    HW1 1454   0.643   1.837   4.219
  185SOL    HW2 1455   0.773   1.877   4.309
  186SOL     OW 1456   5.940   6.105   4.233
  186SOL    HW1 1457   5.912   6.088   4.328
  186SOL    HW2 1458   5.969   6.201   4.224
  187SOL     OW 1459   4.363   5.309   2.575
  187SOL    HW1 1460   4.319   5.308   2.665
  187SOL    HW2 1461   4.354   5.400   2.534
  188SOL     OW 1462   2.340   2.420   3.118
  188SOL    HW1 1463   2.289   2.364   3.183
  188SOL    HW2 1464   2.406   2.362   3.069
  189SOL     OW 1465   5.918   5.070   0.035
  189SOL    HW1 1466   6.001   5.118   0.065
  189SOL    HW2 1467   5.890   5.105   6.965
  190SOL     OW 1468   5.958   5.495   0.066
  190SOL    HW1 1469   5.981   5.472   0.160
  190SOL    HW2 1470   5.990   5.587   0.044
  191SOL     OW 1471   6.859   1.053   5.974
  191SOL    HW1 1472   6.767   1.028   5.943
  191SOL    HW2 1473   6.926   1.024   5.905
  192SOL     OW 1474   0.505   4.302   1.558
  192SOL    HW1 1475   0.539   4.369   1.493
  192SOL    HW2 1476   0.581   4.245   1.591
  193SOL     OW 1477   3.810   4.328   5.800
  193SOL    HW1 1478   3.794   4.261   5.726
  193SOL    HW2 1479   3.778   4.418   5.771
  194SOL     OW 1480   4.114   6.643   2.011
  194SOL    HW1 1481   4.148   6.735   1.995
  194SOL    HW2 1482   4.119   6.621   2.108
  195SOL     OW 1483   2.923   0.815   2.733
  195SOL    HW1 1484   3.006   0.789   2.684
  195SOL    HW2 1485   2.866   0.733   2.748
  196SOL     OW 1486   2.596   1.175   6.544
  196SOL    HW1 1487   2.656   1.255   6.541
  196SOL    HW2 1488   2.540   1.173   6.461
  197SOL     OW 1489   2.032   5.723   6.256
  197SOL    HW1 1490   2.057   5.755   6.164
  197SOL    HW2 1491   1.966   5.649   6.248
  198SOL     OW 1492   4.466   5.869   0.854
  198SOL    HW1 1493   4.368   5.868   0.831
  198SOL    HW2 1494   4.478   5.903   0.947
  199SOL     OW 1495   6.533   1.404   2.316
  199SOL    HW1 1496   6.452   1.414   2.258
  199SOL    HW2 1497   6.533   1.476   2.386
  200SOL     OW 1498   1.350   3.059   1.905
  200SOL    HW1 1499   1.399   3.139   1.941
  200SOL    HW2 1500   1.410   2.979   1.910
  201SOL     OW 1501   2.633   0.682   6.417
  201SOL    HW1 1502   2.662   0.638   6.503
  201SOL    HW2 1503   2.684   0.767   6.405
  202SOL     OW 1504   4.839   6.684   4.768
  202SOL    HW1 1505   4.897   6.605   4.791
  202SOL    HW2 1506   4.862   6.760   4.828
  203SOL     OW 1507   5.417   2.829   6.228
  203SOL    HW1 1508   5.348   2.757   6.228
  203SOL    HW2 1509   5.380   2.911   6.271
  204SOL     OW 1510   0.626   0.063   0.457
  204SOL    HW1 1511   0.570   7.010   0.416
  204SOL    HW2 1512   0.576   0.105   0.532
  205SOL     OW 1513   0.753   1.559   0.996
  205SOL    HW1 1514   0.765   1.658   1.010
  205SOL    HW2 1515   0.656   1.536   1.002
  206SOL     OW 1516   0.563   4.482   1.348
  206SOL    HW1 1517   0.534   4.577   1.362
  206SOL    HW2 1518   0.595   4.470   1.254
  207SOL     OW 1519   4.255   0.410   5.495
  207SOL    HW1 1520   4.174   0.449   5.539
  207SOL    HW2 1521   4.293   0.476   5.430
  208SOL     OW 1522   5.016   4.721   5.919
  208SOL    HW1 1523   4.922   4.728   5.884
  208SOL    HW2 1524   5.065   4.806   5.901
  209SOL     OW 1525   0.461   5.780   5.851
  209SOL    HW1 1526   0.377   5.826   5.879
  209SOL    HW2 1527   0.534   5.800   5.916
  210SOL     OW 1528   4.331   2.325   2.006
  210SOL    HW1 1529   4.238   2.296   1.984
  210SOL    HW2 1530   4.370   2.375   1.929
  211SOL     OW 1531   0.858   0.818   2.764
  211SOL    HW1 1532   0.839   0.850   2.671
  211SOL    HW2 1533   0.781   0.764   2.797
  212SOL     OW 1534   1.619   4.844   2.688
  212SOL    HW1 1535   1.714   4.817   2.702
  212SOL    HW2 1536   1.562   4.762   2.680
  213SOL     OW 1537   4.849   1.406   6.340
  213SOL    HW1 1538   4.902   1.487   6.312
  213SOL    HW2 1539   4.870   1.384   6.435
  214SOL     OW 1540   1.547   6.401   3.202
  214SOL    HW1 1541   1.602   6.428   3.281
  214SOL    HW2 1542   1.604   6.407   3.119
  215SOL     OW 1543   3.642   3.365   1.730
  215SOL    HW1 1544   3.584   3.419   1.668
  215SOL    HW2 1545   3.629   3.267   1.710
  216SOL     OW 1546   1.399   6.824   4.955
  216SOL    HW1 1547   1.329   6.822   4.883
  216SOL    HW2 1548   1.440   6.916   4.958
  217SOL     OW 1549   1.724   2.693   4.235
  217SOL    HW1 1550   1.735   2.789   4.263
  217SOL    HW2 1551   1.793   2.671   4.165
  218SOL     OW 1552   1.593   2.375   4.677
  218SOL    HW1 1553   1.557   2.431   4.602
  218SOL    HW2 1554   1.683   2.409   4.704
  219SOL     OW 1555   3.539   3.914   6.562
  219SOL    HW1 1556   3.449   3.899   6.521
  219SOL    HW2 1557   3.601   3.952   6.493
  220SOL     OW 1558   2.435   6.200   0.237
  220SOL    HW1 1559   2.389   6.270   0.291
  220SOL    HW2 1560   2.477   6.242   0.157
  221SOL     OW 1561   5.368   3.738   3.816
  221SOL    HW1 1562   5.316   3.682   3.880
  221SOL    HW2 1563   5.418   3.809   3.867
  222SOL     OW 1564   1.526   5.623   5.381
  222SOL    HW1 1565   1.474   5.702   5.413
  222SOL    HW2 1566   1.472   5.573   5.313
  223SOL     OW 1567   0.451   3.542   1.375
  223SOL    HW1 1568   0.505   3.620   1.407
  223SOL    HW2 1569   0.468   3.529   1.277
  224SOL     OW 1570   2.859   2.281   2.736
  224SOL    HW1 1571   2.942   2.244   2.695
  224SOL    HW2 1572   2.848   2.244   2.829
  225SOL     OW 1573   5.817   1.015   0.093
  225SOL    HW1 1574   5.834   1.112   0.113
  225SOL    HW2 1575   5.787   1.005   7.018
  226SOL     OW 1576   0.354   0.242   0.197
  226SOL    HW1 1577   0.413   0.193   0.133
  226SOL    HW2 1578   0.317   0.323   0.153
  227SOL     OW 1579   1.364   3.999   3.244
  227SOL    HW1 1580   1.399   3.923   3.300
  227SOL    HW2 1581   1.430   4.074   3.246
  228SOL     OW 1582   3.832   6.915   4.542
  228SOL    HW1 1583   3.789   6.825   4.546
  228SOL    HW2 1584   3.929   6.907   4.563
  229SOL     OW 1585   5.923   5.723   1.663
  229SOL    HW1 1586   5.998   5.692   1.720
  229SOL    HW2 1587   5.958   5.752   1.574
  230SOL     OW 1588   1.902   4.245   3.726
  230SOL    HW1 1589   1.990   4.283   3.699
  230SOL    HW2 1590   1.909   4.145   3.733
  231SOL     OW 1591   6.300   3.145   6.427
  231SOL    HW1 1592   6.354   3.061   6.417
  231SOL    HW2 1593   6.225   3.128   6.491
  232SOL     OW 1594   1.253   3.026   6.478
  232SOL    HW1 1595   1.244   3.017   6.379
  232SOL    HW2 1596   1.282   3.118   6.501
  233SOL     OW 1597   2.157   0.788   5.112
  233SOL    HW1 1598   2.061   0.814   5.126
  233SOL    HW2 1599   2.162   0.691   5.089
  234SOL     OW 1600   2.388   4.966   6.568
  234SOL    HW1 1601   2.391   4.872   6.602
  234SOL    HW2 1602   2.336   4.969   6.482
  235SOL     OW 1603   3.297   3.187   3.299
  235SOL    HW1 1604   3.352   3.110   3.331
  235SOL    HW2 1605   3.272   3.245   3.376
  236SOL     OW 1606   6.627   2.976   6.608
  236SOL    HW1 1607   6.647   2.970   6.510
  236SOL    HW2 1608   6.682   2.909   6.658
  237SOL     OW 1609   0.416   6.659   1.124
  237SOL    HW1 1610   0.422   6.599   1.204
  237SOL    HW2 1611   0.459   6.747   1.145
  238SOL     OW 1612   5.838   3.538   1.475
  238SOL    HW1 1613   5.884   3.449   1.472
  238SOL    HW2 1614   5.835   3.571   1.569
  239SOL     OW 1615   6.617   5.655   0.091
  239SOL    HW1 1616   6.576   5.720   0.155
  239SOL    HW2 1617   6.566   5.568   0.095
  240SOL     OW 1618   0.452   3.360   6.068
  240SOL    HW1 1619   0.426   3.297   5.995
  240SOL    HW2 1620   0.420   3.452   6.045
  241SOL     OW 1621   0.761   1.082   3.545
  241SOL    HW1 1622   0.687   1.112   3.484
  241SOL    HW2 1623   0.845   1.070   3.492
  242SOL     OW 1624   1.314   3.131   5.422
  242SOL    HW1 1625   1.288   3.058   5.358
  242SOL    HW2 1626   1.349   3.209   5.372
  243SOL     OW 1627   4.677   0.241   6.185
  243SOL    HW1 1628   4.733   0.245   6.268
  243SOL    HW2 1629   4.587   0.281   6.204
  244SOL     OW 1630   4.695   2.431   4.327
  244SOL    HW1 1631   4.670   2.366   4.255
  244SOL    HW2 1632   4.739   2.511   4.286
  245SOL     OW 1633   6.755   2.540   4.549
  245SOL    HW1 1634   6.815   2.614   4.580
  245SOL    HW2 1635   6.764   2.462   4.611
  246SOL     OW 1636   5.457   3.935   3.972
  246SOL    HW1 1637   5.539   3.938   4.028
  246SOL    HW2 1638   5.380   3.900   4.026
  247SOL     OW 1639   2.534   1.183   2.898
  247SOL    HW1 1640   2.451   1.229   2.868
  247SOL    HW2 1641   2.600   1.181   2.823
  248SOL     OW 1642   4.913   2.160   4.696
  248SOL    HW1 1643   4.847   2.234   4.686
  248SOL    HW2 1644   4.966   2.151   4.612
  249SOL     OW 1645   3.251   6.306   4.947
  249SOL    HW1 1646   3.299   6.366   4.883
  249SOL    HW2 1647   3.158   6.291   4.916
  250SOL     OW 1648   5.789   1.993   5.523
  250SOL    HW1 1649   5.870   2.037   5.561
  250SOL    HW2 1650   5.707   2.044   5.549
  251SOL     OW 1651   4.460   3.092   6.115
  251SOL    HW1 1652   4.405   3.133   6.188
  251SOL    HW2 1653   4.556   3.093   6.142
  252SOL     OW 1654   0.185   1.342   5.508
  252SOL    HW1 1655   0.154   1.435   5.529
  252SOL    HW2 1656   0.233   1.304   5.587
  253SOL     OW 1657   1.717   3.366   1.288
  253SOL    HW1 1658   1.771   3.284   1.304
  253SOL    HW2 1659   1.756   3.442   1.339
  254SOL     OW 1660   6.587   2.870   4.790
  254SOL    HW1 1661   6.658   2.829   4.847
  254SOL    HW2 1662   6.497   2.842   4.823
  255SOL     OW 1663   3.257   2.087   3.817
  255SOL    HW1 1664   3.288   2.051   3.729
  255SOL    HW2 1665   3.333   2.083   3.882
  256SOL     OW 1666   6.307   5.437   6.867
  256SOL    HW1 1667   6.304   5.529   6.827
  256SOL    HW2 1668   6.337   5.444   6.962
  257SOL     OW 1669   2.916   5.516   5.933
  257SOL    HW1 1670   2.901   5.615   5.927
  257SOL    HW2 1671   2.967   5.486   5.853
  258SOL     OW 1672   4.721   4.389   5.000
  258SOL    HW1 1673   4.818   4.363   5.002
  258SOL    HW2 1674   4.684   4.372   4.909
  259SOL     OW 1675   1.609   2.774   2.526
  259SOL    HW1 1676   1.676   2.701   2.538
  259SOL    HW2 1677   1.521   2.745   2.565
  260SOL     OW 1678   4.963   0.801   6.575
  260SOL    HW1 1679   5.004   0.873   6.633
  260SOL    HW2 1680   4.919   0.733   6.633
  261SOL     OW 1681   0.696   3.622   1.694
  261SOL    HW1 1682   0.673   3.646   1.788
  261SOL    HW2 1683   0.707   3.705   1.640
  262SOL     OW 1684   1.472   3.224   2.453
  262SOL    HW1 1685   1.546   3.161   2.479
  262SOL    HW2 1686   1.491   3.315   2.490
  263SOL     OW 1687   0.334   2.601   4.612
  263SOL    HW1 1688   0.389   2.674   4.572
  263SOL    HW2 1689   0.250   2.590   4.560
  264SOL     OW 1690   0.606   3.189   5.262
  264SOL    HW1 1691   0.523   3.243   5.247
  264SOL    HW2 1692   0.686   3.249   5.258
  265SOL     OW 1693   4.528   4.496   4.232
  265SOL    HW1 1694   4.576   4.415   4.201
  265SOL    HW2 1695   4.528   4.500   4.332
  266SOL     OW 1696   3.717   1.879   0.154
  266SOL    HW1 1697   3.805   1.852   0.194
  266SOL    HW2 1698   3.734   1.942   0.078
  267SOL     OW 1699   1.766   2.436   0.102
  267SOL    HW1 1700   1.777   2.490   0.018
  267SOL    HW2 1701   1.670   2.435   0.129
  268SOL     OW 1702   4.396   4.652   4.556
  268SOL    HW1 1703   4.423   4.613   4.644
  268SOL    HW2 1704   4.477   4.665   4.499
  269SOL     OW 1705   1.389   1.737   6.613
  269SOL    HW1 1706   1.328   1.670   6.655
  269SOL    HW2 1707   1.439   1.693   6.537
  270SOL     OW 1708   5.213   1.115   2.508
  270SOL    HW1 1709   5.294   1.083   2.457
  270SOL    HW2 1710   5.214   1.215   2.511
  271SOL     OW 1711   1.907   1.038   1.072
  271SOL    HW1 1712   1.889   0.976   1.148
  271SOL    HW2 1713   1.996   1.081   1.084
  272SOL     OW 1714   3.823   5.325   4.579
  272SOL    HW1 1715   3.859   5.238   4.612
  272SOL    HW2 1716   3.764   5.366   4.648
  273SOL     OW 1717   1.094   5.680   4.785
  273SOL    HW1 1718   1.176   5.685   4.842
  273SOL    HW2 1719   1.116   5.710   4.692
  274SOL     OW 1720   5.587   2.808   3.483
  274SOL    HW1 1721   5.517   2.742   3.455
  274SOL    HW2 1722   5.584   2.888   3.423
  275SOL     OW 1723   0.564   6.251   6.189
  275SOL    HW1 1724   0.479   6.303   6.191
  275SOL    HW2 1725   0.628   6.295   6.125
  276SOL     OW 1726   6.792   5.519   3.524
  276SOL    HW1 1727   6.880   5.554   3.491
  276SOL    HW2 1728   6.749   5.464   3.452
  277SOL     OW 1729   3.235   0.762   5.155
  277SOL    HW1 1730   3.155   0.702   5.157
  277SOL    HW2 1731   3.239   0.816   5.239
  278SOL     OW 1732   5.660   4.686   2.575
  278SOL    HW1 1733   5.735   4.692   2.509
  278SOL    HW2 1734   5.642   4.590   2.596
  279SOL     OW 1735   0.154   2.684   3.285
  279SOL    HW1 1736   0.189   2.668   3.377
  279SOL    HW2 1737   0.111   2.774   3.280
  280SOL     OW 1738   4.972   6.677   4.001
  280SOL    HW1 1739   5.022   6.594   3.978
  280SOL    HW2 1740   4.948   6.675   4.098
  281SOL     OW 1741   3.929   5.593   3.970
  281SOL    HW1 1742   3.975   5.553   4.049
  281SOL    HW2 1743   3.974   5.678   3.945
  282SOL     OW 1744   4.249   1.708   5.677
  282SOL    HW1 1745   4.275   1.730   5.771
  282SOL    HW2 1746   4.256   1.609   5.662
  283SOL     OW 1747   6.180   0.138   5.130
  283SOL    HW1 1748   6.207   0.064   5.191
  283SOL    HW2 1749   6.092   0.116   5.088
  284SOL     OW 1750   0.443   4.626   4.864
  284SOL    HW1 1751   0.543   4.626   4.858
  284SOL    HW2 1752   0.404   4.640   4.773
  285SOL     OW 1753   5.483   0.119   0.300
  285SOL    HW1 1754   5.400   0.175   0.298
  285SOL    HW2 1755   5.564   0.178   0.298
  286SOL     OW 1756   3.468   5.297   4.806
  286SOL    HW1 1757   3.491   5.200   4.814
  286SOL    HW2 1758   3.383   5.307   4.753
  287SOL     OW 1759   1.617   5.687   6.233
  287SOL    HW1 1760   1.692   5.712   6.172
  287SOL    HW2 1761   1.539   5.748   6.218
  288SOL     OW 1762   4.407   0.599   1.000
  288SOL    HW1 1763   4.471   0.634   0.932
  288SOL    HW2 1764   4.329   0.558   0.954
  289SOL     OW 1765   1.231   5.296   5.762
  289SOL    HW1 1766   1.241   5.395   5.745
  289SOL    HW2 1767   1.298   5.246   5.707
  290SOL     OW 1768   4.273   0.488   2.517
  290SOL    HW1 1769   4.282   0.546   2.597
  290SOL    HW2 1770   4.193   0.428   2.527
  291SOL     OW 1771   4.328   0.241   4.145
  291SOL    HW1 1772   4.418   0.207   4.171
  291SOL    HW2 1773   4.337   0.316   4.080
  292SOL     OW 1774   3.655   0.183   3.835
  292SOL    HW1 1775   3.696   0.191   3.926
  292SOL    HW2 1776   3.723   0.210   3.766
  293SOL     OW 1777   4.504   6.709   2.652
  293SOL    HW1 1778   4.532   6.757   2.568
  293SOL    HW2 1779   4.445   6.632   2.628
  294SOL     OW 1780   5.645   0.047   5.836
  294SOL    HW1 1781   5.558   0.042   5.788
  294SOL    HW2 1782   5.657   6.984   5.891
  295SOL     OW 1783   1.116   2.316   5.052
  295SOL    HW1 1784   1.099   2.316   5.151
  295SOL    HW2 1785   1.200   2.266   5.032
  296SOL     OW 1786   6.386   1.570   1.245
  296SOL    HW1 1787   6.430   1.499   1.191
  296SOL    HW2 1788   6.436   1.656   1.235
  297SOL     OW 1789   5.195   5.143   4.096
  297SOL    HW1 1790   5.161   5.237   4.109
  297SOL    HW2 1791   5.276   5.145   4.038
  298SOL     OW 1792   4.561   0.686   0.805
  298SOL    HW1 1793   4.527   0.667   0.713
  298SOL    HW2 1794   4.619   0.768   0.803
  299SOL     OW 1795   3.423   1.897   0.475
  299SOL    HW1 1796   3.459   1.945   0.395
  299SOL    HW2 1797   3.473   1.927   0.557
  300SOL     OW 1798   3.480   1.009   2.161
  300SOL    HW1 1799   3.381   1.011   2.152
  300SOL    HW2 1800   3.508   0.929   2.214
  301SOL     OW 1801   5.114   6.393   1.626
  301SOL    HW1 1802   5.203   6.431   1.652
  301SOL    HW2 1803   5.110   6.296   1.650
  302SOL     OW 1804   6.941   6.710   1.443
  302SOL    HW1 1805   6.905   6.803   1.451
  302SOL    HW2 1806   0.010   6.713   1.396
  303SOL     OW 1807   5.898   5.722   2.384
  303SOL    HW1 1808   5.821   5.672   2.343
  303SOL    HW2 1809   5.915   5.805   2.331
  304SOL     OW 1810   1.542   0.205   5.608
  304SOL    HW1 1811   1.544   0.106   5.600
  304SOL    HW2 1812   1.492   0.244   5.530
  305SOL     OW 1813   1.139   3.406   1.487
  305SOL    HW1 1814   1.076   3.329   1.493
  305SOL    HW2 1815   1.213   3.395   1.553
  306SOL     OW 1816   6.955   0.710   2.274
  306SOL    HW1 1817   6.962   0.748   2.181
  306SOL    HW2 1818   6.959   0.784   2.340
  307SOL     OW 1819   3.315   3.307   0.726
  307SOL    HW1 1820   3.315   3.315   0.826
  307SOL    HW2 1821   3.273   3.221   0.699
  308SOL     OW 1822   5.670   1.999   4.614
  308SOL    HW1 1823   5.702   1.986   4.520
  308SOL    HW2 1824   5.605   2.075   4.617
  309SOL     OW 1825   0.354   6.923   6.936
  309SOL    HW1 1826   0.426   6.983   6.970
  309SOL    HW2 1827   0.394   6.842   6.894
  310SOL     OW 1828   6.025   6.379   4.254
  310SOL    HW1 1829   6.107   6.428   4.224
  310SOL    HW2 1830   5.961   6.444   4.294
  311SOL     OW 1831   2.589   5.129   2.413
  311SOL    HW1 1832   2.678   5.138   2.370
  311SOL    HW2 1833   2.594   5.066   2.489
  312SOL     OW 1834   4.730   2.349   3.747
  312SOL    HW1 1835   4.647   2.401   3.729
  312SOL    HW2 1836   4.762   2.306   3.663
  313SOL     OW 1837   3.358   3.322   2.790
  313SOL    HW1 1838   3.351   3.418   2.762
  313SOL    HW2 1839   3.294   3.267   2.737
  314SOL     OW 1840   2.049   5.823   5.210
  314SOL    HW1 1841   2.134   5.790   5.169
  314SOL    HW2 1842   2.057   5.822   5.310
  315SOL     OW 1843   6.634   1.397   3.316
  315SOL    HW1 1844   6.696   1.443   3.252
  315SOL    HW2 1845   6.687   1.349   3.386
  316SOL     OW 1846   4.326   2.186   5.559
  316SOL    HW1 1847   4.424   2.196   5.576
  316SOL    HW2 1848   4.309   2.101   5.510
  317SOL     OW 1849   2.020   1.241   1.971
  317SOL    HW1 1850   2.035   1.144   1.950
  317SOL    HW2 1851   1.932   1.251   2.016
  318SOL     OW 1852   6.843   0.316   6.394
  318SOL    HW1 1853   6.804   0.337   6.483
  318SOL    HW2 1854   6.794   0.239   6.353
  319SOL     OW 1855   0.428   2.310   2.966
  319SOL    HW1 1856   0.498   2.274   2.903
  319SOL    HW2 1857   0.337   2.285   2.932
  320SOL     OW 1858   6.042   2.314   6.776
  320SOL    HW1 1859   5.951   2.351   6.796
  320SOL    HW2 1860   6.056   2.313   6.677
  321SOL     OW 1861   3.676   3.214   0.326
  321SOL    HW1 1862   3.584   3.240   0.294
  321SOL    HW2 1863   3.720   3.292   0.370
  322SOL     OW 1864   3.716   3.333   5.561
  322SOL    HW1 1865   3.680   3.279   5.485
  322SOL    HW2 1866   3.811   3.358   5.542
  323SOL     OW 1867   0.634   2.971   3.475
  323SOL    HW1 1868   0.589   3.041   3.531
  323SOL    HW2 1869   0.649   3.007   3.383
  324SOL     OW 1870   2.532   6.881   3.316
  324SOL    HW1 1871   2.585   6.802   3.284
  324SOL    HW2 1872   2.580   6.925   3.391
  325SOL     OW 1873   1.581   3.710   2.744
  325SOL    HW1 1874   1.588   3.632   2.806
  325SOL    HW2 1875   1.492   3.754   2.756
  326SOL     OW 1876   1.809   4.401   6.641
  326SOL    HW1 1877   1.856   4.446   6.564
  326SOL    HW2 1878   1.873   4.339   6.687
  327SOL     OW 1879   2.481   4.709   2.533
  327SOL    HW1 1880   2.419   4.781   2.565
  327SOL    HW2 1881   2.440   4.663   2.454
  328SOL     OW 1882   2.025   4.269   1.629
  328SOL    HW1 1883   1.949   4.308   1.682
  328SOL    HW2 1884   1.995   4.184   1.585
  329SOL     OW 1885   2.838   4.052   0.462
  329SOL    HW1 1886   2.846   3.982   0.532
  329SOL    HW2 1887   2.752   4.039   0.412
  330SOL     OW 1888   4.209   6.025   0.005
  330SOL    HW1 1889   4.194   5.927   7.011
  330SOL    HW2 1890   4.122   6.073   0.002
  331SOL     OW 1891   5.280   4.818   0.981
  331SOL    HW1 1892   5.279   4.718   0.980
  331SOL    HW2 1893   5.367   4.850   0.945
  332SOL     OW 1894   5.285   1.606   3.888
  332SOL    HW1 1895   5.283   1.706   3.878
  332SOL    HW2 1896   5.213   1.566   3.830
  333SOL     OW 1897   4.131   0.703   5.141
  333SOL    HW1 1898   4.075   0.746   5.212
  333SOL    HW2 1899   4.222   0.744   5.141
  334SOL     OW 1900   3.676   2.734   1.662
  334SOL    HW1 1901   3.640   2.641   1.670
  334SOL    HW2 1902   3.630   2.781   1.586
  335SOL     OW 1903   4.453   0.088   6.424
  335SOL    HW1 1904   4.520   0.142   6.475
  335SOL    HW2 1905   4.488   7.014   6.411
  336SOL     OW 1906   3.162   1.557   2.711
  336SOL    HW1 1907   3.073   1.530   2.748
  336SOL    HW2 1908   3.187   1.647   2.747
  337SOL     OW 1909   1.967   2.364   6.155
  337SOL    HW1 1910   1.955   2.319   6.243
  337SOL    HW2 1911   2.038   2.317   6.102
  338SOL     OW 1912   3.765   3.227   0.833
  338SOL    HW1 1913   3.706   3.225   0.752
  338SOL    HW2 1914   3.769   3.320   0.868
  339SOL     OW 1915   4.359   4.970   4.321
  339SOL    HW1 1916   4.270   4.998   4.356
  339SOL    HW2 1917   4.360   4.871   4.308
  340SOL     OW 1918   5.244   3.497   5.103
  340SOL    HW1 1919   5.270   3.409   5.141
  340SOL    HW2 1920   5.158   3.488   5.053
  341SOL     OW 1921   6.220   5.908   4.773
  341SOL    HW1 1922   6.259   5.831   4.722
  341SOL    HW2 1923   6.121   5.908   4.762
  342SOL     OW 1924   4.868   3.360   0.844
  342SOL    HW1 1925   4.897   3.264   0.853
  342SOL    HW2 1926   4.772   3.363   0.815
  343SOL     OW 1927   0.113   6.167   2.687
  343SOL    HW1 1928   0.131   6.258   2.723
  343SOL    HW2 1929   0.160   6.155   2.600
  344SOL     OW 1930   0.951   1.776   2.114
  344SOL    HW1 1931   0.907   1.857   2.151
  344SOL    HW2 1932   1.029   1.750   2.172
  345SOL     OW 1933   6.894   2.124   4.141
  345SOL    HW1 1934   6.867   2.180   4.220
  345SOL    HW2 1935   6.963   2.058   4.170
  346SOL     OW 1936   1.688   0.041   2.732
  346SOL    HW1 1937   1.604   7.006   2.730
  346SOL    HW2 1938   1.717   0.061   2.639
  347SOL     OW 1939   2.551   5.774   6.571
  347SOL    HW1 1940   2.458   5.810   6.565
  347SOL    HW2 1941   2.598   5.816   6.648
  348SOL     OW 1942   4.433   5.132   2.813
  348SOL    HW1 1943   4.533   5.135   2.806
  348SOL    HW2 1944   4.398   5.223   2.836
  349SOL     OW 1945   6.532   4.517   2.418
  349SOL    HW1 1946   6.489   4.567   2.343
  349SOL    HW2 1947   6.485   4.429   2.430
  350SOL     OW 1948   3.264   2.888   0.537
  350SOL    HW1 1949   3.351   2.912   0.494
  350SOL    HW2 1950   3.195   2.957   0.515
  351SOL     OW 1951   3.025   3.408   0.580
  351SOL    HW1 1952   3.080   3.452   0.509
  351SOL    HW2 1953   3.062   3.431   0.670
  352SOL     OW 1954   4.422   6.408   3.435
  352SOL    HW1 1955   4.520   6.401   3.417
  352SOL    HW2 1956   4.372   6.354   3.367
  353SOL     OW 1957   2.995   0.316   6.038
  353SOL    HW1 1958   3.091   0.292   6.054
  353SOL    HW2 1959   2.989   0.382   5.963
  354SOL     OW 1960   5.154   2.388   0.235
  354SOL    HW1 1961   5.239   2.411   0.282
  354SOL    HW2 1962   5.124   2.465   0.179
  355SOL     OW 1963   1.823   3.114   2.346
  355SOL    HW1 1964   1.764   3.060   2.406
  355SOL    HW2 1965   1.849   3.199   2.392
  356SOL     OW 1966   2.219   0.497   4.758
  356SOL    HW1 1967   2.172   0.456   4.680
  356SOL    HW2 1968   2.307   0.533   4.728
  357SOL     OW 1969   0.673   5.889   4.008
  357SOL    HW1 1970   0.730   5.935   3.939
  357SOL    HW2 1971   0.626   5.958   4.064
  358SOL     OW 1972   4.283   6.469   0.960
  358SOL    HW1 1973   4.325   6.480   1.049
  358SOL    HW2 1974   4.246   6.376   0.952
  359SOL     OW 1975   3.545   0.602   1.453
  359SOL    HW1 1976   3.505   0.532   1.393
  359SOL    HW2 1977   3.643   0.585   1.463
  360SOL     OW 1978   1.575   4.302   4.435
  360SOL    HW1 1979   1.630   4.362   4.376
  360SOL    HW2 1980   1.619   4.212   4.441
  361SOL     OW 1981   6.409   6.156   2.833
  361SOL    HW1 1982   6.477   6.229   2.831
  361SOL    HW2 1983   6.429   6.089   2.761
  362SOL     OW 1984   3.507   3.936   0.590
  362SOL    HW1 1985   3.497   4.026   0.548
  362SOL    HW2 1986   3.435   3.876   0.555
  363SOL     OW 1987   6.220   4.540   3.287
  363SOL    HW1 1988   6.167   4.618   3.318
  363SOL    HW2 1989   6.158   4.465   3.263
  364SOL     OW 1990   0.619   4.864   6.273
  364SOL    HW1 1991   0.648   4.915   6.191
  364SOL    HW2 1992   0.522   4.879   6.289
  365SOL     OW 1993   3.798   1.225   1.387
  365SOL    HW1 1994   3.715   1.281   1.395
  365SOL    HW2 1995   3.842   1.217   1.476
  366SOL     OW 1996   5.553   2.559   6.815
  366SOL    HW1 1997   5.469   2.509   6.838
  366SOL    HW2 1998   5.545   2.653   6.847
  367SOL     OW 1999   5.865   2.533   5.981
  367SOL    HW1 2000   5.779   2.490   5.954
  367SOL    HW2 2001   5.888   2.505   6.075
  368SOL     OW 2002   6.588   2.279   5.997
  368SOL    HW1 2003   6.531   2.268   5.916
  368SOL    HW2 2004   6.558   2.360   6.048
  369SOL     OW 2005   6.017   4.338   3.028
  369SOL    HW1 2006   6.008   4.259   2.967
  369SOL    HW2 2007   6.021   4.306   3.123
  370SOL     OW 2008   1.148   1.967   4.048
  370SOL    HW1 2009   1.071   1.964   3.985
  370SOL    HW2 2010   1.117   1.942   4.140
  371SOL     OW 2011   2.273   4.330   0.014
  371SOL    HW1 2012   2.260   4.383   0.098
  371SOL    HW2 2013   2.371   4.313   0.001
  372SOL     OW 2014   1.754   0.017   4.995
  372SOL    HW1 2015   1.761   0.037   4.898
  372SOL    HW2 2016   1.832   6.982   5.024
  373SOL     OW 2017   5.236   6.375   5.208
  373SOL    HW1 2018   5.323   6.355   5.163
  373SOL    HW2 2019   5.253   6.431   5.289
  374SOL     OW 2020   2.593   2.143   2.967
  374SOL    HW1 2021   2.618   2.115   2.875
  374SOL    HW2 2022   2.560   2.064   3.019
  375SOL     OW 2023   0.708   4.621   4.819
  375SOL    HW1 2024   0.755   4.709   4.831
  375SOL    HW2 2025   0.772   4.555   4.779
  376SOL     OW 2026   1.431   1.890   5.313
  376SOL    HW1 2027   1.352   1.952   5.307
  376SOL    HW2 2028   1.427   1.824   5.238
  377SOL     OW 2029   2.110   2.631   0.021
  377SOL    HW1 2030   2.181   2.595   6.980
  377SOL    HW2 2031   2.020   2.598   7.010
  378SOL     OW 2032   3.849   1.610   6.392
  378SOL    HW1 2033   3.875   1.523   6.350
  378SOL    HW2 2034   3.881   1.685   6.335
  379SOL     OW 2035   5.120   2.867   0.142
  379SOL    HW1 2036   5.148   2.890   0.049
  379SOL    HW2 2037   5.065   2.784   0.140
  380SOL     OW 2038   3.072   1.268   0.546
  380SOL    HW1 2039   3.071   1.313   0.635
  380SOL    HW2 2040   3.159   1.288   0.500
  381SOL     OW 2041   1.523   3.735   4.125
  381SOL    HW1 2042   1.481   3.657   4.077
  381SOL    HW2 2043   1.619   3.742   4.097
  382SOL     OW 2044   5.786   0.616   0.056
  382SOL    HW1 2045   5.796   0.661   6.987
  382SOL    HW2 2046   5.701   0.644   0.099
  383SOL     OW 2047   4.046   2.995   0.415
  383SOL    HW1 2048   4.071   2.950   0.500
  383SOL    HW2 2049   4.069   2.936   0.338
  384SOL     OW 2050   0.240   5.351   4.096
  384SOL    HW1 2051   0.207   5.384   4.184
  384SOL    HW2 2052   0.228   5.252   4.091
  385SOL     OW 2053   3.382   6.018   6.155
  385SOL    HW1 2054   3.435   5.939   6.124
  385SOL    HW2 2055   3.398   6.095   6.093
  386SOL     OW 2056   3.769   0.249   4.114
  386SOL    HW1 2057   3.777   0.178   4.185
  386SOL    HW2 2058   3.790   0.338   4.154
  387SOL     OW 2059   1.102   5.793   2.138
  387SOL    HW1 2060   1.126   5.772   2.233
  387SOL    HW2 2061   1.164   5.746   2.076
  388SOL     OW 2062   1.816   1.966   6.492
  388SOL    HW1 2063   1.895   1.950   6.432
  388SOL    HW2 2064   1.843   2.027   6.566
  389SOL     OW 2065   3.553   3.363   2.401
  389SOL    HW1 2066   3.507   3.404   2.322
  389SOL    HW2 2067   3.609   3.286   2.371
  390SOL     OW 2068   3.661   0.852   3.369
  390SOL    HW1 2069   3.607   0.860   3.286
  390SOL    HW2 2070   3.671   0.756   3.394
  391SOL     OW 2071   2.216   2.882   6.999
  391SOL    HW1 2072   2.287   2.876   0.050
  391SOL    HW2 2073   2.157   2.802   7.006
  392SOL     OW 2074   1.338   4.152   0.410
  392SOL    HW1 2075   1.385   4.239   0.426
  392SOL    HW2 2076   1.388   4.079   0.458
  393SOL     OW 2077   7.006   4.486   5.317
  393SOL    HW1 2078   0.052   4.531   5.257
  393SOL    HW2 2079   7.001   4.388   5.293
  394SOL     OW 2080   0.069   0.825   6.818
  394SOL    HW1 2081   0.166   0.819   6.793
  394SOL    HW2 2082   0.028   0.904   6.773
  395SOL     OW 2083   5.218   3.995   3.150
  395SOL    HW1 2084   5.144   4.038   3.202
  395SOL    HW2 2085   5.266   3.931   3.210
  396SOL     OW 2086   3.714   3.991   2.058
  396SOL    HW1 2087   3.669   4.008   2.145
  396SOL    HW2 2088   3.726   3.893   2.045
  397SOL     OW 2089   3.867   2.437   5.652
  397SOL    HW1 2090   3.853   2.443   5.553
  397SOL    HW2 2091   3.849   2.344   5.683
  398SOL     OW 2092   0.273   6.580   2.107
  398SOL    HW1 2093   0.271   6.662   2.048
  398SOL    HW2 2094   0.359   6.532   2.094
  399SOL     OW 2095   4.541   6.559   3.013
  399SOL    HW1 2096   4.610   6.580   2.944
  399SOL    HW2 2097   4.468   6.627   3.009
  400SOL     OW 2098   6.450   6.599   5.396
  400SOL    HW1 2099   6.455   6.557   5.305
  400SOL    HW2 2100   6.465   6.697   5.389
  401SOL     OW 2101   4.775   0.972   5.454
  401SOL    HW1 2102   4.795   1.017   5.541
  401SOL    HW2 2103   4.821   0.884   5.451
  402SOL     OW 2104   6.159   6.800   3.094
  402SOL    HW1 2105   6.214   6.844   3.024
  402SOL    HW2 2106   6.139   6.706   3.068
  403SOL     OW 2107   3.977   2.218   5.136
  403SOL    HW1 2108   3.961   2.197   5.233
  403SOL    HW2 2109   4.048   2.287   5.128
  404SOL     OW 2110   1.691   6.157   4.216
  404SOL    HW1 2111   1.721   6.062   4.217
  404SOL    HW2 2112   1.765   6.216   4.248
  405SOL     OW 2113   1.636   3.612   1.924
  405SOL    HW1 2114   1.652   3.638   1.829
  405SOL    HW2 2115   1.724   3.608   1.972
  406SOL     OW 2116   0.763   3.804   3.403
  406SOL    HW1 2117   0.792   3.893   3.369
  406SOL    HW2 2118   0.713   3.816   3.489
  407SOL     OW 2119   1.971   0.247   3.910
  407SOL    HW1 2120   1.900   0.309   3.878
  407SOL    HW2 2121   2.061   0.285   3.887
  408SOL     OW 2122   1.020   1.371   3.373
  408SOL    HW1 2123   1.018   1.427   3.456
  408SOL    HW2 2124   0.949   1.402   3.310
  409SOL     OW 2125   6.186   3.009   1.289
  409SOL    HW1 2126   6.163   3.005   1.386
  409SOL    HW2 2127   6.169   2.919   1.247
  410SOL     OW 2128   2.156   0.362   6.703
  410SOL    HW1 2129   2.176   0.275   6.657
  410SOL    HW2 2130   2.105   0.344   6.787
  411SOL     OW 2131   6.099   6.732   6.687
  411SOL    HW1 2132   6.017   6.703   6.638
  411SOL    HW2 2133   6.144   6.652   6.727
  412SOL     OW 2134   5.004   6.717   3.704
  412SOL    HW1 2135   4.986   6.688   3.798
  412SOL    HW2 2136   4.928   6.687   3.646
  413SOL     OW 2137   5.269   4.771   1.968
  413SOL    HW1 2138   5.182   4.820   1.974
  413SOL    HW2 2139   5.270   4.696   2.033
  414SOL     OW 2140   3.552   4.903   4.060
  414SOL    HW1 2141   3.647   4.881   4.037
  414SOL    HW2 2142   3.502   4.928   3.977
  415SOL     OW 2143   0.797   6.244   6.490
  415SOL    HW1 2144   0.803   6.241   6.390
  415SOL    HW2 2145   0.872   6.191   6.529
  416SOL     OW 2146   5.166   5.139   4.811
  416SOL    HW1 2147   5.141   5.165   4.904
  416SOL    HW2 2148   5.197   5.044   4.809
  417SOL     OW 2149   2.470   5.594   0.832
  417SOL    HW1 2150   2.557   5.638   0.857
  417SOL    HW2 2151   2.461   5.507   0.882
  418SOL     OW 2152   4.094   5.719   1.725
  418SOL    HW1 2153   4.143   5.759   1.802
  418SOL    HW2 2154   4.021   5.659   1.759
  419SOL     OW 2155   1.640   0.436   1.625
  419SOL    HW1 2156   1.561   0.475   1.672
  419SOL    HW2 2157   1.678   0.361   1.680
  420SOL     OW 2158   6.448   2.925   0.793
  420SOL    HW1 2159   6.506   2.922   0.711
  420SOL    HW2 2160   6.506   2.938   0.873
  421SOL     OW 2161   6.819   4.666   5.754
  421SOL    HW1 2162   6.744   4.630   5.698
  421SOL    HW2 2163   6.906   4.644   5.711
  422SOL     OW 2164   5.670   4.588   0.624
  422SOL    HW1 2165   5.705   4.567   0.715
  422SOL    HW2 2166   5.656   4.502   0.573
  423SOL     OW 2167   0.934   2.885   0.399
  423SOL    HW1 2168   0.988   2.823   0.342
  423SOL    HW2 2169   0.865   2.832   0.449
  424SOL     OW 2170   3.103   3.546   1.280
  424SOL    HW1 2171   3.059   3.542   1.369
  424SOL    HW2 2172   3.150   3.459   1.262
  425SOL     OW 2173   6.295   1.406   2.183
  425SOL    HW1 2174   6.263   1.312   2.170
  425SOL    HW2 2175   6.288   1.456   2.097
  426SOL     OW 2176   4.828   2.641   4.183
  426SOL    HW1 2177   4.824   2.552   4.138
  426SOL    HW2 2178   4.917   2.683   4.166
  427SOL     OW 2179   5.672   4.885   3.048
  427SOL    HW1 2180   5.676   4.804   2.990
  427SOL    HW2 2181   5.738   4.953   3.016
  428SOL     OW 2182   4.597   6.955   4.790
  428SOL    HW1 2183   4.600   6.891   4.713
  428SOL    HW2 2184   4.596   0.029   4.756
  429SOL     OW 2185   2.781   4.099   1.375
  429SOL    HW1 2186   2.837   4.177   1.401
  429SOL    HW2 2187   2.813   4.062   1.288
  430SOL     OW 2188   0.510   0.051   4.123
  430SOL    HW1 2189   0.435   7.006   4.102
  430SOL    HW2 2190   0.478   0.118   4.189
  431SOL     OW 2191   3.705   0.407   0.643
  431SOL    HW1 2192   3.631   0.474   0.640
  431SOL    HW2 2193   3.732   0.392   0.739
  432SOL     OW 2194   6.403   1.956   1.961
  432SOL    HW1 2195   6.494   1.923   1.986
  432SOL    HW2 2196   6.404   1.987   1.866
  433SOL     OW 2197   3.190   6.118   4.595
  433SOL    HW1 2198   3.197   6.125   4.496
  433SOL    HW2 2199   3.222   6.203   4.637
  434SOL     OW 2200   3.932   5.538   2.150
  434SOL    HW1 2201   3.942   5.442   2.178
  434SOL    HW2 2202   3.880   5.588   2.219
  435SOL     OW 2203   4.249   1.965   5.258
  435SOL    HW1 2204   4.321   1.896   5.260
  435SOL    HW2 2205   4.160   1.921   5.270
  436SOL     OW 2206   3.174   6.001   0.936
  436SOL    HW1 2207   3.185   5.966   1.029
  436SOL    HW2 2208   3.113   6.080   0.937
  437SOL     OW 2209   0.730   0.217   6.369
  437SOL    HW1 2210   0.798   0.161   6.321
  437SOL    HW2 2211   0.721   0.184   6.463
  438SOL     OW 2212   2.203   2.992   2.204
  438SOL    HW1 2213   2.207   3.018   2.108
  438SOL    HW2 2214   2.237   2.899   2.215
  439SOL     OW 2215   6.102   4.757   3.362
  439SOL    HW1 2216   6.117   4.832   3.298
  439SOL    HW2 2217   6.047   4.789   3.439
  440SOL     OW 2218   1.379   1.457   5.116
  440SOL    HW1 2219   1.345   1.385   5.177
  440SOL    HW2 2220   1.472   1.435   5.086
  441SOL     OW 2221   1.403   2.692   3.826
  441SOL    HW1 2222   1.492   2.720   3.861
  441SOL    HW2 2223   1.376   2.754   3.752
  442SOL     OW 2224   2.492   5.149   6.772
  442SOL    HW1 2225   2.448   5.071   6.727
  442SOL    HW2 2226   2.562   5.117   6.835
  443SOL     OW 2227   0.344   4.105   4.508
  443SOL    HW1 2228   0.397   4.110   4.592
  443SOL    HW2 2229   0.295   4.017   4.505
  444SOL     OW 2230   5.229   1.957   5.739
  444SOL    HW1 2231   5.154   1.926   5.797
  444SOL    HW2 2232   5.288   1.879   5.717
  445SOL     OW 2233   1.416   5.277   3.237
  445SOL    HW1 2234   1.404   5.213   3.161
  445SOL    HW2 2235   1.441   5.225   3.320
  446SOL     OW 2236   3.817   4.859   4.019
  446SOL    HW1 2237   3.903   4.816   4.046
  446SOL    HW2 2238   3.815   4.869   3.920
  447SOL     OW 2239   0.635   2.592   0.048
  447SOL    HW1 2240   0.697   2.669   0.037
  447SOL    HW2 2241   0.652   2.547   0.136
  448SOL     OW 2242   2.807   0.825   4.393
  448SOL    HW1 2243   2.767   0.917   4.398
  448SOL    HW2 2244   2.902   0.829   4.423
  449SOL     OW 2245   4.333   0.632   4.718
  449SOL    HW1 2246   4.411   0.639   4.780
  449SOL    HW2 2247   4.365   0.642   4.624
  450SOL     OW 2248   1.361   5.932   3.881
  450SOL    HW1 2249   1.390   6.003   3.945
  450SOL    HW2 2250   1.417   5.936   3.799
  451SOL     OW 2251   2.358   1.944   3.897
  451SOL    HW1 2252   2.363   1.880   3.821
  451SOL    HW2 2253   2.331   2.034   3.864
  452SOL     OW 2254   6.364   6.057   1.442
  452SOL    HW1 2255   6.303   6.081   1.366
  452SOL    HW2 2256   6.393   6.140   1.489
  453SOL     OW 2257   3.456   0.768   4.640
  453SOL    HW1 2258   3.554   0.783   4.650
  453SOL    HW2 2259   3.416   0.746   4.729
  454SOL     OW 2260   6.805   4.861   5.954
  454SOL    HW1 2261   6.793   4.818   5.864
  454SOL    HW2 2262   6.884   4.922   5.952
  455SOL     OW 2263   6.187   2.346   2.845
  455SOL    HW1 2264   6.151   2.255   2.865
  455SOL    HW2 2265   6.111   2.409   2.826
  456SOL     OW 2266   5.552   6.136   4.379
  456SOL    HW1 2267   5.629   6.094   4.331
  456SOL    HW2 2268   5.575   6.231   4.402
  457SOL     OW 2269   1.967   3.574   3.520
  457SOL    HW1 2270   2.041   3.539   3.463
  457SOL    HW2 2271   2.003   3.641   3.585
  458SOL     OW 2272   4.293   5.488   3.805
  458SOL    HW1 2273   4.217   5.427   3.782
  458SOL    HW2 2274   4.377   5.455   3.763
  459SOL     OW 2275   1.977   6.858   4.991
  459SOL    HW1 2276   2.068   6.819   4.991
  459SOL    HW2 2277   1.915   6.799   5.042
  460SOL     OW 2278   1.607   0.175   3.954
  460SOL    HW1 2279   1.604   0.182   3.854
  460SOL    HW2 2280   1.618   0.266   3.993
  461SOL     OW 2281   5.980   6.946   5.753
  461SOL    HW1 2282   5.953   6.908   5.665
  461SOL    HW2 2283   5.921   6.909   5.825
  462SOL     OW 2284   3.718   2.561   6.247
  462SOL    HW1 2285   3.677   2.649   6.222
  462SOL    HW2 2286   3.687   2.491   6.184
  463SOL     OW 2287   6.586   5.347   3.415
  463SOL    HW1 2288   6.575   5.350   3.514
  463SOL    HW2 2289   6.615   5.255   3.388
  464SOL     OW 2290   2.248   2.547   6.042
  464SOL    HW1 2291   2.191   2.521   5.965
  464SOL    HW2 2292   2.227   2.490   6.121
  465SOL     OW 2293   0.829   2.574   4.987
  465SOL    HW1 2294   0.846   2.544   5.080
  465SOL    HW2 2295   0.763   2.649   4.987
  466SOL     OW 2296   1.396   5.582   2.921
  466SOL    HW1 2297   1.458   5.648   2.962
  466SOL    HW2 2298   1.448   5.508   2.879
  467SOL     OW 2299   1.801   1.393   0.372
  467SOL    HW1 2300   1.725   1.376   0.310
  467SOL    HW2 2301   1.887   1.396   0.320
  468SOL     OW 2302   3.437   6.489   0.115
  468SOL    HW1 2303   3.363   6.452   0.172
  468SOL    HW2 2304   3.525   6.467   0.158
  469SOL     OW 2305   3.094   4.827   0.348
  469SOL    HW1 2306   3.075   4.815   0.250
  469SOL    HW2 2307   3.007   4.841   0.397
  470SOL     OW 2308   4.317   0.080   2.277
  470SOL    HW1 2309   4.271   0.159   2.236
  470SOL    HW2 2310   4.293   7.017   2.226
  471SOL     OW 2311   2.063   2.351   4.100
  471SOL    HW1 2312   2.091   2.376   4.193
  471SOL    HW2 2313   1.995   2.278   4.104
  472SOL     OW 2314   5.038   3.501   6.443
  472SOL    HW1 2315   5.049   3.548   6.355
  472SOL    HW2 2316   5.071   3.560   6.516
  473SOL     OW 2317   1.060   3.081   2.266
  473SOL    HW1 2318   1.004   3.156   2.302
  473SOL    HW2 2319   1.000   3.008   2.234
  474SOL     OW 2320   5.236   5.251   4.390
  474SOL    HW1 2321   5.217   5.182   4.321
  474SOL    HW2 2322   5.265   5.336   4.346
  475SOL     OW 2323   5.665   0.653   6.561
  475SOL    HW1 2324   5.745   0.706   6.532
  475SOL    HW2 2325   5.656   0.572   6.502
  476SOL     OW 2326   6.796   3.951   3.195
  476SOL    HW1 2327   6.822   4.041   3.161
  476SOL    HW2 2328   6.710   3.958   3.245
  477SOL     OW 2329   1.585   4.395   4.075
  477SOL    HW1 2330   1.602   4.349   3.988
  477SOL    HW2 2331   1.665   4.385   4.135
  478SOL     OW 2332   3.204   0.153   1.860
  478SOL    HW1 2333   3.154   0.127   1.777
  478SOL    HW2 2334   3.172   0.098   1.937
  479SOL     OW 2335   4.081   2.179   6.181
  479SOL    HW1 2336   4.015   2.128   6.126
  479SOL    HW2 2337   4.050   2.273   6.192
  480SOL     OW 2338   2.129   1.239   0.174
  480SOL    HW1 2339   2.182   1.305   0.228
  480SOL    HW2 2340   2.112   1.276   0.083
  481SOL     OW 2341   1.730   0.659   0.354
  481SOL    HW1 2342   1.703   0.575   0.402
  481SOL    HW2 2343   1.809   0.641   0.296
  482SOL     OW 2344   4.641   4.925   3.194
  482SOL    HW1 2345   4.650   5.022   3.216
  482SOL    HW2 2346   4.715   4.874   3.237
  483SOL     OW 2347   6.900   1.551   2.004
  483SOL    HW1 2348   6.833   1.519   1.936
  483SOL    HW2 2349   6.868   1.528   2.095
  484SOL     OW 2350   1.355   3.078   5.074
  484SOL    HW1 2351   1.359   3.178   5.080
  484SOL    HW2 2352   1.426   3.046   5.011
  485SOL     OW 2353   3.862   5.338   3.018
  485SOL    HW1 2354   3.912   5.374   3.097
  485SOL    HW2 2355   3.927   5.322   2.943
  486SOL     OW 2356   6.780   2.109   0.636
  486SOL    HW1 2357   6.693   2.070   0.667
  486SOL    HW2 2358   6.790   2.095   0.537
  487SOL     OW 2359   1.393   1.860   1.547
  487SOL    HW1 2360   1.348   1.771   1.557
  487SOL    HW2 2361   1.489   1.852   1.572
  488SOL     OW 2362   0.259   1.591   2.310
  488SOL    HW1 2363   0.298   1.570   2.221
  488SOL    HW2 2364   0.283   1.520   2.375
  489SOL     OW 2365   2.911   6.092   6.442
  489SOL    HW1 2366   2.862   6.177   6.463
  489SOL    HW2 2367   3.003   6.114   6.408
  490SOL     OW 2368   6.948   5.778   3.284
  490SOL    HW1 2369   6.897   5.859   3.315
  490SOL    HW2 2370   7.006   5.803   3.207
  491SOL     OW 2371   0.377   3.234   2.286
  491SOL    HW1 2372   0.321   3.238   2.203
  491SOL    HW2 2373   0.377   3.140   2.321
  492SOL     OW 2374   2.504   0.261   5.423
  492SOL    HW1 2375   2.554   0.329   5.476
  492SOL    HW2 2376   2.406   0.281   5.427
  493SOL     OW 2377   4.981   6.340   5.116
  493SOL    HW1 2378   5.080   6.342   5.134
  493SOL    HW2 2379   4.935   6.405   5.177
  494SOL     OW 2380   6.598   1.166   6.833
  494SOL    HW1 2381   6.625   1.088   6.891
  494SOL    HW2 2382   6.595   1.137   6.738
  495SOL     OW 2383   5.196   5.864   3.771
  495SOL    HW1 2384   5.255   5.817   3.705
  495SOL    HW2 2385   5.131   5.799   3.810
  496SOL     OW 2386   5.130   3.600   1.918
  496SOL    HW1 2387   5.062   3.545   1.966
  496SOL    HW2 2388   5.211   3.610   1.975
  497SOL     OW 2389   3.339   0.961   4.416
  497SOL    HW1 2390   3.384   0.942   4.504
  497SOL    HW2 2391   3.366   1.051   4.383
  498SOL     OW 2392   2.118   3.842   1.452
  498SOL    HW1 2393   2.079   3.839   1.360
  498SOL    HW2 2394   2.054   3.887   1.514
  499SOL     OW 2395   2.692   0.314   3.930
  499SOL    HW1 2396   2.789   0.330   3.909
  499SOL    HW2 2397   2.681   0.224   3.972
  500SOL     OW 2398   0.512   3.652   3.972
  500SOL    HW1 2399   0.539   3.611   3.885
  500SOL    HW2 2400   0.485   3.747   3.957
  501SOL     OW 2401   2.520   6.050   0.447
  501SOL    HW1 2402   2.438   6.013   0.490
  501SOL    HW2 2403   2.496   6.126   0.387
  502SOL     OW 2404   6.476   4.001   0.110
  502SOL    HW1 2405   6.482   4.061   0.030
  502SOL    HW2 2406   6.426   3.918   0.084
  503SOL     OW 2407   6.271   5.670   6.741
  503SOL    HW1 2408   6.347   5.730   6.763
  503SOL    HW2 2409   6.221   5.707   6.662
  504SOL     OW 2410   2.097   5.638   3.233
  504SOL    HW1 2411   2.036   5.693   3.176
  504SOL    HW2 2412   2.168   5.597   3.176
  505SOL     OW 2413   3.284   6.720   4.874
  505SOL    HW1 2414   3.269   6.627   4.842
  505SOL    HW2 2415   3.281   6.783   4.796
  506SOL     OW 2416   1.433   5.425   4.844
  506SOL    HW1 2417   1.374   5.357   4.888
  506SOL    HW2 2418   1.407   5.517   4.873
  507SOL     OW 2419   3.442   6.720   3.058
  507SOL    HW1 2420   3.499   6.640   3.080
  507SOL    HW2 2421   3.453   6.743   2.961
  508SOL     OW 2422   6.862   3.818   2.129
  508SOL    HW1 2423   6.941   3.860   2.175
  508SOL    HW2 2424   6.790   3.800   2.196
  509SOL     OW 2425   3.223   0.891   1.729
  509SOL    HW1 2426   3.261   0.842   1.651
  509SOL    HW2 2427   3.265   0.982   1.735
  510SOL     OW 2428   5.997   4.882   0.460
  510SOL    HW1 2429   6.012   4.795   0.414
  510SOL    HW2 2430   5.898   4.900   0.466
  511SOL     OW 2431   0.725   1.290   6.182
  511SOL    HW1 2432   0.710   1.195   6.209
  511SOL    HW2 2433   0.643   1.325   6.136
  512SOL     OW 2434   6.455   2.751   6.929
  512SOL    HW1 2435   6.439   2.840   6.973
  512SOL    HW2 2436   6.422   2.755   6.834
  513SOL     OW 2437   5.913   6.192   3.458
  513SOL    HW1 2438   5.971   6.217   3.536
  513SOL    HW2 2439   5.962   6.210   3.373
  514SOL     OW 2440   6.785   2.655   4.162
  514SOL    HW1 2441   6.762   2.674   4.066
  514SOL    HW2 2442   6.839   2.570   4.167
  515SOL     OW 2443   1.949   1.124   6.575
  515SOL    HW1 2444   1.888   1.182   6.628
  515SOL    HW2 2445   1.989   1.054   6.635
  516SOL     OW 2446   2.762   4.762   1.737
  516SOL    HW1 2447   2.808   4.722   1.816
  516SOL    HW2 2448   2.664   4.764   1.752
  517SOL     OW 2449   4.533   5.444   2.325
  517SOL    HW1 2450   4.591   5.422   2.247
  517SOL    HW2 2451   4.589   5.452   2.407
  518SOL     OW 2452   2.141   2.167   2.783
  518SOL    HW1 2453   2.123   2.107   2.705
  518SOL    HW2 2454   2.215   2.230   2.760
  519SOL     OW 2455   0.816   1.029   4.360
  519SOL    HW1 2456   0.906   1.069   4.342
  519SOL    HW2 2457   0.756   1.048   4.283
  520SOL     OW 2458   6.036   4.688   0.248
  520SOL    HW1 2459   5.963   4.723   0.190
  520SOL    HW2 2460   6.034   4.588   0.246
  521SOL     OW 2461   0.027   3.632   5.509
  521SOL    HW1 2462   0.077   3.661   5.427
  521SOL    HW2 2463   6.974   3.568   5.483
  522SOL     OW 2464   3.698   3.129   5.286
  522SOL    HW1 2465   3.613   3.078   5.275
  522SOL    HW2 2466   3.763   3.100   5.216
  523SOL     OW 2467   0.660   5.328   1.374
  523SOL    HW1 2468   0.755   5.356   1.381
  523SOL    HW2 2469   0.614   5.343   1.461
  524SOL     OW 2470   0.244   1.263   0.701
  524SOL    HW1 2471   0.306   1.286   0.777
  524SOL    HW2 2472   0.209   1.171   0.715
  525SOL     OW 2473   1.588   3.511   6.435
  525SOL    HW1 2474   1.614   3.422   6.399
  525SOL    HW2 2475   1.631   3.583   6.381
  526SOL     OW 2476   4.635   6.296   4.434
  526SOL    HW1 2477   4.614   6.338   4.346
  526SOL    HW2 2478   4.618   6.197   4.429
  527SOL     OW 2479   6.744   3.061   0.075
  527SOL    HW1 2480   6.787   3.148   0.051
  527SOL    HW2 2481   6.815   2.994   0.095
  528SOL     OW 2482   1.181   1.481   3.588
  528SOL    HW1 2483   1.261   1.463   3.645
  528SOL    HW2 2484   1.205   1.548   3.517
  529SOL     OW 2485   0.970   6.647   3.969
  529SOL    HW1 2486   0.985   6.674   3.874
  529SOL    HW2 2487   0.926   6.557   3.972
  530SOL     OW 2488   2.946   3.183   4.902
  530SOL    HW1 2489   3.027   3.129   4.879
  530SOL    HW2 2490   2.865   3.135   4.870
  531SOL     OW 2491   0.815   0.387   2.882
  531SOL    HW1 2492   0.762   0.380   2.967
  531SOL    HW2 2493   0.756   0.367   2.804
  532SOL     OW 2494   1.109   2.177   6.941
  532SOL    HW1 2495   1.160   2.115   6.882
  532SOL    HW2 2496   1.147   2.174   0.014
  533SOL     OW 2497   4.802   0.045   3.517
  533SOL    HW1 2498   4.837   6.987   3.465
  533SOL    HW2 2499   4.720   0.081   3.472
  534SOL     OW 2500   5.177   5.971   2.915
  534SOL    HW1 2501   5.116   5.913   2.969
  534SOL    HW2 2502   5.164   6.066   2.941
  535SOL     OW 2503   0.544   3.316   4.673
  535SOL    HW1 2504   0.628   3.365   4.653
  535SOL    HW2 2505   0.565   3.221   4.698
  536SOL     OW 2506   6.991   4.963   1.661
  536SOL    HW1 2507   6.992   4.942   1.563
  536SOL    HW2 2508   6.958   4.884   1.712
  537SOL     OW 2509   1.618   6.585   4.002
  537SOL    HW1 2510   1.641   6.629   4.088
  537SOL    HW2 2511   1.694   6.597   3.937
  538SOL     OW 2512   1.236   4.138   2.459
  538SOL    HW1 2513   1.327   4.177   2.471
  538SOL    HW2 2514   1.176   4.207   2.418
  539SOL     OW 2515   1.048   6.856   0.200
  539SOL    HW1 2516   0.967   6.900   0.239
  539SOL    HW2 2517   1.075   6.779   0.257
  540SOL     OW 2518   1.091   0.602   2.640
  540SOL    HW1 2519   1.011   0.604   2.580
  540SOL    HW2 2520   1.071   0.545   2.720
  541SOL     OW 2521   3.962   6.077   4.275
  541SOL    HW1 2522   4.023   6.054   4.199
  541SOL    HW2 2523   3.867   6.058   4.248
  542SOL     OW 2524   6.530   0.377   7.019
  542SOL    HW1 2525   6.523   0.352   0.096
  542SOL    HW2 2526   6.619   0.420   7.002
  543SOL     OW 2527   1.754   4.405   5.611
  543SOL    HW1 2528   1.819   4.349   5.663
  543SOL    HW2 2529   1.665   4.403   5.656
  544SOL     OW 2530   2.335   3.787   1.041
  544SOL    HW1 2531   2.279   3.707   1.061
  544SOL    HW2 2532   2.280   3.855   0.992
  545SOL     OW 2533   2.733   0.314   2.986
  545SOL    HW1 2534   2.808   0.261   2.945
  545SOL    HW2 2535   2.653   0.255   2.997
  546SOL     OW 2536   1.550   3.302   0.381
  546SOL    HW1 2537   1.463   3.350   0.390
  546SOL    HW2 2538   1.552   3.224   0.443
  547SOL     OW 2539   2.881   1.214   6.842
  547SOL    HW1 2540   2.940   1.283   6.884
  547SOL    HW2 2541   2.852   1.149   6.912
  548SOL     OW 2542   3.673   2.991   2.664
  548SOL    HW1 2543   3.613   2.957   2.592
  548SOL    HW2 2544   3.625   3.059   2.719
  549SOL     OW 2545   4.690   3.431   1.264
  549SOL    HW1 2546   4.776   3.396   1.302
  549SOL    HW2 2547   4.675   3.392   1.173
  550SOL     OW 2548   6.308   4.368   3.517
  550SOL    HW1 2549   6.258   4.426   3.582
  550SOL    HW2 2550   6.284   4.396   3.424
  551SOL     OW 2551   1.302   0.971   1.304
  551SOL    HW1 2552   1.210   0.965   1.344
  551SOL    HW2 2553   1.360   0.899   1.343
  552SOL     OW 2554   4.748   4.966   0.349
  552SOL    HW1 2555   4.798   4.961   0.262
  552SOL    HW2 2556   4.651   4.980   0.331
  553SOL     OW 2557   2.168   6.403   1.982
  553SOL    HW1 2558   2.082   6.362   2.012
  553SOL    HW2 2559   2.158   6.502   1.978
  554SOL     OW 2560   5.786   6.184   5.242
  554SOL    HW1 2561   5.704   6.237   5.222
  554SOL    HW2 2562   5.764   6.110   5.305
  555SOL     OW 2563   2.539   5.307   2.832
  555SOL    HW1 2564   2.468   5.288   2.763
  555SOL    HW2 2565   2.598   5.227   2.841
  556SOL     OW 2566   5.376   2.634   3.425
  556SOL    HW1 2567   5.314   2.698   3.381
  556SOL    HW2 2568   5.387   2.552   3.369
  557SOL     OW 2569   0.285   4.962   0.113
  557SOL    HW1 2570   0.349   4.889   0.089
  557SOL    HW2 2571   0.216   4.970   0.040
  558SOL     OW 2572   2.947   3.720   4.900
  558SOL    HW1 2573   2.884   3.782   4.947
  558SOL    HW2 2574   2.954   3.634   4.951
  559SOL     OW 2575   6.680   5.740   6.481
  559SOL    HW1 2576   6.701   5.826   6.435
  559SOL    HW2 2577   6.748   5.722   6.552
  560SOL     OW 2578   4.506   5.733   0.379
  560SOL    HW1 2579   4.423   5.789   0.372
  560SOL    HW2 2580   4.530   5.698   0.289
  561SOL     OW 2581   6.147   0.815   0.496
  561SOL    HW1 2582   6.148   0.903   0.448
  561SOL    HW2 2583   6.120   0.742   0.433
  562SOL     OW 2584   4.806   1.055   5.939
  562SOL    HW1 2585   4.873   1.112   5.986
  562SOL    HW2 2586   4.714   1.091   5.956
  563SOL     OW 2587   2.277   6.911   2.944
  563SOL    HW1 2588   2.264   6.881   2.849
  563SOL    HW2 2589   2.197   6.886   2.998
  564SOL     OW 2590   2.870   1.886   6.339
  564SOL    HW1 2591   2.894   1.899   6.243
  564SOL    HW2 2592   2.855   1.975   6.382
  565SOL     OW 2593   3.620   3.482   5.915
  565SOL    HW1 2594   3.599   3.489   5.817
  565SOL    HW2 2595   3.566   3.407   5.955
  566SOL     OW 2596   6.041   4.220   4.229
  566SOL    HW1 2597   6.104   4.202   4.305
  566SOL    HW2 2598   6.075   4.298   4.176
  567SOL     OW 2599   3.862   4.021   2.732
  567SOL    HW1 2600   3.805   4.048   2.655
  567SOL    HW2 2601   3.804   4.005   2.812
  568SOL     OW 2602   3.492   2.502   0.391
  568SOL    HW1 2603   3.480   2.404   0.410
  568SOL    HW2 2604   3.500   2.551   0.478
  569SOL     OW 2605   1.205   3.789   0.154
  569SOL    HW1 2606   1.207   3.689   0.148
  569SOL    HW2 2607   1.124   3.818   0.206
  570SOL     OW 2608   2.367   6.577   6.590
  570SOL    HW1 2609   2.381   6.505   6.658
  570SOL    HW2 2610   2.324   6.537   6.508
  571SOL     OW 2611   3.054   0.163   3.178
  571SOL    HW1 2612   3.090   0.188   3.089
  571SOL    HW2 2613   2.989   0.233   3.209
  572SOL     OW 2614   2.492   4.535   6.097
  572SOL    HW1 2615   2.492   4.635   6.089
  572SOL    HW2 2616   2.518   4.495   6.009
  573SOL     OW 2617   4.633   1.507   5.364
  573SOL    HW1 2618   4.729   1.488   5.382
  573SOL    HW2 2619   4.595   1.434   5.307
  574SOL     OW 2620   2.924   2.175   3.538
  574SOL    HW1 2621   2.944   2.167   3.635
  574SOL    HW2 2622   2.869   2.257   3.521
  575SOL     OW 2623   6.378   3.383   6.542
  575SOL    HW1 2624   6.355   3.479   6.526
  575SOL    HW2 2625   6.331   3.326   6.475
  576SOL     OW 2626   1.185   2.163   2.340
  576SOL    HW1 2627   1.119   2.101   2.381
  576SOL    HW2 2628   1.208   2.131   2.248
  577SOL     OW 2629   1.633   0.780   3.073
  577SOL    HW1 2630   1.600   0.757   3.164
  577SOL    HW2 2631   1.567   0.841   3.028
  578SOL     OW 2632   0.042   4.295   3.241
  578SOL    HW1 2633   6.979   4.273   3.190
  578SOL    HW2 2634   0.029   4.381   3.292
  579SOL     OW 2635   2.565   2.969   1.275
  579SOL    HW1 2636   2.493   3.005   1.216
  579SOL    HW2 2637   2.616   3.046   1.315
  580SOL     OW 2638   0.757   4.319   6.660
  580SOL    HW1 2639   0.769   4.288   6.755
  580SOL    HW2 2640   0.715   4.246   6.606
  581SOL     OW 2641   3.219   3.618   2.384
  581SOL    HW1 2642   3.311   3.591   2.412
  581SOL    HW2 2643   3.205   3.593   2.288
  582SOL     OW 2644   6.079   5.371   2.718
  582SOL    HW1 2645   6.177   5.386   2.705
  582SOL    HW2 2646   6.064   5.329   2.807
  583SOL     OW 2647   2.092   5.380   6.070
  583SOL    HW1 2648   2.012   5.429   6.036
  583SOL    HW2 2649   2.127   5.320   5.999
  584SOL     OW 2650   1.432   4.724   5.851
  584SOL    HW1 2651   1.385   4.713   5.764
  584SOL    HW2 2652   1.413   4.815   5.888
  585SOL     OW 2653   6.069   2.936   5.874
  585SOL    HW1 2654   6.109   2.932   5.965
  585SOL    HW2 2655   5.987   2.879   5.871
  586SOL     OW 2656   3.153   0.874   6.473
  586SOL    HW1 2657   3.149   0.782   6.512
  586SOL    HW2 2658   3.122   0.940   6.540
  587SOL     OW 2659   2.742   2.444   5.204
  587SOL    HW1 2660   2.649   2.463   5.236
  587SOL    HW2 2661   2.738   2.393   5.118
  588SOL     OW 2662   2.437   5.255   0.544
  588SOL    HW1 2663   2.360   5.299   0.497
  588SOL    HW2 2664   2.498   5.215   0.476
  589SOL     OW 2665   3.904   5.294   1.589
  589SOL    HW1 2666   3.862   5.203   1.580
  589SOL    HW2 2667   3.848   5.351   1.649
  590SOL     OW 2668   5.797   3.069   1.261
  590SOL    HW1 2669   5.870   3.056   1.194
  590SOL    HW2 2670   5.775   2.981   1.303
  591SOL     OW 2671   4.276   6.166   3.994
  591SOL    HW1 2672   4.278   6.222   3.911
  591SOL    HW2 2673   4.306   6.073   3.972
  592SOL     OW 2674   3.911   0.030   1.319
  592SOL    HW1 2675   3.907   0.018   1.219
  592SOL    HW2 2676   3.988   6.996   1.355
  593SOL     OW 2677   4.605   2.103   3.321
  593SOL    HW1 2678   4.681   2.046   3.353
  593SOL    HW2 2679   4.536   2.110   3.393
  594SOL     OW 2680   4.554   2.193   6.079
  594SOL    HW1 2681   4.458   2.211   6.059
  594SOL    HW2 2682   4.610   2.269   6.046
  595SOL     OW 2683   5.353   6.700   3.483
  595SOL    HW1 2684   5.416   6.771   3.514
  595SOL    HW2 2685   5.404   6.622   3.448
  596SOL     OW 2686   1.061   3.831   1.927
  596SOL    HW1 2687   1.151   3.872   1.913
  596SOL    HW2 2688   1.052   3.802   2.022
  597SOL     OW 2689   4.765   6.971   5.766
  597SOL    HW1 2690   4.775   6.877   5.734
  597SOL    HW2 2691   4.688   7.014   5.718
  598SOL     OW 2692   3.306   4.097   6.868
  598SOL    HW1 2693   3.397   4.080   6.831
  598SOL    HW2 2694   3.243   4.026   6.837
  599SOL     OW 2695   1.730   6.691   2.951
  599SOL    HW1 2696   1.745   6.707   2.853
  599SOL    HW2 2697   1.701   6.597   2.965
  600SOL     OW 2698   1.206   1.288   0.927
  600SOL    HW1 2699   1.254   1.246   0.850
  600SOL    HW2 2700   1.258   1.270   1.011
  601SOL     OW 2701   3.535   6.659   4.395
  601SOL    HW1 2702   3.555   6.667   4.298
  601SOL    HW2 2703   3.507   6.565   4.416
  602SOL     OW 2704   1.324   2.350   6.985
  602SOL    HW1 2705   1.385   2.270   6.984
  602SOL    HW2 2706   1.247   2.334   6.923
  603SOL     OW 2707   4.117   1.951   3.780
  603SOL    HW1 2708   4.074   1.885   3.717
  603SOL    HW2 2709   4.154   1.902   3.859
  604SOL     OW 2710   0.486   3.830   1.193
  604SOL    HW1 2711   0.397   3.841   1.149
  604SOL    HW2 2712   0.535   3.918   1.192
  605SOL     OW 2713   6.928   5.389   2.757
  605SOL    HW1 2714   6.895   5.356   2.845
  605SOL    HW2 2715   6.949   5.486   2.764
  606SOL     OW 2716   4.928   0.332   5.637
  606SOL    HW1 2717   4.953   0.272   5.713
  606SOL    HW2 2718   4.832   0.316   5.612
  607SOL     OW 2719   5.586   0.850   5.526
  607SOL    HW1 2720   5.602   0.947   5.508
  607SOL    HW2 2721   5.526   0.812   5.455
  608SOL     OW 2722   3.880   6.607   0.122
  608SOL    HW1 2723   3.828   6.693   0.114
  608SOL    HW2 2724   3.977   6.629   0.134
  609SOL     OW 2725   3.583   3.417   3.982
  609SOL    HW1 2726   3.500   3.364   3.996
  609SOL    HW2 2727   3.652   3.361   3.937
  610SOL     OW 2728   5.268   1.996   2.561
  610SOL    HW1 2729   5.187   1.989   2.619
  610SOL    HW2 2730   5.239   2.012   2.467
  611SOL     OW 2731   1.281   0.694   6.222
  611SOL    HW1 2732   1.283   0.749   6.306
  611SOL    HW2 2733   1.186   0.679   6.194
  612SOL     OW 2734   4.003   5.867   5.541
  612SOL    HW1 2735   3.928   5.805   5.515
  612SOL    HW2 2736   4.088   5.836   5.499
  613SOL     OW 2737   4.724   6.910   5.346
  613SOL    HW1 2738   4.663   6.848   5.395
  613SOL    HW2 2739   4.690   7.004   5.354
  614SOL     OW 2740   5.936   4.395   1.040
  614SOL    HW1 2741   5.969   4.304   1.014
  614SOL    HW2 2742   6.013   4.452   1.067
  615SOL     OW 2743   0.609   1.673   1.422
  615SOL    HW1 2744   0.562   1.677   1.510
  615SOL    HW2 2745   0.706   1.653   1.435
  616SOL     OW 2746   6.184   1.621   3.198
  616SOL    HW1 2747   6.155   1.545   3.140
  616SOL    HW2 2748   6.111   1.642   3.264
  617SOL     OW 2749   6.942   3.602   6.807
  617SOL    HW1 2750   6.887   3.683   6.788
  617SOL    HW2 2751   6.955   3.549   6.723
  618SOL     OW 2752   6.542   3.613   0.654
  618SOL    HW1 2753   6.597   3.532   0.671
  618SOL    HW2 2754   6.446   3.593   0.672
  619SOL     OW 2755   4.191   6.956   6.561
  619SOL    HW1 2756   4.251   0.012   6.533
  619SOL    HW2 2757   4.195   6.945   6.660
  620SOL     OW 2758   5.930   2.766   0.893
  620SOL    HW1 2759   5.897   2.719   0.975
  620SOL    HW2 2760   5.982   2.847   0.920
  621SOL     OW 2761   1.551   0.073   5.165
  621SOL    HW1 2762   1.620   0.038   5.103
  621SOL    HW2 2763   1.570   0.169   5.186
  622SOL     OW 2764   0.354   1.660   5.320
  622SOL    HW1 2765   0.289   1.715   5.372
  622SOL    HW2 2766   0.305   1.603   5.255
  623SOL     OW 2767   0.559   6.885   5.047
  623SOL    HW1 2768   0.471   6.923   5.016
  623SOL    HW2 2769   0.549   6.849   5.140
  624SOL     OW 2770   6.422   0.964   0.195
  624SOL    HW1 2771   6.328   0.982   0.223
  624SOL    HW2 2772   6.472   0.922   0.272
  625SOL     OW 2773   1.607   2.124   0.931
  625SOL    HW1 2774   1.685   2.109   0.869
  625SOL    HW2 2775   1.581   2.037   0.972
  626SOL     OW 2776   0.614   6.009   2.677
  626SOL    HW1 2777   0.647   5.921   2.710
  626SOL    HW2 2778   0.539   5.995   2.612
  627SOL     OW 2779   6.566   6.473   0.771
  627SOL    HW1 2780   6.552   6.407   0.696
  627SOL    HW2 2781   6.650   6.525   0.754
  628SOL     OW 2782   5.819   3.724   5.194
  628SOL    HW1 2783   5.898   3.785   5.190
  628SOL    HW2 2784   5.800   3.700   5.289
  629SOL     OW 2785   0.892   1.218   6.841
  629SOL    HW1 2786   0.810   1.221   6.783
  629SOL    HW2 2787   0.925   1.123   6.847
  630SOL     OW 2788   0.548   2.667   0.825
  630SOL    HW1 2789   0.584   2.576   0.803
  630SOL    HW2 2790   0.598   2.736   0.772
  631SOL     OW 2791   3.793   1.345   4.472
  631SOL    HW1 2792   3.725   1.418   4.475
  631SOL    HW2 2793   3.853   1.353   4.552
  632SOL     OW 2794   4.550   2.428   0.412
  632SOL    HW1 2795   4.629   2.421   0.474
  632SOL    HW2 2796   4.495   2.507   0.438
  633SOL     OW 2797   3.488   4.415   6.706
  633SOL    HW1 2798   3.479   4.460   6.618
  633SOL    HW2 2799   3.488   4.316   6.694
  634SOL     OW 2800   3.559   3.157   2.864
  634SOL    HW1 2801   3.541   3.107   2.949
  634SOL    HW2 2802   3.490   3.228   2.853
  635SOL     OW 2803   4.718   6.863   0.371
  635SOL    HW1 2804   4.752   6.870   0.465
  635SOL    HW2 2805   4.719   6.767   0.343
  636SOL     OW 2806   2.846   0.087   6.016
  636SOL    HW1 2807   2.908   0.163   6.034
  636SOL    HW2 2808   2.833   0.076   5.918
  637SOL     OW 2809   6.442   2.736   2.485
  637SOL    HW1 2810   6.539   2.762   2.489
  637SOL    HW2 2811   6.402   2.771   2.400
  638SOL     OW 2812   5.849   4.040   3.891
  638SOL    HW1 2813   5.840   4.122   3.947
  638SOL    HW2 2814   5.875   4.066   3.798
  639SOL     OW 2815   5.350   4.413   3.524
  639SOL    HW1 2816   5.370   4.416   3.426
  639SOL    HW2 2817   5.312   4.324   3.549
  640SOL     OW 2818   6.714   4.831   3.315
  640SOL    HW1 2819   6.735   4.751   3.371
  640SOL    HW2 2820   6.644   4.807   3.248
  641SOL     OW 2821   0.774   4.879   4.784
  641SOL    HW1 2822   0.836   4.922   4.849
  641SOL    HW2 2823   0.793   4.913   4.692
  642SOL     OW 2824   1.286   2.865   4.819
  642SOL    HW1 2825   1.285   2.964   4.802
  642SOL    HW2 2826   1.203   2.824   4.782
  643SOL     OW 2827   6.105   0.345   6.258
  643SOL    HW1 2828   6.113   0.309   6.351
  643SOL    HW2 2829   6.186   0.319   6.205
  644SOL     OW 2830   1.657   0.615   4.403
  644SOL    HW1 2831   1.697   0.583   4.488
  644SOL    HW2 2832   1.576   0.560   4.381
  645SOL     OW 2833   3.125   5.610   4.489
  645SOL    HW1 2834   3.058   5.658   4.546
  645SOL    HW2 2835   3.172   5.541   4.543
  646SOL     OW 2836   3.898   0.331   4.457
  646SOL    HW1 2837   3.994   0.341   4.433
  646SOL    HW2 2838   3.888   0.330   4.557
  647SOL     OW 2839   5.621   1.787   4.799
  647SOL    HW1 2840   5.627   1.807   4.896
  647SOL    HW2 2841   5.655   1.866   4.747
  648SOL     OW 2842   7.000   4.297   3.663
  648SOL    HW1 2843   6.901   4.286   3.657
  648SOL    HW2 2844   0.024   4.243   3.591
  649SOL     OW 2845   2.297   3.636   0.762
  649SOL    HW1 2846   2.364   3.665   0.831
  649SOL    HW2 2847   2.208   3.623   0.805
  650SOL     OW 2848   6.478   5.117   0.434
  650SOL    HW1 2849   6.381   5.091   0.433
  650SOL    HW2 2850   6.494   5.189   0.368
  651SOL     OW 2851   1.700   0.605   5.343
  651SOL    HW1 2852   1.751   0.684   5.309
  651SOL    HW2 2853   1.625   0.637   5.401
  652SOL     OW 2854   4.461   6.912   2.822
  652SOL    HW1 2855   4.482   6.833   2.765
  652SOL    HW2 2856   4.521   6.988   2.797
  653SOL     OW 2857   0.680   6.246   0.224
  653SOL    HW1 2858   0.679   6.146   0.232
  653SOL    HW2 2859   0.752   6.283   0.284
  654SOL     OW 2860   0.164   6.539   6.162
  654SOL    HW1 2861   0.233   6.472   6.191
  654SOL    HW2 2862   0.168   6.619   6.222
  655SOL     OW 2863   6.665   5.529   2.126
  655SOL    HW1 2864   6.737   5.466   2.156
  655SOL    HW2 2865   6.692   5.623   2.148
  656SOL     OW 2866   1.772   6.407   6.767
  656SOL    HW1 2867   1.820   6.446   6.845
  656SOL    HW2 2868   1.675   6.393   6.791
  657SOL     OW 2869   3.217   4.190   0.908
  657SOL    HW1 2870   3.219   4.105   0.962
  657SOL    HW2 2871   3.282   4.255   0.946
  658SOL     OW 2872   1.299   4.004   5.343
  658SOL    HW1 2873   1.202   4.026   5.335
  658SOL    HW2 2874   1.327   3.948   5.265
  659SOL     OW 2875   2.897   6.126   4.597
  659SOL    HW1 2876   2.994   6.103   4.599
  659SOL    HW2 2877   2.863   6.118   4.503
  660SOL     OW 2878   4.694   4.718   2.929
  660SOL    HW1 2879   4.689   4.684   3.023
  660SOL    HW2 2880   4.603   4.718   2.888
  661SOL     OW 2881   4.773   4.064   4.735
  661SOL    HW1 2882   4.810   4.050   4.644
  661SOL    HW2 2883   4.768   3.977   4.783
  662SOL     OW 2884   4.492   1.041   5.438
  662SOL    HW1 2885   4.421   1.000   5.496
  662SOL    HW2 2886   4.582   1.016   5.473
  663SOL     OW 2887   0.395   4.597   0.195
  663SOL    HW1 2888   0.394   4.509   0.147
  663SOL    HW2 2889   0.435   4.667   0.135
  664SOL     OW 2890   1.722   5.497   6.722
  664SOL    HW1 2891   1.715   5.505   6.623
  664SOL    HW2 2892   1.781   5.571   6.757
  665SOL     OW 2893   4.058   5.206   0.931
  665SOL    HW1 2894   4.148   5.241   0.954
  665SOL    HW2 2895   3.990   5.244   0.993
  666SOL     OW 2896   4.426   2.342   0.979
  666SOL    HW1 2897   4.369   2.410   1.025
  666SOL    HW2 2898   4.385   2.320   0.890
  667SOL     OW 2899   0.362   3.987   3.630
  667SOL    HW1 2900   0.321   3.963   3.718
  667SOL    HW2 2901   0.434   3.922   3.607
  668SOL     OW 2902   4.830   5.948   6.881
  668SOL    HW1 2903   4.790   5.880   6.820
  668SOL    HW2 2904   4.919   5.916   6.914
  669SOL     OW 2905   2.722   5.954   3.139
  669SOL    HW1 2906   2.765   6.023   3.196
  669SOL    HW2 2907   2.751   5.966   3.044
  670SOL     OW 2908   3.248   3.261   2.124
  670SOL    HW1 2909   3.233   3.185   2.062
  670SOL    HW2 2910   3.162   3.311   2.137
  671SOL     OW 2911   2.487   6.089   6.589
  671SOL    HW1 2912   2.432   6.077   6.672
  671SOL    HW2 2913   2.579   6.054   6.604
  672SOL     OW 2914   0.957   4.592   2.178
  672SOL    HW1 2915   0.991   4.605   2.271
  672SOL    HW2 2916   0.963   4.495   2.154
  673SOL     OW 2917   4.959   0.369   1.269
  673SOL    HW1 2918   5.051   0.331   1.261
  673SOL    HW2 2919   4.892   0.299   1.243
  674SOL     OW 2920   6.673   3.098   4.116
  674SOL    HW1 2921   6.635   3.016   4.160
  674SOL    HW2 2922   6.713   3.073   4.028
  675SOL     OW 2923   0.306   1.450   5.128
  675SOL    HW1 2924   0.283   1.373   5.188
  675SOL    HW2 2925   0.353   1.416   5.047
  676SOL     OW 2926   2.822   5.049   3.201
  676SOL    HW1 2927   2.851   4.954   3.188
  676SOL    HW2 2928   2.878   5.091   3.272
  677SOL     OW 2929   6.053   1.429   6.532
  677SOL    HW1 2930   6.038   1.352   6.593
  677SOL    HW2 2931   6.037   1.515   6.581
  678SOL     OW 2932   1.828   1.528   5.207
  678SOL    HW1 2933   1.916   1.488   5.233
  678SOL    HW2 2934   1.804   1.498   5.115
  679SOL     OW 2935   5.055   1.190   4.413
  679SOL    HW1 2936   5.127   1.215   4.347
  679SOL    HW2 2937   5.091   1.125   4.479
  680SOL     OW 2938   6.067   5.007   5.963
  680SOL    HW1 2939   6.038   4.925   6.012
  680SOL    HW2 2940   6.166   5.018   5.971
  681SOL     OW 2941   6.442   0.199   0.763
  681SOL    HW1 2942   6.438   0.156   0.673
  681SOL    HW2 2943   6.442   0.129   0.834
  682SOL     OW 2944   1.802   6.467   6.501
  682SOL    HW1 2945   1.852   6.553   6.492
  682SOL    HW2 2946   1.805   6.437   6.596
  683SOL     OW 2947   3.482   0.890   6.009
  683SOL    HW1 2948   3.424   0.905   6.089
  683SOL    HW2 2949   3.427   0.853   5.934
  684SOL     OW 2950   6.286   1.390   6.363
  684SOL    HW1 2951   6.290   1.448   6.282
  684SOL    HW2 2952   6.197   1.403   6.408
  685SOL     OW 2953   5.346   6.569   5.382
  685SOL    HW1 2954   5.285   6.590   5.458
  685SOL    HW2 2955   5.428   6.524   5.416
  686SOL     OW 2956   5.370   3.312   2.833
  686SOL    HW1 2957   5.368   3.406   2.798
  686SOL    HW2 2958   5.400   3.250   2.760
  687SOL     OW 2959   6.853   2.840   5.353
  687SOL    HW1 2960   6.892   2.755   5.387
  687SOL    HW2 2961   6.775   2.820   5.293
  688SOL     OW 2962   1.386   3.896   0.494
  688SOL    HW1 2963   1.366   3.809   0.539
  688SOL    HW2 2964   1.390   3.882   0.395
  689SOL     OW 2965   0.726   4.255   5.301
  689SOL    HW1 2966   0.717   4.245   5.400
  689SOL    HW2 2967   0.780   4.337   5.281
  690SOL     OW 2968   0.432   3.267   3.352
  690SOL    HW1 2969   0.336   3.295   3.355
  690SOL    HW2 2970   0.456   3.218   3.436
  691SOL     OW 2971   2.163   1.963   6.669
  691SOL    HW1 2972   2.151   2.043   6.611
  691SOL    HW2 2973   2.146   1.880   6.615
  692SOL     OW 2974   3.507   6.239   3.905
  692SOL    HW1 2975   3.412   6.214   3.887
  692SOL    HW2 2976   3.525   6.331   3.870
  693SOL     OW 2977   6.376   1.363   3.288
  693SOL    HW1 2978   6.326   1.375   3.374
  693SOL    HW2 2979   6.467   1.402   3.297
  694SOL     OW 2980   3.210   5.911   2.300
  694SOL    HW1 2981   3.303   5.946   2.308
  694SOL    HW2 2982   3.146   5.987   2.290
  695SOL     OW 2983   4.681   4.757   6.195
  695SOL    HW1 2984   4.697   4.854   6.211
  695SOL    HW2 2985   4.744   4.703   6.251
  696SOL     OW 2986   3.493   5.147   1.686
  696SOL    HW1 2987   3.461   5.238   1.713
  696SOL    HW2 2988   3.516   5.094   1.768
  697SOL     OW 2989   1.506   2.469   5.230
  697SOL    HW1 2990   1.460   2.396   5.280
  697SOL    HW2 2991   1.506   2.447   5.132
  698SOL     OW 2992   5.635   0.494   5.832
  698SOL    HW1 2993   5.631   0.591   5.809
  698SOL    HW2 2994   5.624   0.439   5.749
  699SOL     OW 2995   0.607   4.341   0.216
  699SOL    HW1 2996   0.688   4.393   0.242
  699SOL    HW2 2997   0.564   4.304   0.298
  700SOL     OW 2998   3.344   1.742   4.028
  700SOL    HW1 2999   3.414   1.686   4.073
  700SOL    HW2 3000   3.272   1.683   3.992
  701SOL     OW 3001   0.159   4.253   5.633
  701SOL    HW1 3002   0.114   4.341   5.621
  701SOL    HW2 3003   0.159   4.229   5.730
  702SOL     OW 3004   5.824   6.085   5.898
  702SOL    HW1 3005   5.757   6.119   5.963
  702SOL    HW2 3006   5.828   5.985   5.903
  703SOL     OW 3007   4.313   3.805   6.413
  703SOL    HW1 3008   4.335   3.761   6.500
  703SOL    HW2 3009   4.217   3.831   6.412
  704SOL     OW 3010   1.788   1.484   6.418
  704SOL    HW1 3011   1.729   1.540   6.476
  704SOL    HW2 3012   1.883   1.515   6.428
  705SOL     OW 3013   5.173   6.870   3.576
  705SOL    HW1 3014   5.238   6.805   3.539
  705SOL    HW2 3015   5.110   6.823   3.639
  706SOL     OW 3016   4.014   2.115   3.475
  706SOL    HW1 3017   3.956   2.085   3.550
  706SOL    HW2 3018   4.089   2.171   3.511
  707SOL     OW 3019   4.333   0.246   2.844
  707SOL    HW1 3020   4.254   0.204   2.800
  707SOL    HW2 3021   4.314   0.343   2.861
  708SOL     OW 3022   4.533   0.435   1.390
  708SOL    HW1 3023   4.612   0.381   1.416
  708SOL    HW2 3024   4.505   0.493   1.466
  709SOL     OW 3025   1.282   5.599   0.553
  709SOL    HW1 3026   1.318   5.536   0.484
  709SOL    HW2 3027   1.347   5.608   0.628
  710SOL     OW 3028   3.964   3.051   2.584
  710SOL    HW1 3029   3.866   3.041   2.599
  710SOL    HW2 3030   4.014   3.020   2.664
  711SOL     OW 3031   0.903   1.937   6.292
  711SOL    HW1 3032   0.900   1.993   6.375
  711SOL    HW2 3033   0.999   1.924   6.265
  712SOL     OW 3034   2.158   4.271   0.649
  712SOL    HW1 3035   2.197   4.179   0.657
  712SOL    HW2 3036   2.231   4.339   0.654
  713SOL     OW 3037   3.276   3.451   0.185
  713SOL    HW1 3038   3.354   3.398   0.151
  713SOL    HW2 3039   3.309   3.536   0.227
  714SOL     OW 3040   6.874   4.970   4.720
  714SOL    HW1 3041   6.785   4.976   4.764
  714SOL    HW2 3042   6.910   5.062   4.704
  715SOL     OW 3043   4.968   6.261   1.058
  715SOL    HW1 3044   4.930   6.239   0.968
  715SOL    HW2 3045   4.979   6.178   1.111
  716SOL     OW 3046   0.792   6.726   0.531
  716SOL    HW1 3047   0.810   6.820   0.559
  716SOL    HW2 3048   0.874   6.671   0.544
  717SOL     OW 3049   5.599   5.244   6.155
  717SOL    HW1 3050   5.562   5.311   6.092
  717SOL    HW2 3051   5.566   5.263   6.248
  718SOL     OW 3052   4.599   2.287   5.561
  718SOL    HW1 3053   4.664   2.291   5.485
  718SOL    HW2 3054   4.634   2.341   5.638
  719SOL     OW 3055   6.436   2.373   1.110
  719SOL    HW1 3056   6.516   2.433   1.118
  719SOL    HW2 3057   6.363   2.408   1.168
  720SOL     OW 3058   3.763   0.830   6.079
  720SOL    HW1 3059   3.789   0.738   6.047
  720SOL    HW2 3060   3.676   0.857   6.038
  721SOL     OW 3061   1.638   0.221   4.502
  721SOL    HW1 3062   1.697   0.170   4.438
  721SOL    HW2 3063   1.695   0.272   4.566
  722SOL     OW 3064   2.948   7.001   5.483
  722SOL    HW1 3065   2.909   6.997   5.391
  722SOL    HW2 3066   2.956   0.077   5.513
  723SOL     OW 3067   2.068   3.312   2.932
  723SOL    HW1 3068   2.126   3.393   2.937
  723SOL    HW2 3069   2.097   3.254   2.856
  724SOL     OW 3070   1.112   1.585   4.261
  724SOL    HW1 3071   1.045   1.538   4.204
  724SOL    HW2 3072   1.178   1.633   4.203
  725SOL     OW 3073   3.150   5.214   1.557
  725SOL    HW1 3074   3.122   5.310   1.562
  725SOL    HW2 3075   3.245   5.208   1.525
  726SOL     OW 3076   3.741   4.215   1.142
  726SOL    HW1 3077   3.829   4.175   1.114
  726SOL    HW2 3078   3.744   4.237   1.240
  727SOL     OW 3079   4.844   5.604   5.714
  727SOL    HW1 3080   4.852   5.699   5.685
  727SOL    HW2 3081   4.748   5.577   5.715
  728SOL     OW 3082   0.552   3.594   5.258
  728SOL    HW1 3083   0.454   3.606   5.238
  728SOL    HW2 3084   0.578   3.499   5.242
  729SOL     OW 3085   2.341   1.097   0.400
  729SOL    HW1 3086   2.320   1.076   0.495
  729SOL    HW2 3087   2.390   1.020   0.359
  730SOL     OW 3088   5.553   0.171   3.528
  730SOL    HW1 3089   5.530   0.162   3.431
  730SOL    HW2 3090   5.565   0.267   3.550
  731SOL     OW 3091   6.290   3.577   5.752
  731SOL    HW1 3092   6.218   3.640   5.782
  731SOL    HW2 3093   6.252   3.511   5.688
  732SOL     OW 3094   0.350   3.545   1.001
  732SOL    HW1 3095   0.439   3.512   1.033
  732SOL    HW2 3096   0.326   3.629   1.050
  733SOL     OW 3097   5.749   4.239   5.385
  733SOL    HW1 3098   5.722   4.143   5.388
  733SOL    HW2 3099   5.811   4.254   5.308
  734SOL     OW 3100   6.517   4.747   2.689
  734SOL    HW1 3101   6.471   4.659   2.679
  734SOL    HW2 3102   6.512   4.798   2.604
  735SOL     OW 3103   3.564   3.100   1.069
  735SOL    HW1 3104   3.487   3.037   1.064
  735SOL    HW2 3105   3.585   3.120   1.165
  736SOL     OW 3106   6.090   6.116   2.460
  736SOL    HW1 3107   6.115   6.127   2.556
  736SOL    HW2 3108   6.114   6.023   2.431
  737SOL     OW 3109   4.110   2.450   6.537
  737SOL    HW1 3110   4.126   2.356   6.566
  737SOL    HW2 3111   4.024   2.456   6.486
  738SOL     OW 3112   2.181   4.349   2.432
  738SOL    HW1 3113   2.264   4.391   2.468
  738SOL    HW2 3114   2.204   4.265   2.384
  739SOL     OW 3115   4.535   6.348   5.287
  739SOL    HW1 3116   4.618   6.339   5.343
  739SOL    HW2 3117   4.532   6.440   5.247
  740SOL     OW 3118   5.177   6.877   0.564
  740SOL    HW1 3119   5.106   6.807   0.575
  740SOL    HW2 3120   5.137   6.967   0.578
  741SOL     OW 3121   2.006   6.237   3.105
  741SOL    HW1 3122   1.924   6.204   3.151
  741SOL    HW2 3123   2.015   6.336   3.119
  742SOL     OW 3124   2.314   6.449   1.647
  742SOL    HW1 3125   2.314   6.423   1.550
  742SOL    HW2 3126   2.380   6.523   1.662
  743SOL     OW 3127   1.485   3.962   4.267
  743SOL    HW1 3128   1.503   3.933   4.360
  743SOL    HW2 3129   1.485   3.883   4.206
  744SOL     OW 3130   6.136   0.187   6.504
  744SOL    HW1 3131   6.083   0.117   6.457
  744SOL    HW2 3132   6.186   0.145   6.581
  745SOL     OW 3133   0.544   5.034   4.694
  745SOL    HW1 3134   0.527   5.055   4.598
  745SOL    HW2 3135   0.613   4.962   4.700
  746SOL     OW 3136   0.788   5.738   5.977
  746SOL    HW1 3137   0.838   5.760   6.061
  746SOL    HW2 3138   0.757   5.822   5.933
  747SOL     OW 3139   4.657   5.481   5.099
  747SOL    HW1 3140   4.595   5.552   5.067
  747SOL    HW2 3141   4.607   5.416   5.155
  748SOL     OW 3142   3.635   5.558   3.059
  748SOL    HW1 3143   3.690   5.589   3.137
  748SOL    HW2 3144   3.575   5.633   3.029
  749SOL     OW 3145   6.522   3.589   4.584
  749SOL    HW1 3146   6.423   3.582   4.595
  749SOL    HW2 3147   6.559   3.646   4.657
  750SOL     OW 3148   2.077   3.451   0.894
  750SOL    HW1 3149   2.083   3.514   0.972
  750SOL    HW2 3150   2.017   3.375   0.917
  751SOL     OW 3151   3.908   1.740   6.135
  751SOL    HW1 3152   3.946   1.806   6.200
  751SOL    HW2 3153   3.978   1.674   6.109
  752SOL     OW 3154   4.363   2.521   1.737
  752SOL    HW1 3155   4.334   2.609   1.700
  752SOL    HW2 3156   4.369   2.454   1.662
  753SOL     OW 3157   1.831   2.947   4.271
  753SOL    HW1 3158   1.843   2.925   4.368
  753SOL    HW2 3159   1.829   3.046   4.259
  754SOL     OW 3160   5.658   3.042   6.720
  754SOL    HW1 3161   5.676   3.115   6.653
  754SOL    HW2 3162   5.740   3.028   6.775
  755SOL     OW 3163   1.597   5.455   6.083
  755SOL    HW1 3164   1.644   5.383   6.134
  755SOL    HW2 3165   1.596   5.539   6.137
  756SOL     OW 3166   3.938   6.666   1.284
  756SOL    HW1 3167   3.955   6.713   1.197
  756SOL    HW2 3168   3.859   6.707   1.330
  757SOL     OW 3169   0.272   6.235   3.103
  757SOL    HW1 3170   0.191   6.177   3.090
  757SOL    HW2 3171   0.344   6.206   3.040
  758SOL     OW 3172   4.062   0.888   1.740
  758SOL    HW1 3173   4.090   0.804   1.694
  758SOL    HW2 3174   4.144   0.937   1.771
  759SOL     OW 3175   0.541   0.723   0.631
  759SOL    HW1 3176   0.540   0.691   0.536
  759SOL    HW2 3177   0.531   0.823   0.632
  760SOL     OW 3178   4.454   0.521   6.090
  760SOL    HW1 3179   4.547   0.542   6.059
  760SOL    HW2 3180   4.457   0.484   6.183
  761SOL     OW 3181   5.791   3.777   5.485
  761SOL    HW1 3182   5.889   3.797   5.487
  761SOL    HW2 3183   5.768   3.713   5.558
  762SOL     OW 3184   2.220   6.756   4.714
  762SOL    HW1 3185   2.135   6.709   4.690
  762SOL    HW2 3186   2.213   6.792   4.807
  763SOL     OW 3187   3.710   4.982   6.530
  763SOL    HW1 3188   3.808   4.974   6.514
  763SOL    HW2 3189   3.668   4.892   6.519
  764SOL     OW 3190   4.428   0.364   3.432
  764SOL    HW1 3191   4.335   0.376   3.398
  764SOL    HW2 3192   4.428   0.365   3.532
  765SOL     OW 3193   1.336   6.819   1.148
  765SOL    HW1 3194   1.398   6.740   1.145
  765SOL    HW2 3195   1.241   6.786   1.151
  766SOL     OW 3196   0.785   2.445   0.876
  766SOL    HW1 3197   0.854   2.503   0.833
  766SOL    HW2 3198   0.764   2.481   0.967
  767SOL     OW 3199   6.184   5.633   2.794
  767SOL    HW1 3200   6.139   5.637   2.705
  767SOL    HW2 3201   6.117   5.608   2.864
  768SOL     OW 3202   2.740   6.642   2.029
  768SOL    HW1 3203   2.715   6.569   2.094
  768SOL    HW2 3204   2.744   6.729   2.078
  769SOL     OW 3205   3.425   0.448   4.469
  769SOL    HW1 3206   3.493   0.519   4.450
  769SOL    HW2 3207   3.333   0.485   4.454
  770SOL     OW 3208   1.700   4.447   2.937
  770SOL    HW1 3209   1.694   4.421   2.841
  770SOL    HW2 3210   1.779   4.507   2.951
  771SOL     OW 3211   2.487   5.574   2.572
  771SOL    HW1 3212   2.482   5.664   2.528
  771SOL    HW2 3213   2.405   5.521   2.549
  772SOL     OW 3214   6.699   5.184   0.588
  772SOL    HW1 3215   6.619   5.157   0.534
  772SOL    HW2 3216   6.733   5.272   0.555
  773SOL     OW 3217   0.138   4.034   3.221
  773SOL    HW1 3218   0.125   4.132   3.206
  773SOL    HW2 3219   0.102   4.010   3.311
  774SOL     OW 3220   0.962   1.203   2.655
  774SOL    HW1 3221   0.944   1.162   2.744
  774SOL    HW2 3222   1.040   1.266   2.662
  775SOL     OW 3223   0.841   1.818   3.198
  775SOL    HW1 3224   0.765   1.817   3.133
  775SOL    HW2 3225   0.843   1.907   3.244
  776SOL     OW 3226   6.653   1.142   5.580
  776SOL    HW1 3227   6.559   1.163   5.606
  776SOL    HW2 3228   6.715   1.201   5.632
  777SOL     OW 3229   3.352   5.834   0.834
  777SOL    HW1 3230   3.440   5.859   0.873
  777SOL    HW2 3231   3.288   5.911   0.843
  778SOL     OW 3232   3.423   1.451   3.127
  778SOL    HW1 3233   3.324   1.458   3.142
  778SOL    HW2 3234   3.441   1.448   3.029
  779SOL     OW 3235   0.583   2.093   2.474
  779SOL    HW1 3236   0.666   2.061   2.429
  779SOL    HW2 3237   0.523   2.138   2.408
  780SOL     OW 3238   6.556   3.776   4.182
  780SOL    HW1 3239   6.479   3.722   4.146
  780SOL    HW2 3240   6.598   3.727   4.258
  781SOL     OW 3241   5.245   1.953   6.535
  781SOL    HW1 3242   5.244   1.940   6.634
  781SOL    HW2 3243   5.318   1.896   6.495
  782SOL     OW 3244   0.562   3.739   0.074
  782SOL    HW1 3245   0.660   3.759   0.074
  782SOL    HW2 3246   0.548   3.646   0.107
  783SOL     OW 3247   3.861   4.877   1.096
  783SOL    HW1 3248   3.824   4.784   1.097
  783SOL    HW2 3249   3.830   4.925   1.178
  784SOL     OW 3250   5.370   6.666   6.411
  784SOL    HW1 3251   5.351   6.764   6.402
  784SOL    HW2 3252   5.284   6.617   6.424
  785SOL     OW 3253   6.321   2.388   3.136
  785SOL    HW1 3254   6.298   2.394   3.039
  785SOL    HW2 3255   6.414   2.424   3.151
  786SOL     OW 3256   1.638   1.487   1.350
  786SOL    HW1 3257   1.661   1.533   1.436
  786SOL    HW2 3258   1.694   1.405   1.340
  787SOL     OW 3259   3.179   1.197   6.459
  787SOL    HW1 3260   3.162   1.295   6.475
  787SOL    HW2 3261   3.107   1.144   6.503
  788SOL     OW 3262   2.826   1.885   5.033
  788SOL    HW1 3263   2.892   1.949   5.074
  788SOL    HW2 3264   2.733   1.914   5.058
  789SOL     OW 3265   5.161   3.839   0.633
  789SOL    HW1 3266   5.226   3.784   0.580
  789SOL    HW2 3267   5.191   3.845   0.728
  790SOL     OW 3268   2.799   0.782   3.965
  790SOL    HW1 3269   2.746   0.784   3.880
  790SOL    HW2 3270   2.794   0.873   4.008
  791SOL     OW 3271   3.373   6.327   3.067
  791SOL    HW1 3272   3.307   6.375   3.124
  791SOL    HW2 3273   3.335   6.240   3.037
  792SOL     OW 3274   0.433   0.242   1.654
  792SOL    HW1 3275   0.434   0.201   1.562
  792SOL    HW2 3276   0.352   0.300   1.663
  793SOL     OW 3277   4.363   6.166   2.731
  793SOL    HW1 3278   4.429   6.239   2.714
  793SOL    HW2 3279   4.341   6.121   2.645
  794SOL     OW 3280   3.027   3.372   4.732
  794SOL    HW1 3281   3.124   3.391   4.750
  794SOL    HW2 3282   2.997   3.295   4.789
  795SOL     OW 3283   3.401   5.803   4.981
  795SOL    HW1 3284   3.423   5.897   5.008
  795SOL    HW2 3285   3.443   5.740   5.046
  796SOL     OW 3286   1.089   2.031   6.507
  796SOL    HW1 3287   1.184   2.031   6.478
  796SOL    HW2 3288   1.049   2.121   6.491
  797SOL     OW 3289   4.931   2.474   2.395
  797SOL    HW1 3290   4.906   2.480   2.299
  797SOL    HW2 3291   4.981   2.389   2.411
  798SOL     OW 3292   5.018   6.854   1.452
  798SOL    HW1 3293   4.980   6.762   1.459
  798SOL    HW2 3294   5.005   6.902   1.539
  799SOL     OW 3295   6.198   1.584   4.154
  799SOL    HW1 3296   6.183   1.683   4.149
  799SOL    HW2 3297   6.267   1.564   4.224
  800SOL     OW 3298   5.416   1.017   2.358
  800SOL    HW1 3299   5.507   1.058   2.363
  800SOL    HW2 3300   5.405   0.971   2.270
  801SOL     OW 3301   1.768   3.112   3.610
  801SOL    HW1 3302   1.696   3.176   3.637
  801SOL    HW2 3303   1.806   3.141   3.522
  802SOL     OW 3304   4.180   0.480   0.855
  802SOL    HW1 3305   4.095   0.511   0.898
  802SOL    HW2 3306   4.159   0.447   0.763
  803SOL     OW 3307   0.489   5.436   4.796
  803SOL    HW1 3308   0.506   5.347   4.837
  803SOL    HW2 3309   0.572   5.467   4.748
  804SOL     OW 3310   6.202   5.980   6.693
  804SOL    HW1 3311   6.278   5.992   6.628
  804SOL    HW2 3312   6.161   5.890   6.680
  805SOL     OW 3313   3.346   1.826   5.496
  805SOL    HW1 3314   3.408   1.904   5.506
  805SOL    HW2 3315   3.264   1.855   5.446
  806SOL     OW 3316   4.768   0.612   4.514
  806SOL    HW1 3317   4.801   0.523   4.543
  806SOL    HW2 3318   4.668   0.610   4.507
  807SOL     OW 3319   0.498   1.974   4.227
  807SOL    HW1 3320   0.505   1.967   4.327
  807SOL    HW2 3321   0.418   1.924   4.195
  808SOL     OW 3322   4.678   3.560   6.369
  808SOL    HW1 3323   4.754   3.538   6.430
  808SOL    HW2 3324   4.596   3.510   6.397
  809SOL     OW 3325   0.667   4.805   1.342
  809SOL    HW1 3326   0.709   4.895   1.341
  809SOL    HW2 3327   0.582   4.807   1.290
  810SOL     OW 3328   3.636   2.626   1.081
  810SOL    HW1 3329   3.685   2.600   1.164
  810SOL    HW2 3330   3.614   2.543   1.028
  811SOL     OW 3331   4.060   5.594   4.241
  811SOL    HW1 3332   4.043   5.595   4.339
  811SOL    HW2 3333   4.157   5.613   4.223
  812SOL     OW 3334   0.972   1.500   1.732
  812SOL    HW1 3335   1.047   1.444   1.696
  812SOL    HW2 3336   0.886   1.473   1.689
  813SOL     OW 3337   3.933   5.079   4.692
  813SOL    HW1 3338   3.960   5.042   4.781
  813SOL    HW2 3339   3.878   5.011   4.644
  814SOL     OW 3340   5.587   6.310   3.418
  814SOL    HW1 3341   5.609   6.261   3.502
  814SOL    HW2 3342   5.623   6.260   3.339
  815SOL     OW 3343   6.950   3.186   3.061
  815SOL    HW1 3344   6.949   3.206   2.963
  815SOL    HW2 3345   6.866   3.221   3.102
  816SOL     OW 3346   6.853   6.819   0.365
  816SOL    HW1 3347   6.948   6.834   0.394
  816SOL    HW2 3348   6.816   6.739   0.411
  817SOL     OW 3349   2.415   4.056   1.573
  817SOL    HW1 3350   2.442   4.041   1.478
  817SOL    HW2 3351   2.347   3.987   1.599
  818SOL     OW 3352   6.161   3.084   1.563
  818SOL    HW1 3353   6.225   3.054   1.633
  818SOL    HW2 3354   6.109   3.163   1.597
  819SOL     OW 3355   5.517   3.322   3.399
  819SOL    HW1 3356   5.602   3.270   3.412
  819SOL    HW2 3357   5.539   3.415   3.368
  820SOL     OW 3358   2.433   2.740   6.680
  820SOL    HW1 3359   2.346   2.778   6.646
  820SOL    HW2 3360   2.503   2.811   6.677
  821SOL     OW 3361   2.224   4.584   0.905
  821SOL    HW1 3362   2.169   4.504   0.930
  821SOL    HW2 3363   2.175   4.637   0.836
  822SOL     OW 3364   1.058   4.706   4.891
  822SOL    HW1 3365   1.043   4.708   4.792
  822SOL    HW2 3366   1.142   4.755   4.913
  823SOL     OW 3367   4.967   4.346   6.881
  823SOL    HW1 3368   4.970   4.388   6.972
  823SOL    HW2 3369   4.897   4.275   6.880
  824SOL     OW 3370   5.262   1.028   5.310
  824SOL    HW1 3371   5.361   1.042   5.306
  824SOL    HW2 3372   5.223   1.090   5.378
  825SOL     OW 3373   1.381   3.678   1.496
  825SOL    HW1 3374   1.285   3.703   1.511
  825SOL    HW2 3375   1.400   3.677   1.398
  826SOL     OW 3376   5.520   3.301   6.916
  826SOL    HW1 3377   5.573   3.327   6.996
  826SOL    HW2 3378   5.433   3.260   6.946
  827SOL     OW 3379   3.169   5.766   6.099
  827SOL    HW1 3380   3.104   5.707   6.147
  827SOL    HW2 3381   3.151   5.861   6.122
  828SOL     OW 3382   5.881   0.127   6.034
  828SOL    HW1 3383   5.829   0.072   5.969
  828SOL    HW2 3384   5.901   0.216   5.995
  829SOL     OW 3385   3.018   3.937   4.039
  829SOL    HW1 3386   2.940   3.948   4.101
  829SOL    HW2 3387   3.059   3.847   4.052
  830SOL     OW 3388   4.950   4.858   6.539
  830SOL    HW1 3389   5.028   4.867   6.477
  830SOL    HW2 3390   4.967   4.912   6.622
  831SOL     OW 3391   6.472   1.310   5.235
  831SOL    HW1 3392   6.439   1.357   5.318
  831SOL    HW2 3393   6.423   1.346   5.155
  832SOL     OW 3394   2.357   0.928   0.934
  832SOL    HW1 3395   2.376   1.005   0.995
  832SOL    HW2 3396   2.275   0.880   0.966
  833SOL     OW 3397   0.538   4.695   6.024
  833SOL    HW1 3398   0.579   4.605   6.009
  833SOL    HW2 3399   0.556   4.725   6.117
  834SOL     OW 3400   2.953   3.593   1.051
  834SOL    HW1 3401   2.859   3.561   1.061
  834SOL    HW2 3402   3.006   3.565   1.131
  835SOL     OW 3403   3.195   0.259   4.082
  835SOL    HW1 3404   3.237   0.221   4.164
  835SOL    HW2 3405   3.246   0.341   4.054
  836SOL     OW 3406   3.410   6.982   0.084
  836SOL    HW1 3407   3.473   0.005   0.149
  836SOL    HW2 3408   3.341   0.030   0.056
  837SOL     OW 3409   5.456   6.659   0.108
  837SOL    HW1 3410   5.521   6.677   0.034
  837SOL    HW2 3411   5.433   6.745   0.153
  838SOL     OW 3412   1.393   0.404   4.994
  838SOL    HW1 3413   1.359   0.467   4.925
  838SOL    HW2 3414   1.456   0.452   5.055
  839SOL     OW 3415   2.627   2.415   1.976
  839SOL    HW1 3416   2.637   2.451   1.883
  839SOL    HW2 3417   2.709   2.364   2.000
  840SOL     OW 3418   5.993   0.034   6.307
  840SOL    HW1 3419   5.951   6.975   6.261
  840SOL    HW2 3420   6.011   0.106   6.241
  841SOL     OW 3421   5.089   4.848   0.641
  841SOL    HW1 3422   5.071   4.877   0.735
  841SOL    HW2 3423   5.003   4.826   0.596
  842SOL     OW 3424   4.677   5.039   4.383
  842SOL    HW1 3425   4.713   5.114   4.439
  842SOL    HW2 3426   4.583   5.020   4.411
  843SOL     OW 3427   3.983   1.884   6.352
  843SOL    HW1 3428   3.968   1.983   6.344
  843SOL    HW2 3429   4.081   1.865   6.349
  844SOL     OW 3430   4.390   0.036   1.077
  844SOL    HW1 3431   4.341   0.122   1.060
  844SOL    HW2 3432   4.432   0.039   1.168
  845SOL     OW 3433   6.363   3.489   4.864
  845SOL    HW1 3434   6.326   3.525   4.779
  845SOL    HW2 3435   6.304   3.415   4.898
  846SOL     OW 3436   3.993   1.867   0.201
  846SOL    HW1 3437   4.018   1.931   0.128
  846SOL    HW2 3438   4.040   1.781   0.187
  847SOL     OW 3439   0.114   3.798   0.186
  847SOL    HW1 3440   0.064   3.884   0.175
  847SOL    HW2 3441   0.123   3.753   0.097
  848SOL     OW 3442   6.413   1.531   6.568
  848SOL    HW1 3443   6.371   1.484   6.491
  848SOL    HW2 3444   6.501   1.489   6.590
  849SOL     OW 3445   1.176   4.433   5.810
  849SOL    HW1 3446   1.232   4.450   5.891
  849SOL    HW2 3447   1.191   4.339   5.778
  850SOL     OW 3448   5.024   1.432   3.474
  850SOL    HW1 3449   5.037   1.389   3.385
  850SOL    HW2 3450   5.108   1.478   3.501
  851SOL     OW 3451   0.240   1.396   1.520
  851SOL    HW1 3452   0.193   1.484   1.507
  851SOL    HW2 3453   0.234   1.368   1.615
  852SOL     OW 3454   2.122   2.871   0.711
  852SOL    HW1 3455   2.158   2.950   0.760
  852SOL    HW2 3456   2.156   2.872   0.617
  853SOL     OW 3457   1.441   4.156   2.113
  853SOL    HW1 3458   1.476   4.067   2.141
  853SOL    HW2 3459   1.513   4.207   2.065
  854SOL     OW 3460   4.855   5.735   2.390
  854SOL    HW1 3461   4.860   5.645   2.433
  854SOL    HW2 3462   4.944   5.757   2.349
  855SOL     OW 3463   7.003   0.002   0.834
  855SOL    HW1 3464   0.042   0.075   0.869
  855SOL    HW2 3465   0.036   6.964   0.771
  856SOL     OW 3466   1.684   1.870   5.441
  856SOL    HW1 3467   1.596   1.890   5.397
  856SOL    HW2 3468   1.758   1.904   5.383
  857SOL     OW 3469   5.801   4.984   1.321
  857SOL    HW1 3470   5.836   4.961   1.412
  857SOL    HW2 3471   5.721   5.044   1.330
  858SOL     OW 3472   2.270   4.279   1.506
  858SOL    HW1 3473   2.200   4.288   1.577
  858SOL    HW2 3474   2.336   4.209   1.534
  859SOL     OW 3475   5.037   5.159   6.832
  859SOL    HW1 3476   5.038   5.148   6.931
  859SOL    HW2 3477   5.130   5.180   6.800
  860SOL     OW 3478   4.263   4.214   1.084
  860SOL    HW1 3479   4.247   4.252   1.175
  860SOL    HW2 3480   4.296   4.287   1.023
  861SOL     OW 3481   2.469   0.256   4.623
  861SOL    HW1 3482   2.488   0.342   4.672
  861SOL    HW2 3483   2.520   0.182   4.666
  862SOL     OW 3484   6.706   4.872   5.494
  862SOL    HW1 3485   6.720   4.803   5.423
  862SOL    HW2 3486   6.794   4.891   5.539
  863SOL     OW 3487   1.413   0.608   0.618
  863SOL    HW1 3488   1.453   0.670   0.551
  863SOL    HW2 3489   1.331   0.566   0.581
  864SOL     OW 3490   5.003   4.421   3.874
  864SOL    HW1 3491   4.998   4.471   3.960
  864SOL    HW2 3492   5.095   4.427   3.837
  865SOL     OW 3493   1.763   6.287   5.123
  865SOL    HW1 3494   1.703   6.359   5.158
  865SOL    HW2 3495   1.744   6.273   5.026
  866SOL     OW 3496   1.907   2.864   1.063
  866SOL    HW1 3497   1.818   2.876   1.108
  866SOL    HW2 3498   1.980   2.880   1.129
  867SOL     OW 3499   4.048   2.662   1.020
  867SOL    HW1 3500   4.020   2.668   0.924
  867SOL    HW2 3501   3.974   2.697   1.078
  868SOL     OW 3502   5.581   6.198   1.520
  868SOL    HW1 3503   5.487   6.207   1.488
  868SOL    HW2 3504   5.580   6.164   1.614
  869SOL     OW 3505   0.161   5.493   2.909
  869SOL    HW1 3506   0.104   5.556   2.856
  869SOL    HW2 3507   0.102   5.433   2.963
  870SOL     OW 3508   6.088   3.647   0.514
  870SOL    HW1 3509   5.993   3.642   0.547
  870SOL    HW2 3510   6.150   3.629   0.590
  871SOL     OW 3511   6.107   3.352   1.691
  871SOL    HW1 3512   6.057   3.348   1.777
  871SOL    HW2 3513   6.181   3.419   1.697
  872SOL     OW 3514   6.287   4.147   3.985
  872SOL    HW1 3515   6.345   4.154   4.066
  872SOL    HW2 3516   6.280   4.051   3.957
  873SOL     OW 3517   4.871   0.189   3.739
  873SOL    HW1 3518   4.966   0.156   3.745
  873SOL    HW2 3519   4.830   0.156   3.654
  874SOL     OW 3520   1.422   4.198   5.490
  874SOL    HW1 3521   1.462   4.270   5.433
  874SOL    HW2 3522   1.383   4.127   5.432
  875SOL     OW 3523   4.658   3.716   1.157
  875SOL    HW1 3524   4.602   3.762   1.225
  875SOL    HW2 3525   4.705   3.638   1.200
  876SOL     OW 3526   0.268   5.533   3.721
  876SOL    HW1 3527   0.196   5.518   3.654
  876SOL    HW2 3528   0.285   5.631   3.730
  877SOL     OW 3529   3.525   4.794   6.593
  877SOL    HW1 3530   3.585   4.794   6.674
  877SOL    HW2 3531   3.442   4.846   6.613
  878SOL     OW 3532   4.372   6.104   6.235
  878SOL    HW1 3533   4.411   6.192   6.259
  878SOL    HW2 3534   4.445   6.039   6.214
  879SOL     OW 3535   3.593   1.802   2.330
  879SOL    HW1 3536   3.594   1.899   2.306
  879SOL    HW2 3537   3.681   1.761   2.304
  880SOL     OW 3538   3.018   5.100   6.963
  880SOL    HW1 3539   2.952   5.170   6.935
  880SOL    HW2 3540   3.100   5.106   6.906
  881SOL     OW 3541   4.108   4.591   5.287
  881SOL    HW1 3542   4.160   4.523   5.236
  881SOL    HW2 3543   4.058   4.546   5.361
  882SOL     OW 3544   1.719   1.083   3.932
  882SOL    HW1 3545   1.773   1.165   3.911
  882SOL    HW2 3546   1.655   1.066   3.857
  883SOL     OW 3547   4.826   5.331   4.941
  883SOL    HW1 3548   4.771   5.378   5.010
  883SOL    HW2 3549   4.920   5.324   4.972
  884SOL     OW 3550   0.166   3.860   1.961
  884SOL    HW1 3551   0.108   3.876   2.042
  884SOL    HW2 3552   0.251   3.816   1.989
  885SOL     OW 3553   5.509   5.895   6.841
  885SOL    HW1 3554   5.426   5.947   6.861
  885SOL    HW2 3555   5.580   5.958   6.808
  886SOL     OW 3556   4.501   0.824   0.284
  886SOL    HW1 3557   4.439   0.808   0.207
  886SOL    HW2 3558   4.552   0.909   0.269
  887SOL     OW 3559   4.289   6.734   5.265
  887SOL    HW1 3560   4.197   6.762   5.240
  887SOL    HW2 3561   4.321   6.663   5.202
  888SOL     OW 3562   6.253   6.513   3.283
  888SOL    HW1 3563   6.327   6.566   3.325
  888SOL    HW2 3564   6.178   6.501   3.349
  889SOL     OW 3565   0.464   6.746   6.116
  889SOL    HW1 3566   0.396   6.820   6.110
  889SOL    HW2 3567   0.556   6.786   6.121
  890SOL     OW 3568   2.723   4.870   2.006
  890SOL    HW1 3569   2.746   4.773   2.010
  890SOL    HW2 3570   2.804   4.924   2.029
  891SOL     OW 3571   5.379   3.739   1.305
  891SOL    HW1 3572   5.427   3.651   1.302
  891SOL    HW2 3573   5.281   3.722   1.314
  892SOL     OW 3574   3.786   3.992   0.588
  892SOL    HW1 3575   3.821   3.957   0.502
  892SOL    HW2 3576   3.686   3.980   0.591
  893SOL     OW 3577   2.491   1.060   1.509
  893SOL    HW1 3578   2.557   1.100   1.446
  893SOL    HW2 3579   2.505   1.097   1.600
  894SOL     OW 3580   2.085   3.640   4.179
  894SOL    HW1 3581   2.025   3.578   4.230
  894SOL    HW2 3582   2.095   3.726   4.229
  895SOL     OW 3583   2.088   6.361   4.874
  895SOL    HW1 3584   2.134   6.352   4.963
  895SOL    HW2 3585   2.009   6.420   4.883
  896SOL     OW 3586   5.280   5.607   3.008
  896SOL    HW1 3587   5.237   5.519   2.990
  896SOL    HW2 3588   5.236   5.678   2.953
  897SOL     OW 3589   4.815   1.128   0.513
  897SOL    HW1 3590   4.795   1.208   0.456
  897SOL    HW2 3591   4.761   1.132   0.597
  898SOL     OW 3592   4.343   5.988   3.421
  898SOL    HW1 3593   4.345   6.008   3.519
  898SOL    HW2 3594   4.397   5.905   3.403
  899SOL     OW 3595   0.524   5.091   0.117
  899SOL    HW1 3596   0.556   5.112   0.209
  899SOL    HW2 3597   0.427   5.065   0.121
  900SOL     OW 3598   5.297   5.522   1.727
  900SOL    HW1 3599   5.230   5.482   1.790
  900SOL    HW2 3600   5.250   5.569   1.653
  901SOL     OW 3601   6.956   1.558   4.848
  901SOL    HW1 3602   6.918   1.474   4.810
  901SOL    HW2 3603   0.017   1.536   4.903
  902SOL     OW 3604   0.520   1.392   6.416
  902SOL    HW1 3605   0.454   1.454   6.458
  902SOL    HW2 3606   0.525   1.409   6.318
  903SOL     OW 3607   6.560   4.293   6.987
  903SOL    HW1 3608   6.507   4.314   0.050
  903SOL    HW2 3609   6.509   4.322   6.906
  904SOL     OW 3610   1.777   2.312   4.391
  904SOL    HW1 3611   1.690   2.321   4.342
  904SOL    HW2 3612   1.830   2.396   4.382
  905SOL     OW 3613   5.191   2.710   6.549
  905SOL    HW1 3614   5.268   2.766   6.579
  905SOL    HW2 3615   5.129   2.765   6.494
  906SOL     OW 3616   0.722   3.682   6.130
  906SOL    HW1 3617   0.782   3.709   6.206
  906SOL    HW2 3618   0.738   3.742   6.052
  907SOL     OW 3619   5.864   2.991   3.633
  907SOL    HW1 3620   5.956   3.023   3.655
  907SOL    HW2 3621   5.840   3.019   3.540
  908SOL     OW 3622   1.216   6.918   4.246
  908SOL    HW1 3623   1.126   6.947   4.213
  908SOL    HW2 3624   1.250   6.844   4.190
  909SOL     OW 3625   2.435   1.103   1.135
  909SOL    HW1 3626   2.532   1.128   1.136
  909SOL    HW2 3627   2.408   1.071   1.226
  910SOL     OW 3628   2.452   0.722   0.527
  910SOL    HW1 3629   2.386   0.774   0.582
  910SOL    HW2 3630   2.435   0.624   0.539
  911SOL     OW 3631   6.784   5.436   1.308
  911SOL    HW1 3632   6.729   5.455   1.227
  911SOL    HW2 3633   6.826   5.346   1.299
  912SOL     OW 3634   0.013   0.795   5.233
  912SOL    HW1 3635   6.970   0.739   5.288
  912SOL    HW2 3636   6.981   0.868   5.188
  913SOL     OW 3637   2.351   0.762   3.605
  913SOL    HW1 3638   2.352   0.860   3.625
  913SOL    HW2 3639   2.436   0.721   3.639
  914SOL     OW 3640   2.807   5.856   5.603
  914SOL    HW1 3641   2.762   5.770   5.625
  914SOL    HW2 3642   2.745   5.932   5.620
  915SOL     OW 3643   0.575   3.487   1.140
  915SOL    HW1 3644   0.631   3.561   1.102
  915SOL    HW2 3645   0.623   3.401   1.129
  916SOL     OW 3646   1.419   2.315   2.441
  916SOL    HW1 3647   1.387   2.407   2.420
  916SOL    HW2 3648   1.352   2.248   2.407
  917SOL     OW 3649   4.039   0.367   1.523
  917SOL    HW1 3650   4.041   0.372   1.423
  917SOL    HW2 3651   4.131   0.382   1.559
  918SOL     OW 3652   2.869   6.163   0.124
  918SOL    HW1 3653   2.866   6.157   0.025
  918SOL    HW2 3654   2.890   6.256   0.152
  919SOL     OW 3655   1.788   6.481   1.832
  919SOL    HW1 3656   1.853   6.476   1.756
  919SOL    HW2 3657   1.724   6.404   1.827
  920SOL     OW 3658   1.930   0.026   3.211
  920SOL    HW1 3659   1.930   0.029   3.111
  920SOL    HW2 3660   1.847   6.999   3.243
  921SOL     OW 3661   4.895   4.897   4.010
  921SOL    HW1 3662   4.981   4.884   3.960
  921SOL    HW2 3663   4.831   4.948   3.953
  922SOL     OW 3664   3.285   2.573   6.600
  922SOL    HW1 3665   3.319   2.627   6.677
  922SOL    HW2 3666   3.350   2.577   6.524
  923SOL     OW 3667   3.234   5.872   0.454
  923SOL    HW1 3668   3.190   5.874   0.543
  923SOL    HW2 3669   3.327   5.836   0.463
  924SOL     OW 3670   5.174   3.347   2.582
  924SOL    HW1 3671   5.077   3.366   2.593
  924SOL    HW2 3672   5.186   3.263   2.529
  925SOL     OW 3673   6.920   1.496   5.410
  925SOL    HW1 3674   6.923   1.401   5.380
  925SOL    HW2 3675   6.877   1.552   5.339
  926SOL     OW 3676   6.060   0.665   6.762
  926SOL    HW1 3677   6.066   0.745   6.703
  926SOL    HW2 3678   6.109   0.589   6.720
  927SOL     OW 3679   4.903   4.024   4.178
  927SOL    HW1 3680   4.879   3.936   4.138
  927SOL    HW2 3681   4.947   4.081   4.109
  928SOL     OW 3682   1.954   0.329   0.606
  928SOL    HW1 3683   1.942   0.397   0.678
  928SOL    HW2 3684   1.865   0.302   0.570
  929SOL     OW 3685   6.653   2.067   1.010
  929SOL    HW1 3686   6.658   2.158   1.051
  929SOL    HW2 3687   6.625   2.075   0.915
  930SOL     OW 3688   7.010   5.761   4.864
  930SOL    HW1 3689   0.030   5.672   4.840
  930SOL    HW2 3690   0.025   5.790   4.953
  931SOL     OW 3691   0.181   3.765   3.442
  931SOL    HW1 3692   0.190   3.864   3.447
  931SOL    HW2 3693   0.097   3.742   3.392
  932SOL     OW 3694   3.010   6.373   1.197
  932SOL    HW1 3695   2.938   6.317   1.157
  932SOL    HW2 3696   3.099   6.333   1.177
  933SOL     OW 3697   0.996   5.349   1.873
  933SOL    HW1 3698   1.058   5.398   1.935
  933SOL    HW2 3699   0.914   5.322   1.924
  934SOL     OW 3700   2.647   0.916   4.693
  934SOL    HW1 3701   2.603   0.832   4.661
  934SOL    HW2 3702   2.719   0.893   4.758
  935SOL     OW 3703   5.301   3.386   5.467
  935SOL    HW1 3704   5.212   3.419   5.435
  935SOL    HW2 3705   5.287   3.328   5.548
  936SOL     OW 3706   1.110   0.431   6.479
  936SOL    HW1 3707   1.120   0.341   6.523
  936SOL    HW2 3708   1.162   0.433   6.394
  937SOL     OW 3709   4.948   2.396   5.259
  937SOL    HW1 3710   5.045   2.391   5.234
  937SOL    HW2 3711   4.927   2.326   5.326
  938SOL     OW 3712   0.045   4.799   5.812
  938SOL    HW1 3713   0.138   4.835   5.815
  938SOL    HW2 3714   0.033   4.730   5.884
  939SOL     OW 3715   5.097   1.491   5.402
  939SOL    HW1 3716   5.079   1.500   5.304
  939SOL    HW2 3717   5.143   1.404   5.419
  940SOL     OW 3718   6.437   2.304   2.693
  940SOL    HW1 3719   6.377   2.348   2.760
  940SOL    HW2 3720   6.396   2.218   2.663
  941SOL     OW 3721   6.342   1.040   4.122
  941SOL    HW1 3722   6.399   0.957   4.118
  941SOL    HW2 3723   6.401   1.121   4.123
  942SOL     OW 3724   5.160   1.009   4.627
  942SOL    HW1 3725   5.255   1.038   4.638
  942SOL    HW2 3726   5.156   0.909   4.631
  943SOL     OW 3727   0.784   3.267   2.959
  943SOL    HW1 3728   0.765   3.170   2.942
  943SOL    HW2 3729   0.865   3.295   2.909
  944SOL     OW 3730   6.357   3.195   6.126
  944SOL    HW1 3731   6.293   3.167   6.197
  944SOL    HW2 3732   6.450   3.199   6.163
  945SOL     OW 3733   5.906   4.653   5.302
  945SOL    HW1 3734   5.928   4.602   5.385
  945SOL    HW2 3735   5.976   4.723   5.286
  946SOL     OW 3736   5.787   2.475   6.389
  946SOL    HW1 3737   5.709   2.537   6.397
  946SOL    HW2 3738   5.848   2.506   6.317
  947SOL     OW 3739   2.870   3.414   5.225
  947SOL    HW1 3740   2.850   3.317   5.216
  947SOL    HW2 3741   2.924   3.444   5.146
  948SOL     OW 3742   4.361   1.341   0.974
  948SOL    HW1 3743   4.392   1.311   0.884
  948SOL    HW2 3744   4.282   1.287   1.002
  949SOL     OW 3745   6.684   5.987   6.382
  949SOL    HW1 3746   6.650   6.067   6.432
  949SOL    HW2 3747   6.648   5.989   6.289
  950SOL     OW 3748   4.453   4.917   3.000
  950SOL    HW1 3749   4.519   4.907   3.074
  950SOL    HW2 3750   4.491   4.976   2.929
  951SOL     OW 3751   1.926   0.524   1.793
  951SOL    HW1 3752   1.843   0.568   1.826
  951SOL    HW2 3753   1.976   0.588   1.734
  952SOL     OW 3754   5.768   1.324   2.122
  952SOL    HW1 3755   5.730   1.415   2.138
  952SOL    HW2 3756   5.848   1.331   2.062
  953SOL     OW 3757   4.898   5.878   5.628
  953SOL    HW1 3758   4.903   5.976   5.650
  953SOL    HW2 3759   4.933   5.863   5.536
  954SOL     OW 3760   5.438   6.849   0.646
  954SOL    HW1 3761   5.340   6.849   0.628
  954SOL    HW2 3762   5.476   6.940   0.626
  955SOL     OW 3763   0.772   5.196   3.403
  955SOL    HW1 3764   0.820   5.142   3.472
  955SOL    HW2 3765   0.751   5.286   3.440
  956SOL     OW 3766   0.694   1.989   2.190
  956SOL    HW1 3767   0.618   1.970   2.129
  956SOL    HW2 3768   0.700   1.918   2.261
  957SOL     OW 3769   1.299   4.684   4.610
  957SOL    HW1 3770   1.371   4.731   4.660
  957SOL    HW2 3771   1.214   4.737   4.614
  958SOL     OW 3772   4.669   2.632   1.144
  958SOL    HW1 3773   4.754   2.619   1.196
  958SOL    HW2 3774   4.657   2.556   1.081
  959SOL     OW 3775   2.882   4.767   3.149
  959SOL    HW1 3776   2.852   4.772   3.054
  959SOL    HW2 3777   2.977   4.795   3.156
  960SOL     OW 3778   0.249   5.919   4.187
  960SOL    HW1 3779   0.285   5.842   4.239
  960SOL    HW2 3780   0.271   5.907   4.090
  961SOL     OW 3781   4.944   6.390   3.050
  961SOL    HW1 3782   4.847   6.403   3.070
  961SOL    HW2 3783   4.995   6.470   3.082
  962SOL     OW 3784   1.548   1.103   3.653
  962SOL    HW1 3785   1.451   1.096   3.628
  962SOL    HW2 3786   1.604   1.065   3.579
  963SOL     OW 3787   5.722   0.958   6.845
  963SOL    HW1 3788   5.785   0.903   6.789
  963SOL    HW2 3789   5.685   1.033   6.790
  964SOL     OW 3790   6.242   3.586   0.715
  964SOL    HW1 3791   6.256   3.491   0.740
  964SOL    HW2 3792   6.269   3.645   0.791
  965SOL     OW 3793   5.794   1.873   0.781
  965SOL    HW1 3794   5.695   1.860   0.779
  965SOL    HW2 3795   5.839   1.784   0.785
  966SOL     OW 3796   6.106   1.666   2.196
  966SOL    HW1 3797   6.198   1.702   2.210
  966SOL    HW2 3798   6.071   1.698   2.108
  967SOL     OW 3799   1.477   5.394   0.538
  967SOL    HW1 3800   1.499   5.455   0.614
  967SOL    HW2 3801   1.490   5.299   0.567
  968SOL     OW 3802   4.612   2.381   2.179
  968SOL    HW1 3803   4.525   2.361   2.226
  968SOL    HW2 3804   4.593   2.429   2.094
  969SOL     OW 3805   3.789   5.823   6.120
  969SOL    HW1 3806   3.869   5.811   6.179
  969SOL    HW2 3807   3.818   5.865   6.034
  970SOL     OW 3808   4.775   1.228   5.069
  970SOL    HW1 3809   4.852   1.253   5.127
  970SOL    HW2 3810   4.809   1.198   4.980
  971SOL     OW 3811   0.423   1.563   2.762
  971SOL    HW1 3812   0.503   1.504   2.771
  971SOL    HW2 3813   0.351   1.532   2.824
  972SOL     OW 3814   5.620   3.779   0.917
  972SOL    HW1 3815   5.631   3.877   0.898
  972SOL    HW2 3816   5.709   3.739   0.940
  973SOL     OW 3817   0.138   4.768   6.103
  973SOL    HW1 3818   0.185   4.847   6.064
  973SOL    HW2 3819   0.109   4.788   6.197
  974SOL     OW 3820   4.110   0.477   1.929
  974SOL    HW1 3821   4.080   0.450   1.837
  974SOL    HW2 3822   4.209   0.488   1.931
  975SOL     OW 3823   1.650   5.804   6.646
  975SOL    HW1 3824   1.680   5.786   6.740
  975SOL    HW2 3825   1.602   5.724   6.611
  976SOL     OW 3826   6.258   3.171   2.732
  976SOL    HW1 3827   6.346   3.166   2.685
  976SOL    HW2 3828   6.229   3.079   2.758
  977SOL     OW 3829   2.494   1.234   3.826
  977SOL    HW1 3830   2.427   1.299   3.859
  977SOL    HW2 3831   2.570   1.227   3.892
  978SOL     OW 3832   4.948   4.038   5.299
  978SOL    HW1 3833   5.006   4.005   5.225
  978SOL    HW2 3834   4.869   4.087   5.261
  979SOL     OW 3835   6.829   1.530   3.162
  979SOL    HW1 3836   6.911   1.520   3.218
  979SOL    HW2 3837   6.825   1.622   3.125
  980SOL     OW 3838   5.050   1.754   3.322
  980SOL    HW1 3839   5.035   1.784   3.416
  980SOL    HW2 3840   4.983   1.684   3.299
  981SOL     OW 3841   1.585   1.402   4.910
  981SOL    HW1 3842   1.627   1.493   4.923
  981SOL    HW2 3843   1.499   1.412   4.861
  982SOL     OW 3844   2.241   2.350   3.911
  982SOL    HW1 3845   2.183   2.351   3.992
  982SOL    HW2 3846   2.264   2.445   3.886
  983SOL     OW 3847   5.784   2.632   3.585
  983SOL    HW1 3848   5.723   2.689   3.530
  983SOL    HW2 3849   5.868   2.683   3.606
  984SOL     OW 3850   3.813   0.606   4.806
  984SOL    HW1 3851   3.838   0.524   4.755
  984SOL    HW2 3852   3.893   0.642   4.853
  985SOL     OW 3853   5.153   4.877   6.354
  985SOL    HW1 3854   5.123   4.936   6.279
  985SOL    HW2 3855   5.211   4.928   6.417
  986SOL     OW 3856   5.380   5.638   0.142
  986SOL    HW1 3857   5.383   5.721   0.085
  986SOL    HW2 3858   5.432   5.654   0.226
  987SOL     OW 3859   4.249   6.073   0.964
  987SOL    HW1 3860   4.176   6.134   0.993
  987SOL    HW2 3861   4.226   6.034   0.875
  988SOL     OW 3862   3.934   2.666   1.679
  988SOL    HW1 3863   3.849   2.718   1.664
  988SOL    HW2 3864   3.915   2.568   1.669
  989SOL     OW 3865   0.367   0.646   5.671
  989SOL    HW1 3866   0.269   0.659   5.688
  989SOL    HW2 3867   0.407   0.730   5.634
  990SOL     OW 3868   4.844   0.342   3.283
  990SOL    HW1 3869   4.768   0.347   3.219
  990SOL    HW2 3870   4.838   0.416   3.349
  991SOL     OW 3871   1.929   2.043   5.352
  991SOL    HW1 3872   1.893   2.066   5.443
  991SOL    HW2 3873   1.985   2.119   5.318
  992SOL     OW 3874   0.850   3.705   1.156
  992SOL    HW1 3875   0.847   3.692   1.255
  992SOL    HW2 3876   0.925   3.767   1.132
  993SOL     OW 3877   1.971   5.426   2.477
  993SOL    HW1 3878   2.028   5.354   2.436
  993SOL    HW2 3879   1.876   5.411   2.452
  994SOL     OW 3880   3.762   3.639   2.775
  994SOL    HW1 3881   3.718   3.550   2.765
  994SOL    HW2 3882   3.861   3.629   2.771
  995SOL     OW 3883   2.749   2.122   6.193
  995SOL    HW1 3884   2.754   2.199   6.130
  995SOL    HW2 3885   2.768   2.154   6.286
  996SOL     OW 3886   1.928   4.019   3.974
  996SOL    HW1 3887   2.027   4.035   3.976
  996SOL    HW2 3888   1.891   4.032   4.066
  997SOL     OW 3889   6.441   0.571   1.133
  997SOL    HW1 3890   6.424   0.606   1.041
  997SOL    HW2 3891   6.355   0.558   1.181
  998SOL     OW 3892   4.724   6.910   3.791
  998SOL    HW1 3893   4.707   6.946   3.699
  998SOL    HW2 3894   4.820   6.924   3.816
  999SOL     OW 3895   5.176   5.069   0.948
  999SOL    HW1 3896   5.163   4.973   0.972
  999SOL    HW2 3897   5.155   5.082   0.851
 1000SOL     OW 3898   1.062   0.980   2.466
 1000SOL    HW1 3899   1.030   1.073   2.483
 1000SOL    HW2 3900   1.095   0.940   2.552
 1001SOL     OW 3901   5.635   6.580   6.843
 1001SOL    HW1 3902   5.600   6.668   6.809
 1001SOL    HW2 3903   5.642   6.515   6.768
 1002SOL     OW 3904   6.055   2.019   6.683
 1002SOL    HW1 3905   6.112   2.086   6.731
 1002SOL    HW2 3906   6.028   1.947   6.747
 1003SOL     OW 3907   2.529   6.791   1.926
 1003SOL    HW1 3908   2.613   6.737   1.936
 1003SOL    HW2 3909   2.497   6.820   2.016
 1004SOL     OW 3910   6.681   0.732   0.825
 1004SOL    HW1 3911   6.755   0.710   0.889
 1004SOL    HW2 3912   6.606   0.776   0.875
 1005SOL     OW 3913   0.273   1.292   3.257
 1005SOL    HW1 3914   0.249   1.211   3.204
 1005SOL    HW2 3915   0.370   1.313   3.243
 1006SOL     OW 3916   1.639   6.263   1.807
 1006SOL    HW1 3917   1.709   6.209   1.760
 1006SOL    HW2 3918   1.553   6.257   1.756
 1007SOL     OW 3919   5.963   0.385   4.211
 1007SOL    HW1 3920   5.965   0.285   4.215
 1007SOL    HW2 3921   6.057   0.420   4.204
 1008SOL     OW 3922   1.967   3.098   4.505
 1008SOL    HW1 3923   1.963   3.190   4.544
 1008SOL    HW2 3924   1.994   3.033   4.576
 1009SOL     OW 3925   0.259   6.349   4.060
 1009SOL    HW1 3926   0.338   6.369   4.117
 1009SOL    HW2 3927   0.249   6.421   3.991
 1010SOL     OW 3928   3.771   2.082   6.418
 1010SOL    HW1 3929   3.816   2.169   6.398
 1010SOL    HW2 3930   3.679   2.099   6.454
 1011SOL     OW 3931   2.961   5.393   2.559
 1011SOL    HW1 3932   3.011   5.334   2.496
 1011SOL    HW2 3933   2.877   5.425   2.516
 1012SOL     OW 3934   6.789   6.157   0.403
 1012SOL    HW1 3935   6.754   6.097   0.330
 1012SOL    HW2 3936   6.882   6.186   0.380
 1013SOL     OW 3937   0.193   1.144   6.358
 1013SOL    HW1 3938   0.193   1.093   6.443
 1013SOL    HW2 3939   0.104   1.132   6.313
 1014SOL     OW 3940   5.027   5.501   7.018
 1014SOL    HW1 3941   5.122   5.483   6.992
 1014SOL    HW2 3942   4.972   5.514   6.935
 1015SOL     OW 3943   2.013   6.594   5.203
 1015SOL    HW1 3944   1.979   6.623   5.292
 1015SOL    HW2 3945   1.936   6.568   5.145
 1016SOL     OW 3946   2.402   3.507   0.556
 1016SOL    HW1 3947   2.344   3.535   0.632
 1016SOL    HW2 3948   2.422   3.586   0.498
 1017SOL     OW 3949   4.724   2.566   0.588
 1017SOL    HW1 3950   4.640   2.587   0.639
 1017SOL    HW2 3951   4.745   2.641   0.526
 1018SOL     OW 3952   1.553   3.281   3.625
 1018SOL    HW1 3953   1.581   3.332   3.544
 1018SOL    HW2 3954   1.527   3.345   3.697
 1019SOL     OW 3955   1.473   0.810   0.438
 1019SOL    HW1 3956   1.544   0.755   0.393
 1019SOL    HW2 3957   1.515   0.890   0.481
 1020SOL     OW 3958   1.311   0.092   1.139
 1020SOL    HW1 3959   1.297   7.013   1.131
 1020SOL    HW2 3960   1.244   0.140   1.082
 1021SOL     OW 3961   6.103   0.488   0.696
 1021SOL    HW1 3962   6.168   0.425   0.740
 1021SOL    HW2 3963   6.114   0.483   0.597
 1022SOL     OW 3964   3.945   4.271   6.036
 1022SOL    HW1 3965   3.912   4.329   6.111
 1022SOL    HW2 3966   3.896   4.295   5.952
 1023SOL     OW 3967   6.084   0.227   2.190
 1023SOL    HW1 3968   6.091   0.161   2.115
 1023SOL    HW2 3969   6.087   0.179   2.277
 1024SOL     OW 3970   6.130   3.292   3.876
 1024SOL    HW1 3971   6.209   3.238   3.905
 1024SOL    HW2 3972   6.046   3.244   3.901
 1025SOL     OW 3973   3.436   4.164   0.440
 1025SOL    HW1 3974   3.346   4.154   0.397
 1025SOL    HW2 3975   3.430   4.231   0.514
 1026SOL     OW 3976   1.520   2.335   1.098
 1026SOL    HW1 3977   1.546   2.265   1.031
 1026SOL    HW2 3978   1.603   2.383   1.128
 1027SOL     OW 3979   2.420   6.425   0.979
 1027SOL    HW1 3980   2.436   6.508   1.033
 1027SOL    HW2 3981   2.325   6.396   0.990
 1028SOL     OW 3982   4.119   5.764   0.273
 1028SOL    HW1 3983   4.147   5.668   0.271
 1028SOL    HW2 3984   4.073   5.783   0.360
 1029SOL     OW 3985   1.811   0.289   0.314
 1029SOL    HW1 3986   1.731   0.345   0.335
 1029SOL    HW2 3987   1.804   0.201   0.361
 1030SOL     OW 3988   3.868   2.945   1.813
 1030SOL    HW1 3989   3.845   2.890   1.733
 1030SOL    HW2 3990   3.946   3.003   1.793
 1031SOL     OW 3991   4.863   5.569   0.372
 1031SOL    HW1 3992   4.822   5.487   0.411
 1031SOL    HW2 3993   4.864   5.641   0.442
 1032SOL     OW 3994   1.538   1.948   4.870
 1032SOL    HW1 3995   1.569   1.996   4.952
 1032SOL    HW2 3996   1.587   1.982   4.790
 1033SOL     OW 3997   1.313   6.726   1.691
 1033SOL    HW1 3998   1.340   6.743   1.786
 1033SOL    HW2 3999   1.391   6.743   1.631
 1034SOL     OW 4000   1.244   5.942   4.905
 1034SOL    HW1 4001   1.167   5.960   4.843
 1034SOL    HW2 4002   1.235   6.000   4.986
 1035SOL     OW 4003   2.695   1.550   3.554
 1035SOL    HW1 4004   2.629   1.552   3.629
 1035SOL    HW2 4005   2.787   1.543   3.591
 1036SOL     OW 4006   3.077   0.267   1.376
 1036SOL    HW1 4007   2.997   0.257   1.436
 1036SOL    HW2 4008   3.143   0.329   1.418
 1037SOL     OW 4009   1.990   0.932   1.505
 1037SOL    HW1 4010   1.942   1.005   1.553
 1037SOL    HW2 4011   2.080   0.965   1.475
 1038SOL     OW 4012   1.115   0.789   5.644
 1038SOL    HW1 4013   1.057   0.736   5.582
 1038SOL    HW2 4014   1.145   0.872   5.598
 1039SOL     OW 4015   4.090   3.032   5.704
 1039SOL    HW1 4016   4.093   3.062   5.799
 1039SOL    HW2 4017   3.999   3.048   5.667
 1040SOL     OW 4018   5.215   2.668   2.316
 1040SOL    HW1 4019   5.267   2.751   2.336
 1040SOL    HW2 4020   5.163   2.681   2.232
 1041SOL     OW 4021   6.746   7.010   4.486
 1041SOL    HW1 4022   6.837   0.020   4.456
 1041SOL    HW2 4023   6.676   0.038   4.433
 1042SOL     OW 4024   3.433   4.929   2.349
 1042SOL    HW1 4025   3.346   4.880   2.343
 1042SOL    HW2 4026   3.466   4.927   2.443
 1043SOL     OW 4027   4.419   1.244   5.673
 1043SOL    HW1 4028   4.510   1.261   5.634
 1043SOL    HW2 4029   4.400   1.146   5.669
 1044SOL     OW 4030   4.681   3.654   1.675
 1044SOL    HW1 4031   4.710   3.559   1.661
 1044SOL    HW2 4032   4.583   3.662   1.660
 1045SOL     OW 4033   2.824   6.504   1.793
 1045SOL    HW1 4034   2.796   6.573   1.859
 1045SOL    HW2 4035   2.778   6.417   1.814
 1046SOL     OW 4036   1.808   6.893   0.243
 1046SOL    HW1 4037   1.760   6.916   0.327
 1046SOL    HW2 4038   1.805   6.970   0.180
 1047SOL     OW 4039   1.322   6.042   2.528
 1047SOL    HW1 4040   1.355   6.065   2.620
 1047SOL    HW2 4041   1.370   5.961   2.495
 1048SOL     OW 4042   4.568   5.728   5.459
 1048SOL    HW1 4043   4.578   5.787   5.379
 1048SOL    HW2 4044   4.518   5.776   5.531
 1049SOL     OW 4045   6.675   4.563   4.733
 1049SOL    HW1 4046   6.676   4.537   4.830
 1049SOL    HW2 4047   6.743   4.510   4.683
 1050SOL     OW 4048   3.213   5.363   0.786
 1050SOL    HW1 4049   3.244   5.271   0.809
 1050SOL    HW2 4050   3.186   5.366   0.690
 1051SOL     OW 4051   3.309   5.096   0.094
 1051SOL    HW1 4052   3.356   5.053   0.017
 1051SOL    HW2 4053   3.266   5.181   0.064
 1052SOL     OW 4054   4.332   0.053   3.840
 1052SOL    HW1 4055   4.366   0.119   3.774
 1052SOL    HW2 4056   4.232   0.060   3.846
 1053SOL     OW 4057   4.995   5.510   3.128
 1053SOL    HW1 4058   4.971   5.608   3.128
 1053SOL    HW2 4059   5.071   5.494   3.190
 1054SOL     OW 4060   2.937   4.776   5.734
 1054SOL    HW1 4061   2.938   4.777   5.634
 1054SOL    HW2 4062   2.908   4.686   5.766
 1055SOL     OW 4063   5.710   6.959   4.063
 1055SOL    HW1 4064   5.751   6.946   4.153
 1055SOL    HW2 4065   5.745   6.889   4.000
 1056SOL     OW 4066   2.222   6.023   5.538
 1056SOL    HW1 4067   2.212   6.074   5.453
 1056SOL    HW2 4068   2.182   5.932   5.528
 1057SOL     OW 4069   3.399   3.616   2.733
 1057SOL    HW1 4070   3.310   3.658   2.752
 1057SOL    HW2 4071   3.464   3.643   2.804
 1058SOL     OW 4072   5.047   1.605   2.024
 1058SOL    HW1 4073   5.082   1.698   2.034
 1058SOL    HW2 4074   5.090   1.545   2.092
 1059SOL     OW 4075   2.606   0.527   1.216
 1059SOL    HW1 4076   2.565   0.618   1.214
 1059SOL    HW2 4077   2.702   0.532   1.189
 1060SOL     OW 4078   0.313   2.906   4.454
 1060SOL    HW1 4079   0.369   2.877   4.376
 1060SOL    HW2 4080   0.216   2.901   4.429
 1061SOL     OW 4081   4.722   3.813   1.459
 1061SOL    HW1 4082   4.746   3.795   1.554
 1061SOL    HW2 4083   4.802   3.796   1.401
 1062SOL     OW 4084   6.558   5.092   6.297
 1062SOL    HW1 4085   6.525   5.098   6.392
 1062SOL    HW2 4086   6.481   5.104   6.235
 1063SOL     OW 4087   1.090   4.504   1.236
 1063SOL    HW1 4088   1.146   4.571   1.283
 1063SOL    HW2 4089   1.149   4.443   1.181
 1064SOL     OW 4090   0.976   4.335   2.073
 1064SOL    HW1 4091   1.064   4.319   2.117
 1064SOL    HW2 4092   0.989   4.349   1.975
 1065SOL     OW 4093   4.904   0.558   4.831
 1065SOL    HW1 4094   4.932   0.654   4.830
 1065SOL    HW2 4095   4.934   0.513   4.747
 1066SOL     OW 4096   5.600   0.756   4.228
 1066SOL    HW1 4097   5.538   0.819   4.276
 1066SOL    HW2 4098   5.548   0.678   4.194
 1067SOL     OW 4099   1.698   2.636   0.557
 1067SOL    HW1 4100   1.789   2.639   0.515
 1067SOL    HW2 4101   1.652   2.551   0.533
 1068SOL     OW 4102   5.491   4.180   2.044
 1068SOL    HW1 4103   5.428   4.105   2.065
 1068SOL    HW2 4104   5.439   4.263   2.024
 1069SOL     OW 4105   4.933   5.107   1.311
 1069SOL    HW1 4106   4.854   5.164   1.335
 1069SOL    HW2 4107   5.014   5.140   1.361
 1070SOL     OW 4108   1.366   1.273   0.130
 1070SOL    HW1 4109   1.396   1.181   0.105
 1070SOL    HW2 4110   1.329   1.319   0.050
 1071SOL     OW 4111   3.720   0.111   3.164
 1071SOL    HW1 4112   3.797   0.072   3.215
 1071SOL    HW2 4113   3.649   0.042   3.152
 1072SOL     OW 4114   1.609   6.006   1.574
 1072SOL    HW1 4115   1.573   5.944   1.504
 1072SOL    HW2 4116   1.558   5.993   1.659
 1073SOL     OW 4117   3.474   5.738   2.938
 1073SOL    HW1 4118   3.561   5.755   2.893
 1073SOL    HW2 4119   3.399   5.775   2.882
 1074SOL     OW 4120   1.824   5.076   1.355
 1074SOL    HW1 4121   1.804   5.174   1.343
 1074SOL    HW2 4122   1.806   5.028   1.269
 1075SOL     OW 4123   4.727   5.856   3.569
 1075SOL    HW1 4124   4.759   5.772   3.612
 1075SOL    HW2 4125   4.682   5.835   3.482
 1076SOL     OW 4126   0.882   4.483   4.674
 1076SOL    HW1 4127   0.854   4.393   4.640
 1076SOL    HW2 4128   0.972   4.476   4.717
 1077SOL     OW 4129   6.308   6.744   0.235
 1077SOL    HW1 4130   6.268   6.676   0.297
 1077SOL    HW2 4131   6.292   6.836   0.271
 1078SOL     OW 4132   2.127   0.623   2.325
 1078SOL    HW1 4133   2.049   0.665   2.371
 1078SOL    HW2 4134   2.152   0.539   2.373
 1079SOL     OW 4135   1.998   5.551   2.720
 1079SOL    HW1 4136   1.990   5.489   2.642
 1079SOL    HW2 4137   1.917   5.541   2.779
 1080SOL     OW 4138   2.030   4.466   3.533
 1080SOL    HW1 4139   1.987   4.399   3.472
 1080SOL    HW2 4140   2.098   4.518   3.482
 1081SOL     OW 4141   0.361   0.527   5.207
 1081SOL    HW1 4142   0.433   0.583   5.250
 1081SOL    HW2 4143   0.308   0.480   5.277
 1082SOL     OW 4144   1.824   0.178   5.686
 1082SOL    HW1 4145   1.829   0.078   5.686
 1082SOL    HW2 4146   1.729   0.208   5.684
 1083SOL     OW 4147   3.991   3.767   1.512
 1083SOL    HW1 4148   4.020   3.832   1.441
 1083SOL    HW2 4149   3.894   3.744   1.498
 1084SOL     OW 4150   6.621   5.937   1.344
 1084SOL    HW1 4151   6.665   5.872   1.406
 1084SOL    HW2 4152   6.531   5.961   1.379
 1085SOL     OW 4153   2.031   4.848   3.325
 1085SOL    HW1 4154   2.080   4.762   3.338
 1085SOL    HW2 4155   1.995   4.852   3.232
 1086SOL     OW 4156   6.872   5.500   3.261
 1086SOL    HW1 4157   6.909   5.592   3.274
 1086SOL    HW2 4158   6.797   5.503   3.195
 1087SOL     OW 4159   5.403   2.540   5.719
 1087SOL    HW1 4160   5.365   2.554   5.810
 1087SOL    HW2 4161   5.502   2.555   5.722
 1088SOL     OW 4162   6.008   4.894   3.567
 1088SOL    HW1 4163   6.027   4.992   3.575
 1088SOL    HW2 4164   5.981   4.858   3.656
 1089SOL     OW 4165   1.051   6.859   4.958
 1089SOL    HW1 4166   0.965   6.909   4.951
 1089SOL    HW2 4167   1.127   6.923   4.953
 1090SOL     OW 4168   2.938   1.391   3.855
 1090SOL    HW1 4169   2.950   1.432   3.765
 1090SOL    HW2 4170   2.993   1.308   3.862
 1091SOL     OW 4171   1.912   2.555   4.384
 1091SOL    HW1 4172   1.970   2.635   4.403
 1091SOL    HW2 4173   1.827   2.586   4.340
 1092SOL     OW 4174   2.703   3.523   1.357
 1092SOL    HW1 4175   2.803   3.526   1.363
 1092SOL    HW2 4176   2.664   3.567   1.438
 1093SOL     OW 4177   2.102   2.045   3.078
 1093SOL    HW1 4178   2.132   2.118   3.018
 1093SOL    HW2 4179   2.026   2.077   3.134
 1094SOL     OW 4180   0.769   6.880   2.552
 1094SOL    HW1 4181   0.868   6.898   2.558
 1094SOL    HW2 4182   0.733   6.864   2.643
 1095SOL     OW 4183   6.528   2.012   6.120
 1095SOL    HW1 4184   6.538   2.111   6.126
 1095SOL    HW2 4185   6.604   1.968   6.169
 1096SOL     OW 4186   3.805   4.799   1.707
 1096SOL    HW1 4187   3.731   4.791   1.774
 1096SOL    HW2 4188   3.876   4.732   1.728
 1097SOL     OW 4189   0.783   4.795   4.359
 1097SOL    HW1 4190   0.729   4.754   4.433
 1097SOL    HW2 4191   0.814   4.723   4.297
 1098SOL     OW 4192   5.456   2.708   0.683
 1098SOL    HW1 4193   5.373   2.661   0.653
 1098SOL    HW2 4194   5.432   2.799   0.717
 1099SOL     OW 4195   4.291   1.102   4.782
 1099SOL    HW1 4196   4.347   1.034   4.828
 1099SOL    HW2 4197   4.239   1.154   4.850
 1100SOL     OW 4198   1.902   1.718   6.841
 1100SOL    HW1 4199   1.945   1.809   6.836
 1100SOL    HW2 4200   1.867   1.703   6.933
 1101SOL     OW 4201   5.397   2.895   0.966
 1101SOL    HW1 4202   5.367   2.981   1.007
 1101SOL    HW2 4203   5.466   2.853   1.024
 1102SOL     OW 4204   2.223   4.537   2.767
 1102SOL    HW1 4205   2.154   4.555   2.697
 1102SOL    HW2 4206   2.214   4.443   2.799
 1103SOL     OW 4207   2.900   0.996   0.998
 1103SOL    HW1 4208   2.999   0.981   0.995
 1103SOL    HW2 4209   2.867   1.019   0.906
 1104SOL     OW 4210   1.304   3.584   6.436
 1104SOL    HW1 4211   1.296   3.657   6.503
 1104SOL    HW2 4212   1.401   3.565   6.418
 1105SOL     OW 4213   4.974   3.872   5.773
 1105SOL    HW1 4214   4.944   3.828   5.688
 1105SOL    HW2 4215   4.957   3.970   5.768
 1106SOL     OW 4216   1.111   1.777   0.474
 1106SOL    HW1 4217   1.099   1.867   0.516
 1106SOL    HW2 4218   1.110   1.707   0.545
 1107SOL     OW 4219   0.673   0.895   6.433
 1107SOL    HW1 4220   0.635   0.981   6.467
 1107SOL    HW2 4221   0.610   0.820   6.454
 1108SOL     OW 4222   2.432   0.532   5.719
 1108SOL    HW1 4223   2.446   0.568   5.626
 1108SOL    HW2 4224   2.469   0.439   5.725
 1109SOL     OW 4225   4.269   5.725   4.835
 1109SOL    HW1 4226   4.330   5.684   4.902
 1109SOL    HW2 4227   4.290   5.823   4.826
 1110SOL     OW 4228   3.136   1.601   2.394
 1110SOL    HW1 4229   3.059   1.641   2.345
 1110SOL    HW2 4230   3.127   1.621   2.492
 1111SOL     OW 4231   5.887   6.210   0.363
 1111SOL    HW1 4232   5.872   6.130   0.421
 1111SOL    HW2 4233   5.840   6.289   0.402
 1112SOL     OW 4234   6.048   0.823   2.919
 1112SOL    HW1 4235   6.033   0.806   2.822
 1112SOL    HW2 4236   6.107   0.751   2.957
 1113SOL     OW 4237   6.195   3.236   2.453
 1113SOL    HW1 4238   6.214   3.169   2.524
 1113SOL    HW2 4239   6.197   3.192   2.363
 1114SOL     OW 4240   4.534   0.857   6.123
 1114SOL    HW1 4241   4.468   0.865   6.048
 1114SOL    HW2 4242   4.616   0.811   6.089
 1115SOL     OW 4243   3.871   3.234   6.795
 1115SOL    HW1 4244   3.853   3.307   6.729
 1115SOL    HW2 4245   3.967   3.208   6.790
 1116SOL     OW 4246   5.713   5.557   4.808
 1116SOL    HW1 4247   5.784   5.488   4.820
 1116SOL    HW2 4248   5.623   5.514   4.818
 1117SOL     OW 4249   2.864   2.660   1.296
 1117SOL    HW1 4250   2.830   2.666   1.202
 1117SOL    HW2 4251   2.816   2.587   1.345
 1118SOL     OW 4252   1.985   5.171   2.182
 1118SOL    HW1 4253   2.023   5.240   2.120
 1118SOL    HW2 4254   1.958   5.090   2.130
 1119SOL     OW 4255   3.726   4.033   1.597
 1119SOL    HW1 4256   3.757   3.954   1.544
 1119SOL    HW2 4257   3.626   4.037   1.595
 1120SOL     OW 4258   5.608   5.829   5.485
 1120SOL    HW1 4259   5.705   5.829   5.461
 1120SOL    HW2 4260   5.597   5.846   5.583
 1121SOL     OW 4261   4.848   3.850   2.860
 1121SOL    HW1 4262   4.941   3.882   2.879
 1121SOL    HW2 4263   4.804   3.911   2.795
 1122SOL     OW 4264   5.205   3.276   6.459
 1122SOL    HW1 4265   5.203   3.351   6.393
 1122SOL    HW2 4266   5.135   3.291   6.528
 1123SOL     OW 4267   4.778   1.652   2.485
 1123SOL    HW1 4268   4.799   1.664   2.388
 1123SOL    HW2 4269   4.689   1.693   2.505
 1124SOL     OW 4270   6.667   4.076   4.993
 1124SOL    HW1 4271   6.673   4.071   4.894
 1124SOL    HW2 4272   6.737   4.018   5.034
 1125SOL     OW 4273   2.245   1.513   4.746
 1125SOL    HW1 4274   2.244   1.603   4.702
 1125SOL    HW2 4275   2.337   1.494   4.780
 1126SOL     OW 4276   5.255   0.247   0.245
 1126SOL    HW1 4277   5.174   0.266   0.302
 1126SOL    HW2 4278   5.241   0.285   0.154
 1127SOL     OW 4279   4.042   5.300   5.552
 1127SOL    HW1 4280   4.037   5.318   5.651
 1127SOL    HW2 4281   3.976   5.230   5.527
 1128SOL     OW 4282   4.880   2.666   5.316
 1128SOL    HW1 4283   4.815   2.710   5.253
 1128SOL    HW2 4284   4.885   2.568   5.296
 1129SOL     OW 4285   4.030   6.851   0.312
 1129SOL    HW1 4286   4.096   6.898   0.254
 1129SOL    HW2 4287   4.078   6.787   0.372
 1130SOL     OW 4288   1.745   3.317   0.870
 1130SOL    HW1 4289   1.752   3.416   0.878
 1130SOL    HW2 4290   1.658   3.286   0.910
 1131SOL     OW 4291   0.848   6.347   6.073
 1131SOL    HW1 4292   0.850   6.405   5.992
 1131SOL    HW2 4293   0.895   6.261   6.054
 1132SOL     OW 4294   4.559   0.393   6.551
 1132SOL    HW1 4295   4.572   0.380   6.650
 1132SOL    HW2 4296   4.614   0.470   6.520
 1133SOL     OW 4297   6.486   1.993   0.353
 1133SOL    HW1 4298   6.456   2.002   0.258
 1133SOL    HW2 4299   6.553   2.064   0.374
 1134SOL     OW 4300   5.540   1.749   0.758
 1134SOL    HW1 4301   5.551   1.651   0.768
 1134SOL    HW2 4302   5.470   1.782   0.822
 1135SOL     OW 4303   2.880   1.678   2.288
 1135SOL    HW1 4304   2.829   1.726   2.359
 1135SOL    HW2 4305   2.851   1.582   2.285
 1136SOL     OW 4306   3.158   4.832   5.139
 1136SOL    HW1 4307   3.104   4.896   5.193
 1136SOL    HW2 4308   3.117   4.823   5.048
 1137SOL     OW 4309   0.698   3.372   6.991
 1137SOL    HW1 4310   0.652   3.417   0.047
 1137SOL    HW2 4311   0.668   3.276   6.986
 1138SOL     OW 4312   1.161   1.903   6.216
 1138SOL    HW1 4313   1.240   1.935   6.268
 1138SOL    HW2 4314   1.191   1.839   6.145
 1139SOL     OW 4315   2.185   6.706   1.743
 1139SOL    HW1 4316   2.110   6.732   1.682
 1139SOL    HW2 4317   2.217   6.615   1.719
 1140SOL     OW 4318   3.868   1.994   2.453
 1140SOL    HW1 4319   3.941   1.926   2.444
 1140SOL    HW2 4320   3.811   1.992   2.370
 1141SOL     OW 4321   6.475   5.437   6.163
 1141SOL    HW1 4322   6.384   5.401   6.142
 1141SOL    HW2 4323   6.478   5.464   6.259
 1142SOL     OW 4324   4.752   0.346   4.607
 1142SOL    HW1 4325   4.778   0.334   4.703
 1142SOL    HW2 4326   4.785   0.268   4.554
 1143SOL     OW 4327   2.978   1.921   2.491
 1143SOL    HW1 4328   2.897   1.861   2.493
 1143SOL    HW2 4329   3.006   1.935   2.395
 1144SOL     OW 4330   6.726   4.799   4.551
 1144SOL    HW1 4331   6.732   4.877   4.613
 1144SOL    HW2 4332   6.674   4.725   4.596
 1145SOL     OW 4333   0.216   4.775   3.307
 1145SOL    HW1 4334   0.183   4.686   3.337
 1145SOL    HW2 4335   0.138   4.829   3.273
 1146SOL     OW 4336   5.258   0.864   1.065
 1146SOL    HW1 4337   5.351   0.887   1.093
 1146SOL    HW2 4338   5.194   0.887   1.139
 1147SOL     OW 4339   1.000   4.401   0.422
 1147SOL    HW1 4340   0.910   4.443   0.409
 1147SOL    HW2 4341   1.022   4.399   0.519
 1148SOL     OW 4342   2.856   6.875   0.425
 1148SOL    HW1 4343   2.893   6.787   0.456
 1148SOL    HW2 4344   2.931   6.940   0.411
 1149SOL     OW 4345   5.349   3.663   3.154
 1149SOL    HW1 4346   5.348   3.574   3.109
 1149SOL    HW2 4347   5.334   3.735   3.086
 1150SOL     OW 4348   1.688   3.901   1.159
 1150SOL    HW1 4349   1.633   3.847   1.096
 1150SOL    HW2 4350   1.685   3.998   1.131
 1151SOL     OW 4351   5.036   5.712   6.711
 1151SOL    HW1 4352   5.030   5.612   6.700
 1151SOL    HW2 4353   5.080   5.752   6.631
 1152SOL     OW 4354   0.754   6.568   5.166
 1152SOL    HW1 4355   0.745   6.529   5.258
 1152SOL    HW2 4356   0.693   6.518   5.104
 1153SOL     OW 4357   2.402   6.796   2.159
 1153SOL    HW1 4358   2.438   6.711   2.198
 1153SOL    HW2 4359   2.310   6.779   2.123
 1154SOL     OW 4360   0.122   3.482   2.066
 1154SOL    HW1 4361   0.114   3.392   2.022
 1154SOL    HW2 4362   0.039   3.535   2.050
 1155SOL     OW 4363   3.528   5.083   6.720
 1155SOL    HW1 4364   3.430   5.102   6.718
 1155SOL    HW2 4365   3.550   5.014   6.651
 1156SOL     OW 4366   2.460   0.433   4.345
 1156SOL    HW1 4367   2.537   0.497   4.351
 1156SOL    HW2 4368   2.433   0.406   4.438
 1157SOL     OW 4369   5.915   2.045   4.486
 1157SOL    HW1 4370   5.919   2.139   4.520
 1157SOL    HW2 4371   5.973   2.037   4.404
 1158SOL     OW 4372   6.530   5.526   5.676
 1158SOL    HW1 4373   6.465   5.554   5.747
 1158SOL    HW2 4374   6.606   5.477   5.719
 1159SOL     OW 4375   4.795   0.566   2.698
 1159SOL    HW1 4376   4.866   0.515   2.747
 1159SOL    HW2 4377   4.716   0.578   2.758
 1160SOL     OW 4378   3.527   3.741   1.720
 1160SOL    HW1 4379   3.502   3.645   1.716
 1160SOL    HW2 4380   3.444   3.797   1.718
 1161SOL     OW 4381   5.004   0.407   5.318
 1161SOL    HW1 4382   5.092   0.403   5.365
 1161SOL    HW2 4383   4.939   0.458   5.373
 1162SOL     OW 4384   4.052   2.870   0.661
 1162SOL    HW1 4385   3.953   2.881   0.674
 1162SOL    HW2 4386   4.084   2.790   0.710
 1163SOL     OW 4387   5.712   2.660   1.934
 1163SOL    HW1 4388   5.720   2.632   1.839
 1163SOL    HW2 4389   5.621   2.637   1.968
 1164SOL     OW 4390   5.367   2.786   3.888
 1164SOL    HW1 4391   5.325   2.861   3.939
 1164SOL    HW2 4392   5.301   2.750   3.822
 1165SOL     OW 4393   1.981   4.540   3.782
 1165SOL    HW1 4394   1.990   4.637   3.762
 1165SOL    HW2 4395   1.986   4.488   3.696
 1166SOL     OW 4396   4.076   0.876   0.006
 1166SOL    HW1 4397   4.047   0.780   7.018
 1166SOL    HW2 4398   4.043   0.926   6.945
 1167SOL     OW 4399   2.711   0.463   6.602
 1167SOL    HW1 4400   2.761   0.389   6.556
 1167SOL    HW2 4401   2.757   0.487   6.688
 1168SOL     OW 4402   5.687   0.130   2.355
 1168SOL    HW1 4403   5.733   0.041   2.351
 1168SOL    HW2 4404   5.703   0.172   2.444
 1169SOL     OW 4405   6.946   3.047   0.377
 1169SOL    HW1 4406   6.978   2.952   0.384
 1169SOL    HW2 4407   6.905   3.074   0.464
 1170SOL     OW 4408   4.480   0.664   2.150
 1170SOL    HW1 4409   4.468   0.637   2.245
 1170SOL    HW2 4410   4.568   0.709   2.138
 1171SOL     OW 4411   2.329   5.634   0.605
 1171SOL    HW1 4412   2.405   5.607   0.664
 1171SOL    HW2 4413   2.351   5.610   0.510
 1172SOL     OW 4414   3.641   4.090   3.297
 1172SOL    HW1 4415   3.624   4.091   3.396
 1172SOL    HW2 4416   3.553   4.094   3.249
 1173SOL     OW 4417   3.178   7.015   6.023
 1173SOL    HW1 4418   3.164   6.948   6.096
 1173SOL    HW2 4419   3.196   0.086   6.062
 1174SOL     OW 4420   3.034   5.617   0.477
 1174SOL    HW1 4421   3.037   5.682   0.552
 1174SOL    HW2 4422   2.942   5.577   0.472
 1175SOL     OW 4423   4.742   3.528   6.935
 1175SOL    HW1 4424   4.647   3.515   6.965
 1175SOL    HW2 4425   4.746   3.604   6.870
 1176SOL     OW 4426   5.926   4.692   0.682
 1176SOL    HW1 4427   5.979   4.756   0.626
 1176SOL    HW2 4428   5.829   4.699   0.658
 1177SOL     OW 4429   0.111   1.594   5.603
 1177SOL    HW1 4430   0.022   1.607   5.559
 1177SOL    HW2 4431   0.171   1.671   5.580
 1178SOL     OW 4432   4.013   3.479   1.393
 1178SOL    HW1 4433   4.049   3.505   1.483
 1178SOL    HW2 4434   3.914   3.464   1.401
 1179SOL     OW 4435   3.157   5.247   0.552
 1179SOL    HW1 4436   3.205   5.169   0.511
 1179SOL    HW2 4437   3.058   5.231   0.550
 1180SOL     OW 4438   2.810   0.402   3.491
 1180SOL    HW1 4439   2.888   0.350   3.458
 1180SOL    HW2 4440   2.827   0.500   3.477
 1181SOL     OW 4441   0.352   3.055   4.681
 1181SOL    HW1 4442   0.318   3.029   4.591
 1181SOL    HW2 4443   0.450   3.035   4.687
 1182SOL     OW 4444   1.950   4.907   2.920
 1182SOL    HW1 4445   1.869   4.916   2.978
 1182SOL    HW2 4446   1.931   4.844   2.845
 1183SOL     OW 4447   4.007   5.271   2.705
 1183SOL    HW1 4448   3.921   5.319   2.688
 1183SOL    HW2 4449   4.026   5.208   2.629
 1184SOL     OW 4450   3.583   1.962   5.129
 1184SOL    HW1 4451   3.483   1.969   5.137
 1184SOL    HW2 4452   3.625   1.978   5.218
 1185SOL     OW 4453   2.115   0.277   0.359
 1185SOL    HW1 4454   2.099   0.365   0.404
 1185SOL    HW2 4455   2.035   0.218   0.372
 1186SOL     OW 4456   6.104   6.626   6.088
 1186SOL    HW1 4457   6.177   6.568   6.051
 1186SOL    HW2 4458   6.104   6.620   6.188
 1187SOL     OW 4459   5.750   5.964   4.933
 1187SOL    HW1 4460   5.713   5.960   5.026
 1187SOL    HW2 4461   5.693   5.908   4.873
 1188SOL     OW 4462   3.175   6.821   6.251
 1188SOL    HW1 4463   3.233   6.879   6.309
 1188SOL    HW2 4464   3.115   6.766   6.309
 1189SOL     OW 4465   5.451   1.186   2.000
 1189SOL    HW1 4466   5.542   1.223   1.984
 1189SOL    HW2 4467   5.391   1.210   1.923
 1190SOL     OW 4468   4.313   4.988   4.839
 1190SOL    HW1 4469   4.281   4.943   4.755
 1190SOL    HW2 4470   4.309   4.923   4.915
 1191SOL     OW 4471   3.732   5.571   5.588
 1191SOL    HW1 4472   3.768   5.598   5.677
 1191SOL    HW2 4473   3.786   5.613   5.516
 1192SOL     OW 4474   5.788   4.945   3.407
 1192SOL    HW1 4475   5.812   5.006   3.332
 1192SOL    HW2 4476   5.870   4.918   3.456
 1193SOL     OW 4477   6.640   0.576   4.427
 1193SOL    HW1 4478   6.569   0.516   4.391
 1193SOL    HW2 4479   6.722   0.569   4.371
 1194SOL     OW 4480   0.052   1.638   1.162
 1194SOL    HW1 4481   6.979   1.615   1.129
 1194SOL    HW2 4482   0.109   1.556   1.158
 1195SOL     OW 4483   6.222   2.095   0.443
 1195SOL    HW1 4484   6.299   2.046   0.402
 1195SOL    HW2 4485   6.231   2.192   0.424
 1196SOL     OW 4486   0.254   4.597   2.089
 1196SOL    HW1 4487   0.314   4.587   2.168
 1196SOL    HW2 4488   0.158   4.593   2.118
 1197SOL     OW 4489   3.694   5.846   5.721
 1197SOL    HW1 4490   3.608   5.898   5.727
 1197SOL    HW2 4491   3.688   5.780   5.646
 1198SOL     OW 4492   2.302   2.747   2.318
 1198SOL    HW1 4493   2.216   2.699   2.301
 1198SOL    HW2 4494   2.378   2.682   2.309
 1199SOL     OW 4495   3.884   2.975   2.842
 1199SOL    HW1 4496   3.828   3.007   2.765
 1199SOL    HW2 4497   3.828   2.920   2.904
 1200SOL     OW 4498   4.112   3.366   5.024
 1200SOL    HW1 4499   4.100   3.449   4.970
 1200SOL    HW2 4500   4.058   3.292   4.984
 1201SOL     OW 4501   0.403   1.103   4.076
 1201SOL    HW1 4502   0.420   1.200   4.091
 1201SOL    HW2 4503   0.480   1.050   4.113
 1202SOL     OW 4504   6.183   0.598   5.733
 1202SOL    HW1 4505   6.280   0.620   5.741
 1202SOL    HW2 4506   6.130   0.667   5.782
 1203SOL     OW 4507   5.642   6.690   1.038
 1203SOL    HW1 4508   5.691   6.768   1.077
 1203SOL    HW2 4509   5.665   6.607   1.089
 1204SOL     OW 4510   4.088   1.194   0.145
 1204SOL    HW1 4511   4.083   1.102   0.184
 1204SOL    HW2 4512   4.037   1.198   0.060
 1205SOL     OW 4513   4.345   3.492   6.228
 1205SOL    HW1 4514   4.365   3.455   6.318
 1205SOL    HW2 4515   4.405   3.450   6.160
 1206SOL     OW 4516   1.341   2.170   5.024
 1206SOL    HW1 4517   1.297   2.083   5.046
 1206SOL    HW2 4518   1.439   2.163   5.045
 1207SOL     OW 4519   0.150   6.817   1.025
 1207SOL    HW1 4520   0.132   6.867   0.940
 1207SOL    HW2 4521   0.151   6.719   1.007
 1208SOL     OW 4522   3.479   4.140   2.434
 1208SOL    HW1 4523   3.429   4.151   2.348
 1208SOL    HW2 4524   3.417   4.106   2.505
 1209SOL     OW 4525   5.759   6.822   4.630
 1209SOL    HW1 4526   5.796   6.781   4.547
 1209SOL    HW2 4527   5.715   6.909   4.608
 1210SOL     OW 4528   4.688   6.585   3.329
 1210SOL    HW1 4529   4.689   6.486   3.343
 1210SOL    HW2 4530   4.595   6.616   3.311
 1211SOL     OW 4531   1.927   3.564   3.126
 1211SOL    HW1 4532   1.891   3.655   3.104
 1211SOL    HW2 4533   1.858   3.495   3.107
 1212SOL     OW 4534   6.690   2.066   5.867
 1212SOL    HW1 4535   6.660   1.977   5.899
 1212SOL    HW2 4536   6.660   2.137   5.932
 1213SOL     OW 4537   5.636   3.069   4.904
 1213SOL    HW1 4538   5.607   2.990   4.849
 1213SOL    HW2 4539   5.696   3.039   4.977
 1214SOL     OW 4540   1.002   3.415   4.905
 1214SOL    HW1 4541   1.020   3.318   4.923
 1214SOL    HW2 4542   0.926   3.423   4.840
 1215SOL     OW 4543   1.936   4.937   2.050
 1215SOL    HW1 4544   2.007   4.904   2.111
 1215SOL    HW2 4545   1.955   4.906   1.957
 1216SOL     OW 4546   0.466   0.147   1.388
 1216SOL    HW1 4547   0.415   0.067   1.357
 1216SOL    HW2 4548   0.558   0.118   1.417
 1217SOL     OW 4549   1.986   6.538   0.823
 1217SOL    HW1 4550   1.954   6.452   0.785
 1217SOL    HW2 4551   1.910   6.585   0.868
 1218SOL     OW 4552   0.702   3.480   4.959
 1218SOL    HW1 4553   0.754   3.563   4.941
 1218SOL    HW2 4554   0.611   3.488   4.919
 1219SOL     OW 4555   4.515   4.526   1.325
 1219SOL    HW1 4556   4.604   4.561   1.356
 1219SOL    HW2 4557   4.481   4.584   1.251
 1220SOL     OW 4558   5.115   3.942   2.898
 1220SOL    HW1 4559   5.193   3.948   2.835
 1220SOL    HW2 4560   5.148   3.944   2.992
 1221SOL     OW 4561   5.501   4.170   6.607
 1221SOL    HW1 4562   5.453   4.086   6.579
 1221SOL    HW2 4563   5.470   4.247   6.551
 1222SOL     OW 4564   0.052   0.376   0.779
 1222SOL    HW1 4565   0.097   0.299   0.825
 1222SOL    HW2 4566   6.980   0.389   0.817
 1223SOL     OW 4567   5.123   1.191   0.732
 1223SOL    HW1 4568   5.031   1.199   0.772
 1223SOL    HW2 4569   5.118   1.207   0.634
 1224SOL     OW 4570   3.602   6.022   0.221
 1224SOL    HW1 4571   3.526   6.045   0.283
 1224SOL    HW2 4572   3.652   6.105   0.198
 1225SOL     OW 4573   4.265   2.525   1.133
 1225SOL    HW1 4574   4.200   2.586   1.088
 1225SOL    HW2 4575   4.215   2.450   1.177
 1226SOL     OW 4576   5.258   6.330   1.117
 1226SOL    HW1 4577   5.260   6.430   1.115
 1226SOL    HW2 4578   5.163   6.299   1.117
 1227SOL     OW 4579   6.112   5.182   5.749
 1227SOL    HW1 4580   6.093   5.118   5.823
 1227SOL    HW2 4581   6.184   5.246   5.777
 1228SOL     OW 4582   3.599   3.204   0.618
 1228SOL    HW1 4583   3.629   3.183   0.525
 1228SOL    HW2 4584   3.500   3.221   0.618
 1229SOL     OW 4585   1.570   6.706   1.586
 1229SOL    HW1 4586   1.579   6.731   1.682
 1229SOL    HW2 4587   1.612   6.777   1.529
 1230SOL     OW 4588   5.365   5.835   3.192
 1230SOL    HW1 4589   5.298   5.901   3.226
 1230SOL    HW2 4590   5.319   5.769   3.134
 1231SOL     OW 4591   1.511   2.393   6.132
 1231SOL    HW1 4592   1.433   2.332   6.145
 1231SOL    HW2 4593   1.559   2.406   6.219
 1232SOL     OW 4594   4.686   0.908   5.195
 1232SOL    HW1 4595   4.755   0.975   5.165
 1232SOL    HW2 4596   4.678   0.911   5.295
 1233SOL     OW 4597   1.192   5.461   3.626
 1233SOL    HW1 4598   1.187   5.543   3.568
 1233SOL    HW2 4599   1.287   5.434   3.637
 1234SOL     OW 4600   6.757   2.312   6.493
 1234SOL    HW1 4601   6.834   2.330   6.554
 1234SOL    HW2 4602   6.791   2.285   6.403
 1235SOL     OW 4603   6.501   4.750   6.936
 1235SOL    HW1 4604   6.417   4.703   6.962
 1235SOL    HW2 4605   6.545   4.700   6.861
 1236SOL     OW 4606   3.609   2.233   0.663
 1236SOL    HW1 4607   3.597   2.259   0.567
 1236SOL    HW2 4608   3.677   2.292   0.705
 1237SOL     OW 4609   1.716   6.230   4.872
 1237SOL    HW1 4610   1.695   6.305   4.810
 1237SOL    HW2 4611   1.778   6.165   4.827
 1238SOL     OW 4612   0.562   6.910   3.452
 1238SOL    HW1 4613   0.505   6.837   3.413
 1238SOL    HW2 4614   0.658   6.891   3.433
 1239SOL     OW 4615   6.543   5.822   4.307
 1239SOL    HW1 4616   6.586   5.784   4.389
 1239SOL    HW2 4617   6.604   5.889   4.265
 1240SOL     OW 4618   5.751   4.975   2.117
 1240SOL    HW1 4619   5.668   4.936   2.155
 1240SOL    HW2 4620   5.791   4.912   2.050
 1241SOL     OW 4621   0.466   4.320   4.724
 1241SOL    HW1 4622   0.491   4.372   4.806
 1241SOL    HW2 4623   0.389   4.366   4.678
 1242SOL     OW 4624   2.145   3.539   0.326
 1242SOL    HW1 4625   2.129   3.605   0.253
 1242SOL    HW2 4626   2.244   3.527   0.339
 1243SOL     OW 4627   0.401   1.576   4.611
 1243SOL    HW1 4628   0.342   1.642   4.657
 1243SOL    HW2 4629   0.486   1.621   4.584
 1244SOL     OW 4630   5.432   6.970   5.424
 1244SOL    HW1 4631   5.442   0.015   5.349
 1244SOL    HW2 4632   5.414   6.879   5.387
 1245SOL     OW 4633   4.983   5.854   1.273
 1245SOL    HW1 4634   4.902   5.886   1.225
 1245SOL    HW2 4635   5.007   5.918   1.345
 1246SOL     OW 4636   3.834   1.126   2.288
 1246SOL    HW1 4637   3.855   1.040   2.241
 1246SOL    HW2 4638   3.739   1.123   2.322
 1247SOL     OW 4639   6.180   0.048   4.774
 1247SOL    HW1 4640   6.180   0.142   4.807
 1247SOL    HW2 4641   6.236   0.041   4.691
 1248SOL     OW 4642   0.976   6.187   3.851
 1248SOL    HW1 4643   0.932   6.106   3.890
 1248SOL    HW2 4644   0.954   6.268   3.906
 1249SOL     OW 4645   0.025   4.559   1.794
 1249SOL    HW1 4646   0.060   4.631   1.734
 1249SOL    HW2 4647   0.092   4.485   1.798
 1250SOL     OW 4648   6.658   2.908   4.523
 1250SOL    HW1 4649   6.632   2.899   4.620
 1250SOL    HW2 4650   6.629   2.998   4.489
 1251SOL     OW 4651   2.148   0.364   2.415
 1251SOL    HW1 4652   2.174   0.304   2.340
 1251SOL    HW2 4653   2.190   0.331   2.500
 1252SOL     OW 4654   3.151   5.486   6.626
 1252SOL    HW1 4655   3.251   5.486   6.616
 1252SOL    HW2 4656   3.128   5.511   6.720
 1253SOL     OW 4657   2.694   0.507   1.473
 1253SOL    HW1 4658   2.653   0.525   1.383
 1253SOL    HW2 4659   2.623   0.477   1.536
 1254SOL     OW 4660   6.176   2.221   3.305
 1254SOL    HW1 4661   6.235   2.234   3.385
 1254SOL    HW2 4662   6.191   2.295   3.240
 1255SOL     OW 4663   5.821   2.762   5.336
 1255SOL    HW1 4664   5.734   2.773   5.384
 1255SOL    HW2 4665   5.880   2.700   5.389
 1256SOL     OW 4666   0.093   6.095   2.937
 1256SOL    HW1 4667   0.098   6.060   2.843
 1256SOL    HW2 4668   0.042   6.181   2.938
 1257SOL     OW 4669   0.174   4.610   4.084
 1257SOL    HW1 4670   0.189   4.697   4.038
 1257SOL    HW2 4671   0.208   4.535   4.027
 1258SOL     OW 4672   2.436   5.836   2.856
 1258SOL    HW1 4673   2.370   5.786   2.800
 1258SOL    HW2 4674   2.423   5.812   2.952
 1259SOL     OW 4675   3.492   6.453   5.368
 1259SOL    HW1 4676   3.548   6.506   5.433
 1259SOL    HW2 4677   3.458   6.514   5.296
 1260SOL     OW 4678   3.509   1.025   1.342
 1260SOL    HW1 4679   3.574   1.024   1.418
 1260SOL    HW2 4680   3.493   1.120   1.313
 1261SOL     OW 4681   0.158   3.688   6.945
 1261SOL    HW1 4682   0.086   3.648   6.888
 1261SOL    HW2 4683   0.236   3.626   6.947
 1262SOL     OW 4684   4.568   4.755   1.104
 1262SOL    HW1 4685   4.648   4.813   1.090
 1262SOL    HW2 4686   4.592   4.660   1.085
 1263SOL     OW 4687   6.690   1.722   0.486
 1263SOL    HW1 4688   6.675   1.655   0.414
 1263SOL    HW2 4689   6.629   1.801   0.471
 1264SOL     OW 4690   0.915   4.155   2.482
 1264SOL    HW1 4691   0.981   4.199   2.422
 1264SOL    HW2 4692   0.895   4.063   2.450
 1265SOL     OW 4693   6.485   4.842   3.187
 1265SOL    HW1 4694   6.422   4.833   3.264
 1265SOL    HW2 4695   6.434   4.837   3.101
 1266SOL     OW 4696   2.372   0.947   3.973
 1266SOL    HW1 4697   2.398   1.040   3.999
 1266SOL    HW2 4698   2.291   0.951   3.915
 1267SOL     OW 4699   5.711   5.804   1.325
 1267SOL    HW1 4700   5.805   5.812   1.360
 1267SOL    HW2 4701   5.669   5.894   1.322
 1268SOL     OW 4702   4.917   2.334   6.756
 1268SOL    HW1 4703   4.945   2.398   6.685
 1268SOL    HW2 4704   4.959   2.244   6.740
 1269SOL     OW 4705   5.887   5.840   5.189
 1269SOL    HW1 4706   5.906   5.843   5.287
 1269SOL    HW2 4707   5.973   5.837   5.138
 1270SOL     OW 4708   2.149   3.843   4.324
 1270SOL    HW1 4709   2.145   3.835   4.424
 1270SOL    HW2 4710   2.216   3.913   4.299
 1271SOL     OW 4711   3.446   1.855   3.263
 1271SOL    HW1 4712   3.510   1.931   3.276
 1271SOL    HW2 4713   3.400   1.865   3.175
 1272SOL     OW 4714   0.064   5.915   1.225
 1272SOL    HW1 4715   0.024   5.877   1.308
 1272SOL    HW2 4716   0.097   5.840   1.167
 1273SOL     OW 4717   1.635   4.303   0.014
 1273SOL    HW1 4718   1.643   4.290   6.934
 1273SOL    HW2 4719   1.538   4.312   0.038
 1274SOL     OW 4720   6.597   3.337   1.643
 1274SOL    HW1 4721   6.668   3.279   1.603
 1274SOL    HW2 4722   6.587   3.420   1.589
 1275SOL     OW 4723   3.903   0.273   3.400
 1275SOL    HW1 4724   3.813   0.280   3.356
 1275SOL    HW2 4725   3.969   0.237   3.334
 1276SOL     OW 4726   6.865   0.269   3.622
 1276SOL    HW1 4727   6.920   0.313   3.693
 1276SOL    HW2 4728   6.769   0.265   3.652
 1277SOL     OW 4729   0.424   0.549   4.565
 1277SOL    HW1 4730   0.380   0.518   4.650
 1277SOL    HW2 4731   0.502   0.607   4.588
 1278SOL     OW 4732   1.354   1.256   5.345
 1278SOL    HW1 4733   1.278   1.270   5.408
 1278SOL    HW2 4734   1.441   1.274   5.392
 1279SOL     OW 4735   1.988   6.891   0.469
 1279SOL    HW1 4736   2.048   6.827   0.517
 1279SOL    HW2 4737   1.991   6.873   0.371
 1280SOL     OW 4738   2.563   6.151   3.515
 1280SOL    HW1 4739   2.613   6.197   3.442
 1280SOL    HW2 4740   2.579   6.199   3.602
 1281SOL     OW 4741   1.021   5.603   2.832
 1281SOL    HW1 4742   1.019   5.702   2.846
 1281SOL    HW2 4743   1.031   5.557   2.920
 1282SOL     OW 4744   0.683   1.071   0.470
 1282SOL    HW1 4745   0.617   1.022   0.412
 1282SOL    HW2 4746   0.659   1.058   0.566
 1283SOL     OW 4747   5.242   2.660   5.181
 1283SOL    HW1 4748   5.273   2.742   5.132
 1283SOL    HW2 4749   5.174   2.686   5.250
 1284SOL     OW 4750   3.485   3.447   1.535
 1284SOL    HW1 4751   3.488   3.361   1.484
 1284SOL    HW2 4752   3.427   3.513   1.486
 1285SOL     OW 4753   5.709   3.740   6.199
 1285SOL    HW1 4754   5.805   3.716   6.210
 1285SOL    HW2 4755   5.689   3.824   6.249
 1286SOL     OW 4756   5.280   4.382   2.671
 1286SOL    HW1 4757   5.220   4.321   2.722
 1286SOL    HW2 4758   5.243   4.396   2.579
 1287SOL     OW 4759   5.049   4.227   6.063
 1287SOL    HW1 4760   5.000   4.167   6.000
 1287SOL    HW2 4761   5.133   4.260   6.019
 1288SOL     OW 4762   6.396   3.675   1.082
 1288SOL    HW1 4763   6.304   3.708   1.103
 1288SOL    HW2 4764   6.395   3.576   1.069
 1289SOL     OW 4765   0.464   6.185   1.714
 1289SOL    HW1 4766   0.478   6.273   1.758
 1289SOL    HW2 4767   0.385   6.139   1.755
 1290SOL     OW 4768   0.973   0.667   6.990
 1290SOL    HW1 4769   1.013   0.601   6.927
 1290SOL    HW2 4770   0.903   0.720   6.942
 1291SOL     OW 4771   0.866   3.779   5.746
 1291SOL    HW1 4772   0.775   3.743   5.724
 1291SOL    HW2 4773   0.936   3.716   5.710
 1292SOL     OW 4774   6.219   4.952   2.514
 1292SOL    HW1 4775   6.185   5.019   2.448
 1292SOL    HW2 4776   6.209   4.860   2.476
 1293SOL     OW 4777   2.372   1.538   6.577
 1293SOL    HW1 4778   2.352   1.504   6.485
 1293SOL    HW2 4779   2.334   1.476   6.645
 1294SOL     OW 4780   0.983   3.487   1.055
 1294SOL    HW1 4781   0.943   3.553   1.118
 1294SOL    HW2 4782   0.959   3.511   0.961
 1295SOL     OW 4783   6.539   3.589   2.774
 1295SOL    HW1 4784   6.556   3.560   2.680
 1295SOL    HW2 4785   6.459   3.541   2.810
 1296SOL     OW 4786   4.023   0.376   5.216
 1296SOL    HW1 4787   4.110   0.399   5.173
 1296SOL    HW2 4788   4.038   0.356   5.313
 1297SOL     OW 4789   5.934   0.598   6.099
 1297SOL    HW1 4790   5.870   0.674   6.090
 1297SOL    HW2 4791   5.958   0.585   6.196
 1298SOL     OW 4792   6.340   3.427   3.373
 1298SOL    HW1 4793   6.352   3.429   3.274
 1298SOL    HW2 4794   6.409   3.484   3.416
 1299SOL     OW 4795   0.881   3.697   2.534
 1299SOL    HW1 4796   0.959   3.636   2.522
 1299SOL    HW2 4797   0.899   3.759   2.610
 1300SOL     OW 4798   3.301   3.886   1.919
 1300SOL    HW1 4799   3.305   3.844   2.010
 1300SOL    HW2 4800   3.234   3.961   1.920
 1301SOL     OW 4801   0.593   6.291   2.635
 1301SOL    HW1 4802   0.613   6.193   2.648
 1301SOL    HW2 4803   0.660   6.330   2.572
 1302SOL     OW 4804   3.054   0.213   5.088
 1302SOL    HW1 4805   3.007   0.203   5.176
 1302SOL    HW2 4806   3.107   0.299   5.089
 1303SOL     OW 4807   4.490   1.751   0.894
 1303SOL    HW1 4808   4.433   1.765   0.976
 1303SOL    HW2 4809   4.430   1.738   0.815
 1304SOL     OW 4810   1.542   1.403   6.591
 1304SOL    HW1 4811   1.507   1.445   6.507
 1304SOL    HW2 4812   1.509   1.309   6.597
 1305SOL     OW 4813   5.572   5.028   6.706
 1305SOL    HW1 4814   5.604   4.951   6.650
 1305SOL    HW2 4815   5.629   5.108   6.686
 1306SOL     OW 4816   0.867   4.731   5.222
 1306SOL    HW1 4817   0.942   4.775   5.272
 1306SOL    HW2 4818   0.901   4.651   5.174
 1307SOL     OW 4819   1.341   2.341   4.786
 1307SOL    HW1 4820   1.331   2.270   4.856
 1307SOL    HW2 4821   1.434   2.341   4.751
 1308SOL     OW 4822   4.106   5.563   4.660
 1308SOL    HW1 4823   4.123   5.475   4.704
 1308SOL    HW2 4824   4.162   5.634   4.703
 1309SOL     OW 4825   5.641   2.857   5.504
 1309SOL    HW1 4826   5.567   2.885   5.444
 1309SOL    HW2 4827   5.712   2.927   5.506
 1310SOL     OW 4828   6.717   3.706   5.227
 1310SOL    HW1 4829   6.683   3.758   5.306
 1310SOL    HW2 4830   6.777   3.765   5.173
 1311SOL     OW 4831   6.776   6.618   4.127
 1311SOL    HW1 4832   6.838   6.694   4.150
 1311SOL    HW2 4833   6.744   6.575   4.211
 1312SOL     OW 4834   0.850   0.575   6.669
 1312SOL    HW1 4835   0.945   0.584   6.699
 1312SOL    HW2 4836   0.820   0.480   6.679
 1313SOL     OW 4837   1.569   5.016   5.401
 1313SOL    HW1 4838   1.586   5.010   5.303
 1313SOL    HW2 4839   1.620   4.944   5.448
 1314SOL     OW 4840   2.542   1.845   5.504
 1314SOL    HW1 4841   2.604   1.794   5.445
 1314SOL    HW2 4842   2.518   1.790   5.584
 1315SOL     OW 4843   0.714   0.671   0.195
 1315SOL    HW1 4844   0.662   0.673   0.109
 1315SOL    HW2 4845   0.805   0.712   0.179
 1316SOL     OW 4846   1.845   6.648   3.841
 1316SOL    HW1 4847   1.878   6.742   3.842
 1316SOL    HW2 4848   1.866   6.604   3.929
 1317SOL     OW 4849   1.037   3.790   4.268
 1317SOL    HW1 4850   1.123   3.807   4.316
 1317SOL    HW2 4851   0.968   3.762   4.334
 1318SOL     OW 4852   6.810   0.564   0.575
 1318SOL    HW1 4853   6.839   0.660   0.578
 1318SOL    HW2 4854   6.737   0.554   0.507
 1319SOL     OW 4855   6.345   1.416   6.995
 1319SOL    HW1 4856   6.344   1.317   6.981
 1319SOL    HW2 4857   6.317   1.462   6.910
 1320SOL     OW 4858   5.926   3.774   0.273
 1320SOL    HW1 4859   5.993   3.780   0.199
 1320SOL    HW2 4860   5.972   3.745   0.357
 1321SOL     OW 4861   4.320   2.454   6.310
 1321SOL    HW1 4862   4.384   2.379   6.329
 1321SOL    HW2 4863   4.250   2.457   6.382
 1322SOL     OW 4864   5.220   0.916   3.382
 1322SOL    HW1 4865   5.171   0.968   3.452
 1322SOL    HW2 4866   5.206   0.818   3.396
 1323SOL     OW 4867   5.354   1.775   5.215
 1323SOL    HW1 4868   5.416   1.854   5.212
 1323SOL    HW2 4869   5.259   1.807   5.213
 1324SOL     OW 4870   1.024   3.016   1.748
 1324SOL    HW1 4871   1.123   3.009   1.736
 1324SOL    HW2 4872   0.989   2.932   1.788
 1325SOL     OW 4873   2.093   6.887   2.146
 1325SOL    HW1 4874   2.062   6.955   2.080
 1325SOL    HW2 4875   2.074   6.918   2.239
 1326SOL     OW 4876   5.118   3.142   4.568
 1326SOL    HW1 4877   5.105   3.043   4.565
 1326SOL    HW2 4878   5.039   3.184   4.611
 1327SOL     OW 4879   3.102   4.895   3.145
 1327SOL    HW1 4880   3.136   4.962   3.079
 1327SOL    HW2 4881   3.164   4.891   3.224
 1328SOL     OW 4882   1.000   2.629   1.171
 1328SOL    HW1 4883   0.917   2.582   1.139
 1328SOL    HW2 4884   1.075   2.609   1.108
 1329SOL     OW 4885   6.826   2.100   0.367
 1329SOL    HW1 4886   6.824   2.069   0.272
 1329SOL    HW2 4887   6.921   2.116   0.394
 1330SOL     OW 4888   6.427   0.985   1.213
 1330SOL    HW1 4889   6.355   0.918   1.193
 1330SOL    HW2 4890   6.516   0.943   1.200
 1331SOL     OW 4891   4.420   2.119   3.096
 1331SOL    HW1 4892   4.514   2.118   3.130
 1331SOL    HW2 4893   4.357   2.101   3.173
 1332SOL     OW 4894   3.628   0.093   0.240
 1332SOL    HW1 4895   3.693   0.020   0.218
 1332SOL    HW2 4896   3.666   0.181   0.212
 1333SOL     OW 4897   3.828   3.601   6.039
 1333SOL    HW1 4898   3.754   3.567   5.980
 1333SOL    HW2 4899   3.884   3.666   5.989
 1334SOL     OW 4900   6.906   2.347   4.849
 1334SOL    HW1 4901   6.958   2.432   4.844
 1334SOL    HW2 4902   6.963   2.275   4.888
 1335SOL     OW 4903   2.888   6.571   2.863
 1335SOL    HW1 4904   2.972   6.619   2.890
 1335SOL    HW2 4905   2.809   6.629   2.881
 1336SOL     OW 4906   1.436   1.531   6.390
 1336SOL    HW1 4907   1.500   1.587   6.339
 1336SOL    HW2 4908   1.356   1.512   6.334
 1337SOL     OW 4909   0.715   1.577   5.039
 1337SOL    HW1 4910   0.786   1.563   4.970
 1337SOL    HW2 4911   0.645   1.638   5.003
 1338SOL     OW 4912   4.535   2.977   5.766
 1338SOL    HW1 4913   4.551   2.898   5.708
 1338SOL    HW2 4914   4.491   2.949   5.851
 1339SOL     OW 4915   0.241   6.813   0.232
 1339SOL    HW1 4916   0.194   6.899   0.213
 1339SOL    HW2 4917   0.221   6.747   0.160
 1340SOL     OW 4918   0.981   1.271   2.165
 1340SOL    HW1 4919   0.905   1.251   2.103
 1340SOL    HW2 4920   1.043   1.337   2.123
 1341SOL     OW 4921   3.958   0.006   5.652
 1341SOL    HW1 4922   3.864   6.995   5.637
 1341SOL    HW2 4923   4.003   6.964   5.717
 1342SOL     OW 4924   1.770   4.681   6.029
 1342SOL    HW1 4925   1.811   4.591   6.017
 1342SOL    HW2 4926   1.740   4.692   6.124
 1343SOL     OW 4927   3.686   6.062   2.187
 1343SOL    HW1 4928   3.689   6.156   2.153
 1343SOL    HW2 4929   3.765   6.011   2.152
 1344SOL     OW 4930   0.080   4.046   3.563
 1344SOL    HW1 4931   0.165   4.050   3.616
 1344SOL    HW2 4932   0.013   3.990   3.611
 1345SOL     OW 4933   1.145   1.808   3.558
 1345SOL    HW1 4934   1.057   1.796   3.602
 1345SOL    HW2 4935   1.152   1.901   3.521
 1346SOL     OW 4936   1.637   6.868   3.295
 1346SOL    HW1 4937   1.578   6.858   3.215
 1346SOL    HW2 4938   1.731   6.845   3.270
 1347SOL     OW 4939   6.482   6.552   3.774
 1347SOL    HW1 4940   6.492   6.651   3.760
 1347SOL    HW2 4941   6.449   6.535   3.867
 1348SOL     OW 4942   5.933   5.751   3.179
 1348SOL    HW1 4943   5.849   5.713   3.219
 1348SOL    HW2 4944   5.997   5.773   3.252
 1349SOL     OW 4945   4.796   2.791   6.336
 1349SOL    HW1 4946   4.892   2.788   6.365
 1349SOL    HW2 4947   4.772   2.886   6.313
 1350SOL     OW 4948   3.631   4.805   0.264
 1350SOL    HW1 4949   3.700   4.760   0.207
 1350SOL    HW2 4950   3.562   4.847   0.206
 1351SOL     OW 4951   0.135   2.257   2.911
 1351SOL    HW1 4952   0.133   2.168   2.956
 1351SOL    HW2 4953   0.074   2.320   2.958
 1352SOL     OW 4954   0.798   1.003   3.005
 1352SOL    HW1 4955   0.761   0.961   3.087
 1352SOL    HW2 4956   0.794   0.938   2.929
 1353SOL     OW 4957   6.498   4.092   5.901
 1353SOL    HW1 4958   6.471   4.120   5.809
 1353SOL    HW2 4959   6.537   4.000   5.897
 1354SOL     OW 4960   0.093   2.140   0.481
 1354SOL    HW1 4961   0.049   2.224   0.513
 1354SOL    HW2 4962   0.121   2.085   0.560
 1355SOL     OW 4963   5.811   3.080   5.774
 1355SOL    HW1 4964   5.854   3.144   5.838
 1355SOL    HW2 4965   5.773   3.003   5.825
 1356SOL     OW 4966   3.317   3.512   3.883
 1356SOL    HW1 4967   3.304   3.420   3.919
 1356SOL    HW2 4968   3.229   3.549   3.854
 1357SOL     OW 4969   2.013   3.741   5.689
 1357SOL    HW1 4970   1.962   3.704   5.611
 1357SOL    HW2 4971   2.064   3.822   5.660
 1358SOL     OW 4972   3.644   1.366   5.945
 1358SOL    HW1 4973   3.669   1.367   6.042
 1358SOL    HW2 4974   3.661   1.275   5.907
 1359SOL     OW 4975   7.005   4.673   1.156
 1359SOL    HW1 4976   0.007   4.733   1.233
 1359SOL    HW2 4977   6.961   4.727   1.084
 1360SOL     OW 4978   4.044   3.843   2.606
 1360SOL    HW1 4979   4.050   3.752   2.646
 1360SOL    HW2 4980   3.992   3.903   2.667
 1361SOL     OW 4981   6.822   6.864   6.327
 1361SOL    HW1 4982   6.724   6.852   6.307
 1361SOL    HW2 4983   6.865   6.774   6.332
 1362SOL     OW 4984   2.916   3.740   4.297
 1362SOL    HW1 4985   2.863   3.700   4.372
 1362SOL    HW2 4986   2.994   3.681   4.276
 1363SOL     OW 4987   6.717   5.976   3.631
 1363SOL    HW1 4988   6.668   5.983   3.544
 1363SOL    HW2 4989   6.738   6.067   3.665
 1364SOL     OW 4990   0.570   2.513   0.483
 1364SOL    HW1 4991   0.580   2.436   0.546
 1364SOL    HW2 4992   0.581   2.481   0.389
 1365SOL     OW 4993   0.770   3.362   5.665
 1365SOL    HW1 4994   0.762   3.456   5.632
 1365SOL    HW2 4995   0.815   3.361   5.755
 1366SOL     OW 4996   0.381   4.177   0.878
 1366SOL    HW1 4997   0.291   4.201   0.843
 1366SOL    HW2 4998   0.385   4.196   0.976
 1367SOL     OW 4999   1.354   5.616   2.562
 1367SOL    HW1 5000   1.453   5.619   2.546
 1367SOL    HW2 5001   1.329   5.686   2.629
 1368SOL     OW 5002   0.052   0.724   3.924
 1368SOL    HW1 5003   0.092   0.705   3.834
 1368SOL    HW2 5004   0.124   0.718   3.994
 1369SOL     OW 5005   2.550   6.622   2.289
 1369SOL    HW1 5006   2.619   6.553   2.266
 1369SOL    HW2 5007   2.558   6.646   2.386
 1370SOL     OW 5008   5.769   2.303   4.021
 1370SOL    HW1 5009   5.678   2.293   4.062
 1370SOL    HW2 5010   5.768   2.381   3.958
 1371SOL     OW 5011   4.738   1.656   4.832
 1371SOL    HW1 5012   4.819   1.709   4.860
 1371SOL    HW2 5013   4.688   1.708   4.763
 1372SOL     OW 5014   0.350   2.230   1.079
 1372SOL    HW1 5015   0.254   2.203   1.074
 1372SOL    HW2 5016   0.389   2.231   0.987
 1373SOL     OW 5017   4.904   2.311   0.132
 1373SOL    HW1 5018   4.819   2.364   0.138
 1373SOL    HW2 5019   4.960   2.330   0.214
 1374SOL     OW 5020   4.815   3.718   0.248
 1374SOL    HW1 5021   4.833   3.636   0.194
 1374SOL    HW2 5022   4.848   3.704   0.341
 1375SOL     OW 5023   0.181   6.875   6.657
 1375SOL    HW1 5024   0.156   6.786   6.697
 1375SOL    HW2 5025   0.211   6.937   6.729
 1376SOL     OW 5026   3.512   4.681   5.660
 1376SOL    HW1 5027   3.478   4.669   5.567
 1376SOL    HW2 5028   3.528   4.779   5.677
 1377SOL     OW 5029   1.208   3.546   3.480
 1377SOL    HW1 5030   1.172   3.506   3.564
 1377SOL    HW2 5031   1.145   3.617   3.447
 1378SOL     OW 5032   5.660   2.607   5.648
 1378SOL    HW1 5033   5.730   2.640   5.711
 1378SOL    HW2 5034   5.622   2.684   5.596
 1379SOL     OW 5035   4.208   5.681   3.468
 1379SOL    HW1 5036   4.188   5.726   3.555
 1379SOL    HW2 5037   4.278   5.612   3.481
 1380SOL     OW 5038   0.155   5.987   3.486
 1380SOL    HW1 5039   0.220   5.966   3.413
 1380SOL    HW2 5040   0.092   5.910   3.497
 1381SOL     OW 5041   5.656   1.859   6.919
 1381SOL    HW1 5042   5.625   1.933   6.980
 1381SOL    HW2 5043   5.627   1.879   6.826
 1382SOL     OW 5044   5.079   3.286   1.082
 1382SOL    HW1 5045   5.034   3.296   1.171
 1382SOL    HW2 5046   5.096   3.377   1.043
 1383SOL     OW 5047   1.097   0.308   1.588
 1383SOL    HW1 5048   1.168   0.378   1.598
 1383SOL    HW2 5049   1.011   0.351   1.562
 1384SOL     OW 5050   4.787   6.902   1.988
 1384SOL    HW1 5051   4.802   6.803   1.988
 1384SOL    HW2 5052   4.847   6.945   2.055
 1385SOL     OW 5053   2.788   4.721   3.673
 1385SOL    HW1 5054   2.804   4.745   3.577
 1385SOL    HW2 5055   2.874   4.728   3.724
 1386SOL     OW 5056   3.062   0.541   3.707
 1386SOL    HW1 5057   3.126   0.614   3.732
 1386SOL    HW2 5058   3.001   0.573   3.635
 1387SOL     OW 5059   3.764   5.702   3.252
 1387SOL    HW1 5060   3.754   5.797   3.283
 1387SOL    HW2 5061   3.861   5.680   3.243
 1388SOL     OW 5062   6.510   0.203   1.920
 1388SOL    HW1 5063   6.446   0.132   1.951
 1388SOL    HW2 5064   6.555   0.244   1.999
 1389SOL     OW 5065   6.148   1.179   4.423
 1389SOL    HW1 5066   6.077   1.192   4.492
 1389SOL    HW2 5067   6.117   1.112   4.356
 1390SOL     OW 5068   0.310   3.892   6.589
 1390SOL    HW1 5069   0.384   3.862   6.649
 1390SOL    HW2 5070   0.225   3.900   6.643
 1391SOL     OW 5071   6.664   6.521   4.900
 1391SOL    HW1 5072   6.691   6.428   4.876
 1391SOL    HW2 5073   6.736   6.585   4.872
 1392SOL     OW 5074   5.678   6.210   6.114
 1392SOL    HW1 5075   5.745   6.279   6.143
 1392SOL    HW2 5076   5.588   6.234   6.151
 1393SOL     OW 5077   6.493   4.855   5.048
 1393SOL    HW1 5078   6.477   4.758   5.066
 1393SOL    HW2 5079   6.494   4.905   5.134
 1394SOL     OW 5080   3.681   4.871   5.965
 1394SOL    HW1 5081   3.658   4.877   5.868
 1394SOL    HW2 5082   3.621   4.804   6.009
 1395SOL     OW 5083   2.433   4.362   5.579
 1395SOL    HW1 5084   2.460   4.296   5.510
 1395SOL    HW2 5085   2.459   4.454   5.549
 1396SOL     OW 5086   0.993   1.231   4.970
 1396SOL    HW1 5087   0.908   1.198   5.012
 1396SOL    HW2 5088   0.973   1.311   4.913
 1397SOL     OW 5089   0.177   0.189   3.518
 1397SOL    HW1 5090   0.153   0.154   3.427
 1397SOL    HW2 5091   0.094   0.193   3.574
 1398SOL     OW 5092   2.971   0.634   6.446
 1398SOL    HW1 5093   2.912   0.715   6.451
 1398SOL    HW2 5094   2.923   0.562   6.395
 1399SOL     OW 5095   3.958   5.480   0.429
 1399SOL    HW1 5096   3.973   5.406   0.495
 1399SOL    HW2 5097   4.031   5.478   0.360
 1400SOL     OW 5098   0.418   1.739   3.253
 1400SOL    HW1 5099   0.469   1.687   3.184
 1400SOL    HW2 5100   0.394   1.678   3.329
 1401SOL     OW 5101   6.435   0.999   4.686
 1401SOL    HW1 5102   6.446   0.962   4.594
 1401SOL    HW2 5103   6.490   0.945   4.750
 1402SOL     OW 5104   6.655   3.819   6.266
 1402SOL    HW1 5105   6.587   3.893   6.269
 1402SOL    HW2 5106   6.614   3.738   6.225
 1403SOL     OW 5107   2.532   2.512   1.462
 1403SOL    HW1 5108   2.525   2.575   1.384
 1403SOL    HW2 5109   2.486   2.552   1.541
 1404SOL     OW 5110   6.296   6.801   0.709
 1404SOL    HW1 5111   6.378   6.776   0.657
 1404SOL    HW2 5112   6.236   6.858   0.653
 1405SOL     OW 5113   2.656   3.591   1.075
 1405SOL    HW1 5114   2.570   3.557   1.036
 1405SOL    HW2 5115   2.655   3.578   1.174
 1406SOL     OW 5116   0.461   5.591   0.689
 1406SOL    HW1 5117   0.553   5.627   0.703
 1406SOL    HW2 5118   0.410   5.596   0.775
 1407SOL     OW 5119   0.130   2.292   2.407
 1407SOL    HW1 5120   0.215   2.271   2.456
 1407SOL    HW2 5121   0.057   2.233   2.440
 1408SOL     OW 5122   5.730   1.406   6.136
 1408SOL    HW1 5123   5.731   1.506   6.143
 1408SOL    HW2 5124   5.797   1.368   6.201
 1409SOL     OW 5125   0.040   0.274   5.081
 1409SOL    HW1 5126   0.040   0.307   5.175
 1409SOL    HW2 5127   0.028   0.352   5.019
 1410SOL     OW 5128   1.056   3.469   6.423
 1410SOL    HW1 5129   1.017   3.455   6.513
 1410SOL    HW2 5130   1.154   3.491   6.432
 1411SOL     OW 5131   3.324   6.571   1.255
 1411SOL    HW1 5132   3.412   6.583   1.210
 1411SOL    HW2 5133   3.284   6.660   1.275
 1412SOL     OW 5134   0.626   2.228   0.859
 1412SOL    HW1 5135   0.682   2.149   0.880
 1412SOL    HW2 5136   0.679   2.312   0.876
 1413SOL     OW 5137   1.353   2.342   5.424
 1413SOL    HW1 5138   1.379   2.279   5.497
 1413SOL    HW2 5139   1.255   2.336   5.408
 1414SOL     OW 5140   2.688   1.383   1.782
 1414SOL    HW1 5141   2.736   1.466   1.807
 1414SOL    HW2 5142   2.744   1.328   1.721
 1415SOL     OW 5143   2.736   1.157   4.559
 1415SOL    HW1 5144   2.707   1.079   4.615
 1415SOL    HW2 5145   2.684   1.158   4.473
 1416SOL     OW 5146   5.386   5.210   4.651
 1416SOL    HW1 5147   5.313   5.232   4.717
 1416SOL    HW2 5148   5.346   5.205   4.559
 1417SOL     OW 5149   2.843   2.186   0.299
 1417SOL    HW1 5150   2.931   2.230   0.314
 1417SOL    HW2 5151   2.856   2.087   0.295
 1418SOL     OW 5152   3.410   4.104   3.135
 1418SOL    HW1 5153   3.384   4.015   3.098
 1418SOL    HW2 5154   3.372   4.177   3.078
 1419SOL     OW 5155   2.867   5.873   4.871
 1419SOL    HW1 5156   2.770   5.889   4.892
 1419SOL    HW2 5157   2.923   5.929   4.930
 1420SOL     OW 5158   2.822   6.471   1.468
 1420SOL    HW1 5159   2.857   6.466   1.561
 1420SOL    HW2 5160   2.886   6.525   1.412
 1421SOL     OW 5161   2.165   4.942   3.696
 1421SOL    HW1 5162   2.233   4.985   3.755
 1421SOL    HW2 5163   2.173   4.981   3.604
 1422SOL     OW 5164   1.260   3.765   0.871
 1422SOL    HW1 5165   1.227   3.692   0.811
 1422SOL    HW2 5166   1.360   3.765   0.872
 1423SOL     OW 5167   5.342   6.407   3.366
 1423SOL    HW1 5168   5.438   6.386   3.387
 1423SOL    HW2 5169   5.292   6.419   3.451
 1424SOL     OW 5170   6.331   5.077   6.157
 1424SOL    HW1 5171   6.297   4.992   6.197
 1424SOL    HW2 5172   6.343   5.065   6.059
 1425SOL     OW 5173   1.744   5.469   5.419
 1425SOL    HW1 5174   1.729   5.398   5.350
 1425SOL    HW2 5175   1.670   5.536   5.416
 1426SOL     OW 5176   1.632   3.650   6.135
 1426SOL    HW1 5177   1.694   3.695   6.072
 1426SOL    HW2 5178   1.641   3.691   6.226
 1427SOL     OW 5179   0.522   0.302   3.721
 1427SOL    HW1 5180   0.573   0.225   3.759
 1427SOL    HW2 5181   0.493   0.281   3.628
 1428SOL     OW 5182   6.802   3.459   0.226
 1428SOL    HW1 5183   6.801   3.520   0.306
 1428SOL    HW2 5184   6.768   3.369   0.253
 1429SOL     OW 5185   4.274   1.980   6.705
 1429SOL    HW1 5186   4.330   2.044   6.758
 1429SOL    HW2 5187   4.334   1.922   6.649
 1430SOL     OW 5188   1.384   4.748   3.515
 1430SOL    HW1 5189   1.428   4.745   3.605
 1430SOL    HW2 5190   1.308   4.684   3.513
 1431SOL     OW 5191   2.719   1.927   0.766
 1431SOL    HW1 5192   2.802   1.982   0.778
 1431SOL    HW2 5193   2.672   1.956   0.682
 1432SOL     OW 5194   2.484   1.631   2.517
 1432SOL    HW1 5195   2.483   1.549   2.460
 1432SOL    HW2 5196   2.402   1.686   2.498
 1433SOL     OW 5197   4.500   1.016   4.999
 1433SOL    HW1 5198   4.564   0.956   5.046
 1433SOL    HW2 5199   4.455   1.077   5.065
 1434SOL     OW 5200   0.295   6.980   5.581
 1434SOL    HW1 5201   0.210   0.011   5.598
 1434SOL    HW2 5202   0.278   6.882   5.583
 1435SOL     OW 5203   6.402   0.182   2.851
 1435SOL    HW1 5204   6.343   0.242   2.905
 1435SOL    HW2 5205   6.492   0.226   2.839
 1436SOL     OW 5206   5.179   4.048   6.683
 1436SOL    HW1 5207   5.182   4.057   6.584
 1436SOL    HW2 5208   5.103   3.988   6.709
 1437SOL     OW 5209   2.989   2.215   4.186
 1437SOL    HW1 5210   2.996   2.119   4.161
 1437SOL    HW2 5211   2.946   2.266   4.111
 1438SOL     OW 5212   2.524   6.173   1.090
 1438SOL    HW1 5213   2.505   6.260   1.046
 1438SOL    HW2 5214   2.592   6.122   1.036
 1439SOL     OW 5215   6.574   5.645   1.637
 1439SOL    HW1 5216   6.641   5.657   1.563
 1439SOL    HW2 5217   6.486   5.681   1.607
 1440SOL     OW 5218   3.220   2.848   0.042
 1440SOL    HW1 5219   3.122   2.842   0.058
 1440SOL    HW2 5220   3.268   2.786   0.105
 1441SOL     OW 5221   6.516   0.444   4.187
 1441SOL    HW1 5222   6.553   0.458   4.095
 1441SOL    HW2 5223   6.418   0.460   4.187
 1442SOL     OW 5224   0.435   5.740   6.782
 1442SOL    HW1 5225   0.356   5.715   6.726
 1442SOL    HW2 5226   0.409   5.739   6.879
 1443SOL     OW 5227   0.512   3.351   4.255
 1443SOL    HW1 5228   0.565   3.431   4.226
 1443SOL    HW2 5229   0.569   3.270   4.250
 1444SOL     OW 5230   4.857   5.769   0.617
 1444SOL    HW1 5231   4.824   5.863   0.608
 1444SOL    HW2 5232   4.810   5.725   0.694
 1445SOL     OW 5233   1.246   2.803   3.058
 1445SOL    HW1 5234   1.253   2.879   2.993
 1445SOL    HW2 5235   1.170   2.819   3.121
 1446SOL     OW 5236   6.063   1.507   0.103
 1446SOL    HW1 5237   5.971   1.548   0.103
 1446SOL    HW2 5238   6.127   1.570   0.059
 1447SOL     OW 5239   5.804   6.525   4.296
 1447SOL    HW1 5240   5.784   6.484   4.385
 1447SOL    HW2 5241   5.861   6.606   4.309
 1448SOL     OW 5242   6.947   2.596   5.461
 1448SOL    HW1 5243   6.973   2.555   5.374
 1448SOL    HW2 5244   0.009   2.607   5.518
 1449SOL     OW 5245   1.404   2.802   6.510
 1449SOL    HW1 5246   1.392   2.753   6.423
 1449SOL    HW2 5247   1.342   2.880   6.513
 1450SOL     OW 5248   0.479   2.085   1.285
 1450SOL    HW1 5249   0.452   1.989   1.281
 1450SOL    HW2 5250   0.424   2.138   1.219
 1451SOL     OW 5251   0.859   6.528   2.626
 1451SOL    HW1 5252   0.832   6.587   2.702
 1451SOL    HW2 5253   0.955   6.502   2.637
 1452SOL     OW 5254   4.304   1.732   5.051
 1452SOL    HW1 5255   4.352   1.688   4.975
 1452SOL    HW2 5256   4.277   1.824   5.025
 1453SOL     OW 5257   0.366   3.789   5.723
 1453SOL    HW1 5258   0.295   3.853   5.693
 1453SOL    HW2 5259   0.451   3.809   5.673
 1454SOL     OW 5260   0.531   2.948   1.995
 1454SOL    HW1 5261   0.631   2.949   1.997
 1454SOL    HW2 5262   0.495   2.988   2.079
 1455SOL     OW 5263   1.279   0.476   1.369
 1455SOL    HW1 5264   1.349   0.448   1.303
 1455SOL    HW2 5265   1.303   0.442   1.459
 1456SOL     OW 5266   6.526   6.995   5.923
 1456SOL    HW1 5267   6.574   0.009   6.005
 1456SOL    HW2 5268   6.463   6.922   5.949
 1457SOL     OW 5269   0.438   6.662   1.433
 1457SOL    HW1 5270   0.379   6.586   1.405
 1457SOL    HW2 5271   0.459   6.653   1.530
 1458SOL     OW 5272   5.791   5.287   4.549
 1458SOL    HW1 5273   5.851   5.320   4.477
 1458SOL    HW2 5274   5.708   5.343   4.553
 1459SOL     OW 5275   3.778   6.151   6.075
 1459SOL    HW1 5276   3.875   6.151   6.097
 1459SOL    HW2 5277   3.736   6.067   6.110
 1460SOL     OW 5278   0.313   0.227   5.044
 1460SOL    HW1 5279   0.214   0.218   5.044
 1460SOL    HW2 5280   0.350   0.188   5.129
 1461SOL     OW 5281   6.493   4.126   3.025
 1461SOL    HW1 5282   6.506   4.190   2.949
 1461SOL    HW2 5283   6.508   4.173   3.112
 1462SOL     OW 5284   1.865   0.894   0.154
 1462SOL    HW1 5285   1.862   0.841   0.239
 1462SOL    HW2 5286   1.953   0.940   0.146
 1463SOL     OW 5287   0.165   5.361   6.259
 1463SOL    HW1 5288   0.102   5.309   6.202
 1463SOL    HW2 5289   0.114   5.426   6.316
 1464SOL     OW 5290   6.960   5.947   2.192
 1464SOL    HW1 5291   7.016   6.028   2.207
 1464SOL    HW2 5292   7.013   5.865   2.217
 1465SOL     OW 5293   1.821   0.465   3.823
 1465SOL    HW1 5294   1.801   0.526   3.746
 1465SOL    HW2 5295   1.852   0.519   3.901
 1466SOL     OW 5296   2.459   2.223   2.057
 1466SOL    HW1 5297   2.525   2.292   2.027
 1466SOL    HW2 5298   2.506   2.134   2.064
 1467SOL     OW 5299   1.862   1.468   3.117
 1467SOL    HW1 5300   1.892   1.477   3.022
 1467SOL    HW2 5301   1.889   1.378   3.152
 1468SOL     OW 5302   2.696   6.026   2.577
 1468SOL    HW1 5303   2.765   6.098   2.581
 1468SOL    HW2 5304   2.731   5.948   2.525
 1469SOL     OW 5305   0.597   0.339   2.106
 1469SOL    HW1 5306   0.650   0.405   2.053
 1469SOL    HW2 5307   0.550   0.276   2.043
 1470SOL     OW 5308   1.140   1.908   2.670
 1470SOL    HW1 5309   1.232   1.934   2.641
 1470SOL    HW2 5310   1.132   1.919   2.769
 1471SOL     OW 5311   0.712   0.293   0.839
 1471SOL    HW1 5312   0.623   0.271   0.880
 1471SOL    HW2 5313   0.705   0.381   0.792
 1472SOL     OW 5314   2.671   5.415   5.353
 1472SOL    HW1 5315   2.617   5.462   5.284
 1472SOL    HW2 5316   2.616   5.404   5.437
 1473SOL     OW 5317   3.794   5.296   5.120
 1473SOL    HW1 5318   3.773   5.198   5.114
 1473SOL    HW2 5319   3.733   5.339   5.188
 1474SOL     OW 5320   5.507   4.827   2.132
 1474SOL    HW1 5321   5.566   4.749   2.114
 1474SOL    HW2 5322   5.427   4.823   2.073
 1475SOL     OW 5323   5.534   0.733   1.564
 1475SOL    HW1 5324   5.497   0.642   1.586
 1475SOL    HW2 5325   5.632   0.726   1.550
 1476SOL     OW 5326   3.144   0.885   1.010
 1476SOL    HW1 5327   3.196   0.806   1.044
 1476SOL    HW2 5328   3.104   0.862   0.922
 1477SOL     OW 5329   2.954   6.780   6.019
 1477SOL    HW1 5330   3.007   6.801   6.102
 1477SOL    HW2 5331   2.874   6.839   6.015
 1478SOL     OW 5332   6.096   5.359   5.374
 1478SOL    HW1 5333   6.155   5.439   5.363
 1478SOL    HW2 5334   6.020   5.364   5.310
 1479SOL     OW 5335   2.102   2.485   0.833
 1479SOL    HW1 5336   2.149   2.464   0.747
 1479SOL    HW2 5337   2.046   2.567   0.821
 1480SOL     OW 5338   3.430   0.804   4.949
 1480SOL    HW1 5339   3.374   0.864   4.892
 1480SOL    HW2 5340   3.388   0.797   5.040
 1481SOL     OW 5341   6.189   3.005   6.828
 1481SOL    HW1 5342   6.270   2.973   6.779
 1481SOL    HW2 5343   6.164   2.940   6.899
 1482SOL     OW 5344   4.846   1.306   1.706
 1482SOL    HW1 5345   4.790   1.389   1.702
 1482SOL    HW2 5346   4.919   1.318   1.773
 1483SOL     OW 5347   5.017   2.191   5.965
 1483SOL    HW1 5348   5.041   2.094   5.974
 1483SOL    HW2 5349   4.976   2.223   6.051
 1484SOL     OW 5350   4.911   5.093   4.212
 1484SOL    HW1 5351   4.826   5.075   4.261
 1484SOL    HW2 5352   4.923   5.026   4.139
 1485SOL     OW 5353   3.937   0.710   4.511
 1485SOL    HW1 5354   3.953   0.659   4.595
 1485SOL    HW2 5355   3.869   0.781   4.528
 1486SOL     OW 5356   5.784   0.626   2.734
 1486SOL    HW1 5357   5.849   0.696   2.705
 1486SOL    HW2 5358   5.824   0.573   2.809
 1487SOL     OW 5359   0.306   2.419   0.132
 1487SOL    HW1 5360   0.288   2.499   0.188
 1487SOL    HW2 5361   0.314   2.338   0.191
 1488SOL     OW 5362   5.875   0.436   3.799
 1488SOL    HW1 5363   5.843   0.491   3.876
 1488SOL    HW2 5364   5.799   0.418   3.737
 1489SOL     OW 5365   4.209   4.753   5.950
 1489SOL    HW1 5366   4.260   4.809   6.015
 1489SOL    HW2 5367   4.143   4.696   5.999
 1490SOL     OW 5368   0.807   3.617   1.411
 1490SOL    HW1 5369   0.808   3.537   1.470
 1490SOL    HW2 5370   0.730   3.676   1.436
 1491SOL     OW 5371   5.861   4.706   2.393
 1491SOL    HW1 5372   5.935   4.758   2.434
 1491SOL    HW2 5373   5.893   4.664   2.308
 1492SOL     OW 5374   6.467   0.424   2.560
 1492SOL    HW1 5375   6.468   0.370   2.476
 1492SOL    HW2 5376   6.529   0.383   2.627
 1493SOL     OW 5377   3.921   6.791   6.177
 1493SOL    HW1 5378   3.864   6.709   6.175
 1493SOL    HW2 5379   4.001   6.777   6.118
 1494SOL     OW 5380   4.931   2.303   6.203
 1494SOL    HW1 5381   4.878   2.387   6.213
 1494SOL    HW2 5382   5.018   2.312   6.250
 1495SOL     OW 5383   0.753   3.590   5.510
 1495SOL    HW1 5384   0.750   3.556   5.416
 1495SOL    HW2 5385   0.739   3.689   5.510
 1496SOL     OW 5386   0.406   1.580   1.267
 1496SOL    HW1 5387   0.448   1.555   1.180
 1496SOL    HW2 5388   0.477   1.611   1.330
 1497SOL     OW 5389   5.143   3.073   2.505
 1497SOL    HW1 5390   5.200   3.068   2.587
 1497SOL    HW2 5391   5.046   3.071   2.531
 1498SOL     OW 5392   2.653   4.567   6.552
 1498SOL    HW1 5393   2.658   4.481   6.602
 1498SOL    HW2 5394   2.735   4.621   6.570
 1499SOL     OW 5395   0.783   2.305   5.348
 1499SOL    HW1 5396   0.771   2.302   5.448
 1499SOL    HW2 5397   0.790   2.212   5.312
 1500SOL     OW 5398   7.015   0.422   0.142
 1500SOL    HW1 5399   7.017   0.432   0.242
 1500SOL    HW2 5400   0.089   0.411   0.108
 1501SOL     OW 5401   5.255   2.494   6.675
 1501SOL    HW1 5402   5.254   2.421   6.606
 1501SOL    HW2 5403   5.243   2.582   6.629
 1502SOL     OW 5404   4.518   0.597   6.866
 1502SOL    HW1 5405   4.455   0.675   6.865
 1502SOL    HW2 5406   4.466   0.513   6.850
 1503SOL     OW 5407   1.321   2.704   2.055
 1503SOL    HW1 5408   1.418   2.729   2.053
 1503SOL    HW2 5409   1.313   2.604   2.065
 1504SOL     OW 5410   0.421   0.174   4.365
 1504SOL    HW1 5411   0.451   0.188   4.459
 1504SOL    HW2 5412   0.367   0.090   4.359
 1505SOL     OW 5413   4.583   0.209   4.780
 1505SOL    HW1 5414   4.646   0.253   4.844
 1505SOL    HW2 5415   4.602   0.241   4.687
 1506SOL     OW 5416   0.707   6.520   0.071
 1506SOL    HW1 5417   0.753   6.511   0.159
 1506SOL    HW2 5418   0.749   6.457   0.005
 1507SOL     OW 5419   0.222   1.607   6.110
 1507SOL    HW1 5420   0.220   1.522   6.162
 1507SOL    HW2 5421   0.259   1.591   6.019
 1508SOL     OW 5422   6.492   1.394   1.072
 1508SOL    HW1 5423   6.414   1.340   1.105
 1508SOL    HW2 5424   6.560   1.333   1.032
 1509SOL     OW 5425   3.925   1.729   5.049
 1509SOL    HW1 5426   3.959   1.702   5.139
 1509SOL    HW2 5427   3.886   1.821   5.054
 1510SOL     OW 5428   4.814   1.178   4.765
 1510SOL    HW1 5429   4.846   1.149   4.675
 1510SOL    HW2 5430   4.724   1.222   4.756
 1511SOL     OW 5431   4.162   3.396   3.731
 1511SOL    HW1 5432   4.261   3.411   3.735
 1511SOL    HW2 5433   4.132   3.350   3.814
 1512SOL     OW 5434   0.071   5.433   0.602
 1512SOL    HW1 5435   0.128   5.514   0.589
 1512SOL    HW2 5436   0.130   5.352   0.608
 1513SOL     OW 5437   3.905   0.331   4.732
 1513SOL    HW1 5438   3.997   0.332   4.771
 1513SOL    HW2 5439   3.838   0.314   4.804
 1514SOL     OW 5440   3.570   2.486   5.367
 1514SOL    HW1 5441   3.665   2.455   5.364
 1514SOL    HW2 5442   3.565   2.581   5.336
 1515SOL     OW 5443   5.659   2.100   2.419
 1515SOL    HW1 5444   5.569   2.122   2.457
 1515SOL    HW2 5445   5.668   2.001   2.408
 1516SOL     OW 5446   6.639   5.704   5.890
 1516SOL    HW1 5447   6.698   5.624   5.902
 1516SOL    HW2 5448   6.691   5.787   5.909
 1517SOL     OW 5449   4.499   6.105   3.016
 1517SOL    HW1 5450   4.452   6.114   2.929
 1517SOL    HW2 5451   4.586   6.057   3.003
 1518SOL     OW 5452   0.257   2.948   0.718
 1518SOL    HW1 5453   0.227   3.021   0.655
 1518SOL    HW2 5454   0.356   2.938   0.711
 1519SOL     OW 5455   6.826   4.696   1.644
 1519SOL    HW1 5456   6.884   4.671   1.566
 1519SOL    HW2 5457   6.824   4.621   1.710
 1520SOL     OW 5458   0.584   4.491   1.756
 1520SOL    HW1 5459   0.599   4.422   1.685
 1520SOL    HW2 5460   0.490   4.485   1.789
 1521SOL     OW 5461   1.759   4.192   6.430
 1521SOL    HW1 5462   1.664   4.177   6.401
 1521SOL    HW2 5463   1.760   4.243   6.516
 1522SOL     OW 5464   5.503   6.016   5.074
 1522SOL    HW1 5465   5.504   6.075   4.994
 1522SOL    HW2 5466   5.416   6.028   5.123
 1523SOL     OW 5467   4.238   6.334   0.053
 1523SOL    HW1 5468   4.248   6.357   6.976
 1523SOL    HW2 5469   4.143   6.347   0.081
 1524SOL     OW 5470   2.345   1.533   2.924
 1524SOL    HW1 5471   2.277   1.606   2.920
 1524SOL    HW2 5472   2.423   1.557   2.867
 1525SOL     OW 5473   6.477   3.878   0.602
 1525SOL    HW1 5474   6.409   3.871   0.529
 1525SOL    HW2 5475   6.539   3.800   0.596
 1526SOL     OW 5476   6.998   1.104   6.801
 1526SOL    HW1 5477   0.012   1.196   6.819
 1526SOL    HW2 5478   6.945   1.072   6.879
 1527SOL     OW 5479   4.157   1.290   4.927
 1527SOL    HW1 5480   4.173   1.385   4.900
 1527SOL    HW2 5481   4.066   1.281   4.966
 1528SOL     OW 5482   3.921   4.882   2.605
 1528SOL    HW1 5483   3.907   4.874   2.506
 1528SOL    HW2 5484   3.923   4.791   2.645
 1529SOL     OW 5485   4.390   0.092   0.223
 1529SOL    HW1 5486   4.460   0.030   0.188
 1529SOL    HW2 5487   4.428   0.184   0.232
 1530SOL     OW 5488   4.106   2.108   2.296
 1530SOL    HW1 5489   4.047   2.078   2.221
 1530SOL    HW2 5490   4.059   2.093   2.383
 1531SOL     OW 5491   4.372   6.769   5.750
 1531SOL    HW1 5492   4.351   6.722   5.664
 1531SOL    HW2 5493   4.287   6.801   5.792
 1532SOL     OW 5494   3.305   3.330   6.513
 1532SOL    HW1 5495   3.353   3.245   6.487
 1532SOL    HW2 5496   3.306   3.339   6.613
 1533SOL     OW 5497   5.942   4.916   6.367
 1533SOL    HW1 5498   5.856   4.955   6.336
 1533SOL    HW2 5499   5.982   4.975   6.437
 1534SOL     OW 5500   3.044   5.573   6.887
 1534SOL    HW1 5501   3.033   5.649   6.950
 1534SOL    HW2 5502   2.955   5.544   6.853
 1535SOL     OW 5503   5.357   6.295   4.585
 1535SOL    HW1 5504   5.417   6.218   4.565
 1535SOL    HW2 5505   5.290   6.306   4.512
 1536SOL     OW 5506   3.760   4.155   5.568
 1536SOL    HW1 5507   3.768   4.162   5.469
 1536SOL    HW2 5508   3.696   4.082   5.592
 1537SOL     OW 5509   4.425   5.947   3.933
 1537SOL    HW1 5510   4.511   5.969   3.979
 1537SOL    HW2 5511   4.384   5.867   3.976
 1538SOL     OW 5512   3.229   0.068   6.930
 1538SOL    HW1 5513   3.281   0.151   6.911
 1538SOL    HW2 5514   3.183   0.038   6.847
 1539SOL     OW 5515   4.790   4.047   1.824
 1539SOL    HW1 5516   4.786   4.074   1.920
 1539SOL    HW2 5517   4.831   3.956   1.817
 1540SOL     OW 5518   1.163   5.547   5.708
 1540SOL    HW1 5519   1.079   5.559   5.655
 1540SOL    HW2 5520   1.142   5.558   5.806
 1541SOL     OW 5521   3.456   2.892   3.955
 1541SOL    HW1 5522   3.369   2.933   3.982
 1541SOL    HW2 5523   3.517   2.889   4.035
 1542SOL     OW 5524   6.641   0.088   2.464
 1542SOL    HW1 5525   6.706   0.027   2.417
 1542SOL    HW2 5526   6.690   0.169   2.497
 1543SOL     OW 5527   3.247   5.034   5.542
 1543SOL    HW1 5528   3.306   5.106   5.579
 1543SOL    HW2 5529   3.175   5.075   5.486
 1544SOL     OW 5530   2.867   3.520   2.618
 1544SOL    HW1 5531   2.909   3.431   2.637
 1544SOL    HW2 5532   2.821   3.517   2.529
 1545SOL     OW 5533   4.840   0.757   3.044
 1545SOL    HW1 5534   4.890   0.718   3.121
 1545SOL    HW2 5535   4.796   0.684   2.992
 1546SOL     OW 5536   4.107   6.882   5.805
 1546SOL    HW1 5537   4.071   6.796   5.842
 1546SOL    HW2 5538   4.170   6.922   5.871
 1547SOL     OW 5539   1.773   4.107   2.227
 1547SOL    HW1 5540   1.771   4.091   2.129
 1547SOL    HW2 5541   1.819   4.194   2.246
 1548SOL     OW 5542   5.947   3.248   5.273
 1548SOL    HW1 5543   6.018   3.287   5.215
 1548SOL    HW2 5544   5.982   3.166   5.319
 1549SOL     OW 5545   4.019   1.581   1.956
 1549SOL    HW1 5546   4.099   1.583   2.016
 1549SOL    HW2 5547   3.963   1.501   1.978
 1550SOL     OW 5548   2.825   3.634   0.457
 1550SOL    HW1 5549   2.838   3.681   0.370
 1550SOL    HW2 5550   2.808   3.537   0.440
 1551SOL     OW 5551   2.206   4.265   6.214
 1551SOL    HW1 5552   2.272   4.228   6.149
 1551SOL    HW2 5553   2.188   4.198   6.286
 1552SOL     OW 5554   1.364   6.051   0.340
 1552SOL    HW1 5555   1.343   5.973   0.398
 1552SOL    HW2 5556   1.345   6.028   0.244
 1553SOL     OW 5557   0.029   1.813   6.143
 1553SOL    HW1 5558   0.096   1.740   6.157
 1553SOL    HW2 5559   0.049   1.890   6.202
 1554SOL     OW 5560   3.985   2.036   2.986
 1554SOL    HW1 5561   3.935   2.072   2.907
 1554SOL    HW2 5562   3.957   1.942   3.003
 1555SOL     OW 5563   5.046   2.581   0.026
 1555SOL    HW1 5564   4.997   2.653   6.997
 1555SOL    HW2 5565   4.998   2.494   0.015
 1556SOL     OW 5566   3.125   2.018   0.340
 1556SOL    HW1 5567   3.041   1.963   0.342
 1556SOL    HW2 5568   3.164   2.017   0.248
 1557SOL     OW 5569   2.313   1.967   5.418
 1557SOL    HW1 5570   2.376   1.911   5.471
 1557SOL    HW2 5571   2.235   1.911   5.390
 1558SOL     OW 5572   5.632   0.280   4.823
 1558SOL    HW1 5573   5.541   0.277   4.864
 1558SOL    HW2 5574   5.701   0.294   4.895
 1559SOL     OW 5575   1.125   2.516   0.089
 1559SOL    HW1 5576   1.193   2.448   0.065
 1559SOL    HW2 5577   1.090   2.559   0.006
 1560SOL     OW 5578   0.334   1.185   5.680
 1560SOL    HW1 5579   0.416   1.222   5.724
 1560SOL    HW2 5580   0.280   1.135   5.748
 1561SOL     OW 5581   6.404   6.769   4.012
 1561SOL    HW1 5582   6.361   6.823   4.084
 1561SOL    HW2 5583   6.497   6.802   3.996
 1562SOL     OW 5584   4.200   5.780   2.804
 1562SOL    HW1 5585   4.202   5.770   2.904
 1562SOL    HW2 5586   4.278   5.834   2.774
 1563SOL     OW 5587   1.972   0.290   5.487
 1563SOL    HW1 5588   1.904   0.257   5.552
 1563SOL    HW2 5589   1.999   0.383   5.512
 1564SOL     OW 5590   1.164   2.737   3.417
 1564SOL    HW1 5591   1.144   2.649   3.373
 1564SOL    HW2 5592   1.139   2.812   3.356
 1565SOL     OW 5593   4.418   4.640   3.702
 1565SOL    HW1 5594   4.463   4.566   3.652
 1565SOL    HW2 5595   4.421   4.621   3.800
 1566SOL     OW 5596   6.171   4.954   3.172
 1566SOL    HW1 5597   6.234   4.981   3.099
 1566SOL    HW2 5598   6.088   5.009   3.166
 1567SOL     OW 5599   6.279   6.094   0.940
 1567SOL    HW1 5600   6.227   6.169   0.979
 1567SOL    HW2 5601   6.237   6.066   0.853
 1568SOL     OW 5602   1.579   6.389   0.013
 1568SOL    HW1 5603   1.489   6.382   6.988
 1568SOL    HW2 5604   1.624   6.473   7.002
 1569SOL     OW 5605   4.700   6.318   3.441
 1569SOL    HW1 5606   4.759   6.247   3.403
 1569SOL    HW2 5607   4.672   6.292   3.534
 1570SOL     OW 5608   1.832   0.320   1.060
 1570SOL    HW1 5609   1.795   0.349   1.148
 1570SOL    HW2 5610   1.795   0.230   1.036
 1571SOL     OW 5611   5.092   2.279   1.333
 1571SOL    HW1 5612   5.008   2.323   1.302
 1571SOL    HW2 5613   5.169   2.311   1.277
 1572SOL     OW 5614   0.856   6.760   0.964
 1572SOL    HW1 5615   0.777   6.816   0.988
 1572SOL    HW2 5616   0.874   6.769   0.866
 1573SOL     OW 5617   5.410   2.780   2.057
 1573SOL    HW1 5618   5.321   2.820   2.081
 1573SOL    HW2 5619   5.417   2.689   2.098
 1574SOL     OW 5620   6.221   1.314   1.849
 1574SOL    HW1 5621   6.145   1.327   1.912
 1574SOL    HW2 5622   6.280   1.240   1.882
 1575SOL     OW 5623   3.926   1.168   0.530
 1575SOL    HW1 5624   4.021   1.136   0.522
 1575SOL    HW2 5625   3.926   1.268   0.534
 1576SOL     OW 5626   0.954   6.792   3.687
 1576SOL    HW1 5627   1.006   6.711   3.661
 1576SOL    HW2 5628   1.018   6.863   3.718
 1577SOL     OW 5629   3.144   1.490   4.497
 1577SOL    HW1 5630   3.085   1.421   4.454
 1577SOL    HW2 5631   3.109   1.581   4.477
 1578SOL     OW 5632   6.460   3.177   5.852
 1578SOL    HW1 5633   6.424   3.188   5.945
 1578SOL    HW2 5634   6.501   3.263   5.822
 1579SOL     OW 5635   0.245   1.278   2.812
 1579SOL    HW1 5636   0.322   1.225   2.777
 1579SOL    HW2 5637   0.178   1.215   2.853
 1580SOL     OW 5638   2.966   3.998   5.304
 1580SOL    HW1 5639   2.912   4.082   5.296
 1580SOL    HW2 5640   2.940   3.949   5.387
 1581SOL     OW 5641   0.265   3.770   4.914
 1581SOL    HW1 5642   0.318   3.689   4.888
 1581SOL    HW2 5643   0.325   3.836   4.959
 1582SOL     OW 5644   1.111   0.145   4.543
 1582SOL    HW1 5645   1.081   0.052   4.525
 1582SOL    HW2 5646   1.131   0.156   4.640
 1583SOL     OW 5647   1.166   4.331   3.238
 1583SOL    HW1 5648   1.069   4.325   3.264
 1583SOL    HW2 5649   1.195   4.427   3.242
 1584SOL     OW 5650   1.398   6.568   5.045
 1584SOL    HW1 5651   1.389   6.666   5.024
 1584SOL    HW2 5652   1.380   6.515   4.962
 1585SOL     OW 5653   5.886   1.904   3.457
 1585SOL    HW1 5654   5.794   1.870   3.479
 1585SOL    HW2 5655   5.945   1.827   3.435
 1586SOL     OW 5656   3.625   4.729   1.493
 1586SOL    HW1 5657   3.607   4.755   1.398
 1586SOL    HW2 5658   3.697   4.788   1.530
 1587SOL     OW 5659   2.731   6.314   6.516
 1587SOL    HW1 5660   2.717   6.369   6.598
 1587SOL    HW2 5661   2.649   6.260   6.496
 1588SOL     OW 5662   5.406   1.603   3.232
 1588SOL    HW1 5663   5.321   1.652   3.250
 1588SOL    HW2 5664   5.463   1.657   3.170
 1589SOL     OW 5665   5.815   3.828   1.887
 1589SOL    HW1 5666   5.801   3.889   1.808
 1589SOL    HW2 5667   5.866   3.877   1.958
 1590SOL     OW 5668   2.363   6.052   6.881
 1590SOL    HW1 5669   2.298   6.026   6.952
 1590SOL    HW2 5670   2.420   6.128   6.914
 1591SOL     OW 5671   0.199   5.459   2.511
 1591SOL    HW1 5672   0.246   5.397   2.574
 1591SOL    HW2 5673   0.101   5.441   2.514
 1592SOL     OW 5674   2.392   4.206   0.920
 1592SOL    HW1 5675   2.405   4.110   0.944
 1592SOL    HW2 5676   2.341   4.252   0.993
 1593SOL     OW 5677   0.894   6.168   4.194
 1593SOL    HW1 5678   0.797   6.146   4.186
 1593SOL    HW2 5679   0.947   6.084   4.199
 1594SOL     OW 5680   6.439   5.985   2.616
 1594SOL    HW1 5681   6.454   5.959   2.520
 1594SOL    HW2 5682   6.422   5.903   2.671
 1595SOL     OW 5683   1.419   5.063   7.000
 1595SOL    HW1 5684   1.447   5.077   6.905
 1595SOL    HW2 5685   1.402   5.152   0.024
 1596SOL     OW 5686   0.717   2.858   4.501
 1596SOL    HW1 5687   0.792   2.923   4.492
 1596SOL    HW2 5688   0.715   2.820   4.594
 1597SOL     OW 5689   2.071   6.450   6.687
 1597SOL    HW1 5690   2.048   6.353   6.699
 1597SOL    HW2 5691   2.170   6.460   6.687
 1598SOL     OW 5692   0.580   3.485   6.761
 1598SOL    HW1 5693   0.595   3.471   6.663
 1598SOL    HW2 5694   0.627   3.413   6.813
 1599SOL     OW 5695   4.588   4.236   5.942
 1599SOL    HW1 5696   4.515   4.215   5.877
 1599SOL    HW2 5697   4.576   4.180   6.024
 1600SOL     OW 5698   4.976   1.800   4.829
 1600SOL    HW1 5699   5.035   1.720   4.825
 1600SOL    HW2 5700   5.014   1.866   4.894
 1601SOL     OW 5701   0.308   4.684   4.324
 1601SOL    HW1 5702   0.236   4.752   4.333
 1601SOL    HW2 5703   0.291   4.628   4.243
 1602SOL     OW 5704   2.202   5.302   4.316
 1602SOL    HW1 5705   2.159   5.345   4.395
 1602SOL    HW2 5706   2.271   5.364   4.278
 1603SOL     OW 5707   6.399   5.781   2.810
 1603SOL    HW1 5708   6.308   5.738   2.805
 1603SOL    HW2 5709   6.429   5.785   2.905
 1604SOL     OW 5710   6.346   4.299   0.164
 1604SOL    HW1 5711   6.362   4.232   0.236
 1604SOL    HW2 5712   6.302   4.255   0.086
 1605SOL     OW 5713   6.179   6.419   2.499
 1605SOL    HW1 5714   6.276   6.399   2.492
 1605SOL    HW2 5715   6.126   6.340   2.470
 1606SOL     OW 5716   3.331   0.466   5.355
 1606SOL    HW1 5717   3.385   0.551   5.356
 1606SOL    HW2 5718   3.340   0.423   5.265
 1607SOL     OW 5719   3.798   2.411   0.492
 1607SOL    HW1 5720   3.820   2.451   0.403
 1607SOL    HW2 5721   3.881   2.407   0.548
 1608SOL     OW 5722   1.204   0.194   4.820
 1608SOL    HW1 5723   1.252   0.282   4.819
 1608SOL    HW2 5724   1.174   0.173   4.913
 1609SOL     OW 5725   4.705   0.373   0.575
 1609SOL    HW1 5726   4.702   0.396   0.672
 1609SOL    HW2 5727   4.680   0.277   0.562
 1610SOL     OW 5728   5.712   4.371   5.880
 1610SOL    HW1 5729   5.715   4.280   5.840
 1610SOL    HW2 5730   5.619   4.390   5.912
 1611SOL     OW 5731   3.115   3.564   1.832
 1611SOL    HW1 5732   3.112   3.612   1.745
 1611SOL    HW2 5733   3.110   3.466   1.816
 1612SOL     OW 5734   2.624   1.238   4.975
 1612SOL    HW1 5735   2.645   1.284   5.061
 1612SOL    HW2 5736   2.700   1.179   4.949
 1613SOL     OW 5737   1.795   5.776   1.456
 1613SOL    HW1 5738   1.824   5.685   1.485
 1613SOL    HW2 5739   1.696   5.778   1.446
 1614SOL     OW 5740   6.268   3.807   0.405
 1614SOL    HW1 5741   6.314   3.771   0.324
 1614SOL    HW2 5742   6.207   3.738   0.443
 1615SOL     OW 5743   6.411   5.475   0.716
 1615SOL    HW1 5744   6.493   5.476   0.659
 1615SOL    HW2 5745   6.423   5.410   0.791
 1616SOL     OW 5746   3.513   1.684   4.718
 1616SOL    HW1 5747   3.542   1.677   4.813
 1616SOL    HW2 5748   3.491   1.779   4.696
 1617SOL     OW 5749   5.899   0.421   1.724
 1617SOL    HW1 5750   5.955   0.504   1.723
 1617SOL    HW2 5751   5.945   0.349   1.674
 1618SOL     OW 5752   1.065   3.642   1.541
 1618SOL    HW1 5753   1.079   3.552   1.499
 1618SOL    HW2 5754   0.973   3.675   1.520
 1619SOL     OW 5755   0.867   2.428   3.088
 1619SOL    HW1 5756   0.840   2.340   3.049
 1619SOL    HW2 5757   0.966   2.432   3.094
 1620SOL     OW 5758   2.625   5.532   1.123
 1620SOL    HW1 5759   2.694   5.559   1.056
 1620SOL    HW2 5760   2.574   5.612   1.152
 1621SOL     OW 5761   0.906   1.222   0.389
 1621SOL    HW1 5762   0.840   1.160   0.431
 1621SOL    HW2 5763   0.905   1.209   0.290
 1622SOL     OW 5764   0.550   2.428   5.206
 1622SOL    HW1 5765   0.565   2.450   5.109
 1622SOL    HW2 5766   0.638   2.407   5.249
 1623SOL     OW 5767   2.348   3.404   5.333
 1623SOL    HW1 5768   2.432   3.457   5.339
 1623SOL    HW2 5769   2.299   3.408   5.420
 1624SOL     OW 5770   2.973   1.207   5.227
 1624SOL    HW1 5771   2.946   1.288   5.176
 1624SOL    HW2 5772   3.028   1.148   5.168
 1625SOL     OW 5773   1.540   5.261   1.601
 1625SOL    HW1 5774   1.513   5.356   1.583
 1625SOL    HW2 5775   1.547   5.246   1.700
 1626SOL     OW 5776   3.523   2.093   6.521
 1626SOL    HW1 5777   3.459   2.148   6.468
 1626SOL    HW2 5778   3.499   2.097   6.618
 1627SOL     OW 5779   6.491   2.497   3.529
 1627SOL    HW1 5780   6.555   2.549   3.473
 1627SOL    HW2 5781   6.538   2.463   3.611
 1628SOL     OW 5782   4.292   5.093   0.068
 1628SOL    HW1 5783   4.300   5.043   7.001
 1628SOL    HW2 5784   4.363   5.164   0.073
 1629SOL     OW 5785   2.986   1.601   4.090
 1629SOL    HW1 5786   2.912   1.568   4.032
 1629SOL    HW2 5787   3.041   1.524   4.122
 1630SOL     OW 5788   1.250   6.459   5.796
 1630SOL    HW1 5789   1.347   6.484   5.802
 1630SOL    HW2 5790   1.225   6.402   5.874
 1631SOL     OW 5791   0.345   1.731   6.324
 1631SOL    HW1 5792   0.303   1.692   6.242
 1631SOL    HW2 5793   0.416   1.796   6.297
 1632SOL     OW 5794   0.083   1.619   0.371
 1632SOL    HW1 5795   0.009   1.681   0.399
 1632SOL    HW2 5796   0.150   1.612   0.444
 1633SOL     OW 5797   4.910   2.433   3.929
 1633SOL    HW1 5798   4.958   2.357   3.974
 1633SOL    HW2 5799   4.848   2.396   3.860
 1634SOL     OW 5800   3.849   4.455   6.209
 1634SOL    HW1 5801   3.896   4.473   6.295
 1634SOL    HW2 5802   3.756   4.490   6.214
 1635SOL     OW 5803   6.806   5.477   5.535
 1635SOL    HW1 5804   6.834   5.383   5.518
 1635SOL    HW2 5805   6.724   5.498   5.481
 1636SOL     OW 5806   2.558   4.261   1.261
 1636SOL    HW1 5807   2.609   4.278   1.177
 1636SOL    HW2 5808   2.619   4.221   1.330
 1637SOL     OW 5809   0.174   0.462   3.039
 1637SOL    HW1 5810   0.250   0.527   3.035
 1637SOL    HW2 5811   0.209   0.369   3.033
 1638SOL     OW 5812   0.492   4.372   3.729
 1638SOL    HW1 5813   0.482   4.352   3.632
 1638SOL    HW2 5814   0.586   4.402   3.748
 1639SOL     OW 5815   4.114   6.882   3.177
 1639SOL    HW1 5816   4.038   6.820   3.158
 1639SOL    HW2 5817   4.190   6.861   3.115
 1640SOL     OW 5818   5.920   1.333   0.976
 1640SOL    HW1 5819   6.013   1.298   0.985
 1640SOL    HW2 5820   5.919   1.431   0.995
 1641SOL     OW 5821   5.615   2.618   4.033
 1641SOL    HW1 5822   5.571   2.539   4.077
 1641SOL    HW2 5823   5.550   2.664   3.973
 1642SOL     OW 5824   5.901   3.394   6.830
 1642SOL    HW1 5825   5.940   3.476   6.788
 1642SOL    HW2 5826   5.866   3.333   6.759
 1643SOL     OW 5827   2.967   4.846   4.030
 1643SOL    HW1 5828   3.047   4.877   4.082
 1643SOL    HW2 5829   2.993   4.829   3.935
 1644SOL     OW 5830   0.637   3.155   1.208
 1644SOL    HW1 5831   0.588   3.069   1.217
 1644SOL    HW2 5832   0.620   3.195   1.118
 1645SOL     OW 5833   2.702   6.382   5.553
 1645SOL    HW1 5834   2.681   6.350   5.461
 1645SOL    HW2 5835   2.619   6.421   5.594
 1646SOL     OW 5836   2.160   6.815   0.879
 1646SOL    HW1 5837   2.169   6.731   0.825
 1646SOL    HW2 5838   2.127   6.889   0.820
 1647SOL     OW 5839   6.057   2.694   4.679
 1647SOL    HW1 5840   6.069   2.595   4.676
 1647SOL    HW2 5841   5.965   2.718   4.648
 1648SOL     OW 5842   6.024   5.953   1.146
 1648SOL    HW1 5843   6.106   5.897   1.151
 1648SOL    HW2 5844   5.988   5.950   1.052
 1649SOL     OW 5845   4.306   6.851   4.307
 1649SOL    HW1 5846   4.395   6.871   4.266
 1649SOL    HW2 5847   4.319   6.789   4.384
 1650SOL     OW 5848   1.665   7.007   4.728
 1650SOL    HW1 5849   1.594   0.050   4.761
 1650SOL    HW2 5850   1.653   6.993   4.629
 1651SOL     OW 5851   0.602   0.896   1.936
 1651SOL    HW1 5852   0.669   0.939   1.996
 1651SOL    HW2 5853   0.541   0.965   1.899
 1652SOL     OW 5854   1.864   3.273   1.527
 1652SOL    HW1 5855   1.876   3.370   1.546
 1652SOL    HW2 5856   1.832   3.227   1.610
 1653SOL     OW 5857   0.665   6.918   1.030
 1653SOL    HW1 5858   0.586   6.965   0.989
 1653SOL    HW2 5859   0.649   6.906   1.128
 1654SOL     OW 5860   6.127   3.026   2.232
 1654SOL    HW1 5861   6.171   3.067   2.152
 1654SOL    HW2 5862   6.032   3.006   2.212
 1655SOL     OW 5863   6.015   2.765   4.951
 1655SOL    HW1 5864   6.096   2.825   4.948
 1655SOL    HW2 5865   6.010   2.713   4.866
 1656SOL     OW 5866   2.026   4.557   2.530
 1656SOL    HW1 5867   2.081   4.493   2.478
 1656SOL    HW2 5868   1.989   4.627   2.468
 1657SOL     OW 5869   6.798   0.790   4.465
 1657SOL    HW1 5870   6.782   0.830   4.556
 1657SOL    HW2 5871   6.750   0.703   4.458
 1658SOL     OW 5872   0.962   0.157   2.141
 1658SOL    HW1 5873   0.964   0.119   2.048
 1658SOL    HW2 5874   0.870   0.149   2.178
 1659SOL     OW 5875   4.088   1.121   5.464
 1659SOL    HW1 5876   4.002   1.074   5.444
 1659SOL    HW2 5877   4.076   1.183   5.541
 1660SOL     OW 5878   1.045   4.914   3.927
 1660SOL    HW1 5879   1.106   4.955   3.859
 1660SOL    HW2 5880   1.094   4.906   4.014
 1661SOL     OW 5881   3.102   1.268   1.944
 1661SOL    HW1 5882   3.089   1.258   2.043
 1661SOL    HW2 5883   3.087   1.364   1.918
 1662SOL     OW 5884   6.557   1.236   4.168
 1662SOL    HW1 5885   6.535   1.330   4.142
 1662SOL    HW2 5886   6.654   1.218   4.150
 1663SOL     OW 5887   2.845   0.765   2.993
 1663SOL    HW1 5888   2.882   0.811   2.913
 1663SOL    HW2 5889   2.913   0.702   3.030
 1664SOL     OW 5890   2.192   0.045   3.607
 1664SOL    HW1 5891   2.248   0.078   3.683
 1664SOL    HW2 5892   2.096   0.044   3.634
 1665SOL     OW 5893   0.199   1.147   2.556
 1665SOL    HW1 5894   0.123   1.169   2.616
 1665SOL    HW2 5895   0.190   1.053   2.523
 1666SOL     OW 5896   5.323   3.151   0.468
 1666SOL    HW1 5897   5.265   3.089   0.521
 1666SOL    HW2 5898   5.413   3.109   0.453
 1667SOL     OW 5899   5.810   6.757   1.342
 1667SOL    HW1 5900   5.862   6.672   1.352
 1667SOL    HW2 5901   5.798   6.777   1.244
 1668SOL     OW 5902   5.194   5.714   5.511
 1668SOL    HW1 5903   5.273   5.694   5.454
 1668SOL    HW2 5904   5.110   5.694   5.460
 1669SOL     OW 5905   6.400   6.335   6.716
 1669SOL    HW1 5906   6.381   6.251   6.767
 1669SOL    HW2 5907   6.479   6.381   6.758
 1670SOL     OW 5908   6.929   5.029   6.728
 1670SOL    HW1 5909   6.878   4.957   6.681
 1670SOL    HW2 5910   6.886   5.117   6.709
 1671SOL     OW 5911   4.485   2.833   0.789
 1671SOL    HW1 5912   4.395   2.853   0.830
 1671SOL    HW2 5913   4.472   2.794   0.698
 1672SOL     OW 5914   2.030   3.839   1.990
 1672SOL    HW1 5915   2.040   3.813   2.086
 1672SOL    HW2 5916   1.938   3.874   1.975
 1673SOL     OW 5917   6.648   2.026   4.728
 1673SOL    HW1 5918   6.706   1.946   4.743
 1673SOL    HW2 5919   6.552   2.001   4.743
 1674SOL     OW 5920   0.520   4.156   2.243
 1674SOL    HW1 5921   0.536   4.057   2.247
 1674SOL    HW2 5922   0.587   4.202   2.301
 1675SOL     OW 5923   4.473   0.537   5.806
 1675SOL    HW1 5924   4.547   0.576   5.861
 1675SOL    HW2 5925   4.494   0.442   5.783
 1676SOL     OW 5926   3.085   0.940   2.402
 1676SOL    HW1 5927   3.021   1.014   2.420
 1676SOL    HW2 5928   3.058   0.858   2.453
 1677SOL     OW 5929   4.141   3.037   5.299
 1677SOL    HW1 5930   4.068   2.970   5.290
 1677SOL    HW2 5931   4.103   3.129   5.295
 1678SOL     OW 5932   4.765   4.639   5.105
 1678SOL    HW1 5933   4.741   4.551   5.063
 1678SOL    HW2 5934   4.734   4.640   5.200
 1679SOL     OW 5935   2.115   3.178   4.901
 1679SOL    HW1 5936   2.072   3.104   4.849
 1679SOL    HW2 5937   2.195   3.144   4.949
 1680SOL     OW 5938   0.543   2.357   4.380
 1680SOL    HW1 5939   0.575   2.408   4.461
 1680SOL    HW2 5940   0.593   2.389   4.300
 1681SOL     OW 5941   6.355   5.816   1.597
 1681SOL    HW1 5942   6.332   5.843   1.690
 1681SOL    HW2 5943   6.347   5.895   1.536
 1682SOL     OW 5944   0.133   2.118   4.921
 1682SOL    HW1 5945   0.088   2.067   4.848
 1682SOL    HW2 5946   0.232   2.113   4.909
 1683SOL     OW 5947   4.051   5.702   0.804
 1683SOL    HW1 5948   4.126   5.645   0.838
 1683SOL    HW2 5949   3.979   5.643   0.765
 1684SOL     OW 5950   1.093   5.975   2.690
 1684SOL    HW1 5951   1.190   5.954   2.680
 1684SOL    HW2 5952   1.043   5.938   2.612
 1685SOL     OW 5953   2.679   0.997   6.111
 1685SOL    HW1 5954   2.614   1.021   6.038
 1685SOL    HW2 5955   2.635   1.010   6.200
 1686SOL     OW 5956   1.968   4.704   5.262
 1686SOL    HW1 5957   1.970   4.794   5.306
 1686SOL    HW2 5958   1.952   4.634   5.330
 1687SOL     OW 5959   2.414   2.845   1.489
 1687SOL    HW1 5960   2.470   2.830   1.408
 1687SOL    HW2 5961   2.457   2.800   1.568
 1688SOL     OW 5962   1.711   2.460   3.874
 1688SOL    HW1 5963   1.697   2.362   3.887
 1688SOL    HW2 5964   1.741   2.477   3.780
 1689SOL     OW 5965   4.726   0.759   2.209
 1689SOL    HW1 5966   4.771   0.845   2.230
 1689SOL    HW2 5967   4.723   0.701   2.290
 1690SOL     OW 5968   1.183   3.252   3.373
 1690SOL    HW1 5969   1.219   3.207   3.455
 1690SOL    HW2 5970   1.211   3.348   3.373
 1691SOL     OW 5971   5.263   3.902   3.633
 1691SOL    HW1 5972   5.293   3.891   3.538
 1691SOL    HW2 5973   5.318   3.843   3.692
 1692SOL     OW 5974   6.086   0.607   1.458
 1692SOL    HW1 5975   6.042   0.679   1.404
 1692SOL    HW2 5976   6.078   0.629   1.555
 1693SOL     OW 5977   0.435   1.964   2.669
 1693SOL    HW1 5978   0.505   2.000   2.606
 1693SOL    HW2 5979   0.376   1.900   2.619
 1694SOL     OW 5980   5.072   0.663   3.848
 1694SOL    HW1 5981   5.103   0.592   3.784
 1694SOL    HW2 5982   5.028   0.737   3.797
 1695SOL     OW 5983   2.667   1.490   5.946
 1695SOL    HW1 5984   2.691   1.528   6.035
 1695SOL    HW2 5985   2.711   1.543   5.874
 1696SOL     OW 5986   5.019   4.538   0.755
 1696SOL    HW1 5987   4.943   4.481   0.725
 1696SOL    HW2 5988   5.018   4.624   0.704
 1697SOL     OW 5989   5.440   5.970   2.039
 1697SOL    HW1 5990   5.435   5.896   1.972
 1697SOL    HW2 5991   5.478   6.052   1.995
 1698SOL     OW 5992   4.805   0.870   0.845
 1698SOL    HW1 5993   4.792   0.847   0.942
 1698SOL    HW2 5994   4.880   0.816   0.808
 1699SOL     OW 5995   2.878   1.428   1.286
 1699SOL    HW1 5996   2.852   1.455   1.378
 1699SOL    HW2 5997   2.969   1.464   1.265
 1700SOL     OW 5998   6.393   2.219   3.478
 1700SOL    HW1 5999   6.459   2.291   3.456
 1700SOL    HW2 6000   6.416   2.178   3.566
 1701SOL     OW 6001   5.544   3.422   5.635
 1701SOL    HW1 6002   5.552   3.339   5.690
 1701SOL    HW2 6003   5.449   3.432   5.605
 1702SOL     OW 6004   7.003   3.114   0.861
 1702SOL    HW1 6005   0.011   3.175   0.936
 1702SOL    HW2 6006   0.045   3.035   0.859
 1703SOL     OW 6007   3.815   3.472   3.177
 1703SOL    HW1 6008   3.744   3.405   3.198
 1703SOL    HW2 6009   3.891   3.426   3.132
 1704SOL     OW 6010   0.787   1.255   1.969
 1704SOL    HW1 6011   0.779   1.237   1.871
 1704SOL    HW2 6012   0.750   1.346   1.989
 1705SOL     OW 6013   3.635   2.184   1.540
 1705SOL    HW1 6014   3.550   2.235   1.538
 1705SOL    HW2 6015   3.654   2.154   1.633
 1706SOL     OW 6016   4.888   0.607   1.373
 1706SOL    HW1 6017   4.956   0.647   1.435
 1706SOL    HW2 6018   4.913   0.512   1.355
 1707SOL     OW 6019   4.861   2.014   3.081
 1707SOL    HW1 6020   4.861   2.072   3.000
 1707SOL    HW2 6021   4.860   1.918   3.053
 1708SOL     OW 6022   4.665   5.107   2.047
 1708SOL    HW1 6023   4.718   5.078   2.126
 1708SOL    HW2 6024   4.666   5.035   1.978
 1709SOL     OW 6025   2.492   5.893   1.837
 1709SOL    HW1 6026   2.533   5.803   1.822
 1709SOL    HW2 6027   2.414   5.904   1.776
 1710SOL     OW 6028   5.705   4.571   3.719
 1710SOL    HW1 6029   5.647   4.584   3.799
 1710SOL    HW2 6030   5.653   4.590   3.636
 1711SOL     OW 6031   1.345   4.400   4.576
 1711SOL    HW1 6032   1.327   4.498   4.565
 1711SOL    HW2 6033   1.416   4.371   4.511
 1712SOL     OW 6034   0.866   2.744   6.671
 1712SOL    HW1 6035   0.926   2.809   6.624
 1712SOL    HW2 6036   0.843   2.669   6.608
 1713SOL     OW 6037   3.741   2.574   1.318
 1713SOL    HW1 6038   3.828   2.622   1.316
 1713SOL    HW2 6039   3.752   2.487   1.365
 1714SOL     OW 6040   4.690   1.612   5.807
 1714SOL    HW1 6041   4.755   1.671   5.760
 1714SOL    HW2 6042   4.611   1.665   5.838
 1715SOL     OW 6043   6.708   3.769   2.361
 1715SOL    HW1 6044   6.780   3.718   2.409
 1715SOL    HW2 6045   6.644   3.807   2.428
 1716SOL     OW 6046   4.793   6.874   2.381
 1716SOL    HW1 6047   4.808   6.928   2.464
 1716SOL    HW2 6048   4.698   6.843   2.378
 1717SOL     OW 6049   2.023   0.040   6.356
 1717SOL    HW1 6050   2.037   6.970   6.314
 1717SOL    HW2 6051   2.064   0.111   6.299
 1718SOL     OW 6052   2.122   1.857   1.511
 1718SOL    HW1 6053   2.205   1.828   1.463
 1718SOL    HW2 6054   2.114   1.956   1.505
 1719SOL     OW 6055   2.116   4.050   1.186
 1719SOL    HW1 6056   2.118   4.148   1.207
 1719SOL    HW2 6057   2.199   4.006   1.220
 1720SOL     OW 6058   6.786   1.467   1.070
 1720SOL    HW1 6059   6.723   1.450   0.994
 1720SOL    HW2 6060   6.871   1.416   1.056
 1721SOL     OW 6061   1.005   6.682   3.045
 1721SOL    HW1 6062   1.057   6.760   3.080
 1721SOL    HW2 6063   1.063   6.601   3.045
 1722SOL     OW 6064   4.680   1.751   3.658
 1722SOL    HW1 6065   4.654   1.654   3.661
 1722SOL    HW2 6066   4.617   1.804   3.716
 1723SOL     OW 6067   6.561   2.734   2.799
 1723SOL    HW1 6068   6.467   2.707   2.818
 1723SOL    HW2 6069   6.589   2.697   2.710
 1724SOL     OW 6070   6.133   2.091   0.854
 1724SOL    HW1 6071   6.117   2.056   0.761
 1724SOL    HW2 6072   6.164   2.016   0.913
 1725SOL     OW 6073   2.774   4.876   0.101
 1725SOL    HW1 6074   2.739   4.868   0.194
 1725SOL    HW2 6075   2.874   4.866   0.102
 1726SOL     OW 6076   5.617   3.995   5.396
 1726SOL    HW1 6077   5.544   3.980   5.330
 1726SOL    HW2 6078   5.664   3.909   5.414
 1727SOL     OW 6079   3.620   2.913   4.628
 1727SOL    HW1 6080   3.717   2.899   4.651
 1727SOL    HW2 6081   3.613   2.976   4.551
 1728SOL     OW 6082   6.073   5.426   4.622
 1728SOL    HW1 6083   6.000   5.435   4.690
 1728SOL    HW2 6084   6.037   5.447   4.531
 1729SOL     OW 6085   2.171   4.045   3.692
 1729SOL    HW1 6086   2.154   3.946   3.688
 1729SOL    HW2 6087   2.153   4.085   3.602
 1730SOL     OW 6088   6.230   6.921   5.269
 1730SOL    HW1 6089   6.220   6.949   5.365
 1730SOL    HW2 6090   6.195   6.828   5.258
 1731SOL     OW 6091   0.554   5.196   2.079
 1731SOL    HW1 6092   0.625   5.256   2.042
 1731SOL    HW2 6093   0.467   5.245   2.082
 1732SOL     OW 6094   2.242   4.303   5.784
 1732SOL    HW1 6095   2.289   4.376   5.833
 1732SOL    HW2 6096   2.308   4.248   5.734
 1733SOL     OW 6097   1.333   3.875   2.434
 1733SOL    HW1 6098   1.282   3.960   2.450
 1733SOL    HW2 6099   1.327   3.818   2.516
 1734SOL     OW 6100   4.915   3.211   1.868
 1734SOL    HW1 6101   5.006   3.177   1.842
 1734SOL    HW2 6102   4.875   3.148   1.935
 1735SOL     OW 6103   5.991   5.762   1.398
 1735SOL    HW1 6104   6.033   5.812   1.322
 1735SOL    HW2 6105   6.039   5.674   1.409
 1736SOL     OW 6106   4.044   2.128   1.376
 1736SOL    HW1 6107   3.986   2.059   1.420
 1736SOL    HW2 6108   4.138   2.117   1.408
 1737SOL     OW 6109   3.031   1.072   4.221
 1737SOL    HW1 6110   3.032   0.996   4.286
 1737SOL    HW2 6111   3.125   1.090   4.190
 1738SOL     OW 6112   2.092   1.468   3.939
 1738SOL    HW1 6113   2.020   1.462   4.008
 1738SOL    HW2 6114   2.052   1.467   3.848
 1739SOL     OW 6115   5.370   2.391   5.475
 1739SOL    HW1 6116   5.444   2.335   5.512
 1739SOL    HW2 6117   5.318   2.432   5.551
 1740SOL     OW 6118   0.497   2.011   6.456
 1740SOL    HW1 6119   0.474   2.053   6.368
 1740SOL    HW2 6120   0.557   1.932   6.441
 1741SOL     OW 6121   2.195   0.590   4.035
 1741SOL    HW1 6122   2.101   0.598   4.003
 1741SOL    HW2 6123   2.253   0.657   3.988
 1742SOL     OW 6124   4.624   6.203   5.902
 1742SOL    HW1 6125   4.656   6.248   5.985
 1742SOL    HW2 6126   4.525   6.214   5.893
 1743SOL     OW 6127   2.072   1.882   2.297
 1743SOL    HW1 6128   2.109   1.950   2.235
 1743SOL    HW2 6129   2.013   1.819   2.246
 1744SOL     OW 6130   0.596   0.518   1.431
 1744SOL    HW1 6131   0.501   0.488   1.425
 1744SOL    HW2 6132   0.602   0.598   1.491
 1745SOL     OW 6133   6.633   0.498   3.950
 1745SOL    HW1 6134   6.643   0.427   3.880
 1745SOL    HW2 6135   6.722   0.540   3.967
 1746SOL     OW 6136   2.450   5.140   5.222
 1746SOL    HW1 6137   2.373   5.186   5.178
 1746SOL    HW2 6138   2.524   5.127   5.156
 1747SOL     OW 6139   5.605   1.208   3.105
 1747SOL    HW1 6140   5.591   1.240   3.199
 1747SOL    HW2 6141   5.703   1.198   3.088
 1748SOL     OW 6142   0.731   1.073   3.829
 1748SOL    HW1 6143   0.650   1.129   3.846
 1748SOL    HW2 6144   0.741   1.059   3.730
 1749SOL     OW 6145   2.579   6.982   5.451
 1749SOL    HW1 6146   2.663   6.961   5.502
 1749SOL    HW2 6147   2.560   0.060   5.458
 1750SOL     OW 6148   6.380   0.063   3.304
 1750SOL    HW1 6149   6.429   7.013   3.250
 1750SOL    HW2 6150   6.283   0.039   3.309
 1751SOL     OW 6151   3.845   6.001   4.947
 1751SOL    HW1 6152   3.804   6.010   4.856
 1751SOL    HW2 6153   3.922   5.937   4.942
 1752SOL     OW 6154   6.932   2.082   2.425
 1752SOL    HW1 6155   6.889   2.013   2.482
 1752SOL    HW2 6156   6.877   2.166   2.427
 1753SOL     OW 6157   0.143   2.708   1.012
 1753SOL    HW1 6158   0.090   2.636   1.057
 1753SOL    HW2 6159   0.236   2.674   0.994
 1754SOL     OW 6160   3.263   3.291   1.294
 1754SOL    HW1 6161   3.199   3.236   1.346
 1754SOL    HW2 6162   3.357   3.268   1.320
 1755SOL     OW 6163   5.774   5.803   2.725
 1755SOL    HW1 6164   5.802   5.707   2.729
 1755SOL    HW2 6165   5.798   5.840   2.635
 1756SOL     OW 6166   4.216   4.219   6.047
 1756SOL    HW1 6167   4.118   4.237   6.045
 1756SOL    HW2 6168   4.239   4.147   5.982
 1757SOL     OW 6169   2.461   4.921   4.923
 1757SOL    HW1 6170   2.478   4.934   5.020
 1757SOL    HW2 6171   2.365   4.943   4.903
 1758SOL     OW 6172   2.975   0.381   3.918
 1758SOL    HW1 6173   3.002   0.452   3.853
 1758SOL    HW2 6174   3.056   0.328   3.945
 1759SOL     OW 6175   1.093   4.833   5.766
 1759SOL    HW1 6176   1.039   4.891   5.706
 1759SOL    HW2 6177   1.151   4.773   5.711
 1760SOL     OW 6178   5.921   2.014   1.555
 1760SOL    HW1 6179   5.885   2.040   1.465
 1760SOL    HW2 6180   5.846   2.008   1.620
 1761SOL     OW 6181   0.160   0.611   0.675
 1761SOL    HW1 6182   0.090   0.546   0.704
 1761SOL    HW2 6183   0.236   0.609   0.741
 1762SOL     OW 6184   6.661   1.816   4.991
 1762SOL    HW1 6185   6.702   1.806   5.082
 1762SOL    HW2 6186   6.732   1.816   4.921
 1763SOL     OW 6187   1.743   3.481   4.043
 1763SOL    HW1 6188   1.773   3.452   3.952
 1763SOL    HW2 6189   1.762   3.579   4.056
 1764SOL     OW 6190   2.189   4.008   2.654
 1764SOL    HW1 6191   2.098   4.050   2.642
 1764SOL    HW2 6192   2.228   3.988   2.564
 1765SOL     OW 6193   3.842   1.825   6.831
 1765SOL    HW1 6194   3.914   1.817   6.763
 1765SOL    HW2 6195   3.777   1.896   6.803
 1766SOL     OW 6196   5.167   3.587   3.505
 1766SOL    HW1 6197   5.193   3.493   3.484
 1766SOL    HW2 6198   5.101   3.619   3.437
 1767SOL     OW 6199   6.519   3.906   3.237
 1767SOL    HW1 6200   6.490   3.868   3.149
 1767SOL    HW2 6201   6.438   3.926   3.292
 1768SOL     OW 6202   3.497   1.208   4.548
 1768SOL    HW1 6203   3.453   1.296   4.568
 1768SOL    HW2 6204   3.587   1.224   4.507
 1769SOL     OW 6205   4.363   2.327   4.982
 1769SOL    HW1 6206   4.284   2.388   4.983
 1769SOL    HW2 6207   4.379   2.291   5.074
 1770SOL     OW 6208   0.197   5.186   4.768
 1770SOL    HW1 6209   0.206   5.232   4.856
 1770SOL    HW2 6210   0.246   5.239   4.698
 1771SOL     OW 6211   2.257   5.295   6.828
 1771SOL    HW1 6212   2.280   5.369   6.891
 1771SOL    HW2 6213   2.341   5.260   6.786
 1772SOL     OW 6214   2.889   6.416   3.427
 1772SOL    HW1 6215   2.875   6.510   3.455
 1772SOL    HW2 6216   2.809   6.384   3.375
 1773SOL     OW 6217   2.735   4.826   6.195
 1773SOL    HW1 6218   2.730   4.881   6.279
 1773SOL    HW2 6219   2.654   4.769   6.188
 1774SOL     OW 6220   4.393   0.126   1.871
 1774SOL    HW1 6221   4.303   0.157   1.901
 1774SOL    HW2 6222   4.409   0.155   1.777
 1775SOL     OW 6223   1.156   4.484   3.905
 1775SOL    HW1 6224   1.076   4.544   3.906
 1775SOL    HW2 6225   1.150   4.423   3.826
 1776SOL     OW 6226   3.586   0.670   4.411
 1776SOL    HW1 6227   3.670   0.718   4.436
 1776SOL    HW2 6228   3.509   0.707   4.463
 1777SOL     OW 6229   3.375   5.077   5.943
 1777SOL    HW1 6230   3.298   5.022   5.910
 1777SOL    HW2 6231   3.370   5.168   5.902
 1778SOL     OW 6232   4.672   2.712   6.062
 1778SOL    HW1 6233   4.639   2.794   6.015
 1778SOL    HW2 6234   4.762   2.730   6.102
 1779SOL     OW 6235   4.635   0.941   4.766
 1779SOL    HW1 6236   4.580   0.994   4.831
 1779SOL    HW2 6237   4.617   0.974   4.673
 1780SOL     OW 6238   2.568   3.452   5.992
 1780SOL    HW1 6239   2.551   3.501   5.907
 1780SOL    HW2 6240   2.641   3.499   6.043
 1781SOL     OW 6241   4.337   5.767   4.126
 1781SOL    HW1 6242   4.380   5.774   4.215
 1781SOL    HW2 6243   4.321   5.670   4.104
 1782SOL     OW 6244   2.638   2.342   2.586
 1782SOL    HW1 6245   2.665   2.388   2.502
 1782SOL    HW2 6246   2.716   2.338   2.649
 1783SOL     OW 6247   1.256   3.998   6.513
 1783SOL    HW1 6248   1.238   4.093   6.541
 1783SOL    HW2 6249   1.275   3.995   6.415
 1784SOL     OW 6250   3.550   1.034   4.768
 1784SOL    HW1 6251   3.650   1.028   4.775
 1784SOL    HW2 6252   3.526   1.098   4.695
 1785SOL     OW 6253   5.915   5.502   4.037
 1785SOL    HW1 6254   5.885   5.563   3.964
 1785SOL    HW2 6255   6.007   5.528   4.067
 1786SOL     OW 6256   1.315   2.733   1.322
 1786SOL    HW1 6257   1.297   2.811   1.383
 1786SOL    HW2 6258   1.239   2.669   1.327
 1787SOL     OW 6259   2.533   0.699   4.517
 1787SOL    HW1 6260   2.584   0.679   4.434
 1787SOL    HW2 6261   2.471   0.775   4.501
 1788SOL     OW 6262   3.423   2.729   0.230
 1788SOL    HW1 6263   3.440   2.814   0.281
 1788SOL    HW2 6264   3.427   2.651   0.292
 1789SOL     OW 6265   6.106   1.426   2.704
 1789SOL    HW1 6266   6.085   1.419   2.607
 1789SOL    HW2 6267   6.025   1.404   2.758
 1790SOL     OW 6268   4.225   6.650   3.913
 1790SOL    HW1 6269   4.264   6.686   3.998
 1790SOL    HW2 6270   4.129   6.626   3.927
 1791SOL     OW 6271   6.940   1.490   3.923
 1791SOL    HW1 6272   6.998   1.426   3.873
 1791SOL    HW2 6273   6.974   1.583   3.908
 1792SOL     OW 6274   0.225   2.227   3.973
 1792SOL    HW1 6275   0.314   2.261   4.003
 1792SOL    HW2 6276   0.181   2.178   4.048
 1793SOL     OW 6277   6.989   0.004   3.571
 1793SOL    HW1 6278   6.935   6.982   3.497
 1793SOL    HW2 6279   6.933   0.072   3.618
 1794SOL     OW 6280   6.028   5.854   6.296
 1794SOL    HW1 6281   6.066   5.940   6.263
 1794SOL    HW2 6282   5.932   5.848   6.269
 1795SOL     OW 6283   0.083   2.984   2.164
 1795SOL    HW1 6284   0.160   2.985   2.228
 1795SOL    HW2 6285   0.093   2.907   2.100
 1796SOL     OW 6286   2.643   0.648   4.266
 1796SOL    HW1 6287   2.709   0.721   4.281
 1796SOL    HW2 6288   2.595   0.663   4.179
 1797SOL     OW 6289   1.077   0.694   6.513
 1797SOL    HW1 6290   1.169   0.725   6.536
 1797SOL    HW2 6291   1.076   0.594   6.511
 1798SOL     OW 6292   5.048   2.127   4.433
 1798SOL    HW1 6293   5.136   2.085   4.412
 1798SOL    HW2 6294   5.038   2.212   4.383
 1799SOL     OW 6295   6.370   1.757   6.131
 1799SOL    HW1 6296   6.364   1.733   6.228
 1799SOL    HW2 6297   6.402   1.851   6.122
 1800SOL     OW 6298   4.184   5.024   2.790
 1800SOL    HW1 6299   4.267   5.080   2.799
 1800SOL    HW2 6300   4.140   5.042   2.703
 1801SOL     OW 6301   0.335   0.600   2.031
 1801SOL    HW1 6302   0.423   0.570   1.995
 1801SOL    HW2 6303   0.288   0.654   1.962
 1802SOL     OW 6304   5.513   5.288   2.330
 1802SOL    HW1 6305   5.461   5.321   2.251
 1802SOL    HW2 6306   5.516   5.188   2.330
 1803SOL     OW 6307   0.045   6.007   6.958
 1803SOL    HW1 6308   0.091   5.961   0.015
 1803SOL    HW2 6309   0.015   5.939   6.891
 1804SOL     OW 6310   2.360   4.111   6.015
 1804SOL    HW1 6311   2.375   4.143   5.922
 1804SOL    HW2 6312   2.367   4.012   6.018
 1805SOL     OW 6313   6.724   3.740   5.503
 1805SOL    HW1 6314   6.667   3.746   5.585
 1805SOL    HW2 6315   6.810   3.788   5.518
 1806SOL     OW 6316   1.073   1.147   0.623
 1806SOL    HW1 6317   1.173   1.144   0.628
 1806SOL    HW2 6318   1.045   1.164   0.529
 1807SOL     OW 6319   4.992   2.580   6.022
 1807SOL    HW1 6320   4.901   2.556   6.055
 1807SOL    HW2 6321   4.985   2.617   5.929
 1808SOL     OW 6322   0.456   3.515   5.607
 1808SOL    HW1 6323   0.459   3.470   5.518
 1808SOL    HW2 6324   0.365   3.505   5.646
 1809SOL     OW 6325   2.130   3.337   4.487
 1809SOL    HW1 6326   2.083   3.415   4.447
 1809SOL    HW2 6327   2.150   3.270   4.416
 1810SOL     OW 6328   2.816   0.654   4.631
 1810SOL    HW1 6329   2.789   0.719   4.560
 1810SOL    HW2 6330   2.916   0.653   4.639
 1811SOL     OW 6331   4.521   4.435   3.581
 1811SOL    HW1 6332   4.572   4.350   3.591
 1811SOL    HW2 6333   4.498   4.450   3.485
 1812SOL     OW 6334   4.159   6.439   6.067
 1812SOL    HW1 6335   4.145   6.530   6.028
 1812SOL    HW2 6336   4.218   6.445   6.148
 1813SOL     OW 6337   5.456   4.944   0.416
 1813SOL    HW1 6338   5.479   5.037   0.446
 1813SOL    HW2 6339   5.358   4.940   0.396
 1814SOL     OW 6340   6.726   1.314   0.349
 1814SOL    HW1 6341   6.742   1.274   0.259
 1814SOL    HW2 6342   6.688   1.245   0.410
 1815SOL     OW 6343   5.940   2.477   1.913
 1815SOL    HW1 6344   5.928   2.461   2.011
 1815SOL    HW2 6345   5.928   2.392   1.863
 1816SOL     OW 6346   2.265   3.904   0.580
 1816SOL    HW1 6347   2.236   3.877   0.672
 1816SOL    HW2 6348   2.322   3.985   0.586
 1817SOL     OW 6349   3.215   6.544   3.188
 1817SOL    HW1 6350   3.143   6.546   3.118
 1817SOL    HW2 6351   3.291   6.603   3.159
 1818SOL     OW 6352   1.889   6.505   2.064
 1818SOL    HW1 6353   1.854   6.487   1.972
 1818SOL    HW2 6354   1.891   6.420   2.116
 1819SOL     OW 6355   0.056   5.214   1.575
 1819SOL    HW1 6356   0.027   5.146   1.642
 1819SOL    HW2 6357   0.019   5.190   1.485
 1820SOL     OW 6358   4.867   0.964   2.438
 1820SOL    HW1 6359   4.902   0.883   2.486
 1820SOL    HW2 6360   4.773   0.981   2.465
 1821SOL     OW 6361   2.477   0.772   1.550
 1821SOL    HW1 6362   2.515   0.839   1.486
 1821SOL    HW2 6363   2.449   0.690   1.500
 1822SOL     OW 6364   1.751   2.752   1.721
 1822SOL    HW1 6365   1.663   2.800   1.719
 1822SOL    HW2 6366   1.748   2.676   1.656
 1823SOL     OW 6367   2.690   5.563   3.630
 1823SOL    HW1 6368   2.739   5.515   3.557
 1823SOL    HW2 6369   2.755   5.596   3.698
 1824SOL     OW 6370   3.516   3.222   1.374
 1824SOL    HW1 6371   3.613   3.246   1.385
 1824SOL    HW2 6372   3.502   3.128   1.406
 1825SOL     OW 6373   1.273   1.710   4.097
 1825SOL    HW1 6374   1.363   1.745   4.070
 1825SOL    HW2 6375   1.203   1.778   4.074
 1826SOL     OW 6376   3.152   0.196   0.909
 1826SOL    HW1 6377   3.073   0.217   0.967
 1826SOL    HW2 6378   3.137   0.108   0.864
 1827SOL     OW 6379   0.209   6.138   1.803
 1827SOL    HW1 6380   0.140   6.205   1.779
 1827SOL    HW2 6381   0.167   6.064   1.856
 1828SOL     OW 6382   1.181   2.468   0.812
 1828SOL    HW1 6383   1.141   2.381   0.839
 1828SOL    HW2 6384   1.253   2.493   0.876
 1829SOL     OW 6385   2.847   0.668   3.445
 1829SOL    HW1 6386   2.916   0.686   3.375
 1829SOL    HW2 6387   2.836   0.749   3.502
 1830SOL     OW 6388   5.821   6.371   3.899
 1830SOL    HW1 6389   5.842   6.274   3.909
 1830SOL    HW2 6390   5.768   6.401   3.979
 1831SOL     OW 6391   5.871   0.453   2.169
 1831SOL    HW1 6392   5.828   0.471   2.258
 1831SOL    HW2 6393   5.931   0.374   2.177
 1832SOL     OW 6394   4.914   1.546   1.153
 1832SOL    HW1 6395   5.000   1.544   1.102
 1832SOL    HW2 6396   4.839   1.572   1.092
 1833SOL     OW 6397   5.429   0.444   6.482
 1833SOL    HW1 6398   5.504   0.457   6.417
 1833SOL    HW2 6399   5.444   0.359   6.532
 1834SOL     OW 6400   2.700   4.284   0.238
 1834SOL    HW1 6401   2.723   4.283   0.141
 1834SOL    HW2 6402   2.781   4.309   0.291
 1835SOL     OW 6403   0.096   3.853   2.239
 1835SOL    HW1 6404   0.190   3.825   2.225
 1835SOL    HW2 6405   0.075   3.852   2.337
 1836SOL     OW 6406   5.068   2.367   0.994
 1836SOL    HW1 6407   4.989   2.392   0.938
 1836SOL    HW2 6408   5.146   2.422   0.968
 1837SOL     OW 6409   1.336   1.522   4.778
 1837SOL    HW1 6410   1.349   1.510   4.679
 1837SOL    HW2 6411   1.337   1.620   4.800
 1838SOL     OW 6412   6.828   1.274   4.445
 1838SOL    HW1 6413   6.834   1.349   4.380
 1838SOL    HW2 6414   6.871   1.192   4.405
 1839SOL     OW 6415   5.418   2.925   5.372
 1839SOL    HW1 6416   5.345   2.993   5.369
 1839SOL    HW2 6417   5.405   2.858   5.300
 1840SOL     OW 6418   3.305   5.840   1.749
 1840SOL    HW1 6419   3.401   5.838   1.775
 1840SOL    HW2 6420   3.265   5.928   1.776
 1841SOL     OW 6421   2.429   1.010   3.646
 1841SOL    HW1 6422   2.439   1.058   3.558
 1841SOL    HW2 6423   2.439   1.075   3.721
 1842SOL     OW 6424   1.470   5.656   0.142
 1842SOL    HW1 6425   1.395   5.622   0.200
 1842SOL    HW2 6426   1.445   5.644   0.046
 1843SOL     OW 6427   6.571   2.364   3.759
 1843SOL    HW1 6428   6.575   2.266   3.740
 1843SOL    HW2 6429   6.649   2.391   3.815
 1844SOL     OW 6430   3.340   0.273   5.550
 1844SOL    HW1 6431   3.329   0.349   5.487
 1844SOL    HW2 6432   3.401   0.204   5.510
 1845SOL     OW 6433   2.381   0.104   5.082
 1845SOL    HW1 6434   2.477   0.111   5.109
 1845SOL    HW2 6435   2.363   0.166   5.005
 1846SOL     OW 6436   4.182   2.041   1.058
 1846SOL    HW1 6437   4.221   1.984   1.130
 1846SOL    HW2 6438   4.161   2.132   1.094
 1847SOL     OW 6439   1.772   1.194   6.382
 1847SOL    HW1 6440   1.822   1.147   6.455
 1847SOL    HW2 6441   1.763   1.291   6.405
 1848SOL     OW 6442   1.044   6.993   2.893
 1848SOL    HW1 6443   1.018   0.071   2.888
 1848SOL    HW2 6444   1.126   6.983   2.949
 1849SOL     OW 6445   3.962   2.610   0.767
 1849SOL    HW1 6446   3.938   2.633   0.673
 1849SOL    HW2 6447   3.961   2.510   0.778
 1850SOL     OW 6448   1.078   2.810   2.087
 1850SOL    HW1 6449   1.172   2.792   2.058
 1850SOL    HW2 6450   1.041   2.730   2.135
 1851SOL     OW 6451   6.885   2.923   1.111
 1851SOL    HW1 6452   6.859   2.916   1.015
 1851SOL    HW2 6453   6.984   2.910   1.120
 1852SOL     OW 6454   6.124   3.933   2.231
 1852SOL    HW1 6455   6.109   3.841   2.196
 1852SOL    HW2 6456   6.042   3.965   2.277
 1853SOL     OW 6457   0.100   2.890   2.849
 1853SOL    HW1 6458   0.103   2.791   2.854
 1853SOL    HW2 6459   0.121   2.920   2.756
 1854SOL     OW 6460   2.896   5.957   3.397
 1854SOL    HW1 6461   2.883   6.056   3.393
 1854SOL    HW2 6462   2.888   5.925   3.491
 1855SOL     OW 6463   5.545   3.083   6.104
 1855SOL    HW1 6464   5.539   3.001   6.047
 1855SOL    HW2 6465   5.628   3.079   6.160
 1856SOL     OW 6466   6.075   3.792   5.506
 1856SOL    HW1 6467   6.105   3.730   5.433
 1856SOL    HW2 6468   6.147   3.801   5.574
 1857SOL     OW 6469   4.187   1.294   5.285
 1857SOL    HW1 6470   4.109   1.327   5.232
 1857SOL    HW2 6471   4.159   1.216   5.341
 1858SOL     OW 6472   6.485   3.579   3.824
 1858SOL    HW1 6473   6.557   3.648   3.827
 1858SOL    HW2 6474   6.493   3.519   3.903
 1859SOL     OW 6475   4.870   1.755   2.991
 1859SOL    HW1 6476   4.954   1.757   2.937
 1859SOL    HW2 6477   4.794   1.725   2.933
 1860SOL     OW 6478   6.213   0.294   4.907
 1860SOL    HW1 6479   6.308   0.290   4.878
 1860SOL    HW2 6480   6.203   0.245   4.994
 1861SOL     OW 6481   5.981   0.634   2.016
 1861SOL    HW1 6482   5.905   0.663   1.957
 1861SOL    HW2 6483   5.945   0.574   2.088
 1862SOL     OW 6484   2.366   0.546   5.996
 1862SOL    HW1 6485   2.375   0.550   5.897
 1862SOL    HW2 6486   2.393   0.634   6.036
 1863SOL     OW 6487   1.404   2.130   2.139
 1863SOL    HW1 6488   1.319   2.109   2.092
 1863SOL    HW2 6489   1.470   2.055   2.125
 1864SOL     OW 6490   0.855   6.862   5.200
 1864SOL    HW1 6491   0.817   6.946   5.238
 1864SOL    HW2 6492   0.799   6.831   5.123
 1865SOL     OW 6493   3.576   6.698   6.368
 1865SOL    HW1 6494   3.637   6.773   6.393
 1865SOL    HW2 6495   3.562   6.697   6.269
 1866SOL     OW 6496   4.208   5.222   3.301
 1866SOL    HW1 6497   4.263   5.213   3.384
 1866SOL    HW2 6498   4.263   5.197   3.222
 1867SOL     OW 6499   0.268   4.111   0.083
 1867SOL    HW1 6500   0.306   4.021   0.101
 1867SOL    HW2 6501   0.312   4.150   0.001
 1868SOL     OW 6502   4.790   4.111   6.822
 1868SOL    HW1 6503   4.774   4.205   6.793
 1868SOL    HW2 6504   4.703   4.060   6.821
 1869SOL     OW 6505   6.373   2.708   5.731
 1869SOL    HW1 6506   6.431   2.789   5.718
 1869SOL    HW2 6507   6.335   2.710   5.823
 1870SOL     OW 6508   1.662   2.932   5.728
 1870SOL    HW1 6509   1.673   2.836   5.704
 1870SOL    HW2 6510   1.742   2.963   5.779
 1871SOL     OW 6511   0.252   0.638   0.424
 1871SOL    HW1 6512   0.221   0.644   0.518
 1871SOL    HW2 6513   0.350   0.616   0.422
 1872SOL     OW 6514   3.971   1.422   6.210
 1872SOL    HW1 6515   4.022   1.482   6.148
 1872SOL    HW2 6516   3.873   1.431   6.192
 1873SOL     OW 6517   5.379   1.715   5.753
 1873SOL    HW1 6518   5.401   1.618   5.751
 1873SOL    HW2 6519   5.441   1.762   5.815
 1874SOL     OW 6520   3.299   1.659   0.385
 1874SOL    HW1 6521   3.226   1.662   0.318
 1874SOL    HW2 6522   3.304   1.747   0.433
 1875SOL     OW 6523   7.005   0.799   0.060
 1875SOL    HW1 6524   0.017   0.788   6.985
 1875SOL    HW2 6525   0.054   0.761   0.122
 1876SOL     OW 6526   3.605   6.379   6.080
 1876SOL    HW1 6527   3.536   6.395   6.009
 1876SOL    HW2 6528   3.658   6.297   6.057
 1877SOL     OW 6529   0.301   0.193   2.214
 1877SOL    HW1 6530   0.342   0.273   2.257
 1877SOL    HW2 6531   0.372   0.123   2.199
 1878SOL     OW 6532   6.750   2.411   3.397
 1878SOL    HW1 6533   6.752   2.343   3.470
 1878SOL    HW2 6534   6.780   2.499   3.432
 1879SOL     OW 6535   1.320   4.717   3.809
 1879SOL    HW1 6536   1.280   4.628   3.831
 1879SOL    HW2 6537   1.413   4.721   3.844
 1880SOL     OW 6538   6.401   1.526   4.388
 1880SOL    HW1 6539   6.419   1.427   4.389
 1880SOL    HW2 6540   6.450   1.569   4.464
 1881SOL     OW 6541   5.951   2.508   2.874
 1881SOL    HW1 6542   5.907   2.425   2.908
 1881SOL    HW2 6543   5.885   2.560   2.819
 1882SOL     OW 6544   0.650   3.510   6.495
 1882SOL    HW1 6545   0.681   3.594   6.449
 1882SOL    HW2 6546   0.589   3.460   6.434
 1883SOL     OW 6547   0.802   2.164   4.023
 1883SOL    HW1 6548   0.844   2.188   4.111
 1883SOL    HW2 6549   0.828   2.230   3.954
 1884SOL     OW 6550   6.513   3.214   0.515
 1884SOL    HW1 6551   6.482   3.122   0.540
 1884SOL    HW2 6552   6.446   3.257   0.455
 1885SOL     OW 6553   1.647   2.460   6.366
 1885SOL    HW1 6554   1.610   2.545   6.405
 1885SOL    HW2 6555   1.594   2.382   6.400
 1886SOL     OW 6556   2.198   0.814   1.299
 1886SOL    HW1 6557   2.211   0.903   1.342
 1886SOL    HW2 6558   2.229   0.742   1.362
 1887SOL     OW 6559   1.120   5.695   5.127
 1887SOL    HW1 6560   1.025   5.707   5.101
 1887SOL    HW2 6561   1.132   5.719   5.224
 1888SOL     OW 6562   2.431   1.764   0.071
 1888SOL    HW1 6563   2.363   1.813   0.016
 1888SOL    HW2 6564   2.518   1.761   0.022
 1889SOL     OW 6565   0.622   2.913   6.029
 1889SOL    HW1 6566   0.525   2.927   6.008
 1889SOL    HW2 6567   0.678   2.951   5.956
 1890SOL     OW 6568   1.819   6.509   4.464
 1890SOL    HW1 6569   1.885   6.562   4.515
 1890SOL    HW2 6570   1.843   6.412   4.468
 1891SOL     OW 6571   5.389   2.053   1.915
 1891SOL    HW1 6572   5.458   1.985   1.891
 1891SOL    HW2 6573   5.390   2.069   2.013
 1892SOL     OW 6574   2.494   0.798   2.652
 1892SOL    HW1 6575   2.426   0.786   2.724
 1892SOL    HW2 6576   2.450   0.790   2.563
 1893SOL     OW 6577   3.322   3.097   0.002
 1893SOL    HW1 6578   3.308   2.999   0.007
 1893SOL    HW2 6579   3.259   3.137   6.954
 1894SOL     OW 6580   3.800   4.038   3.937
 1894SOL    HW1 6581   3.731   4.066   4.004
 1894SOL    HW2 6582   3.891   4.063   3.970
 1895SOL     OW 6583   5.005   0.685   1.782
 1895SOL    HW1 6584   4.997   0.778   1.817
 1895SOL    HW2 6585   5.033   0.624   1.856
 1896SOL     OW 6586   5.532   0.028   1.191
 1896SOL    HW1 6587   5.456   6.983   1.198
 1896SOL    HW2 6588   5.524   0.098   1.261
 1897SOL     OW 6589   2.116   5.276   1.684
 1897SOL    HW1 6590   2.213   5.291   1.703
 1897SOL    HW2 6591   2.106   5.198   1.622
 1898SOL     OW 6592   2.228   5.655   3.475
 1898SOL    HW1 6593   2.318   5.631   3.439
 1898SOL    HW2 6594   2.159   5.636   3.406
 1899SOL     OW 6595   0.887   0.915   2.055
 1899SOL    HW1 6596   0.803   0.942   2.103
 1899SOL    HW2 6597   0.959   0.981   2.074
 1900SOL     OW 6598   1.495   0.214   6.358
 1900SOL    HW1 6599   1.539   0.128   6.334
 1900SOL    HW2 6600   1.426   0.198   6.429
 1901SOL     OW 6601   1.710   2.044   1.269
 1901SOL    HW1 6602   1.737   2.126   1.218
 1901SOL    HW2 6603   1.610   2.035   1.267
 1902SOL     OW 6604   1.920   1.752   4.915
 1902SOL    HW1 6605   1.987   1.681   4.891
 1902SOL    HW2 6606   1.828   1.714   4.908
 1903SOL     OW 6607   6.866   3.337   2.395
 1903SOL    HW1 6608   6.849   3.264   2.328
 1903SOL    HW2 6609   6.950   3.386   2.371
 1904SOL     OW 6610   5.471   5.652   3.649
 1904SOL    HW1 6611   5.432   5.572   3.695
 1904SOL    HW2 6612   5.418   5.673   3.567
 1905SOL     OW 6613   1.075   0.045   3.650
 1905SOL    HW1 6614   1.164   0.072   3.615
 1905SOL    HW2 6615   1.081   0.027   3.748
 1906SOL     OW 6616   2.630   0.078   4.736
 1906SOL    HW1 6617   2.583   0.014   4.796
 1906SOL    HW2 6618   2.724   0.091   4.768
 1907SOL     OW 6619   3.652   1.035   1.573
 1907SOL    HW1 6620   3.586   1.022   1.648
 1907SOL    HW2 6621   3.729   1.089   1.606
 1908SOL     OW 6622   3.648   6.596   5.536
 1908SOL    HW1 6623   3.738   6.560   5.561
 1908SOL    HW2 6624   3.658   6.670   5.470
 1909SOL     OW 6625   0.185   3.671   2.543
 1909SOL    HW1 6626   0.227   3.628   2.623
 1909SOL    HW2 6627   0.212   3.767   2.539
 1910SOL     OW 6628   0.354   4.463   6.956
 1910SOL    HW1 6629   0.352   4.368   6.925
 1910SOL    HW2 6630   0.415   4.516   6.898
 1911SOL     OW 6631   6.770   3.706   4.772
 1911SOL    HW1 6632   6.850   3.647   4.765
 1911SOL    HW2 6633   6.703   3.664   4.833
 1912SOL     OW 6634   3.796   5.967   0.491
 1912SOL    HW1 6635   3.847   5.884   0.470
 1912SOL    HW2 6636   3.790   6.024   0.409
 1913SOL     OW 6637   2.948   6.483   4.837
 1913SOL    HW1 6638   2.978   6.575   4.863
 1913SOL    HW2 6639   2.862   6.462   4.884
 1914SOL     OW 6640   3.782   2.907   5.929
 1914SOL    HW1 6641   3.763   2.974   5.858
 1914SOL    HW2 6642   3.751   2.817   5.899
 1915SOL     OW 6643   3.295   2.101   5.257
 1915SOL    HW1 6644   3.269   2.187   5.212
 1915SOL    HW2 6645   3.343   2.121   5.342
 1916SOL     OW 6646   3.982   5.619   1.237
 1916SOL    HW1 6647   3.933   5.553   1.181
 1916SOL    HW2 6648   4.062   5.575   1.279
 1917SOL     OW 6649   2.370   3.120   6.447
 1917SOL    HW1 6650   2.379   3.115   6.546
 1917SOL    HW2 6651   2.434   3.056   6.404
 1918SOL     OW 6652   1.166   1.008   5.497
 1918SOL    HW1 6653   1.177   1.087   5.557
 1918SOL    HW2 6654   1.126   1.038   5.410
 1919SOL     OW 6655   1.631   0.909   1.515
 1919SOL    HW1 6656   1.720   0.921   1.560
 1919SOL    HW2 6657   1.560   0.950   1.573
 1920SOL     OW 6658   0.276   3.735   2.879
 1920SOL    HW1 6659   0.212   3.810   2.866
 1920SOL    HW2 6660   0.364   3.771   2.912
 1921SOL     OW 6661   1.350   3.266   6.235
 1921SOL    HW1 6662   1.323   3.323   6.158
 1921SOL    HW2 6663   1.449   3.259   6.239
 1922SOL     OW 6664   2.367   3.311   1.241
 1922SOL    HW1 6665   2.381   3.293   1.338
 1922SOL    HW2 6666   2.374   3.225   1.190
 1923SOL     OW 6667   4.269   0.971   5.644
 1923SOL    HW1 6668   4.207   1.031   5.594
 1923SOL    HW2 6669   4.229   0.879   5.651
 1924SOL     OW 6670   5.177   6.553   0.383
 1924SOL    HW1 6671   5.224   6.634   0.347
 1924SOL    HW2 6672   5.195   6.476   0.323
 1925SOL     OW 6673   2.123   4.794   0.787
 1925SOL    HW1 6674   2.031   4.808   0.750
 1925SOL    HW2 6675   2.163   4.883   0.809
 1926SOL     OW 6676   2.485   6.716   3.031
 1926SOL    HW1 6677   2.468   6.648   3.103
 1926SOL    HW2 6678   2.400   6.763   3.008
 1927SOL     OW 6679   2.748   4.596   0.572
 1927SOL    HW1 6680   2.693   4.539   0.511
 1927SOL    HW2 6681   2.813   4.539   0.622
 1928SOL     OW 6682   6.198   3.878   4.932
 1928SOL    HW1 6683   6.125   3.825   4.888
 1928SOL    HW2 6684   6.253   3.817   4.990
 1929SOL     OW 6685   2.300   6.936   1.498
 1929SOL    HW1 6686   2.379   6.905   1.446
 1929SOL    HW2 6687   2.218   6.890   1.465
 1930SOL     OW 6688   4.388   3.676   6.638
 1930SOL    HW1 6689   4.333   3.724   6.706
 1930SOL    HW2 6690   4.462   3.627   6.684
 1931SOL     OW 6691   1.136   2.580   1.645
 1931SOL    HW1 6692   1.204   2.636   1.691
 1931SOL    HW2 6693   1.179   2.530   1.570
 1932SOL     OW 6694   4.882   2.224   2.893
 1932SOL    HW1 6695   4.874   2.320   2.866
 1932SOL    HW2 6696   4.835   2.166   2.826
 1933SOL     OW 6697   1.367   3.460   0.530
 1933SOL    HW1 6698   1.391   3.482   0.624
 1933SOL    HW2 6699   1.298   3.388   0.529
 1934SOL     OW 6700   6.510   0.239   5.251
 1934SOL    HW1 6701   6.518   0.235   5.351
 1934SOL    HW2 6702   6.508   0.335   5.221
 1935SOL     OW 6703   4.846   5.599   3.573
 1935SOL    HW1 6704   4.830   5.594   3.474
 1935SOL    HW2 6705   4.782   5.538   3.620
 1936SOL     OW 6706   5.294   4.329   3.877
 1936SOL    HW1 6707   5.332   4.387   3.949
 1936SOL    HW2 6708   5.364   4.311   3.808
 1937SOL     OW 6709   4.390   6.168   0.436
 1937SOL    HW1 6710   4.404   6.096   0.368
 1937SOL    HW2 6711   4.471   6.173   0.495
 1938SOL     OW 6712   1.231   1.746   2.251
 1938SOL    HW1 6713   1.187   1.813   2.311
 1938SOL    HW2 6714   1.249   1.789   2.162
 1939SOL     OW 6715   0.137   6.914   4.062
 1939SOL    HW1 6716   0.112   6.952   3.973
 1939SOL    HW2 6717   0.201   6.838   4.048
 1940SOL     OW 6718   5.788   5.495   0.931
 1940SOL    HW1 6719   5.701   5.545   0.931
 1940SOL    HW2 6720   5.827   5.497   1.023
 1941SOL     OW 6721   1.462   2.868   4.163
 1941SOL    HW1 6722   1.483   2.871   4.065
 1941SOL    HW2 6723   1.535   2.819   4.211
 1942SOL     OW 6724   5.409   2.471   1.580
 1942SOL    HW1 6725   5.313   2.481   1.604
 1942SOL    HW2 6726   5.452   2.404   1.640
 1943SOL     OW 6727   1.869   6.767   3.187
 1943SOL    HW1 6728   1.835   6.741   3.097
 1943SOL    HW2 6729   1.967   6.784   3.182
 1944SOL     OW 6730   6.360   3.700   0.123
 1944SOL    HW1 6731   6.459   3.701   0.109
 1944SOL    HW2 6732   6.328   3.605   0.129
 1945SOL     OW 6733   4.186   5.387   0.012
 1945SOL    HW1 6734   4.259   5.448   7.000
 1945SOL    HW2 6735   4.202   5.295   6.996
 1946SOL     OW 6736   5.733   6.495   1.182
 1946SOL    HW1 6737   5.714   6.397   1.170
 1946SOL    HW2 6738   5.832   6.511   1.178
 1947SOL     OW 6739   5.763   6.427   4.533
 1947SOL    HW1 6740   5.665   6.433   4.554
 1947SOL    HW2 6741   5.801   6.347   4.580
 1948SOL     OW 6742   6.740   4.895   2.813
 1948SOL    HW1 6743   6.683   4.943   2.879
 1948SOL    HW2 6744   6.683   4.860   2.739
 1949SOL     OW 6745   3.739   3.420   6.624
 1949SOL    HW1 6746   3.688   3.365   6.559
 1949SOL    HW2 6747   3.783   3.496   6.576
 1950SOL     OW 6748   3.618   3.063   1.724
 1950SOL    HW1 6749   3.655   2.997   1.789
 1950SOL    HW2 6750   3.590   3.015   1.640
 1951SOL     OW 6751   6.414   4.369   6.703
 1951SOL    HW1 6752   6.512   4.357   6.683
 1951SOL    HW2 6753   6.383   4.456   6.665
 1952SOL     OW 6754   4.808   4.332   0.973
 1952SOL    HW1 6755   4.743   4.257   0.957
 1952SOL    HW2 6756   4.866   4.311   1.051
 1953SOL     OW 6757   6.130   1.288   5.576
 1953SOL    HW1 6758   6.227   1.312   5.577
 1953SOL    HW2 6759   6.116   1.204   5.630
 1954SOL     OW 6760   6.198   0.451   1.260
 1954SOL    HW1 6761   6.249   0.383   1.312
 1954SOL    HW2 6762   6.152   0.514   1.322
 1955SOL     OW 6763   0.570   0.438   3.066
 1955SOL    HW1 6764   0.588   0.399   3.157
 1955SOL    HW2 6765   0.508   0.516   3.076
 1956SOL     OW 6766   5.195   6.885   1.783
 1956SOL    HW1 6767   5.117   6.909   1.724
 1956SOL    HW2 6768   5.261   6.832   1.729
 1957SOL     OW 6769   5.145   4.600   4.047
 1957SOL    HW1 6770   5.239   4.628   4.065
 1957SOL    HW2 6771   5.098   4.585   4.134
 1958SOL     OW 6772   4.686   1.529   1.649
 1958SOL    HW1 6773   4.764   1.591   1.664
 1958SOL    HW2 6774   4.604   1.567   1.693
 1959SOL     OW 6775   1.092   6.988   3.901
 1959SOL    HW1 6776   1.184   6.998   3.938
 1959SOL    HW2 6777   1.026   6.978   3.976
 1960SOL     OW 6778   0.279   3.984   2.647
 1960SOL    HW1 6779   0.354   3.934   2.605
 1960SOL    HW2 6780   0.222   4.026   2.577
 1961SOL     OW 6781   6.560   4.141   4.458
 1961SOL    HW1 6782   6.650   4.178   4.437
 1961SOL    HW2 6783   6.570   4.053   4.505
 1962SOL     OW 6784   1.466   6.579   2.206
 1962SOL    HW1 6785   1.405   6.536   2.140
 1962SOL    HW2 6786   1.522   6.648   2.160
 1963SOL     OW 6787   1.097   1.472   1.994
 1963SOL    HW1 6788   1.189   1.496   2.025
 1963SOL    HW2 6789   1.074   1.529   1.915
 1964SOL     OW 6790   4.255   4.539   1.460
 1964SOL    HW1 6791   4.336   4.542   1.402
 1964SOL    HW2 6792   4.258   4.457   1.518
 1965SOL     OW 6793   1.790   2.785   4.554
 1965SOL    HW1 6794   1.885   2.797   4.525
 1965SOL    HW2 6795   1.787   2.771   4.653
 1966SOL     OW 6796   0.436   6.226   1.256
 1966SOL    HW1 6797   0.505   6.215   1.327
 1966SOL    HW2 6798   0.478   6.268   1.175
 1967SOL     OW 6799   5.725   2.946   3.868
 1967SOL    HW1 6800   5.629   2.928   3.850
 1967SOL    HW2 6801   5.774   2.957   3.781
 1968SOL     OW 6802   1.986   0.547   5.560
 1968SOL    HW1 6803   1.887   0.557   5.575
 1968SOL    HW2 6804   2.010   0.587   5.472
 1969SOL     OW 6805   3.061   1.410   0.797
 1969SOL    HW1 6806   2.994   1.484   0.804
 1969SOL    HW2 6807   3.121   1.411   0.877
 1970SOL     OW 6808   1.517   6.972   5.578
 1970SOL    HW1 6809   1.557   6.903   5.517
 1970SOL    HW2 6810   1.455   6.927   5.642
 1971SOL     OW 6811   0.271   0.939   5.239
 1971SOL    HW1 6812   0.182   0.895   5.247
 1971SOL    HW2 6813   0.308   0.955   5.330
 1972SOL     OW 6814   5.651   2.198   1.311
 1972SOL    HW1 6815   5.691   2.289   1.324
 1972SOL    HW2 6816   5.589   2.178   1.387
 1973SOL     OW 6817   2.845   4.166   0.796
 1973SOL    HW1 6818   2.774   4.097   0.790
 1973SOL    HW2 6819   2.903   4.149   0.876
 1974SOL     OW 6820   5.048   0.297   4.885
 1974SOL    HW1 6821   5.036   0.228   4.813
 1974SOL    HW2 6822   4.959   0.335   4.909
 1975SOL     OW 6823   1.863   2.158   4.146
 1975SOL    HW1 6824   1.921   2.077   4.156
 1975SOL    HW2 6825   1.822   2.180   4.234
 1976SOL     OW 6826   6.051   6.535   0.646
 1976SOL    HW1 6827   6.022   6.442   0.622
 1976SOL    HW2 6828   6.132   6.530   0.704
 1977SOL     OW 6829   1.930   3.361   5.338
 1977SOL    HW1 6830   1.888   3.270   5.337
 1977SOL    HW2 6831   1.964   3.383   5.246
 1978SOL     OW 6832   2.133   6.128   2.882
 1978SOL    HW1 6833   2.109   6.032   2.874
 1978SOL    HW2 6834   2.112   6.160   2.975
 1979SOL     OW 6835   5.117   5.108   0.045
 1979SOL    HW1 6836   5.199   5.144   0.089
 1979SOL    HW2 6837   5.097   5.017   0.080
 1980SOL     OW 6838   3.984   7.014   3.907
 1980SOL    HW1 6839   3.943   6.923   3.911
 1980SOL    HW2 6840   3.992   0.024   3.811
 1981SOL     OW 6841   5.489   3.337   2.455
 1981SOL    HW1 6842   5.414   3.346   2.390
 1981SOL    HW2 6843   5.506   3.426   2.498
 1982SOL     OW 6844   6.712   4.241   3.599
 1982SOL    HW1 6845   6.677   4.155   3.563
 1982SOL    HW2 6846   6.635   4.302   3.619
 1983SOL     OW 6847   1.901   0.234   1.397
 1983SOL    HW1 6848   1.889   0.164   1.468
 1983SOL    HW2 6849   1.816   0.285   1.386
 1984SOL     OW 6850   4.587   2.502   5.081
 1984SOL    HW1 6851   4.558   2.483   5.175
 1984SOL    HW2 6852   4.513   2.477   5.018
 1985SOL     OW 6853   6.888   6.031   2.662
 1985SOL    HW1 6854   6.978   6.070   2.682
 1985SOL    HW2 6855   6.849   5.992   2.745
 1986SOL     OW 6856   3.279   1.327   6.222
 1986SOL    HW1 6857   3.209   1.370   6.165
 1986SOL    HW2 6858   3.238   1.253   6.274
 1987SOL     OW 6859   2.304   1.883   3.145
 1987SOL    HW1 6860   2.235   1.949   3.114
 1987SOL    HW2 6861   2.340   1.911   3.234
 1988SOL     OW 6862   6.833   3.155   0.640
 1988SOL    HW1 6863   6.875   3.163   0.730
 1988SOL    HW2 6864   6.795   3.244   0.613
 1989SOL     OW 6865   2.028   5.464   5.426
 1989SOL    HW1 6866   2.031   5.408   5.508
 1989SOL    HW2 6867   1.934   5.471   5.393
 1990SOL     OW 6868   3.968   5.748   0.514
 1990SOL    HW1 6869   4.011   5.753   0.604
 1990SOL    HW2 6870   3.968   5.653   0.483
 1991SOL     OW 6871   2.254   6.395   0.356
 1991SOL    HW1 6872   2.222   6.410   0.449
 1991SOL    HW2 6873   2.179   6.359   0.300
 1992SOL     OW 6874   0.193   0.859   0.293
 1992SOL    HW1 6875   0.230   0.770   0.317
 1992SOL    HW2 6876   0.257   0.906   0.232
 1993SOL     OW 6877   3.648   1.679   6.068
 1993SOL    HW1 6878   3.742   1.709   6.083
 1993SOL    HW2 6879   3.629   1.598   6.123
 1994SOL     OW 6880   6.588   2.354   0.723
 1994SOL    HW1 6881   6.596   2.309   0.634
 1994SOL    HW2 6882   6.508   2.317   0.771
 1995SOL     OW 6883   5.417   2.989   3.624
 1995SOL    HW1 6884   5.473   3.061   3.666
 1995SOL    HW2 6885   5.476   2.926   3.574
 1996SOL     OW 6886   2.570   1.917   0.987
 1996SOL    HW1 6887   2.626   1.929   0.905
 1996SOL    HW2 6888   2.624   1.940   1.068
 1997SOL     OW 6889   3.873   1.797   4.206
 1997SOL    HW1 6890   3.955   1.741   4.195
 1997SOL    HW2 6891   3.884   1.883   4.156
 1998SOL     OW 6892   1.094   3.629   0.484
 1998SOL    HW1 6893   1.113   3.594   0.392
 1998SOL    HW2 6894   1.110   3.557   0.551
 1999SOL     OW 6895   1.415   0.194   5.962
 1999SOL    HW1 6896   1.500   0.178   5.912
 1999SOL    HW2 6897   1.425   0.275   6.019
 2000SOL     OW 6898   3.749   2.679   5.745
 2000SOL    HW1 6899   3.673   2.626   5.707
 2000SOL    HW2 6900   3.830   2.621   5.751
 2001SOL     OW 6901   1.907   1.475   1.045
 2001SOL    HW1 6902   1.958   1.413   0.985
 2001SOL    HW2 6903   1.866   1.548   0.990
 2002SOL     OW 6904   0.092   4.943   0.461
 2002SOL    HW1 6905   0.164   4.907   0.520
 2002SOL    HW2 6906   0.037   4.867   0.424
 2003SOL     OW 6907   6.593   4.903   2.473
 2003SOL    HW1 6908   6.690   4.880   2.462
 2003SOL    HW2 6909   6.559   4.945   2.389
 2004SOL     OW 6910   5.344   0.861   4.326
 2004SOL    HW1 6911   5.327   0.959   4.336
 2004SOL    HW2 6912   5.267   0.810   4.365
 2005SOL     OW 6913   6.969   4.680   0.454
 2005SOL    HW1 6914   0.010   4.625   0.396
 2005SOL    HW2 6915   6.982   4.654   0.550
 2006SOL     OW 6916   5.422   0.219   3.754
 2006SOL    HW1 6917   5.496   0.184   3.811
 2006SOL    HW2 6918   5.439   0.194   3.659
 2007SOL     OW 6919   4.846   4.883   1.113
 2007SOL    HW1 6920   4.872   4.961   1.170
 2007SOL    HW2 6921   4.841   4.800   1.170
 2008SOL     OW 6922   2.051   3.816   3.344
 2008SOL    HW1 6923   2.069   3.721   3.369
 2008SOL    HW2 6924   2.092   3.877   3.412
 2009SOL     OW 6925   4.724   6.724   2.829
 2009SOL    HW1 6926   4.782   6.797   2.793
 2009SOL    HW2 6927   4.633   6.731   2.789
 2010SOL     OW 6928   2.312   1.484   1.642
 2010SOL    HW1 6929   2.236   1.546   1.623
 2010SOL    HW2 6930   2.397   1.537   1.652
 2011SOL     OW 6931   1.000   0.715   4.873
 2011SOL    HW1 6932   0.971   0.634   4.822
 2011SOL    HW2 6933   0.933   0.788   4.862
 2012SOL     OW 6934   1.596   3.969   2.459
 2012SOL    HW1 6935   1.566   4.064   2.450
 2012SOL    HW2 6936   1.515   3.910   2.465
 2013SOL     OW 6937   5.538   3.271   4.147
 2013SOL    HW1 6938   5.578   3.180   4.161
 2013SOL    HW2 6939   5.588   3.339   4.201
 2014SOL     OW 6940   3.018   0.229   3.437
 2014SOL    HW1 6941   3.037   0.230   3.535
 2014SOL    HW2 6942   3.092   0.183   3.389
 2015SOL     OW 6943   2.413   7.004   1.164
 2015SOL    HW1 6944   2.342   6.935   1.151
 2015SOL    HW2 6945   2.400   0.059   1.099
 2016SOL     OW 6946   1.565   5.539   5.779
 2016SOL    HW1 6947   1.590   5.540   5.875
 2016SOL    HW2 6948   1.496   5.610   5.762
 2017SOL     OW 6949   4.031   0.280   3.015
 2017SOL    HW1 6950   3.971   0.281   3.095
 2017SOL    HW2 6951   4.099   0.207   3.025
 2018SOL     OW 6952   6.341   2.913   3.803
 2018SOL    HW1 6953   6.414   2.853   3.836
 2018SOL    HW2 6954   6.283   2.941   3.880
 2019SOL     OW 6955   5.455   3.932   6.456
 2019SOL    HW1 6956   5.434   3.856   6.517
 2019SOL    HW2 6957   5.371   3.963   6.412
 2020SOL     OW 6958   2.177   0.226   6.240
 2020SOL    HW1 6959   2.163   0.321   6.213
 2020SOL    HW2 6960   2.271   0.214   6.271
 2021SOL     OW 6961   6.698   6.558   4.603
 2021SOL    HW1 6962   6.782   6.526   4.647
 2021SOL    HW2 6963   6.657   6.631   4.659
 2022SOL     OW 6964   1.446   4.561   4.231
 2022SOL    HW1 6965   1.466   4.481   4.174
 2022SOL    HW2 6966   1.524   4.579   4.292
 2023SOL     OW 6967   0.790   0.836   6.791
 2023SOL    HW1 6968   0.790   0.762   6.723
 2023SOL    HW2 6969   0.883   0.872   6.799
 2024SOL     OW 6970   6.857   5.726   3.731
 2024SOL    HW1 6971   6.796   5.788   3.682
 2024SOL    HW2 6972   6.883   5.768   3.819
 2025SOL     OW 6973   4.317   0.834   4.135
 2025SOL    HW1 6974   4.222   0.854   4.155
 2025SOL    HW2 6975   4.374   0.856   4.215
 2026SOL     OW 6976   6.432   2.427   6.712
 2026SOL    HW1 6977   6.498   2.494   6.746
 2026SOL    HW2 6978   6.392   2.377   6.789
 2027SOL     OW 6979   1.197   0.079   1.514
 2027SOL    HW1 6980   1.269   0.037   1.570
 2027SOL    HW2 6981   1.163   0.161   1.559
 2028SOL     OW 6982   3.449   5.480   4.400
 2028SOL    HW1 6983   3.440   5.473   4.300
 2028SOL    HW2 6984   3.473   5.391   4.437
 2029SOL     OW 6985   6.611   2.164   0.100
 2029SOL    HW1 6986   6.519   2.133   0.123
 2029SOL    HW2 6987   6.608   2.259   0.070
 2030SOL     OW 6988   2.880   0.366   3.213
 2030SOL    HW1 6989   2.832   0.414   3.286
 2030SOL    HW2 6990   2.832   0.381   3.126
 2031SOL     OW 6991   6.699   6.120   2.137
 2031SOL    HW1 6992   6.766   6.055   2.173
 2031SOL    HW2 6993   6.734   6.213   2.147
 2032SOL     OW 6994   3.592   1.407   1.465
 2032SOL    HW1 6995   3.661   1.403   1.538
 2032SOL    HW2 6996   3.533   1.486   1.480
 2033SOL     OW 6997   2.644   1.412   0.445
 2033SOL    HW1 6998   2.653   1.328   0.499
 2033SOL    HW2 6999   2.548   1.428   0.424
 2034SOL     OW 7000   2.645   5.131   5.708
 2034SOL    HW1 7001   2.602   5.214   5.743
 2034SOL    HW2 7002   2.600   5.104   5.623
 2035SOL     OW 7003   6.434   6.270   3.266
 2035SOL    HW1 7004   6.369   6.342   3.291
 2035SOL    HW2 7005   6.504   6.263   3.337
 2036SOL     OW 7006   1.237   3.373   2.647
 2036SOL    HW1 7007   1.185   3.441   2.594
 2036SOL    HW2 7008   1.237   3.286   2.598
 2037SOL     OW 7009   6.403   2.875   6.357
 2037SOL    HW1 7010   6.489   2.862   6.308
 2037SOL    HW2 7011   6.348   2.792   6.351
 2038SOL     OW 7012   2.387   1.702   0.466
 2038SOL    HW1 7013   2.388   1.617   0.519
 2038SOL    HW2 7014   2.415   1.778   0.525
 2039SOL     OW 7015   0.194   6.522   3.457
 2039SOL    HW1 7016   0.121   6.454   3.458
 2039SOL    HW2 7017   0.266   6.494   3.394
 2040SOL     OW 7018   2.111   2.048   0.091
 2040SOL    HW1 7019   2.081   2.143   0.078
 2040SOL    HW2 7020   2.049   2.002   0.155
 2041SOL     OW 7021   1.077   0.217   5.074
 2041SOL    HW1 7022   1.139   0.163   5.130
 2041SOL    HW2 7023   1.000   0.248   5.131
 2042SOL     OW 7024   5.450   6.829   6.180
 2042SOL    HW1 7025   5.445   6.731   6.161
 2042SOL    HW2 7026   5.366   6.873   6.150
 2043SOL     OW 7027   6.292   2.660   2.837
 2043SOL    HW1 7028   6.220   2.672   2.905
 2043SOL    HW2 7029   6.253   2.621   2.754
 2044SOL     OW 7030   6.111   0.254   1.074
 2044SOL    HW1 7031   6.084   0.176   1.132
 2044SOL    HW2 7032   6.105   0.338   1.127
 2045SOL     OW 7033   1.063   4.840   4.648
 2045SOL    HW1 7034   1.066   4.910   4.719
 2045SOL    HW2 7035   1.043   4.882   4.560
 2046SOL     OW 7036   6.396   2.081   5.260
 2046SOL    HW1 7037   6.394   2.041   5.168
 2046SOL    HW2 7038   6.353   2.017   5.324
 2047SOL     OW 7039   6.638   2.622   0.697
 2047SOL    HW1 7040   6.583   2.661   0.623
 2047SOL    HW2 7041   6.627   2.522   0.698
 2048SOL     OW 7042   0.471   0.433   4.975
 2048SOL    HW1 7043   0.453   0.472   5.065
 2048SOL    HW2 7044   0.438   0.338   4.973
 2049SOL     OW 7045   5.634   1.758   4.333
 2049SOL    HW1 7046   5.688   1.715   4.405
 2049SOL    HW2 7047   5.537   1.745   4.352
 2050SOL     OW 7048   6.801   2.307   4.312
 2050SOL    HW1 7049   6.773   2.268   4.400
 2050SOL    HW2 7050   6.725   2.360   4.274
 2051SOL     OW 7051   1.864   6.166   6.663
 2051SOL    HW1 7052   1.811   6.249   6.679
 2051SOL    HW2 7053   1.815   6.106   6.599
 2052SOL     OW 7054   1.361   2.822   1.025
 2052SOL    HW1 7055   1.374   2.724   1.007
 2052SOL    HW2 7056   1.338   2.835   1.122
 2053SOL     OW 7057   0.753   5.438   4.981
 2053SOL    HW1 7058   0.681   5.506   4.997
 2053SOL    HW2 7059   0.714   5.358   4.935
 2054SOL     OW 7060   3.047   3.996   3.147
 2054SOL    HW1 7061   3.011   3.904   3.129
 2054SOL    HW2 7062   2.996   4.063   3.094
 2055SOL     OW 7063   6.171   2.997   4.889
 2055SOL    HW1 7064   6.084   3.047   4.888
 2055SOL    HW2 7065   6.245   3.060   4.912
 2056SOL     OW 7066   3.982   5.112   2.170
 2056SOL    HW1 7067   3.930   5.031   2.141
 2056SOL    HW2 7068   4.002   5.169   2.091
 2057SOL     OW 7069   5.062   3.494   5.493
 2057SOL    HW1 7070   5.081   3.470   5.588
 2057SOL    HW2 7071   4.981   3.445   5.461
 2058SOL     OW 7072   0.034   6.527   2.557
 2058SOL    HW1 7073   0.029   6.470   2.639
 2058SOL    HW2 7074   0.117   6.506   2.506
 2059SOL     OW 7075   2.353   6.373   6.795
 2059SOL    HW1 7076   2.309   6.402   6.880
 2059SOL    HW2 7077   2.452   6.380   6.805
 2060SOL     OW 7078   0.438   3.932   1.792
 2060SOL    HW1 7079   0.360   3.933   1.730
 2060SOL    HW2 7080   0.523   3.944   1.740
 2061SOL     OW 7081   2.189   2.313   2.502
 2061SOL    HW1 7082   2.100   2.360   2.503
 2061SOL    HW2 7083   2.236   2.333   2.416
 2062SOL     OW 7084   0.348   6.077   5.299
 2062SOL    HW1 7085   0.346   6.172   5.268
 2062SOL    HW2 7086   0.262   6.056   5.345
 2063SOL     OW 7087   1.220   6.112   5.122
 2063SOL    HW1 7088   1.209   6.209   5.101
 2063SOL    HW2 7089   1.145   6.082   5.181
 2064SOL     OW 7090   0.251   2.459   4.863
 2064SOL    HW1 7091   0.301   2.492   4.783
 2064SOL    HW2 7092   0.288   2.370   4.890
 2065SOL     OW 7093   6.081   3.277   6.204
 2065SOL    HW1 7094   6.073   3.346   6.133
 2065SOL    HW2 7095   6.114   3.319   6.289
 2066SOL     OW 7096   6.340   3.961   5.571
 2066SOL    HW1 7097   6.299   4.049   5.593
 2066SOL    HW2 7098   6.327   3.941   5.473
 2067SOL     OW 7099   6.759   5.316   0.850
 2067SOL    HW1 7100   6.846   5.268   0.838
 2067SOL    HW2 7101   6.713   5.325   0.762
 2068SOL     OW 7102   4.190   0.358   4.386
 2068SOL    HW1 7103   4.255   0.370   4.311
 2068SOL    HW2 7104   4.201   0.266   4.425
 2069SOL     OW 7105   0.292   2.400   4.321
 2069SOL    HW1 7106   0.311   2.465   4.247
 2069SOL    HW2 7107   0.377   2.382   4.372
 2070SOL     OW 7108   1.181   2.416   1.402
 2070SOL    HW1 7109   1.191   2.432   1.304
 2070SOL    HW2 7110   1.091   2.378   1.421
 2071SOL     OW 7111   6.392   0.885   5.964
 2071SOL    HW1 7112   6.312   0.825   5.955
 2071SOL    HW2 7113   6.363   0.975   5.995
 2072SOL     OW 7114   4.785   5.242   4.514
 2072SOL    HW1 7115   4.871   5.202   4.545
 2072SOL    HW2 7116   4.789   5.341   4.526
 2073SOL     OW 7117   3.678   6.223   5.378
 2073SOL    HW1 7118   3.612   6.298   5.386
 2073SOL    HW2 7119   3.732   6.236   5.295
 2074SOL     OW 7120   2.494   2.302   0.012
 2074SOL    HW1 7121   2.493   2.283   6.933
 2074SOL    HW2 7122   2.495   2.215   0.062
 2075SOL     OW 7123   6.520   2.482   2.469
 2075SOL    HW1 7124   6.494   2.575   2.494
 2075SOL    HW2 7125   6.488   2.418   2.539
 2076SOL     OW 7126   5.692   6.864   6.024
 2076SOL    HW1 7127   5.610   6.863   6.081
 2076SOL    HW2 7128   5.773   6.863   6.082
 2077SOL     OW 7129   6.210   2.304   1.741
 2077SOL    HW1 7130   6.205   2.249   1.825
 2077SOL    HW2 7131   6.208   2.401   1.765
 2078SOL     OW 7132   2.064   5.068   6.600
 2078SOL    HW1 7133   2.118   5.138   6.553
 2078SOL    HW2 7134   2.096   5.058   6.694
 2079SOL     OW 7135   6.853   0.974   3.156
 2079SOL    HW1 7136   6.769   0.946   3.109
 2079SOL    HW2 7137   6.883   1.062   3.119
 2080SOL     OW 7138   3.208   1.286   4.811
 2080SOL    HW1 7139   3.121   1.244   4.785
 2080SOL    HW2 7140   3.264   1.298   4.729
 2081SOL     OW 7141   1.100   6.308   4.540
 2081SOL    HW1 7142   1.028   6.359   4.495
 2081SOL    HW2 7143   1.133   6.235   4.479
 2082SOL     OW 7144   0.769   6.572   3.060
 2082SOL    HW1 7145   0.850   6.629   3.047
 2082SOL    HW2 7146   0.753   6.516   2.979
 2083SOL     OW 7147   1.557   6.008   4.692
 2083SOL    HW1 7148   1.512   5.985   4.778
 2083SOL    HW2 7149   1.530   6.101   4.664
 2084SOL     OW 7150   0.785   3.088   1.895
 2084SOL    HW1 7151   0.712   3.138   1.848
 2084SOL    HW2 7152   0.870   3.097   1.843
 2085SOL     OW 7153   4.690   6.556   0.994
 2085SOL    HW1 7154   4.771   6.559   0.936
 2085SOL    HW2 7155   4.663   6.648   1.020
 2086SOL     OW 7156   3.804   6.212   0.114
 2086SOL    HW1 7157   3.834   6.207   0.209
 2086SOL    HW2 7158   3.754   6.297   0.099
 2087SOL     OW 7159   4.427   2.185   0.444
 2087SOL    HW1 7160   4.430   2.130   0.361
 2087SOL    HW2 7161   4.480   2.269   0.431
 2088SOL     OW 7162   1.392   5.853   6.134
 2088SOL    HW1 7163   1.383   5.901   6.047
 2088SOL    HW2 7164   1.341   5.767   6.130
 2089SOL     OW 7165   4.442   2.456   5.311
 2089SOL    HW1 7166   4.426   2.367   5.268
 2089SOL    HW2 7167   4.481   2.442   5.402
 2090SOL     OW 7168   4.681   3.062   5.240
 2090SOL    HW1 7169   4.740   3.139   5.262
 2090SOL    HW2 7170   4.585   3.087   5.257
 2091SOL     OW 7171   6.815   6.134   0.691
 2091SOL    HW1 7172   6.796   6.167   0.598
 2091SOL    HW2 7173   6.749   6.064   0.715
 2092SOL     OW 7174   5.423   4.058   1.071
 2092SOL    HW1 7175   5.370   3.985   1.028
 2092SOL    HW2 7176   5.502   4.018   1.118
 2093SOL     OW 7177   3.463   2.050   2.000
 2093SOL    HW1 7178   3.514   2.134   1.980
 2093SOL    HW2 7179   3.519   1.990   2.058
 2094SOL     OW 7180   5.527   2.068   0.987
 2094SOL    HW1 7181   5.451   2.083   1.050
 2094SOL    HW2 7182   5.580   2.153   0.979
 2095SOL     OW 7183   6.150   6.819   3.525
 2095SOL    HW1 7184   6.219   6.751   3.499
 2095SOL    HW2 7185   6.171   6.854   3.616
 2096SOL     OW 7186   4.383   5.147   3.127
 2096SOL    HW1 7187   4.395   5.068   3.067
 2096SOL    HW2 7188   4.462   5.208   3.119
 2097SOL     OW 7189   2.955   3.079   0.187
 2097SOL    HW1 7190   2.996   3.089   0.277
 2097SOL    HW2 7191   2.944   3.170   0.146
 2098SOL     OW 7192   3.897   6.064   3.017
 2098SOL    HW1 7193   3.929   6.101   2.930
 2098SOL    HW2 7194   3.976   6.046   3.076
 2099SOL     OW 7195   4.460   1.345   6.437
 2099SOL    HW1 7196   4.379   1.330   6.495
 2099SOL    HW2 7197   4.460   1.440   6.404
 2100SOL     OW 7198   4.477   1.754   6.961
 2100SOL    HW1 7199   4.478   1.771   6.863
 2100SOL    HW2 7200   4.557   1.798   7.003
 2101SOL     OW 7201   0.069   6.269   1.458
 2101SOL    HW1 7202   0.118   6.193   1.500
 2101SOL    HW2 7203   0.026   6.239   1.373
 2102SOL     OW 7204   5.001   3.299   1.568
 2102SOL    HW1 7205   4.935   3.271   1.637
 2102SOL    HW2 7206   5.053   3.378   1.600
 2103SOL     OW 7207   4.080   3.673   0.765
 2103SOL    HW1 7208   4.010   3.610   0.731
 2103SOL    HW2 7209   4.150   3.622   0.816
 2104SOL     OW 7210   1.555   4.874   1.952
 2104SOL    HW1 7211   1.457   4.883   1.971
 2104SOL    HW2 7212   1.608   4.923   2.022
 2105SOL     OW 7213   3.805   4.618   6.503
 2105SOL    HW1 7214   3.903   4.619   6.484
 2105SOL    HW2 7215   3.786   4.670   6.586
 2106SOL     OW 7216   5.217   3.862   0.911
 2106SOL    HW1 7217   5.124   3.858   0.946
 2106SOL    HW2 7218   5.267   3.780   0.939
 2107SOL     OW 7219   6.079   2.534   5.672
 2107SOL    HW1 7220   6.149   2.546   5.601
 2107SOL    HW2 7221   6.121   2.545   5.762
 2108SOL     OW 7222   5.968   5.916   4.764
 2108SOL    HW1 7223   5.933   5.877   4.679
 2108SOL    HW2 7224   5.891   5.934   4.826
 2109SOL     OW 7225   3.089   5.726   2.137
 2109SOL    HW1 7226   3.136   5.799   2.187
 2109SOL    HW2 7227   2.997   5.714   2.175
 2110SOL     OW 7228   3.700   0.406   5.982
 2110SOL    HW1 7229   3.645   0.324   5.972
 2110SOL    HW2 7230   3.775   0.388   6.046
 2111SOL     OW 7231   1.861   2.339   5.285
 2111SOL    HW1 7232   1.888   2.409   5.350
 2111SOL    HW2 7233   1.781   2.290   5.320
 2112SOL     OW 7234   5.428   2.237   6.955
 2112SOL    HW1 7235   5.379   2.321   6.980
 2112SOL    HW2 7236   5.370   2.158   6.976
 2113SOL     OW 7237   2.303   0.006   4.724
 2113SOL    HW1 7238   2.269   6.940   4.684
 2113SOL    HW2 7239   2.390   7.008   4.771
 2114SOL     OW 7240   2.233   3.151   0.094
 2114SOL    HW1 7241   2.210   3.064   0.050
 2114SOL    HW2 7242   2.172   3.223   0.060
 2115SOL     OW 7243   1.320   4.884   1.723
 2115SOL    HW1 7244   1.390   4.824   1.684
 2115SOL    HW2 7245   1.241   4.887   1.662
 2116SOL     OW 7246   1.243   2.964   1.437
 2116SOL    HW1 7247   1.214   3.031   1.369
 2116SOL    HW2 7248   1.163   2.921   1.478
 2117SOL     OW 7249   5.119   3.516   1.673
 2117SOL    HW1 7250   5.163   3.577   1.606
 2117SOL    HW2 7251   5.136   3.550   1.765
 2118SOL     OW 7252   6.324   3.798   2.909
 2118SOL    HW1 7253   6.419   3.804   2.878
 2118SOL    HW2 7254   6.298   3.702   2.916
 2119SOL     OW 7255   1.719   1.260   1.043
 2119SOL    HW1 7256   1.776   1.185   1.010
 2119SOL    HW2 7257   1.777   1.337   1.070
 2120SOL     OW 7258   6.926   2.537   2.623
 2120SOL    HW1 7259   6.847   2.491   2.664
 2120SOL    HW2 7260   6.952   2.489   2.539
 2121SOL     OW 7261   2.031   2.832   6.579
 2121SOL    HW1 7262   2.056   2.735   6.580
 2121SOL    HW2 7263   1.967   2.850   6.505
 2122SOL     OW 7264   6.264   6.555   5.885
 2122SOL    HW1 7265   6.335   6.485   5.885
 2122SOL    HW2 7266   6.261   6.600   5.795
 2123SOL     OW 7267   5.898   6.316   2.348
 2123SOL    HW1 7268   5.936   6.405   2.374
 2123SOL    HW2 7269   5.926   6.247   2.415
 2124SOL     OW 7270   3.141   1.792   6.589
 2124SOL    HW1 7271   3.069   1.765   6.653
 2124SOL    HW2 7272   3.100   1.839   6.511
 2125SOL     OW 7273   0.858   5.919   2.239
 2125SOL    HW1 7274   0.782   5.953   2.184
 2125SOL    HW2 7275   0.924   5.873   2.180
 2126SOL     OW 7276   4.048   2.455   6.222
 2126SOL    HW1 7277   3.994   2.447   6.138
 2126SOL    HW2 7278   4.063   2.551   6.243
 2127SOL     OW 7279   0.601   1.763   5.286
 2127SOL    HW1 7280   0.643   1.697   5.224
 2127SOL    HW2 7281   0.504   1.740   5.299
 2128SOL     OW 7282   6.393   2.603   0.869
 2128SOL    HW1 7283   6.402   2.688   0.818
 2128SOL    HW2 7284   6.484   2.572   0.899
 2129SOL     OW 7285   4.853   4.493   4.177
 2129SOL    HW1 7286   4.890   4.454   4.262
 2129SOL    HW2 7287   4.818   4.585   4.196
 2130SOL     OW 7288   2.323   1.467   1.235
 2130SOL    HW1 7289   2.261   1.545   1.226
 2130SOL    HW2 7290   2.401   1.479   1.173
 2131SOL     OW 7291   5.092   1.840   0.725
 2131SOL    HW1 7292   5.098   1.922   0.668
 2131SOL    HW2 7293   4.996   1.821   0.746
 2132SOL     OW 7294   3.254   1.519   6.763
 2132SOL    HW1 7295   3.205   1.471   6.836
 2132SOL    HW2 7296   3.252   1.617   6.782
 2133SOL     OW 7297   3.317   2.125   0.959
 2133SOL    HW1 7298   3.234   2.179   0.955
 2133SOL    HW2 7299   3.367   2.133   0.873
 2134SOL     OW 7300   1.260   1.168   4.922
 2134SOL    HW1 7301   1.180   1.213   4.960
 2134SOL    HW2 7302   1.339   1.184   4.981
 2135SOL     OW 7303   0.032   1.596   4.594
 2135SOL    HW1 7304   0.038   1.501   4.622
 2135SOL    HW2 7305   6.964   1.613   4.548
 2136SOL     OW 7306   1.253   3.780   4.445
 2136SOL    HW1 7307   1.205   3.712   4.500
 2136SOL    HW2 7308   1.352   3.767   4.455
 2137SOL     OW 7309   0.599   6.620   4.562
 2137SOL    HW1 7310   0.509   6.583   4.538
 2137SOL    HW2 7311   0.589   6.716   4.588
 2138SOL     OW 7312   5.802   3.078   1.550
 2138SOL    HW1 7313   5.859   3.150   1.512
 2138SOL    HW2 7314   5.818   2.992   1.500
 2139SOL     OW 7315   4.158   1.271   3.241
 2139SOL    HW1 7316   4.182   1.246   3.335
 2139SOL    HW2 7317   4.127   1.366   3.239
 2140SOL     OW 7318   3.049   6.355   2.922
 2140SOL    HW1 7319   2.983   6.430   2.912
 2140SOL    HW2 7320   3.109   6.353   2.842
 2141SOL     OW 7321   6.379   3.232   1.773
 2141SOL    HW1 7322   6.446   3.304   1.754
 2141SOL    HW2 7323   6.287   3.269   1.766
 2142SOL     OW 7324   1.433   2.404   3.016
 2142SOL    HW1 7325   1.479   2.378   3.100
 2142SOL    HW2 7326   1.466   2.494   2.987
 2143SOL     OW 7327   3.384   5.562   0.790
 2143SOL    HW1 7328   3.347   5.653   0.769
 2143SOL    HW2 7329   3.321   5.492   0.757
 2144SOL     OW 7330   2.075   0.437   3.228
 2144SOL    HW1 7331   2.131   0.361   3.262
 2144SOL    HW2 7332   2.133   0.500   3.177
 2145SOL     OW 7333   3.536   5.207   4.498
 2145SOL    HW1 7334   3.537   5.146   4.419
 2145SOL    HW2 7335   3.630   5.224   4.528
 2146SOL     OW 7336   3.231   3.963   2.848
 2146SOL    HW1 7337   3.140   3.982   2.884
 2146SOL    HW2 7338   3.281   3.904   2.911
 2147SOL     OW 7339   0.216   1.481   0.167
 2147SOL    HW1 7340   0.189   1.543   0.241
 2147SOL    HW2 7341   0.161   1.397   0.172
 2148SOL     OW 7342   5.019   3.369   4.347
 2148SOL    HW1 7343   5.009   3.285   4.400
 2148SOL    HW2 7344   5.094   3.359   4.282
 2149SOL     OW 7345   4.286   0.327   1.304
 2149SOL    HW1 7346   4.269   0.250   1.365
 2149SOL    HW2 7347   4.361   0.383   1.339
 2150SOL     OW 7348   2.949   2.210   2.310
 2150SOL    HW1 7349   2.959   2.273   2.388
 2150SOL    HW2 7350   2.926   2.262   2.228
 2151SOL     OW 7351   2.915   1.957   4.613
 2151SOL    HW1 7352   2.939   2.041   4.564
 2151SOL    HW2 7353   2.914   1.975   4.711
 2152SOL     OW 7354   4.490   6.135   2.054
 2152SOL    HW1 7355   4.538   6.218   2.026
 2152SOL    HW2 7356   4.532   6.099   2.137
 2153SOL     OW 7357   4.100   0.806   3.511
 2153SOL    HW1 7358   4.115   0.737   3.581
 2153SOL    HW2 7359   4.009   0.846   3.523
 2154SOL     OW 7360   3.472   6.121   4.989
 2154SOL    HW1 7361   3.507   6.145   4.898
 2154SOL    HW2 7362   3.390   6.176   5.007
 2155SOL     OW 7363   1.836   5.053   0.071
 2155SOL    HW1 7364   1.822   5.141   0.118
 2155SOL    HW2 7365   1.903   5.066   7.017
 2156SOL     OW 7366   2.864   0.288   1.571
 2156SOL    HW1 7367   2.839   0.375   1.527
 2156SOL    HW2 7368   2.785   0.227   1.571
 2157SOL     OW 7369   6.624   0.849   3.905
 2157SOL    HW1 7370   6.608   0.772   3.844
 2157SOL    HW2 7371   6.583   0.932   3.865
 2158SOL     OW 7372   3.816   6.444   0.491
 2158SOL    HW1 7373   3.788   6.540   0.497
 2158SOL    HW2 7374   3.791   6.397   0.575
 2159SOL     OW 7375   1.371   5.726   5.697
 2159SOL    HW1 7376   1.290   5.667   5.701
 2159SOL    HW2 7377   1.378   5.766   5.606
 2160SOL     OW 7378   4.394   3.699   1.684
 2160SOL    HW1 7379   4.295   3.705   1.671
 2160SOL    HW2 7380   4.432   3.791   1.691
 2161SOL     OW 7381   4.902   3.408   3.584
 2161SOL    HW1 7382   4.948   3.359   3.658
 2161SOL    HW2 7383   4.877   3.500   3.615
 2162SOL     OW 7384   2.318   0.477   0.431
 2162SOL    HW1 7385   2.404   0.427   0.424
 2162SOL    HW2 7386   2.274   0.481   0.342
 2163SOL     OW 7387   0.047   5.469   6.675
 2163SOL    HW1 7388   0.127   5.423   6.637
 2163SOL    HW2 7389   7.012   5.508   6.600
 2164SOL     OW 7390   1.784   1.331   6.707
 2164SOL    HW1 7391   1.696   1.347   6.662
 2164SOL    HW2 7392   1.768   1.282   6.793
 2165SOL     OW 7393   1.556   1.526   3.117
 2165SOL    HW1 7394   1.631   1.550   3.180
 2165SOL    HW2 7395   1.492   1.465   3.164
 2166SOL     OW 7396   2.098   2.482   5.827
 2166SOL    HW1 7397   2.118   2.389   5.799
 2166SOL    HW2 7398   2.031   2.522   5.764
 2167SOL     OW 7399   2.760   0.185   2.478
 2167SOL    HW1 7400   2.787   0.281   2.481
 2167SOL    HW2 7401   2.735   0.155   2.570
 2168SOL     OW 7402   6.270   2.141   4.841
 2168SOL    HW1 7403   6.324   2.220   4.812
 2168SOL    HW2 7404   6.215   2.166   4.921
 2169SOL     OW 7405   5.451   1.807   6.418
 2169SOL    HW1 7406   5.524   1.871   6.394
 2169SOL    HW2 7407   5.491   1.717   6.437
 2170SOL     OW 7408   5.721   4.841   4.913
 2170SOL    HW1 7409   5.642   4.822   4.854
 2170SOL    HW2 7410   5.690   4.861   5.005
 2171SOL     OW 7411   6.497   2.871   0.274
 2171SOL    HW1 7412   6.473   2.904   0.182
 2171SOL    HW2 7413   6.596   2.862   0.281
 2172SOL     OW 7414   3.340   1.362   0.423
 2172SOL    HW1 7415   3.434   1.333   0.406
 2172SOL    HW2 7416   3.332   1.460   0.408
 2173SOL     OW 7417   3.698   6.997   5.634
 2173SOL    HW1 7418   3.632   6.959   5.570
 2173SOL    HW2 7419   3.654   0.047   5.691
 2174SOL     OW 7420   6.344   5.048   5.899
 2174SOL    HW1 7421   6.338   4.977   5.828
 2174SOL    HW2 7422   6.322   5.137   5.859
 2175SOL     OW 7423   3.194   1.847   2.813
 2175SOL    HW1 7424   3.097   1.846   2.789
 2175SOL    HW2 7425   3.220   1.937   2.846
 2176SOL     OW 7426   0.931   2.018   1.890
 2176SOL    HW1 7427   0.856   2.077   1.858
 2176SOL    HW2 7428   0.934   1.935   1.834
 2177SOL     OW 7429   6.631   0.343   2.127
 2177SOL    HW1 7430   6.691   0.366   2.204
 2177SOL    HW2 7431   6.594   0.428   2.088
 2178SOL     OW 7432   0.774   4.055   0.062
 2178SOL    HW1 7433   0.796   3.957   0.064
 2178SOL    HW2 7434   0.854   4.108   0.091
 2179SOL     OW 7435   2.078   5.775   4.489
 2179SOL    HW1 7436   1.998   5.782   4.430
 2179SOL    HW2 7437   2.160   5.793   4.436
 2180SOL     OW 7438   3.030   3.423   2.191
 2180SOL    HW1 7439   2.980   3.383   2.267
 2180SOL    HW2 7440   2.985   3.507   2.161
 2181SOL     OW 7441   4.361   4.202   5.717
 2181SOL    HW1 7442   4.304   4.138   5.768
 2181SOL    HW2 7443   4.434   4.152   5.671
 2182SOL     OW 7444   6.929   3.538   6.439
 2182SOL    HW1 7445   6.901   3.462   6.498
 2182SOL    HW2 7446   0.006   3.529   6.416
 2183SOL     OW 7447   3.231   2.910   0.803
 2183SOL    HW1 7448   3.240   2.879   0.708
 2183SOL    HW2 7449   3.311   2.880   0.856
 2184SOL     OW 7450   3.410   0.025   5.881
 2184SOL    HW1 7451   3.410   6.986   5.800
 2184SOL    HW2 7452   3.331   0.003   5.938
 2185SOL     OW 7453   2.065   1.592   1.596
 2185SOL    HW1 7454   2.078   1.688   1.571
 2185SOL    HW2 7455   2.049   1.538   1.513
 2186SOL     OW 7456   6.807   4.478   2.556
 2186SOL    HW1 7457   6.805   4.384   2.522
 2186SOL    HW2 7458   6.715   4.518   2.550
 2187SOL     OW 7459   0.378   1.051   1.841
 2187SOL    HW1 7460   0.358   1.132   1.896
 2187SOL    HW2 7461   0.382   1.076   1.744
 2188SOL     OW 7462   5.019   5.712   3.953
 2188SOL    HW1 7463   4.925   5.694   3.983
 2188SOL    HW2 7464   5.077   5.726   4.033
 2189SOL     OW 7465   1.704   0.283   6.650
 2189SOL    HW1 7466   1.719   0.380   6.631
 2189SOL    HW2 7467   1.607   0.263   6.647
 2190SOL     OW 7468   5.988   2.635   1.382
 2190SOL    HW1 7469   5.987   2.543   1.421
 2190SOL    HW2 7470   6.062   2.688   1.423
 2191SOL     OW 7471   3.559   1.951   5.986
 2191SOL    HW1 7472   3.581   2.027   6.048
 2191SOL    HW2 7473   3.576   1.864   6.032
 2192SOL     OW 7474   4.288   6.589   4.933
 2192SOL    HW1 7475   4.257   6.571   5.026
 2192SOL    HW2 7476   4.222   6.552   4.868
 2193SOL     OW 7477   6.818   5.172   6.364
 2193SOL    HW1 7478   6.819   5.207   6.458
 2193SOL    HW2 7479   6.725   5.149   6.338
 2194SOL     OW 7480   2.023   6.015   0.723
 2194SOL    HW1 7481   2.083   5.951   0.771
 2194SOL    HW2 7482   2.044   6.013   0.625
 2195SOL     OW 7483   6.814   6.464   1.851
 2195SOL    HW1 7484   6.779   6.523   1.924
 2195SOL    HW2 7485   6.755   6.469   1.771
 2196SOL     OW 7486   2.181   0.613   5.727
 2196SOL    HW1 7487   2.277   0.586   5.717
 2196SOL    HW2 7488   2.128   0.578   5.650
 2197SOL     OW 7489   4.901   4.382   1.511
 2197SOL    HW1 7490   4.905   4.316   1.586
 2197SOL    HW2 7491   4.907   4.333   1.424
 2198SOL     OW 7492   7.018   2.741   6.920
 2198SOL    HW1 7493   0.081   2.792   6.894
 2198SOL    HW2 7494   0.019   2.643   6.921
 2199SOL     OW 7495   5.235   6.845   1.060
 2199SOL    HW1 7496   5.298   6.827   1.135
 2199SOL    HW2 7497   5.262   6.791   0.981
 2200SOL     OW 7498   4.169   0.625   4.388
 2200SOL    HW1 7499   4.153   0.527   4.376
 2200SOL    HW2 7500   4.086   0.667   4.426
 2201SOL     OW 7501   5.701   3.989   2.341
 2201SOL    HW1 7502   5.782   3.977   2.399
 2201SOL    HW2 7503   5.660   3.900   2.323
 2202SOL     OW 7504   3.243   4.988   4.452
 2202SOL    HW1 7505   3.179   4.912   4.466
 2202SOL    HW2 7506   3.328   4.969   4.499
 2203SOL     OW 7507   3.089   2.146   2.611
 2203SOL    HW1 7508   3.187   2.155   2.629
 2203SOL    HW2 7509   3.073   2.075   2.543
 2204SOL     OW 7510   4.201   1.047   6.506
 2204SOL    HW1 7511   4.176   1.122   6.444
 2204SOL    HW2 7512   4.232   0.969   6.452
 2205SOL     OW 7513   1.411   0.808   6.820
 2205SOL    HW1 7514   1.379   0.732   6.878
 2205SOL    HW2 7515   1.506   0.828   6.842
 2206SOL     OW 7516   2.983   3.918   5.713
 2206SOL    HW1 7517   3.081   3.901   5.708
 2206SOL    HW2 7518   2.946   3.877   5.796
 2207SOL     OW 7519   1.234   4.325   6.176
 2207SOL    HW1 7520   1.203   4.417   6.155
 2207SOL    HW2 7521   1.223   4.307   6.274
 2208SOL     OW 7522   1.662   4.559   2.080
 2208SOL    HW1 7523   1.625   4.555   2.173
 2208SOL    HW2 7524   1.635   4.645   2.037
 2209SOL     OW 7525   1.380   5.953   5.855
 2209SOL    HW1 7526   1.413   5.877   5.799
 2209SOL    HW2 7527   1.424   6.038   5.825
 2210SOL     OW 7528   1.173   5.142   2.792
 2210SOL    HW1 7529   1.161   5.088   2.875
 2210SOL    HW2 7530   1.220   5.227   2.813
 2211SOL     OW 7531   5.552   1.721   5.406
 2211SOL    HW1 7532   5.473   1.722   5.345
 2211SOL    HW2 7533   5.635   1.742   5.354
 2212SOL     OW 7534   0.229   6.436   6.643
 2212SOL    HW1 7535   0.182   6.512   6.689
 2212SOL    HW2 7536   0.327   6.454   6.644
 2213SOL     OW 7537   4.680   2.783   4.378
 2213SOL    HW1 7538   4.761   2.760   4.324
 2213SOL    HW2 7539   4.609   2.714   4.362
 2214SOL     OW 7540   4.419   0.771   5.107
 2214SOL    HW1 7541   4.457   0.726   5.027
 2214SOL    HW2 7542   4.414   0.870   5.091
 2215SOL     OW 7543   6.997   1.005   5.729
 2215SOL    HW1 7544   6.939   0.938   5.682
 2215SOL    HW2 7545   0.035   1.052   5.662
 2216SOL     OW 7546   1.773   0.438   0.072
 2216SOL    HW1 7547   1.782   0.521   0.128
 2216SOL    HW2 7548   1.726   0.367   0.125
 2217SOL     OW 7549   3.896   7.001   1.025
 2217SOL    HW1 7550   3.916   0.021   0.936
 2217SOL    HW2 7551   3.946   6.915   1.036
 2218SOL     OW 7552   0.670   6.723   6.892
 2218SOL    HW1 7553   0.720   6.710   6.806
 2218SOL    HW2 7554   0.703   6.656   6.959
 2219SOL     OW 7555   1.765   3.775   3.024
 2219SOL    HW1 7556   1.691   3.732   3.077
 2219SOL    HW2 7557   1.768   3.735   2.933
 2220SOL     OW 7558   0.439   1.369   4.221
 2220SOL    HW1 7559   0.538   1.383   4.227
 2220SOL    HW2 7560   0.398   1.379   4.312
 2221SOL     OW 7561   6.533   2.049   0.737
 2221SOL    HW1 7562   6.498   1.965   0.695
 2221SOL    HW2 7563   6.456   2.104   0.769
 2222SOL     OW 7564   4.291   0.869   0.924
 2222SOL    HW1 7565   4.330   0.856   1.016
 2222SOL    HW2 7566   4.230   0.792   0.903
 2223SOL     OW 7567   5.751   5.044   3.813
 2223SOL    HW1 7568   5.809   5.125   3.819
 2223SOL    HW2 7569   5.807   4.962   3.807
 2224SOL     OW 7570   1.824   4.558   1.006
 2224SOL    HW1 7571   1.786   4.589   0.919
 2224SOL    HW2 7572   1.897   4.619   1.035
 2225SOL     OW 7573   5.990   4.910   2.661
 2225SOL    HW1 7574   5.924   4.941   2.593
 2225SOL    HW2 7575   6.083   4.929   2.628
 2226SOL     OW 7576   3.710   3.464   1.156
 2226SOL    HW1 7577   3.801   3.471   1.117
 2226SOL    HW2 7578   3.646   3.430   1.087
 2227SOL     OW 7579   5.898   4.078   6.266
 2227SOL    HW1 7580   5.806   4.040   6.265
 2227SOL    HW2 7581   5.898   4.164   6.318
 2228SOL     OW 7582   3.234   5.458   0.163
 2228SOL    HW1 7583   3.241   5.475   0.262
 2228SOL    HW2 7584   3.320   5.481   0.119
 2229SOL     OW 7585   4.345   1.633   3.727
 2229SOL    HW1 7586   4.282   1.597   3.796
 2229SOL    HW2 7587   4.390   1.715   3.762
 2230SOL     OW 7588   1.221   5.431   4.009
 2230SOL    HW1 7589   1.201   5.410   4.105
 2230SOL    HW2 7590   1.319   5.444   3.997
 2231SOL     OW 7591   1.660   1.906   2.265
 2231SOL    HW1 7592   1.733   1.880   2.202
 2231SOL    HW2 7593   1.585   1.840   2.259
 2232SOL     OW 7594   0.472   3.269   3.868
 2232SOL    HW1 7595   0.528   3.193   3.898
 2232SOL    HW2 7596   0.381   3.262   3.909
 2233SOL     OW 7597   4.072   5.169   6.699
 2233SOL    HW1 7598   4.058   5.263   6.668
 2233SOL    HW2 7599   4.028   5.106   6.635
 2234SOL     OW 7600   4.019   2.326   0.740
 2234SOL    HW1 7601   3.982   2.295   0.828
 2234SOL    HW2 7602   4.047   2.247   0.686
 2235SOL     OW 7603   1.105   0.517   6.787
 2235SOL    HW1 7604   1.190   0.550   6.827
 2235SOL    HW2 7605   1.120   0.495   6.690
 2236SOL     OW 7606   0.947   4.391   0.866
 2236SOL    HW1 7607   0.863   4.440   0.889
 2236SOL    HW2 7608   0.976   4.336   0.945
 2237SOL     OW 7609   6.671   3.579   4.350
 2237SOL    HW1 7610   6.664   3.501   4.289
 2237SOL    HW2 7611   6.606   3.569   4.425
 2238SOL     OW 7612   0.165   5.371   1.961
 2238SOL    HW1 7613   0.141   5.288   2.010
 2238SOL    HW2 7614   0.091   5.438   1.968
 2239SOL     OW 7615   4.101   4.826   4.084
 2239SOL    HW1 7616   4.110   4.920   4.117
 2239SOL    HW2 7617   4.172   4.770   4.125
 2240SOL     OW 7618   6.366   5.132   3.381
 2240SOL    HW1 7619   6.341   5.106   3.474
 2240SOL    HW2 7620   6.356   5.053   3.321
 2241SOL     OW 7621   6.812   6.492   2.438
 2241SOL    HW1 7622   6.781   6.403   2.472
 2241SOL    HW2 7623   6.885   6.526   2.497
 2242SOL     OW 7624   5.543   1.508   2.966
 2242SOL    HW1 7625   5.495   1.432   3.010
 2242SOL    HW2 7626   5.634   1.518   3.005
 2243SOL     OW 7627   2.435   6.509   5.168
 2243SOL    HW1 7628   2.519   6.454   5.165
 2243SOL    HW2 7629   2.455   6.597   5.211
 2244SOL     OW 7630   3.924   0.804   3.238
 2244SOL    HW1 7631   3.853   0.867   3.206
 2244SOL    HW2 7632   3.966   0.841   3.321
 2245SOL     OW 7633   0.282   2.137   2.041
 2245SOL    HW1 7634   0.286   2.236   2.052
 2245SOL    HW2 7635   0.365   2.105   1.995
 2246SOL     OW 7636   1.823   2.770   5.128
 2246SOL    HW1 7637   1.829   2.684   5.077
 2246SOL    HW2 7638   1.730   2.808   5.118
 2247SOL     OW 7639   2.662   2.095   5.698
 2247SOL    HW1 7640   2.721   2.146   5.635
 2247SOL    HW2 7641   2.574   2.077   5.653
 2248SOL     OW 7642   5.193   3.928   5.506
 2248SOL    HW1 7643   5.241   3.891   5.586
 2248SOL    HW2 7644   5.237   4.012   5.477
 2249SOL     OW 7645   5.897   6.368   3.096
 2249SOL    HW1 7646   5.854   6.335   3.012
 2249SOL    HW2 7647   5.955   6.296   3.135
 2250SOL     OW 7648   5.182   3.991   1.690
 2250SOL    HW1 7649   5.101   4.048   1.675
 2250SOL    HW2 7650   5.262   4.035   1.647
 2251SOL     OW 7651   5.961   1.272   0.413
 2251SOL    HW1 7652   6.014   1.255   0.495
 2251SOL    HW2 7653   5.932   1.368   0.411
 2252SOL     OW 7654   6.289   3.219   5.402
 2252SOL    HW1 7655   6.377   3.186   5.368
 2252SOL    HW2 7656   6.217   3.155   5.376
 2253SOL     OW 7657   1.616   2.960   6.400
 2253SOL    HW1 7658   1.693   2.897   6.411
 2253SOL    HW2 7659   1.534   2.920   6.442
 2254SOL     OW 7660   2.215   3.118   5.984
 2254SOL    HW1 7661   2.188   3.112   6.080
 2254SOL    HW2 7662   2.201   3.211   5.951
 2255SOL     OW 7663   5.988   2.394   1.484
 2255SOL    HW1 7664   5.955   2.377   1.577
 2255SOL    HW2 7665   6.075   2.348   1.471
 2256SOL     OW 7666   3.759   5.184   1.846
 2256SOL    HW1 7667   3.703   5.109   1.882
 2256SOL    HW2 7668   3.836   5.146   1.794
 2257SOL     OW 7669   1.392   3.172   4.683
 2257SOL    HW1 7670   1.487   3.139   4.687
 2257SOL    HW2 7671   1.379   3.244   4.751
 2258SOL     OW 7672   1.428   5.337   4.410
 2258SOL    HW1 7673   1.380   5.259   4.451
 2258SOL    HW2 7674   1.372   5.419   4.419
 2259SOL     OW 7675   5.194   4.073   6.420
 2259SOL    HW1 7676   5.158   4.158   6.383
 2259SOL    HW2 7677   5.135   3.997   6.393
 2260SOL     OW 7678   4.241   4.688   2.895
 2260SOL    HW1 7679   4.302   4.766   2.883
 2260SOL    HW2 7680   4.265   4.616   2.830
 2261SOL     OW 7681   5.482   6.225   0.951
 2261SOL    HW1 7682   5.413   6.259   1.015
 2261SOL    HW2 7683   5.572   6.258   0.979
 2262SOL     OW 7684   5.497   2.327   3.363
 2262SOL    HW1 7685   5.585   2.373   3.368
 2262SOL    HW2 7686   5.439   2.371   3.295
 2263SOL     OW 7687   2.290   6.265   5.923
 2263SOL    HW1 7688   2.245   6.354   5.924
 2263SOL    HW2 7689   2.389   6.278   5.929
 2264SOL     OW 7690   3.103   3.799   2.595
 2264SOL    HW1 7691   3.121   3.717   2.540
 2264SOL    HW2 7692   3.075   3.874   2.535
 2265SOL     OW 7693   0.244   1.120   3.491
 2265SOL    HW1 7694   0.158   1.079   3.458
 2265SOL    HW2 7695   0.281   1.180   3.421
 2266SOL     OW 7696   6.996   1.099   0.912
 2266SOL    HW1 7697   0.063   1.066   0.874
 2266SOL    HW2 7698   6.948   1.152   0.842
 2267SOL     OW 7699   5.472   2.886   5.083
 2267SOL    HW1 7700   5.480   2.981   5.112
 2267SOL    HW2 7701   5.543   2.867   5.014
 2268SOL     OW 7702   6.415   5.918   0.557
 2268SOL    HW1 7703   6.409   5.860   0.639
 2268SOL    HW2 7704   6.501   5.900   0.509
 2269SOL     OW 7705   5.862   5.409   5.239
 2269SOL    HW1 7706   5.780   5.394   5.183
 2269SOL    HW2 7707   5.885   5.506   5.238
 2270SOL     OW 7708   3.587   3.681   1.246
 2270SOL    HW1 7709   3.614   3.587   1.226
 2270SOL    HW2 7710   3.630   3.743   1.181
 2271SOL     OW 7711   6.129   4.371   1.438
 2271SOL    HW1 7712   6.201   4.313   1.399
 2271SOL    HW2 7713   6.153   4.467   1.425
 2272SOL     OW 7714   5.884   2.259   4.639
 2272SOL    HW1 7715   5.819   2.238   4.712
 2272SOL    HW2 7716   5.923   2.350   4.654
 2273SOL     OW 7717   1.508   1.795   3.341
 2273SOL    HW1 7718   1.605   1.769   3.347
 2273SOL    HW2 7719   1.501   1.883   3.294
 2274SOL     OW 7720   1.767   4.115   4.550
 2274SOL    HW1 7721   1.863   4.099   4.525
 2274SOL    HW2 7722   1.717   4.029   4.542
 2275SOL     OW 7723   4.926   6.631   4.491
 2275SOL    HW1 7724   4.862   6.635   4.568
 2275SOL    HW2 7725   4.875   6.611   4.407
 2276SOL     OW 7726   3.863   5.370   1.086
 2276SOL    HW1 7727   3.772   5.333   1.066
 2276SOL    HW2 7728   3.889   5.346   1.179
 2277SOL     OW 7729   3.323   3.331   4.776
 2277SOL    HW1 7730   3.415   3.293   4.763
 2277SOL    HW2 7731   3.299   3.329   4.873
 2278SOL     OW 7732   4.686   6.324   3.139
 2278SOL    HW1 7733   4.642   6.414   3.139
 2278SOL    HW2 7734   4.622   6.256   3.175
 2279SOL     OW 7735   5.461   4.406   4.114
 2279SOL    HW1 7736   5.551   4.403   4.159
 2279SOL    HW2 7737   5.390   4.383   4.180
 2280SOL     OW 7738   6.841   6.286   5.011
 2280SOL    HW1 7739   6.929   6.250   5.044
 2280SOL    HW2 7740   6.800   6.222   4.947
 2281SOL     OW 7741   3.567   1.678   1.603
 2281SOL    HW1 7742   3.653   1.679   1.551
 2281SOL    HW2 7743   3.567   1.753   1.669
 2282SOL     OW 7744   5.182   5.902   4.660
 2282SOL    HW1 7745   5.220   5.922   4.570
 2282SOL    HW2 7746   5.216   5.813   4.692
 2283SOL     OW 7747   6.736   3.307   2.621
 2283SOL    HW1 7748   6.796   3.303   2.541
 2283SOL    HW2 7749   6.791   3.324   2.703
 2284SOL     OW 7750   2.678   2.135   1.661
 2284SOL    HW1 7751   2.761   2.178   1.625
 2284SOL    HW2 7752   2.686   2.126   1.761
 2285SOL     OW 7753   1.232   3.478   0.784
 2285SOL    HW1 7754   1.133   3.478   0.771
 2285SOL    HW2 7755   1.255   3.422   0.863
 2286SOL     OW 7756   0.022   5.871   5.133
 2286SOL    HW1 7757   6.959   5.819   5.154
 2286SOL    HW2 7758   0.099   5.833   5.184
 2287SOL     OW 7759   2.089   2.940   1.244
 2287SOL    HW1 7760   2.150   3.013   1.276
 2287SOL    HW2 7761   2.122   2.852   1.278
 2288SOL     OW 7762   0.930   5.669   3.406
 2288SOL    HW1 7763   1.030   5.676   3.408
 2288SOL    HW2 7764   0.892   5.746   3.355
 2289SOL     OW 7765   5.147   2.029   1.754
 2289SOL    HW1 7766   5.214   2.042   1.827
 2289SOL    HW2 7767   5.154   2.105   1.688
 2290SOL     OW 7768   2.993   3.268   2.673
 2290SOL    HW1 7769   2.976   3.247   2.576
 2290SOL    HW2 7770   3.025   3.186   2.720
 2291SOL     OW 7771   2.063   2.040   1.809
 2291SOL    HW1 7772   2.128   2.106   1.847
 2291SOL    HW2 7773   2.036   2.070   1.718
 2292SOL     OW 7774   5.286   3.377   3.773
 2292SOL    HW1 7775   5.247   3.378   3.681
 2292SOL    HW2 7776   5.288   3.282   3.806
 2293SOL     OW 7777   5.561   1.173   0.631
 2293SOL    HW1 7778   5.467   1.174   0.599
 2293SOL    HW2 7779   5.619   1.128   0.563
 2294SOL     OW 7780   3.254   1.809   5.918
 2294SOL    HW1 7781   3.317   1.731   5.922
 2294SOL    HW2 7782   3.301   1.887   5.877
 2295SOL     OW 7783   6.774   1.053   1.434
 2295SOL    HW1 7784   6.855   1.093   1.392
 2295SOL    HW2 7785   6.783   1.058   1.534
 2296SOL     OW 7786   2.548   5.073   3.233
 2296SOL    HW1 7787   2.487   4.993   3.233
 2296SOL    HW2 7788   2.639   5.045   3.202
 2297SOL     OW 7789   4.960   4.673   5.547
 2297SOL    HW1 7790   4.863   4.695   5.559
 2297SOL    HW2 7791   4.969   4.596   5.484
 2298SOL     OW 7792   3.850   3.949   3.166
 2298SOL    HW1 7793   3.798   3.864   3.156
 2298SOL    HW2 7794   3.810   4.004   3.239
 2299SOL     OW 7795   4.900   3.795   4.792
 2299SOL    HW1 7796   4.874   3.792   4.695
 2299SOL    HW2 7797   4.858   3.719   4.840
 2300SOL     OW 7798   3.262   6.863   3.371
 2300SOL    HW1 7799   3.331   6.792   3.358
 2300SOL    HW2 7800   3.187   6.848   3.306
 2301SOL     OW 7801   3.615   2.939   4.184
 2301SOL    HW1 7802   3.608   2.879   4.263
 2301SOL    HW2 7803   3.711   2.958   4.164
 2302SOL     OW 7804   4.109   0.464   0.573
 2302SOL    HW1 7805   4.034   0.426   0.519
 2302SOL    HW2 7806   4.141   0.549   0.531
 2303SOL     OW 7807   2.271   2.713   1.217
 2303SOL    HW1 7808   2.351   2.753   1.261
 2303SOL    HW2 7809   2.288   2.706   1.118
 2304SOL     OW 7810   6.571   6.131   3.973
 2304SOL    HW1 7811   6.526   6.090   3.894
 2304SOL    HW2 7812   6.660   6.168   3.946
 2305SOL     OW 7813   1.818   0.855   3.306
 2305SOL    HW1 7814   1.899   0.891   3.352
 2305SOL    HW2 7815   1.737   0.905   3.337
 2306SOL     OW 7816   1.462   5.210   2.522
 2306SOL    HW1 7817   1.472   5.130   2.581
 2306SOL    HW2 7818   1.372   5.209   2.479
 2307SOL     OW 7819   1.431   2.714   5.556
 2307SOL    HW1 7820   1.375   2.665   5.489
 2307SOL    HW2 7821   1.372   2.772   5.612
 2308SOL     OW 7822   2.582   5.221   0.804
 2308SOL    HW1 7823   2.515   5.231   0.730
 2308SOL    HW2 7824   2.611   5.126   0.810
 2309SOL     OW 7825   1.783   0.527   4.135
 2309SOL    HW1 7826   1.725   0.547   4.213
 2309SOL    HW2 7827   1.871   0.572   4.146
 2310SOL     OW 7828   5.214   6.624   2.423
 2310SOL    HW1 7829   5.210   6.724   2.425
 2310SOL    HW2 7830   5.129   6.587   2.461
 2311SOL     OW 7831   2.047   6.274   0.245
 2311SOL    HW1 7832   1.987   6.266   0.325
 2311SOL    HW2 7833   2.041   6.190   0.191
 2312SOL     OW 7834   3.881   5.710   3.590
 2312SOL    HW1 7835   3.950   5.639   3.577
 2312SOL    HW2 7836   3.816   5.682   3.661
 2313SOL     OW 7837   5.105   5.119   2.481
 2313SOL    HW1 7838   5.024   5.107   2.424
 2313SOL    HW2 7839   5.089   5.077   2.570
 2314SOL     OW 7840   3.697   5.942   3.370
 2314SOL    HW1 7841   3.784   5.961   3.415
 2314SOL    HW2 7842   3.655   6.028   3.341
 2315SOL     OW 7843   4.945   3.298   6.607
 2315SOL    HW1 7844   4.980   3.381   6.564
 2315SOL    HW2 7845   4.877   3.323   6.676
 2316SOL     OW 7846   4.763   2.817   3.504
 2316SOL    HW1 7847   4.685   2.754   3.512
 2316SOL    HW2 7848   4.745   2.898   3.560
 2317SOL     OW 7849   1.341   4.986   2.654
 2317SOL    HW1 7850   1.280   5.052   2.698
 2317SOL    HW2 7851   1.376   4.922   2.722
 2318SOL     OW 7852   0.789   2.301   3.342
 2318SOL    HW1 7853   0.794   2.345   3.252
 2318SOL    HW2 7854   0.699   2.319   3.382
 2319SOL     OW 7855   2.171   4.062   4.797
 2319SOL    HW1 7856   2.215   4.017   4.875
 2319SOL    HW2 7857   2.103   4.127   4.830
 2320SOL     OW 7858   0.338   2.323   4.599
 2320SOL    HW1 7859   0.268   2.273   4.548
 2320SOL    HW2 7860   0.326   2.421   4.585
 2321SOL     OW 7861   3.386   0.382   5.073
 2321SOL    HW1 7862   3.391   0.289   5.038
 2321SOL    HW2 7863   3.450   0.441   5.023
 2322SOL     OW 7864   1.335   2.110   5.617
 2322SOL    HW1 7865   1.405   2.041   5.635
 2322SOL    HW2 7866   1.252   2.066   5.584
 2323SOL     OW 7867   3.885   5.964   3.555
 2323SOL    HW1 7868   3.973   5.988   3.513
 2323SOL    HW2 7869   3.884   5.866   3.575
 2324SOL     OW 7870   0.782   6.257   2.255
 2324SOL    HW1 7871   0.829   6.253   2.343
 2324SOL    HW2 7872   0.742   6.167   2.235
 2325SOL     OW 7873   0.672   3.994   1.613
 2325SOL    HW1 7874   0.732   3.955   1.682
 2325SOL    HW2 7875   0.726   4.047   1.547
 2326SOL     OW 7876   1.446   3.830   6.586
 2326SOL    HW1 7877   1.377   3.895   6.552
 2326SOL    HW2 7878   1.427   3.809   6.682
 2327SOL     OW 7879   4.849   3.148   4.295
 2327SOL    HW1 7880   4.911   3.216   4.255
 2327SOL    HW2 7881   4.837   3.072   4.231
 2328SOL     OW 7882   4.953   1.032   3.299
 2328SOL    HW1 7883   4.866   0.983   3.286
 2328SOL    HW2 7884   5.029   0.975   3.268
 2329SOL     OW 7885   1.146   5.386   4.279
 2329SOL    HW1 7886   1.078   5.447   4.319
 2329SOL    HW2 7887   1.124   5.291   4.301
 2330SOL     OW 7888   0.272   5.333   1.164
 2330SOL    HW1 7889   0.256   5.243   1.124
 2330SOL    HW2 7890   0.189   5.389   1.155
 2331SOL     OW 7891   6.921   4.172   5.234
 2331SOL    HW1 7892   6.829   4.205   5.259
 2331SOL    HW2 7893   6.930   4.172   5.135
 2332SOL     OW 7894   5.101   2.933   5.846
 2332SOL    HW1 7895   5.155   2.860   5.804
 2332SOL    HW2 7896   5.049   2.982   5.776
 2333SOL     OW 7897   0.912   4.747   2.792
 2333SOL    HW1 7898   0.829   4.784   2.750
 2333SOL    HW2 7899   0.980   4.819   2.800
 2334SOL     OW 7900   3.266   6.759   0.155
 2334SOL    HW1 7901   3.309   6.843   0.123
 2334SOL    HW2 7902   3.313   6.680   0.115
 2335SOL     OW 7903   6.262   0.769   3.430
 2335SOL    HW1 7904   6.164   0.755   3.441
 2335SOL    HW2 7905   6.278   0.833   3.354
 2336SOL     OW 7906   4.909   1.179   5.384
 2336SOL    HW1 7907   4.967   1.151   5.307
 2336SOL    HW2 7908   4.847   1.104   5.407
 2337SOL     OW 7909   5.547   0.606   3.453
 2337SOL    HW1 7910   5.492   0.613   3.369
 2337SOL    HW2 7911   5.616   0.678   3.453
 2338SOL     OW 7912   0.161   6.606   0.077
 2338SOL    HW1 7913   0.111   6.532   0.123
 2338SOL    HW2 7914   0.258   6.584   0.076
 2339SOL     OW 7915   3.319   3.418   5.934
 2339SOL    HW1 7916   3.360   3.461   6.014
 2339SOL    HW2 7917   3.261   3.342   5.964
 2340SOL     OW 7918   3.745   6.206   5.084
 2340SOL    HW1 7919   3.816   6.136   5.098
 2340SOL    HW2 7920   3.663   6.162   5.047
 2341SOL     OW 7921   5.432   4.766   0.667
 2341SOL    HW1 7922   5.512   4.719   0.630
 2341SOL    HW2 7923   5.395   4.827   0.597
 2342SOL     OW 7924   0.283   6.557   5.803
 2342SOL    HW1 7925   0.373   6.540   5.844
 2342SOL    HW2 7926   0.235   6.627   5.855
 2343SOL     OW 7927   0.888   6.505   0.828
 2343SOL    HW1 7928   0.833   6.424   0.849
 2343SOL    HW2 7929   0.934   6.536   0.911
 2344SOL     OW 7930   2.776   1.744   2.773
 2344SOL    HW1 7931   2.840   1.771   2.845
 2344SOL    HW2 7932   2.710   1.679   2.809
 2345SOL     OW 7933   1.281   0.527   4.769
 2345SOL    HW1 7934   1.257   0.612   4.721
 2345SOL    HW2 7935   1.326   0.465   4.705
 2346SOL     OW 7936   4.414   3.104   5.346
 2346SOL    HW1 7937   4.413   3.095   5.446
 2346SOL    HW2 7938   4.320   3.108   5.312
 2347SOL     OW 7939   1.561   3.876   2.131
 2347SOL    HW1 7940   1.521   3.785   2.143
 2347SOL    HW2 7941   1.610   3.902   2.214
 2348SOL     OW 7942   2.179   6.565   3.449
 2348SOL    HW1 7943   2.257   6.514   3.411
 2348SOL    HW2 7944   2.131   6.508   3.515
 2349SOL     OW 7945   6.920   6.523   5.721
 2349SOL    HW1 7946   6.956   6.468   5.796
 2349SOL    HW2 7947   6.984   6.596   5.697
 2350SOL     OW 7948   3.052   0.558   5.255
 2350SOL    HW1 7949   3.109   0.592   5.330
 2350SOL    HW2 7950   2.998   0.480   5.286
 2351SOL     OW 7951   2.618   5.245   3.671
 2351SOL    HW1 7952   2.620   5.298   3.587
 2351SOL    HW2 7953   2.709   5.243   3.711
 2352SOL     OW 7954   6.523   4.269   3.251
 2352SOL    HW1 7955   6.492   4.356   3.214
 2352SOL    HW2 7956   6.479   4.253   3.339
 2353SOL     OW 7957   2.638   4.011   5.566
 2353SOL    HW1 7958   2.616   3.956   5.485
 2353SOL    HW2 7959   2.704   4.082   5.541
 2354SOL     OW 7960   3.675   2.459   0.166
 2354SOL    HW1 7961   3.654   2.480   0.261
 2354SOL    HW2 7962   3.742   2.525   0.131
 2355SOL     OW 7963   0.394   6.976   0.941
 2355SOL    HW1 7964   0.346   6.929   1.015
 2355SOL    HW2 7965   0.409   6.913   0.865
 2356SOL     OW 7966   2.527   4.853   2.199
 2356SOL    HW1 7967   2.474   4.928   2.238
 2356SOL    HW2 7968   2.591   4.889   2.132
 2357SOL     OW 7969   5.162   4.982   3.510
 2357SOL    HW1 7970   5.198   4.899   3.552
 2357SOL    HW2 7971   5.210   5.000   3.424
 2358SOL     OW 7972   2.855   7.004   3.918
 2358SOL    HW1 7973   2.924   0.021   3.982
 2358SOL    HW2 7974   2.770   6.985   3.968
 2359SOL     OW 7975   2.762   1.617   6.161
 2359SOL    HW1 7976   2.704   1.696   6.180
 2359SOL    HW2 7977   2.858   1.643   6.173
 2360SOL     OW 7978   3.814   4.645   0.073
 2360SOL    HW1 7979   3.898   4.672   0.026
 2360SOL    HW2 7980   3.758   4.589   0.013
 2361SOL     OW 7981   2.807   0.044   3.229
 2361SOL    HW1 7982   2.791   0.025   3.326
 2361SOL    HW2 7983   2.900   0.079   3.217
 2362SOL     OW 7984   4.345   5.995   4.849
 2362SOL    HW1 7985   4.400   6.073   4.877
 2362SOL    HW2 7986   4.271   6.026   4.790
 2363SOL     OW 7987   4.213   2.058   5.869
 2363SOL    HW1 7988   4.251   2.118   5.939
 2363SOL    HW2 7989   4.199   2.110   5.784
 2364SOL     OW 7990   5.395   1.655   2.048
 2364SOL    HW1 7991   5.347   1.656   1.960
 2364SOL    HW2 7992   5.392   1.563   2.086
 2365SOL     OW 7993   5.508   4.007   4.325
 2365SOL    HW1 7994   5.451   4.082   4.293
 2365SOL    HW2 7995   5.566   3.975   4.250
 2366SOL     OW 7996   1.573   3.970   5.514
 2366SOL    HW1 7997   1.576   3.945   5.418
 2366SOL    HW2 7998   1.537   4.063   5.524
 2367SOL     OW 7999   1.234   3.210   5.733
 2367SOL    HW1 8000   1.247   3.263   5.650
 2367SOL    HW2 8001   1.317   3.213   5.789
 2368SOL     OW 8002   4.691   1.448   4.434
 2368SOL    HW1 8003   4.660   1.521   4.373
 2368SOL    HW2 8004   4.708   1.365   4.381
 2369SOL     OW 8005   3.804   1.806   3.368
 2369SOL    HW1 8006   3.876   1.811   3.298
 2369SOL    HW2 8007   3.733   1.742   3.338
 2370SOL     OW 8008   4.770   2.841   0.545
 2370SOL    HW1 8009   4.795   2.807   0.636
 2370SOL    HW2 8010   4.834   2.912   0.517
 2371SOL     OW 8011   0.655   0.137   2.498
 2371SOL    HW1 8012   0.670   0.204   2.570
 2371SOL    HW2 8013   0.711   0.056   2.515
 2372SOL     OW 8014   6.506   0.756   6.235
 2372SOL    HW1 8015   6.553   0.843   6.231
 2372SOL    HW2 8016   6.503   0.714   6.145
 2373SOL     OW 8017   5.954   1.052   6.426
 2373SOL    HW1 8018   5.906   1.134   6.395
 2373SOL    HW2 8019   5.999   1.009   6.348
 2374SOL     OW 8020   5.695   5.666   3.269
 2374SOL    HW1 8021   5.667   5.707   3.356
 2374SOL    HW2 8022   5.615   5.660   3.209
 2375SOL     OW 8023   0.682   0.513   3.780
 2375SOL    HW1 8024   0.744   0.488   3.855
 2375SOL    HW2 8025   0.627   0.433   3.755
 2376SOL     OW 8026   0.015   2.121   3.376
 2376SOL    HW1 8027   0.079   2.044   3.379
 2376SOL    HW2 8028   7.004   2.143   3.468
 2377SOL     OW 8029   3.232   4.229   6.185
 2377SOL    HW1 8030   3.171   4.236   6.264
 2377SOL    HW2 8031   3.251   4.132   6.166
 2378SOL     OW 8032   6.137   1.890   0.287
 2378SOL    HW1 8033   6.037   1.896   0.280
 2378SOL    HW2 8034   6.167   1.924   0.376
 2379SOL     OW 8035   6.593   4.679   0.170
 2379SOL    HW1 8036   6.547   4.713   0.088
 2379SOL    HW2 8037   6.524   4.652   0.238
 2380SOL     OW 8038   6.050   2.290   5.412
 2380SOL    HW1 8039   5.983   2.318   5.343
 2380SOL    HW2 8040   6.099   2.371   5.445
 2381SOL     OW 8041   2.178   4.740   4.967
 2381SOL    HW1 8042   2.236   4.681   4.911
 2381SOL    HW2 8043   2.230   4.774   5.046
 2382SOL     OW 8044   1.620   5.654   2.466
 2382SOL    HW1 8045   1.653   5.628   2.375
 2382SOL    HW2 8046   1.630   5.752   2.479
 2383SOL     OW 8047   5.117   5.693   5.770
 2383SOL    HW1 8048   5.038   5.634   5.759
 2383SOL    HW2 8049   5.141   5.734   5.682
 2384SOL     OW 8050   0.437   1.773   1.617
 2384SOL    HW1 8051   0.497   1.849   1.590
 2384SOL    HW2 8052   0.350   1.781   1.568
 2385SOL     OW 8053   1.179   2.096   0.184
 2385SOL    HW1 8054   1.083   2.099   0.211
 2385SOL    HW2 8055   1.225   2.022   0.232
 2386SOL     OW 8056   3.139   5.195   4.872
 2386SOL    HW1 8057   3.087   5.128   4.818
 2386SOL    HW2 8058   3.133   5.172   4.969
 2387SOL     OW 8059   6.849   2.966   3.880
 2387SOL    HW1 8060   6.820   2.958   3.785
 2387SOL    HW2 8061   6.887   3.057   3.896
 2388SOL     OW 8062   0.525   1.650   5.947
 2388SOL    HW1 8063   0.472   1.600   5.879
 2388SOL    HW2 8064   0.515   1.749   5.931
 2389SOL     OW 8065   5.170   4.584   4.588
 2389SOL    HW1 8066   5.250   4.525   4.599
 2389SOL    HW2 8067   5.195   4.678   4.612
 2390SOL     OW 8068   3.958   3.260   5.263
 2390SOL    HW1 8069   4.035   3.316   5.233
 2390SOL    HW2 8070   3.899   3.313   5.322
 2391SOL     OW 8071   3.137   3.381   6.285
 2391SOL    HW1 8072   3.095   3.299   6.245
 2391SOL    HW2 8073   3.180   3.357   6.372
 2392SOL     OW 8074   3.755   4.555   5.666
 2392SOL    HW1 8075   3.662   4.593   5.665
 2392SOL    HW2 8076   3.817   4.618   5.712
 2393SOL     OW 8077   3.849   5.883   1.726
 2393SOL    HW1 8078   3.929   5.942   1.735
 2393SOL    HW2 8079   3.861   5.823   1.646
 2394SOL     OW 8080   0.265   4.418   3.911
 2394SOL    HW1 8081   0.266   4.354   3.987
 2394SOL    HW2 8082   0.335   4.392   3.845
 2395SOL     OW 8083   0.361   3.044   0.155
 2395SOL    HW1 8084   0.388   3.045   0.252
 2395SOL    HW2 8085   0.261   3.049   0.149
 2396SOL     OW 8086   5.384   0.630   6.984
 2396SOL    HW1 8087   5.432   0.655   0.049
 2396SOL    HW2 8088   5.289   0.660   6.989
 2397SOL     OW 8089   0.278   4.607   5.907
 2397SOL    HW1 8090   0.372   4.638   5.910
 2397SOL    HW2 8091   0.221   4.666   5.964
 2398SOL     OW 8092   2.777   5.528   4.443
 2398SOL    HW1 8093   2.723   5.444   4.445
 2398SOL    HW2 8094   2.778   5.569   4.534
 2399SOL     OW 8095   3.903   2.048   4.074
 2399SOL    HW1 8096   3.845   2.049   3.992
 2399SOL    HW2 8097   3.960   2.130   4.076
 2400SOL     OW 8098   1.594   3.607   0.246
 2400SOL    HW1 8099   1.649   3.685   0.278
 2400SOL    HW2 8100   1.535   3.575   0.319
 2401SOL     OW 8101   3.492   7.002   3.909
 2401SOL    HW1 8102   3.523   0.053   3.846
 2401SOL    HW2 8103   3.563   6.985   3.977
 2402SOL     OW 8104   0.381   2.300   3.247
 2402SOL    HW1 8105   0.390   2.343   3.157
 2402SOL    HW2 8106   0.288   2.316   3.282
 2403SOL     OW 8107   3.943   3.463   1.036
 2403SOL    HW1 8108   3.973   3.373   1.004
 2403SOL    HW2 8109   4.015   3.503   1.094
 2404SOL     OW 8110   5.930   1.488   1.371
 2404SOL    HW1 8111   5.843   1.504   1.324
 2404SOL    HW2 8112   5.918   1.502   1.469
 2405SOL     OW 8113   3.188   4.934   5.787
 2405SOL    HW1 8114   3.220   4.960   5.695
 2405SOL    HW2 8115   3.109   4.873   5.779
 2406SOL     OW 8116   2.288   0.108   3.845
 2406SOL    HW1 8117   2.369   0.152   3.807
 2406SOL    HW2 8118   2.290   0.116   3.945
 2407SOL     OW 8119   4.288   2.310   2.947
 2407SOL    HW1 8120   4.342   2.388   2.915
 2407SOL    HW2 8121   4.349   2.239   2.981
 2408SOL     OW 8122   2.734   5.471   2.453
 2408SOL    HW1 8123   2.648   5.501   2.493
 2408SOL    HW2 8124   2.718   5.438   2.360
 2409SOL     OW 8125   2.612   3.122   0.927
 2409SOL    HW1 8126   2.668   3.064   0.868
 2409SOL    HW2 8127   2.654   3.213   0.933
 2410SOL     OW 8128   6.665   3.403   5.974
 2410SOL    HW1 8129   6.710   3.437   6.056
 2410SOL    HW2 8130   6.567   3.423   5.980
 2411SOL     OW 8131   2.394   3.834   5.995
 2411SOL    HW1 8132   2.330   3.778   5.941
 2411SOL    HW2 8133   2.485   3.793   5.992
 2412SOL     OW 8134   2.650   3.072   0.200
 2412SOL    HW1 8135   2.748   3.087   0.197
 2412SOL    HW2 8136   2.605   3.126   0.130
 2413SOL     OW 8137   6.219   3.645   6.882
 2413SOL    HW1 8138   6.181   3.662   6.973
 2413SOL    HW2 8139   6.278   3.565   6.886
 2414SOL     OW 8140   5.276   1.901   3.920
 2414SOL    HW1 8141   5.289   1.977   3.856
 2414SOL    HW2 8142   5.350   1.901   3.987
 2415SOL     OW 8143   2.349   0.096   0.853
 2415SOL    HW1 8144   2.428   0.090   0.792
 2415SOL    HW2 8145   2.265   0.087   0.800
 2416SOL     OW 8146   0.892   3.295   3.433
 2416SOL    HW1 8147   0.837   3.333   3.359
 2416SOL    HW2 8148   0.984   3.276   3.400
 2417SOL     OW 8149   4.341   2.079   6.272
 2417SOL    HW1 8150   4.419   2.056   6.214
 2417SOL    HW2 8151   4.274   2.131   6.218
 2418SOL     OW 8152   3.614   3.903   5.629
 2418SOL    HW1 8153   3.541   3.927   5.565
 2418SOL    HW2 8154   3.574   3.874   5.717
 2419SOL     OW 8155   2.339   6.965   4.426
 2419SOL    HW1 8156   2.377   0.022   4.479
 2419SOL    HW2 8157   2.240   6.975   4.419
 2420SOL     OW 8158   3.363   5.368   1.777
 2420SOL    HW1 8159   3.405   5.453   1.745
 2420SOL    HW2 8160   3.264   5.375   1.769
 2421SOL     OW 8161   4.403   6.555   3.732
 2421SOL    HW1 8162   4.330   6.597   3.786
 2421SOL    HW2 8163   4.468   6.625   3.702
 2422SOL     OW 8164   4.055   6.768   1.052
 2422SOL    HW1 8165   4.053   6.735   0.957
 2422SOL    HW2 8166   4.147   6.759   1.089
 2423SOL     OW 8167   1.685   5.344   1.140
 2423SOL    HW1 8168   1.695   5.356   1.238
 2423SOL    HW2 8169   1.774   5.356   1.095
 2424SOL     OW 8170   5.967   6.431   6.643
 2424SOL    HW1 8171   5.994   6.418   6.547
 2424SOL    HW2 8172   6.045   6.411   6.702
 2425SOL     OW 8173   4.730   6.240   5.488
 2425SOL    HW1 8174   4.730   6.191   5.575
 2425SOL    HW2 8175   4.720   6.175   5.413
 2426SOL     OW 8176   1.029   5.472   4.967
 2426SOL    HW1 8177   0.936   5.436   4.964
 2426SOL    HW2 8178   1.028   5.569   4.939
 2427SOL     OW 8179   5.107   5.895   6.515
 2427SOL    HW1 8180   5.149   5.897   6.424
 2427SOL    HW2 8181   5.016   5.854   6.509
 2428SOL     OW 8182   0.034   0.619   2.538
 2428SOL    HW1 8183   0.019   0.704   2.587
 2428SOL    HW2 8184   7.009   0.623   2.449
 2429SOL     OW 8185   5.672   4.345   2.484
 2429SOL    HW1 8186   5.756   4.292   2.497
 2429SOL    HW2 8187   5.630   4.362   2.573
 2430SOL     OW 8188   5.833   2.061   0.534
 2430SOL    HW1 8189   5.911   2.017   0.577
 2430SOL    HW2 8190   5.768   2.090   0.604
 2431SOL     OW 8191   5.598   1.541   1.367
 2431SOL    HW1 8192   5.567   1.548   1.272
 2431SOL    HW2 8193   5.583   1.629   1.413
 2432SOL     OW 8194   3.284   6.316   1.163
 2432SOL    HW1 8195   3.353   6.261   1.210
 2432SOL    HW2 8196   3.291   6.411   1.192
 2433SOL     OW 8197   1.055   6.453   0.098
 2433SOL    HW1 8198   0.991   6.438   0.174
 2433SOL    HW2 8199   1.136   6.501   0.132
 2434SOL     OW 8200   4.813   1.692   2.196
 2434SOL    HW1 8201   4.729   1.738   2.169
 2434SOL    HW2 8202   4.891   1.733   2.147
 2435SOL     OW 8203   5.853   5.990   0.533
 2435SOL    HW1 8204   5.756   6.012   0.540
 2435SOL    HW2 8205   5.873   5.910   0.590
 2436SOL     OW 8206   1.626   1.111   1.288
 2436SOL    HW1 8207   1.663   1.030   1.332
 2436SOL    HW2 8208   1.695   1.152   1.229
 2437SOL     OW 8209   5.410   6.069   1.768
 2437SOL    HW1 8210   5.326   6.119   1.792
 2437SOL    HW2 8211   5.489   6.115   1.808
 2438SOL     OW 8212   4.382   1.578   4.641
 2438SOL    HW1 8213   4.287   1.606   4.632
 2438SOL    HW2 8214   4.396   1.536   4.731
 2439SOL     OW 8215   0.592   4.893   6.701
 2439SOL    HW1 8216   0.645   4.810   6.722
 2439SOL    HW2 8217   0.504   4.867   6.663
 2440SOL     OW 8218   4.557   6.715   5.473
 2440SOL    HW1 8219   4.603   6.710   5.561
 2440SOL    HW2 8220   4.466   6.675   5.481
 2441SOL     OW 8221   6.008   1.243   0.118
 2441SOL    HW1 8222   6.038   1.337   0.104
 2441SOL    HW2 8223   6.047   1.208   0.202
 2442SOL     OW 8224   5.933   4.603   3.035
 2442SOL    HW1 8225   5.990   4.669   2.986
 2442SOL    HW2 8226   5.973   4.512   3.025
 2443SOL     OW 8227   2.809   0.870   6.465
 2443SOL    HW1 8228   2.855   0.949   6.425
 2443SOL    HW2 8229   2.752   0.900   6.542
 2444SOL     OW 8230   4.034   4.742   6.948
 2444SOL    HW1 8231   4.024   4.840   6.930
 2444SOL    HW2 8232   4.122   4.725   6.992
 2445SOL     OW 8233   5.998   1.440   1.992
 2445SOL    HW1 8234   5.999   1.520   1.931
 2445SOL    HW2 8235   6.026   1.469   2.084
 2446SOL     OW 8236   1.027   2.844   3.194
 2446SOL    HW1 8237   1.061   2.933   3.162
 2446SOL    HW2 8238   0.946   2.820   3.141
 2447SOL     OW 8239   2.340   0.551   0.902
 2447SOL    HW1 8240   2.338   0.461   0.946
 2447SOL    HW2 8241   2.288   0.548   0.816
 2448SOL     OW 8242   6.032   2.009   4.215
 2448SOL    HW1 8243   6.123   1.977   4.188
 2448SOL    HW2 8244   5.971   1.930   4.223
 2449SOL     OW 8245   1.571   3.269   1.516
 2449SOL    HW1 8246   1.660   3.300   1.483
 2449SOL    HW2 8247   1.507   3.347   1.517
 2450SOL     OW 8248   2.597   5.309   6.588
 2450SOL    HW1 8249   2.568   5.251   6.664
 2450SOL    HW2 8250   2.534   5.297   6.511
 2451SOL     OW 8251   1.025   0.325   3.299
 2451SOL    HW1 8252   1.043   0.242   3.351
 2451SOL    HW2 8253   1.013   0.402   3.361
 2452SOL     OW 8254   2.972   2.085   3.783
 2452SOL    HW1 8255   2.960   2.000   3.834
 2452SOL    HW2 8256   3.069   2.112   3.785
 2453SOL     OW 8257   0.072   3.484   0.996
 2453SOL    HW1 8258   0.171   3.493   0.994
 2453SOL    HW2 8259   0.048   3.387   1.005
 2454SOL     OW 8260   2.600   6.285   7.006
 2454SOL    HW1 8261   2.644   6.351   0.048
 2454SOL    HW2 8262   2.669   6.243   6.948
 2455SOL     OW 8263   4.488   1.263   0.716
 2455SOL    HW1 8264   4.461   1.270   0.619
 2455SOL    HW2 8265   4.483   1.167   0.745
 2456SOL     OW 8266   0.430   2.627   6.876
 2456SOL    HW1 8267   0.461   2.598   6.786
 2456SOL    HW2 8268   0.507   2.627   6.940
 2457SOL     OW 8269   6.378   1.641   5.643
 2457SOL    HW1 8270   6.376   1.578   5.720
 2457SOL    HW2 8271   6.471   1.677   5.632
 2458SOL     OW 8272   1.184   6.623   3.717
 2458SOL    HW1 8273   1.227   6.642   3.629
 2458SOL    HW2 8274   1.206   6.529   3.745
 2459SOL     OW 8275   3.143   6.027   5.816
 2459SOL    HW1 8276   3.135   5.938   5.861
 2459SOL    HW2 8277   3.117   6.018   5.719
 2460SOL     OW 8278   1.378   1.220   0.429
 2460SOL    HW1 8279   1.388   1.214   0.329
 2460SOL    HW2 8280   1.357   1.314   0.455
 2461SOL     OW 8281   4.875   0.830   4.359
 2461SOL    HW1 8282   4.808   0.768   4.399
 2461SOL    HW2 8283   4.829   0.892   4.295
 2462SOL     OW 8284   2.680   5.067   6.961
 2462SOL    HW1 8285   2.754   5.135   6.959
 2462SOL    HW2 8286   2.710   4.987   7.014
 2463SOL     OW 8287   6.163   1.772   0.014
 2463SOL    HW1 8288   6.176   1.798   0.110
 2463SOL    HW2 8289   6.249   1.785   6.984
 2464SOL     OW 8290   1.732   3.330   3.096
 2464SOL    HW1 8291   1.653   3.320   3.157
 2464SOL    HW2 8292   1.793   3.252   3.108
 2465SOL     OW 8293   0.234   6.697   6.404
 2465SOL    HW1 8294   0.311   6.640   6.435
 2465SOL    HW2 8295   0.242   6.787   6.445
 2466SOL     OW 8296   1.874   1.524   2.844
 2466SOL    HW1 8297   1.863   1.432   2.806
 2466SOL    HW2 8298   1.838   1.591   2.779
 2467SOL     OW 8299   4.909   2.139   5.351
 2467SOL    HW1 8300   4.998   2.103   5.324
 2467SOL    HW2 8301   4.880   2.095   5.436
 2468SOL     OW 8302   4.301   6.756   1.114
 2468SOL    HW1 8303   4.310   6.853   1.089
 2468SOL    HW2 8304   4.383   6.707   1.087
 2469SOL     OW 8305   3.859   3.363   4.787
 2469SOL    HW1 8306   3.853   3.459   4.814
 2469SOL    HW2 8307   3.820   3.305   4.859
 2470SOL     OW 8308   4.074   4.791   5.489
 2470SOL    HW1 8309   4.116   4.750   5.409
 2470SOL    HW2 8310   4.142   4.800   5.562
 2471SOL     OW 8311   2.953   6.044   0.361
 2471SOL    HW1 8312   2.940   6.088   0.273
 2471SOL    HW2 8313   3.030   5.980   0.356
 2472SOL     OW 8314   4.664   2.314   3.162
 2472SOL    HW1 8315   4.762   2.310   3.139
 2472SOL    HW2 8316   4.641   2.239   3.223
 2473SOL     OW 8317   1.618   3.891   4.537
 2473SOL    HW1 8318   1.543   3.919   4.597
 2473SOL    HW2 8319   1.610   3.794   4.516
 2474SOL     OW 8320   0.691   6.276   0.827
 2474SOL    HW1 8321   0.642   6.247   0.744
 2474SOL    HW2 8322   0.752   6.203   0.857
 2475SOL     OW 8323   4.409   0.961   2.455
 2475SOL    HW1 8324   4.417   0.867   2.490
 2475SOL    HW2 8325   4.451   1.024   2.520
 2476SOL     OW 8326   5.513   0.653   2.184
 2476SOL    HW1 8327   5.431   0.691   2.140
 2476SOL    HW2 8328   5.485   0.586   2.253
 2477SOL     OW 8329   4.235   0.878   2.774
 2477SOL    HW1 8330   4.274   0.938   2.844
 2477SOL    HW2 8331   4.138   0.900   2.762
 2478SOL     OW 8332   6.507   1.889   1.459
 2478SOL    HW1 8333   6.517   1.856   1.365
 2478SOL    HW2 8334   6.509   1.989   1.459
 2479SOL     OW 8335   1.211   2.857   2.403
 2479SOL    HW1 8336   1.189   2.844   2.306
 2479SOL    HW2 8337   1.138   2.817   2.458
 2480SOL     OW 8338   4.625   3.868   0.853
 2480SOL    HW1 8339   4.537   3.877   0.900
 2480SOL    HW2 8340   4.658   3.774   0.863
 2481SOL     OW 8341   4.022   6.296   0.780
 2481SOL    HW1 8342   4.071   6.332   0.701
 2481SOL    HW2 8343   3.924   6.311   0.769
 2482SOL     OW 8344   5.290   3.604   5.807
 2482SOL    HW1 8345   5.349   3.662   5.750
 2482SOL    HW2 8346   5.346   3.554   5.873
 2483SOL     OW 8347   1.739   1.677   0.712
 2483SOL    HW1 8348   1.696   1.655   0.624
 2483SOL    HW2 8349   1.836   1.656   0.707
 2484SOL     OW 8350   3.775   0.261   6.837
 2484SOL    HW1 8351   3.812   0.299   6.752
 2484SOL    HW2 8352   3.712   0.186   6.815
 2485SOL     OW 8353   5.675   3.286   1.322
 2485SOL    HW1 8354   5.718   3.204   1.285
 2485SOL    HW2 8355   5.739   3.334   1.382
 2486SOL     OW 8356   1.600   5.023   5.133
 2486SOL    HW1 8357   1.552   4.985   5.054
 2486SOL    HW2 8358   1.699   5.021   5.115
 2487SOL     OW 8359   4.209   6.663   0.406
 2487SOL    HW1 8360   4.295   6.714   0.403
 2487SOL    HW2 8361   4.221   6.574   0.362
 2488SOL     OW 8362   1.473   4.232   1.770
 2488SOL    HW1 8363   1.530   4.236   1.853
 2488SOL    HW2 8364   1.474   4.321   1.724
 2489SOL     OW 8365   0.945   6.426   4.343
 2489SOL    HW1 8366   0.971   6.360   4.273
 2489SOL    HW2 8367   0.856   6.466   4.320
 2490SOL     OW 8368   6.959   5.220   1.230
 2490SOL    HW1 8369   7.016   5.178   1.159
 2490SOL    HW2 8370   6.896   5.151   1.266
 2491SOL     OW 8371   3.044   4.848   0.057
 2491SOL    HW1 8372   3.028   4.923   7.013
 2491SOL    HW2 8373   3.045   4.761   0.007
 2492SOL     OW 8374   4.745   3.611   0.917
 2492SOL    HW1 8375   4.736   3.621   1.016
 2492SOL    HW2 8376   4.781   3.520   0.895
 2493SOL     OW 8377   5.602   0.295   2.117
 2493SOL    HW1 8378   5.602   0.216   2.179
 2493SOL    HW2 8379   5.682   0.351   2.136
 2494SOL     OW 8380   5.681   4.655   2.889
 2494SOL    HW1 8381   5.673   4.652   2.790
 2494SOL    HW2 8382   5.758   4.599   2.919
 2495SOL     OW 8383   5.121   6.478   3.881
 2495SOL    HW1 8384   5.063   6.442   3.808
 2495SOL    HW2 8385   5.216   6.482   3.849
 2496SOL     OW 8386   0.174   2.253   6.364
 2496SOL    HW1 8387   0.270   2.280   6.364
 2496SOL    HW2 8388   0.118   2.327   6.403
 2497SOL     OW 8389   0.170   0.187   0.943
 2497SOL    HW1 8390   0.250   0.247   0.940
 2497SOL    HW2 8391   0.112   0.211   1.021
 2498SOL     OW 8392   2.939   2.161   4.812
 2498SOL    HW1 8393   3.029   2.194   4.783
 2498SOL    HW2 8394   2.924   2.183   4.908
 2499SOL     OW 8395   5.778   2.751   2.374
 2499SOL    HW1 8396   5.858   2.747   2.313
 2499SOL    HW2 8397   5.783   2.676   2.440
 2500SOL     OW 8398   4.134   4.339   6.501
 2500SOL    HW1 8399   4.203   4.271   6.526
 2500SOL    HW2 8400   4.046   4.313   6.540
 2501SOL     OW 8401   5.209   5.729   0.411
 2501SOL    HW1 8402   5.156   5.749   0.493
 2501SOL    HW2 8403   5.157   5.756   0.330
 2502SOL     OW 8404   1.129   0.468   3.625
 2502SOL    HW1 8405   1.115   0.557   3.581
 2502SOL    HW2 8406   1.087   0.469   3.716
 2503SOL     OW 8407   2.121   6.359   4.592
 2503SOL    HW1 8408   2.031   6.336   4.553
 2503SOL    HW2 8409   2.115   6.358   4.691
 2504SOL     OW 8410   3.683   5.506   4.740
 2504SOL    HW1 8411   3.675   5.601   4.711
 2504SOL    HW2 8412   3.594   5.475   4.774
 2505SOL     OW 8413   0.544   0.142   3.022
 2505SOL    HW1 8414   0.628   0.090   3.039
 2505SOL    HW2 8415   0.563   0.240   3.033
 2506SOL     OW 8416   6.075   3.769   5.807
 2506SOL    HW1 8417   6.005   3.747   5.740
 2506SOL    HW2 8418   6.054   3.858   5.849
 2507SOL     OW 8419   6.844   3.442   0.718
 2507SOL    HW1 8420   6.812   3.478   0.805
 2507SOL    HW2 8421   6.879   3.516   0.661
 2508SOL     OW 8422   2.960   1.523   3.623
 2508SOL    HW1 8423   3.009   1.601   3.662
 2508SOL    HW2 8424   2.970   1.524   3.523
 2509SOL     OW 8425   6.819   3.915   0.794
 2509SOL    HW1 8426   6.783   3.825   0.819
 2509SOL    HW2 8427   6.910   3.905   0.754
 2510SOL     OW 8428   3.150   5.399   1.205
 2510SOL    HW1 8429   3.172   5.476   1.146
 2510SOL    HW2 8430   3.123   5.433   1.295
 2511SOL     OW 8431   3.735   1.876   4.425
 2511SOL    HW1 8432   3.663   1.942   4.404
 2511SOL    HW2 8433   3.785   1.853   4.342
 2512SOL     OW 8434   4.798   3.409   5.459
 2512SOL    HW1 8435   4.743   3.390   5.377
 2512SOL    HW2 8436   4.746   3.467   5.522
 2513SOL     OW 8437   1.922   4.145   5.067
 2513SOL    HW1 8438   1.996   4.133   5.134
 2513SOL    HW2 8439   1.961   4.179   4.981
 2514SOL     OW 8440   0.038   3.369   4.968
 2514SOL    HW1 8441   0.076   3.324   4.887
 2514SOL    HW2 8442   0.046   3.468   4.958
 2515SOL     OW 8443   1.121   0.527   1.135
 2515SOL    HW1 8444   1.141   0.624   1.146
 2515SOL    HW2 8445   1.140   0.479   1.221
 2516SOL     OW 8446   6.012   1.849   2.602
 2516SOL    HW1 8447   5.964   1.909   2.665
 2516SOL    HW2 8448   6.055   1.903   2.530
 2517SOL     OW 8449   1.090   6.660   5.855
 2517SOL    HW1 8450   1.167   6.601   5.832
 2517SOL    HW2 8451   1.091   6.741   5.796
 2518SOL     OW 8452   1.404   4.649   6.958
 2518SOL    HW1 8453   1.331   4.602   7.007
 2518SOL    HW2 8454   1.426   4.734   7.006
 2519SOL     OW 8455   3.924   6.461   2.184
 2519SOL    HW1 8456   3.984   6.387   2.154
 2519SOL    HW2 8457   3.957   6.498   2.271
 2520SOL     OW 8458   2.819   1.574   0.326
 2520SOL    HW1 8459   2.764   1.497   0.357
 2520SOL    HW2 8460   2.760   1.653   0.308
 2521SOL     OW 8461   2.214   0.900   5.623
 2521SOL    HW1 8462   2.283   0.973   5.631
 2521SOL    HW2 8463   2.124   0.936   5.648
 2522SOL     OW 8464   0.765   2.842   5.033
 2522SOL    HW1 8465   0.742   2.937   5.013
 2522SOL    HW2 8466   0.773   2.829   5.132
 2523SOL     OW 8467   0.273   3.356   1.266
 2523SOL    HW1 8468   0.267   3.274   1.323
 2523SOL    HW2 8469   0.296   3.435   1.323
 2524SOL     OW 8470   0.582   6.362   5.049
 2524SOL    HW1 8471   0.559   6.293   4.981
 2524SOL    HW2 8472   0.627   6.319   5.127
 2525SOL     OW 8473   1.062   2.437   5.595
 2525SOL    HW1 8474   1.147   2.400   5.633
 2525SOL    HW2 8475   0.990   2.432   5.665
 2526SOL     OW 8476   1.470   4.485   6.424
 2526SOL    HW1 8477   1.461   4.498   6.523
 2526SOL    HW2 8478   1.419   4.556   6.376
 2527SOL     OW 8479   5.424   5.688   4.954
 2527SOL    HW1 8480   5.504   5.721   4.904
 2527SOL    HW2 8481   5.364   5.765   4.976
 2528SOL     OW 8482   5.727   4.890   0.498
 2528SOL    HW1 8483   5.688   4.955   0.433
 2528SOL    HW2 8484   5.698   4.913   0.590
 2529SOL     OW 8485   6.935   5.952   6.351
 2529SOL    HW1 8486   6.837   5.967   6.368
 2529SOL    HW2 8487   6.974   5.899   6.426
 2530SOL     OW 8488   2.673   6.218   5.324
 2530SOL    HW1 8489   2.662   6.207   5.226
 2530SOL    HW2 8490   2.769   6.207   5.349
 2531SOL     OW 8491   5.646   5.920   4.528
 2531SOL    HW1 8492   5.616   6.006   4.570
 2531SOL    HW2 8493   5.651   5.932   4.429
 2532SOL     OW 8494   0.569   6.178   0.566
 2532SOL    HW1 8495   0.583   6.100   0.627
 2532SOL    HW2 8496   0.472   6.196   0.555
 2533SOL     OW 8497   3.109   6.897   4.344
 2533SOL    HW1 8498   3.037   6.851   4.396
 2533SOL    HW2 8499   3.098   6.877   4.247
 2534SOL     OW 8500   3.729   0.562   2.951
 2534SOL    HW1 8501   3.647   0.616   2.929
 2534SOL    HW2 8502   3.809   0.607   2.913
 2535SOL     OW 8503   3.338   2.329   5.416
 2535SOL    HW1 8504   3.424   2.379   5.407
 2535SOL    HW2 8505   3.286   2.337   5.331
 2536SOL     OW 8506   1.443   1.627   4.490
 2536SOL    HW1 8507   1.486   1.703   4.539
 2536SOL    HW2 8508   1.344   1.629   4.505
 2537SOL     OW 8509   3.604   0.157   6.312
 2537SOL    HW1 8510   3.640   0.238   6.357
 2537SOL    HW2 8511   3.601   0.172   6.213
 2538SOL     OW 8512   0.936   4.408   3.024
 2538SOL    HW1 8513   0.924   4.358   3.110
 2538SOL    HW2 8514   0.847   4.433   2.987
 2539SOL     OW 8515   6.210   1.127   4.769
 2539SOL    HW1 8516   6.300   1.094   4.741
 2539SOL    HW2 8517   6.139   1.076   4.719
 2540SOL     OW 8518   3.938   1.765   3.073
 2540SOL    HW1 8519   4.002   1.735   3.002
 2540SOL    HW2 8520   3.859   1.704   3.076
 2541SOL     OW 8521   2.633   0.161   5.190
 2541SOL    HW1 8522   2.591   0.168   5.280
 2541SOL    HW2 8523   2.621   0.247   5.141
 2542SOL     OW 8524   3.552   1.097   5.686
 2542SOL    HW1 8525   3.455   1.105   5.663
 2542SOL    HW2 8526   3.607   1.130   5.609
 2543SOL     OW 8527   1.702   1.075   3.438
 2543SOL    HW1 8528   1.727   1.156   3.489
 2543SOL    HW2 8529   1.678   1.101   3.344
 2544SOL     OW 8530   0.424   6.664   1.711
 2544SOL    HW1 8531   0.468   6.613   1.785
 2544SOL    HW2 8532   0.436   6.762   1.728
 2545SOL     OW 8533   1.273   0.102   2.031
 2545SOL    HW1 8534   1.234   0.107   2.123
 2545SOL    HW2 8535   1.296   0.007   2.009
 2546SOL     OW 8536   7.019   1.100   1.621
 2546SOL    HW1 8537   0.041   1.177   1.669
 2546SOL    HW2 8538   0.060   1.071   1.547
 2547SOL     OW 8539   6.061   5.791   0.724
 2547SOL    HW1 8540   6.140   5.730   0.716
 2547SOL    HW2 8541   5.977   5.740   0.703
 2548SOL     OW 8542   1.390   6.726   6.073
 2548SOL    HW1 8543   1.363   6.816   6.040
 2548SOL    HW2 8544   1.393   6.727   6.173
 2549SOL     OW 8545   2.198   0.503   0.682
 2549SOL    HW1 8546   2.126   0.435   0.696
 2549SOL    HW2 8547   2.230   0.498   0.588
 2550SOL     OW 8548   6.879   0.461   6.843
 2550SOL    HW1 8549   6.976   0.487   6.839
 2550SOL    HW2 8550   6.845   0.473   6.936
 2551SOL     OW 8551   2.968   5.486   0.154
 2551SOL    HW1 8552   3.067   5.478   0.144
 2551SOL    HW2 8553   2.940   5.580   0.133
 2552SOL     OW 8554   1.880   5.132   5.384
 2552SOL    HW1 8555   1.831   5.197   5.325
 2552SOL    HW2 8556   1.817   5.098   5.454
 2553SOL     OW 8557   5.237   3.230   5.685
 2553SOL    HW1 8558   5.266   3.272   5.771
 2553SOL    HW2 8559   5.146   3.191   5.696
 2554SOL     OW 8560   1.527   0.181   0.343
 2554SOL    HW1 8561   1.587   0.155   0.419
 2554SOL    HW2 8562   1.444   0.126   0.346
 2555SOL     OW 8563   5.772   6.829   5.562
 2555SOL    HW1 8564   5.825   6.857   5.481
 2555SOL    HW2 8565   5.798   6.736   5.587
 2556SOL     OW 8566   4.617   5.916   0.593
 2556SOL    HW1 8567   4.583   5.864   0.515
 2556SOL    HW2 8568   4.539   5.943   0.650
 2557SOL     OW 8569   2.677   3.939   0.181
 2557SOL    HW1 8570   2.616   3.983   0.246
 2557SOL    HW2 8571   2.637   3.944   0.089
 2558SOL     OW 8572   4.874   1.842   4.185
 2558SOL    HW1 8573   4.832   1.917   4.134
 2558SOL    HW2 8574   4.968   1.865   4.208
 2559SOL     OW 8575   6.967   3.507   4.030
 2559SOL    HW1 8576   0.014   3.566   4.077
 2559SOL    HW2 8577   6.908   3.563   3.973
 2560SOL     OW 8578   5.803   3.548   4.141
 2560SOL    HW1 8579   5.825   3.613   4.214
 2560SOL    HW2 8580   5.803   3.455   4.178
 2561SOL     OW 8581   3.329   6.249   5.441
 2561SOL    HW1 8582   3.394   6.323   5.427
 2561SOL    HW2 8583   3.259   6.277   5.506
 2562SOL     OW 8584   2.257   5.533   2.206
 2562SOL    HW1 8585   2.257   5.557   2.303
 2562SOL    HW2 8586   2.303   5.604   2.153
 2563SOL     OW 8587   3.972   2.516   0.271
 2563SOL    HW1 8588   4.070   2.502   0.256
 2563SOL    HW2 8589   3.933   2.563   0.192
 2564SOL     OW 8590   2.172   6.526   5.929
 2564SOL    HW1 8591   2.145   6.572   6.014
 2564SOL    HW2 8592   2.095   6.526   5.865
 2565SOL     OW 8593   0.673   0.396   6.838
 2565SOL    HW1 8594   0.629   0.340   6.767
 2565SOL    HW2 8595   0.761   0.355   6.862
 2566SOL     OW 8596   2.721   6.689   0.983
 2566SOL    HW1 8597   2.748   6.739   1.065
 2566SOL    HW2 8598   2.778   6.718   0.906
 2567SOL     OW 8599   0.998   1.194   1.091
 2567SOL    HW1 8600   1.058   1.204   1.011
 2567SOL    HW2 8601   0.957   1.283   1.112
 2568SOL     OW 8602   4.185   6.888   6.813
 2568SOL    HW1 8603   4.278   6.873   6.846
 2568SOL    HW2 8604   4.140   6.800   6.798
 2569SOL     OW 8605   3.331   1.444   1.744
 2569SOL    HW1 8606   3.271   1.474   1.818
 2569SOL    HW2 8607   3.427   1.457   1.771
 2570SOL     OW 8608   5.564   0.004   6.379
 2570SOL    HW1 8609   5.498   6.961   6.336
 2570SOL    HW2 8610   5.596   0.070   6.311
 2571SOL     OW 8611   2.864   4.535   5.882
 2571SOL    HW1 8612   2.931   4.569   5.948
 2571SOL    HW2 8613   2.785   4.596   5.881
 2572SOL     OW 8614   2.530   4.714   0.673
 2572SOL    HW1 8615   2.610   4.674   0.629
 2572SOL    HW2 8616   2.555   4.747   0.764
 2573SOL     OW 8617   6.708   2.670   1.865
 2573SOL    HW1 8618   6.797   2.709   1.844
 2573SOL    HW2 8619   6.715   2.570   1.870
 2574SOL     OW 8620   6.068   4.208   0.477
 2574SOL    HW1 8621   6.011   4.279   0.519
 2574SOL    HW2 8622   6.141   4.183   0.540
 2575SOL     OW 8623   5.159   5.530   1.019
 2575SOL    HW1 8624   5.112   5.616   1.001
 2575SOL    HW2 8625   5.104   5.454   0.985
 2576SOL     OW 8626   4.246   6.353   4.410
 2576SOL    HW1 8627   4.329   6.316   4.369
 2576SOL    HW2 8628   4.183   6.381   4.338
 2577SOL     OW 8629   4.316   6.427   1.918
 2577SOL    HW1 8630   4.282   6.339   1.883
 2577SOL    HW2 8631   4.239   6.485   1.944
 2578SOL     OW 8632   4.733   1.835   5.378
 2578SOL    HW1 8633   4.645   1.809   5.338
 2578SOL    HW2 8634   4.733   1.814   5.475
 2579SOL     OW 8635   1.493   6.245   3.556
 2579SOL    HW1 8636   1.454   6.298   3.632
 2579SOL    HW2 8637   1.592   6.259   3.554
 2580SOL     OW 8638   2.740   3.699   6.477
 2580SOL    HW1 8639   2.767   3.603   6.478
 2580SOL    HW2 8640   2.645   3.707   6.449
 2581SOL     OW 8641   1.010   5.172   1.223
 2581SOL    HW1 8642   0.983   5.248   1.283
 2581SOL    HW2 8643   1.102   5.188   1.188
 2582SOL     OW 8644   0.576   4.284   1.971
 2582SOL    HW1 8645   0.495   4.293   1.914
 2582SOL    HW2 8646   0.550   4.277   2.067
 2583SOL     OW 8647   1.056   1.394   0.024
 2583SOL    HW1 8648   0.991   1.469   0.011
 2583SOL    HW2 8649   1.006   1.311   0.050
 2584SOL     OW 8650   3.986   4.974   6.489
 2584SOL    HW1 8651   4.033   4.906   6.545
 2584SOL    HW2 8652   4.026   4.976   6.398
 2585SOL     OW 8653   3.991   2.876   6.798
 2585SOL    HW1 8654   4.029   2.944   6.860
 2585SOL    HW2 8655   3.892   2.871   6.811
 2586SOL     OW 8656   3.765   1.358   3.275
 2586SOL    HW1 8657   3.824   1.409   3.338
 2586SOL    HW2 8658   3.740   1.416   3.199
 2587SOL     OW 8659   0.358   0.662   3.049
 2587SOL    HW1 8660   0.345   0.655   3.148
 2587SOL    HW2 8661   0.398   0.751   3.026
 2588SOL     OW 8662   5.132   1.202   6.362
 2588SOL    HW1 8663   5.039   1.165   6.358
 2588SOL    HW2 8664   5.196   1.128   6.382
 2589SOL     OW 8665   1.121   6.650   6.120
 2589SOL    HW1 8666   1.117   6.626   6.023
 2589SOL    HW2 8667   1.188   6.723   6.133
 2590SOL     OW 8668   3.253   5.487   0.467
 2590SOL    HW1 8669   3.165   5.523   0.498
 2590SOL    HW2 8670   3.253   5.388   0.473
 2591SOL     OW 8671   6.952   4.840   3.162
 2591SOL    HW1 8672   6.856   4.841   3.190
 2591SOL    HW2 8673   6.959   4.804   3.069
 2592SOL     OW 8674   3.492   5.809   0.029
 2592SOL    HW1 8675   3.520   5.868   0.105
 2592SOL    HW2 8676   3.557   5.733   0.021
 2593SOL     OW 8677   3.740   5.492   0.231
 2593SOL    HW1 8678   3.817   5.463   0.287
 2593SOL    HW2 8679   3.655   5.458   0.272
 2594SOL     OW 8680   2.029   4.583   6.475
 2594SOL    HW1 8681   2.076   4.592   6.387
 2594SOL    HW2 8682   1.977   4.667   6.493
 2595SOL     OW 8683   6.905   1.030   3.643
 2595SOL    HW1 8684   6.838   1.005   3.713
 2595SOL    HW2 8685   6.985   1.071   3.686
 2596SOL     OW 8686   3.174   2.033   1.988
 2596SOL    HW1 8687   3.271   2.055   1.996
 2596SOL    HW2 8688   3.139   2.005   2.077
 2597SOL     OW 8689   0.582   5.011   5.754
 2597SOL    HW1 8690   0.577   5.009   5.654
 2597SOL    HW2 8691   0.541   5.096   5.788
 2598SOL     OW 8692   6.348   0.956   3.225
 2598SOL    HW1 8693   6.352   1.042   3.277
 2598SOL    HW2 8694   6.306   0.973   3.136
 2599SOL     OW 8695   1.287   6.273   0.925
 2599SOL    HW1 8696   1.343   6.352   0.953
 2599SOL    HW2 8697   1.243   6.293   0.838
 2600SOL     OW 8698   5.595   2.810   4.781
 2600SOL    HW1 8699   5.694   2.796   4.777
 2600SOL    HW2 8700   5.549   2.723   4.761
 2601SOL     OW 8701   2.181   1.439   2.105
 2601SOL    HW1 8702   2.205   1.512   2.040
 2601SOL    HW2 8703   2.123   1.372   2.059
 2602SOL     OW 8704   1.457   4.937   4.898
 2602SOL    HW1 8705   1.365   4.931   4.937
 2602SOL    HW2 8706   1.487   4.847   4.868
 2603SOL     OW 8707   3.170   0.795   3.549
 2603SOL    HW1 8708   3.214   0.823   3.464
 2603SOL    HW2 8709   3.240   0.779   3.619
 2604SOL     OW 8710   4.759   1.990   2.698
 2604SOL    HW1 8711   4.741   2.024   2.605
 2604SOL    HW2 8712   4.674   1.963   2.741
 2605SOL     OW 8713   1.910   2.785   3.499
 2605SOL    HW1 8714   1.963   2.792   3.583
 2605SOL    HW2 8715   1.902   2.875   3.456
 2606SOL     OW 8716   5.387   4.808   1.690
 2606SOL    HW1 8717   5.346   4.814   1.781
 2606SOL    HW2 8718   5.314   4.807   1.622
 2607SOL     OW 8719   1.080   1.484   2.361
 2607SOL    HW1 8720   1.096   1.385   2.368
 2607SOL    HW2 8721   1.168   1.531   2.357
 2608SOL     OW 8722   4.275   4.927   0.555
 2608SOL    HW1 8723   4.207   4.888   0.617
 2608SOL    HW2 8724   4.334   4.854   0.521
 2609SOL     OW 8725   6.634   1.077   1.935
 2609SOL    HW1 8726   6.631   1.144   2.009
 2609SOL    HW2 8727   6.703   1.007   1.956
 2610SOL     OW 8728   0.798   4.331   4.317
 2610SOL    HW1 8729   0.746   4.395   4.262
 2610SOL    HW2 8730   0.758   4.326   4.409
 2611SOL     OW 8731   4.206   5.904   0.745
 2611SOL    HW1 8732   4.143   5.833   0.777
 2611SOL    HW2 8733   4.177   5.938   0.656
 2612SOL     OW 8734   6.811   6.982   4.767
 2612SOL    HW1 8735   6.795   7.005   4.671
 2612SOL    HW2 8736   6.799   0.045   4.823
 2613SOL     OW 8737   2.069   5.779   5.986
 2613SOL    HW1 8738   2.127   5.697   5.989
 2613SOL    HW2 8739   2.117   5.852   5.937
 2614SOL     OW 8740   6.335   2.080   0.125
 2614SOL    HW1 8741   6.261   2.049   0.185
 2614SOL    HW2 8742   6.301   2.087   0.031
 2615SOL     OW 8743   0.976   2.766   2.535
 2615SOL    HW1 8744   0.944   2.675   2.512
 2615SOL    HW2 8745   1.007   2.768   2.630
 2616SOL     OW 8746   2.508   3.061   6.032
 2616SOL    HW1 8747   2.558   3.048   5.947
 2616SOL    HW2 8748   2.411   3.040   6.017
 2617SOL     OW 8749   4.335   0.303   0.557
 2617SOL    HW1 8750   4.240   0.336   0.562
 2617SOL    HW2 8751   4.380   0.346   0.478
 2618SOL     OW 8752   6.907   0.535   4.000
 2618SOL    HW1 8753   6.968   0.614   3.986
 2618SOL    HW2 8754   6.945   0.456   3.952
 2619SOL     OW 8755   4.595   1.921   1.520
 2619SOL    HW1 8756   4.571   1.994   1.456
 2619SOL    HW2 8757   4.673   1.869   1.484
 2620SOL     OW 8758   6.559   6.790   3.679
 2620SOL    HW1 8759   6.651   6.777   3.640
 2620SOL    HW2 8760   6.531   6.885   3.666
 2621SOL     OW 8761   1.140   5.483   2.075
 2621SOL    HW1 8762   1.209   5.539   2.030
 2621SOL    HW2 8763   1.137   5.505   2.172
 2622SOL     OW 8764   1.379   3.666   6.050
 2622SOL    HW1 8765   1.478   3.654   6.058
 2622SOL    HW2 8766   1.334   3.577   6.053
 2623SOL     OW 8767   0.280   0.374   5.420
 2623SOL    HW1 8768   0.320   0.296   5.373
 2623SOL    HW2 8769   0.304   0.371   5.517
 2624SOL     OW 8770   0.693   1.164   4.713
 2624SOL    HW1 8771   0.682   1.241   4.776
 2624SOL    HW2 8772   0.633   1.176   4.634
 2625SOL     OW 8773   2.409   3.756   5.530
 2625SOL    HW1 8774   2.403   3.832   5.596
 2625SOL    HW2 8775   2.332   3.760   5.467
 2626SOL     OW 8776   6.918   0.218   6.035
 2626SOL    HW1 8777   6.988   0.272   6.083
 2626SOL    HW2 8778   6.937   0.121   6.048
 2627SOL     OW 8779   1.135   1.424   6.287
 2627SOL    HW1 8780   1.167   1.354   6.223
 2627SOL    HW2 8781   1.069   1.384   6.350
 2628SOL     OW 8782   2.360   4.062   5.703
 2628SOL    HW1 8783   2.301   4.046   5.624
 2628SOL    HW2 8784   2.456   4.052   5.675
 2629SOL     OW 8785   3.984   3.266   2.378
 2629SOL    HW1 8786   3.963   3.183   2.429
 2629SOL    HW2 8787   4.034   3.242   2.295
 2630SOL     OW 8788   3.639   1.550   2.640
 2630SOL    HW1 8789   3.703   1.474   2.644
 2630SOL    HW2 8790   3.675   1.626   2.694
 2631SOL     OW 8791   5.285   0.737   6.281
 2631SOL    HW1 8792   5.286   0.711   6.378
 2631SOL    HW2 8793   5.266   0.656   6.226
 2632SOL     OW 8794   5.154   2.800   0.881
 2632SOL    HW1 8795   5.110   2.778   0.968
 2632SOL    HW2 8796   5.247   2.832   0.898
 2633SOL     OW 8797   0.278   1.395   4.443
 2633SOL    HW1 8798   0.315   1.469   4.497
 2633SOL    HW2 8799   0.185   1.418   4.413
 2634SOL     OW 8800   0.981   5.102   3.582
 2634SOL    HW1 8801   1.020   5.046   3.656
 2634SOL    HW2 8802   0.979   5.198   3.611
 2635SOL     OW 8803   0.285   5.878   4.719
 2635SOL    HW1 8804   0.350   5.804   4.704
 2635SOL    HW2 8805   0.283   5.938   4.639
 2636SOL     OW 8806   4.219   0.598   5.950
 2636SOL    HW1 8807   4.305   0.571   5.994
 2636SOL    HW2 8808   4.239   0.648   5.866
 2637SOL     OW 8809   6.060   2.210   3.744
 2637SOL    HW1 8810   5.992   2.197   3.671
 2637SOL    HW2 8811   6.094   2.121   3.774
 2638SOL     OW 8812   6.984   6.652   4.442
 2638SOL    HW1 8813   6.938   6.564   4.425
 2638SOL    HW2 8814   6.962   6.715   4.367
 2639SOL     OW 8815   0.207   6.224   0.594
 2639SOL    HW1 8816   0.276   6.296   0.596
 2639SOL    HW2 8817   0.135   6.245   0.660
 2640SOL     OW 8818   6.715   6.599   5.365
 2640SOL    HW1 8819   6.619   6.609   5.393
 2640SOL    HW2 8820   6.754   6.517   5.407
 2641SOL     OW 8821   5.399   2.532   2.146
 2641SOL    HW1 8822   5.328   2.526   2.215
 2641SOL    HW2 8823   5.388   2.459   2.079
 2642SOL     OW 8824   6.163   0.769   3.914
 2642SOL    HW1 8825   6.096   0.759   3.988
 2642SOL    HW2 8826   6.115   0.770   3.826
 2643SOL     OW 8827   1.658   3.562   3.598
 2643SOL    HW1 8828   1.716   3.634   3.560
 2643SOL    HW2 8829   1.571   3.602   3.627
 2644SOL     OW 8830   4.837   5.063   4.876
 2644SOL    HW1 8831   4.811   5.141   4.932
 2644SOL    HW2 8832   4.890   4.999   4.931
 2645SOL     OW 8833   4.606   5.541   3.728
 2645SOL    HW1 8834   4.649   5.628   3.751
 2645SOL    HW2 8835   4.626   5.473   3.799
 2646SOL     OW 8836   6.679   1.887   7.018
 2646SOL    HW1 8837   6.753   1.840   0.048
 2646SOL    HW2 8838   6.673   1.981   0.030
 2647SOL     OW 8839   6.465   0.295   1.659
 2647SOL    HW1 8840   6.530   0.361   1.620
 2647SOL    HW2 8841   6.483   0.285   1.757
 2648SOL     OW 8842   0.623   6.243   3.942
 2648SOL    HW1 8843   0.596   6.295   4.022
 2648SOL    HW2 8844   0.661   6.305   3.873
 2649SOL     OW 8845   6.437   3.377   1.019
 2649SOL    HW1 8846   6.483   3.364   0.931
 2649SOL    HW2 8847   6.338   3.379   1.005
 2650SOL     OW 8848   1.719   4.998   3.685
 2650SOL    HW1 8849   1.624   4.993   3.715
 2650SOL    HW2 8850   1.747   5.093   3.679
 2651SOL     OW 8851   2.756   1.940   1.236
 2651SOL    HW1 8852   2.738   1.878   1.312
 2651SOL    HW2 8853   2.828   1.903   1.178
 2652SOL     OW 8854   4.235   3.337   5.501
 2652SOL    HW1 8855   4.299   3.266   5.533
 2652SOL    HW2 8856   4.260   3.366   5.409
 2653SOL     OW 8857   4.603   6.842   5.948
 2653SOL    HW1 8858   4.661   6.893   5.884
 2653SOL    HW2 8859   4.527   6.799   5.897
 2654SOL     OW 8860   4.273   0.123   1.500
 2654SOL    HW1 8861   4.186   0.089   1.536
 2654SOL    HW2 8862   4.296   0.073   1.417
 2655SOL     OW 8863   5.373   5.902   4.055
 2655SOL    HW1 8864   5.327   5.926   3.969
 2655SOL    HW2 8865   5.397   5.986   4.104
 2656SOL     OW 8866   3.524   5.028   4.718
 2656SOL    HW1 8867   3.507   5.084   4.637
 2656SOL    HW2 8868   3.606   4.972   4.704
 2657SOL     OW 8869   1.804   4.120   0.098
 2657SOL    HW1 8870   1.731   4.176   0.057
 2657SOL    HW2 8871   1.823   4.153   0.190
 2658SOL     OW 8872   5.144   5.146   0.416
 2658SOL    HW1 8873   5.159   5.050   0.394
 2658SOL    HW2 8874   5.091   5.189   0.342
 2659SOL     OW 8875   4.929   3.224   5.019
 2659SOL    HW1 8876   4.897   3.174   4.938
 2659SOL    HW2 8877   5.023   3.196   5.040
 2660SOL     OW 8878   1.427   0.217   1.853
 2660SOL    HW1 8879   1.373   0.151   1.904
 2660SOL    HW2 8880   1.486   0.267   1.915
 2661SOL     OW 8881   1.909   6.544   1.164
 2661SOL    HW1 8882   1.988   6.591   1.204
 2661SOL    HW2 8883   1.907   6.449   1.196
 2662SOL     OW 8884   3.529   6.932   4.683
 2662SOL    HW1 8885   3.512   0.001   4.726
 2662SOL    HW2 8886   3.460   6.914   4.613
 2663SOL     OW 8887   4.263   4.106   6.822
 2663SOL    HW1 8888   4.345   4.156   6.851
 2663SOL    HW2 8889   4.251   4.117   6.723
 2664SOL     OW 8890   4.631   3.534   5.614
 2664SOL    HW1 8891   4.605   3.628   5.635
 2664SOL    HW2 8892   4.568   3.471   5.659
 2665SOL     OW 8893   2.617   3.556   5.368
 2665SOL    HW1 8894   2.690   3.568   5.435
 2665SOL    HW2 8895   2.656   3.532   5.280
 2666SOL     OW 8896   1.411   5.060   1.440
 2666SOL    HW1 8897   1.311   5.063   1.431
 2666SOL    HW2 8898   1.439   5.116   1.518
 2667SOL     OW 8899   1.674   5.413   3.890
 2667SOL    HW1 8900   1.604   5.378   3.951
 2667SOL    HW2 8901   1.755   5.438   3.943
 2668SOL     OW 8902   6.429   2.326   4.643
 2668SOL    HW1 8903   6.520   2.308   4.680
 2668SOL    HW2 8904   6.426   2.418   4.604
 2669SOL     OW 8905   2.748   5.356   6.166
 2669SOL    HW1 8906   2.817   5.403   6.110
 2669SOL    HW2 8907   2.794   5.297   6.232
 2670SOL     OW 8908   5.885   3.121   4.600
 2670SOL    HW1 8909   5.965   3.167   4.637
 2670SOL    HW2 8910   5.914   3.044   4.543
 2671SOL     OW 8911   4.492   5.384   6.328
 2671SOL    HW1 8912   4.416   5.323   6.349
 2671SOL    HW2 8913   4.554   5.340   6.263
 2672SOL     OW 8914   3.473   6.280   0.911
 2672SOL    HW1 8915   3.410   6.259   0.986
 2672SOL    HW2 8916   3.429   6.343   0.847
 2673SOL     OW 8917   5.934   2.408   2.196
 2673SOL    HW1 8918   5.848   2.439   2.238
 2673SOL    HW2 8919   6.009   2.467   2.227
 2674SOL     OW 8920   1.194   4.635   4.339
 2674SOL    HW1 8921   1.190   4.663   4.435
 2674SOL    HW2 8922   1.288   4.611   4.316
 2675SOL     OW 8923   6.788   6.519   3.737
 2675SOL    HW1 8924   6.845   6.501   3.817
 2675SOL    HW2 8925   6.692   6.500   3.760
 2676SOL     OW 8926   3.197   3.050   1.562
 2676SOL    HW1 8927   3.141   3.116   1.611
 2676SOL    HW2 8928   3.147   3.016   1.483
 2677SOL     OW 8929   2.657   4.304   0.986
 2677SOL    HW1 8930   2.736   4.285   0.928
 2677SOL    HW2 8931   2.575   4.268   0.941
 2678SOL     OW 8932   0.548   2.617   2.259
 2678SOL    HW1 8933   0.591   2.531   2.288
 2678SOL    HW2 8934   0.591   2.693   2.307
 2679SOL     OW 8935   2.110   4.840   2.235
 2679SOL    HW1 8936   2.145   4.751   2.204
 2679SOL    HW2 8937   2.186   4.905   2.243
 2680SOL     OW 8938   0.879   2.166   0.526
 2680SOL    HW1 8939   0.946   2.100   0.560
 2680SOL    HW2 8940   0.927   2.240   0.478
 2681SOL     OW 8941   1.370   2.005   4.538
 2681SOL    HW1 8942   1.447   1.956   4.579
 2681SOL    HW2 8943   1.404   2.081   4.483
 2682SOL     OW 8944   4.762   4.293   3.876
 2682SOL    HW1 8945   4.856   4.327   3.874
 2682SOL    HW2 8946   4.737   4.269   3.970
 2683SOL     OW 8947   2.725   4.636   2.250
 2683SOL    HW1 8948   2.685   4.727   2.263
 2683SOL    HW2 8949   2.761   4.629   2.157
 2684SOL     OW 8950   4.509   6.822   2.368
 2684SOL    HW1 8951   4.411   6.837   2.355
 2684SOL    HW2 8952   4.536   6.739   2.319
 2685SOL     OW 8953   5.296   5.459   5.792
 2685SOL    HW1 8954   5.262   5.553   5.794
 2685SOL    HW2 8955   5.358   5.447   5.715
 2686SOL     OW 8956   1.103   1.517   5.300
 2686SOL    HW1 8957   1.078   1.612   5.317
 2686SOL    HW2 8958   1.021   1.460   5.306
 2687SOL     OW 8959   4.371   5.538   0.565
 2687SOL    HW1 8960   4.439   5.595   0.520
 2687SOL    HW2 8961   4.401   5.442   0.564
 2688SOL     OW 8962   2.374   2.658   0.591
 2688SOL    HW1 8963   2.450   2.654   0.655
 2688SOL    HW2 8964   2.307   2.587   0.614
 2689SOL     OW 8965   6.531   3.646   2.164
 2689SOL    HW1 8966   6.568   3.555   2.142
 2689SOL    HW2 8967   6.597   3.696   2.219
 2690SOL     OW 8968   2.650   3.224   5.826
 2690SOL    HW1 8969   2.584   3.204   5.754
 2690SOL    HW2 8970   2.625   3.309   5.872
 2691SOL     OW 8971   0.097   5.118   3.593
 2691SOL    HW1 8972   0.176   5.087   3.645
 2691SOL    HW2 8973   0.082   5.058   3.515
 2692SOL     OW 8974   2.890   6.654   3.587
 2692SOL    HW1 8975   2.923   6.670   3.494
 2692SOL    HW2 8976   2.965   6.624   3.645
 2693SOL     OW 8977   2.736   4.745   4.176
 2693SOL    HW1 8978   2.827   4.774   4.145
 2693SOL    HW2 8979   2.709   4.663   4.128
 2694SOL     OW 8980   3.707   6.578   3.355
 2694SOL    HW1 8981   3.652   6.533   3.284
 2694SOL    HW2 8982   3.647   6.637   3.410
 2695SOL     OW 8983   6.056   0.409   2.722
 2695SOL    HW1 8984   6.068   0.314   2.690
 2695SOL    HW2 8985   6.006   0.409   2.808
 2696SOL     OW 8986   4.238   3.818   5.657
 2696SOL    HW1 8987   4.225   3.720   5.669
 2696SOL    HW2 8988   4.171   3.852   5.591
 2697SOL     OW 8989   3.449   1.452   2.857
 2697SOL    HW1 8990   3.365   1.416   2.817
 2697SOL    HW2 8991   3.506   1.491   2.785
 2698SOL     OW 8992   2.439   4.709   0.216
 2698SOL    HW1 8993   2.469   4.694   0.121
 2698SOL    HW2 8994   2.343   4.736   0.216
 2699SOL     OW 8995   2.675   5.905   0.754
 2699SOL    HW1 8996   2.588   5.950   0.773
 2699SOL    HW2 8997   2.689   5.899   0.655
 2700SOL     OW 8998   2.963   1.887   1.042
 2700SOL    HW1 8999   3.061   1.866   1.042
 2700SOL    HW2 9000   2.940   1.937   0.958
 2701SOL     OW 9001   5.245   2.364   5.992
 2701SOL    HW1 9002   5.203   2.323   6.072
 2701SOL    HW2 9003   5.174   2.395   5.929
 2702SOL     OW 9004   1.009   2.703   3.672
 2702SOL    HW1 9005   0.936   2.636   3.659
 2702SOL    HW2 9006   1.067   2.704   3.591
 2703SOL     OW 9007   1.026   5.911   1.141
 2703SOL    HW1 9008   0.940   5.860   1.139
 2703SOL    HW2 9009   1.009   6.003   1.178
 2704SOL     OW 9010   6.192   6.314   2.161
 2704SOL    HW1 9011   6.151   6.223   2.167
 2704SOL    HW2 9012   6.120   6.381   2.141
 2705SOL     OW 9013   6.138   0.392   5.281
 2705SOL    HW1 9014   6.190   0.385   5.366
 2705SOL    HW2 9015   6.144   0.306   5.231
 2706SOL     OW 9016   6.364   4.842   3.443
 2706SOL    HW1 9017   6.370   4.925   3.498
 2706SOL    HW2 9018   6.270   4.807   3.445
 2707SOL     OW 9019   3.721   6.989   4.101
 2707SOL    HW1 9020   3.722   6.971   4.200
 2707SOL    HW2 9021   3.807   0.014   4.075
 2708SOL     OW 9022   6.266   2.748   1.107
 2708SOL    HW1 9023   6.238   2.662   1.062
 2708SOL    HW2 9024   6.362   2.740   1.135
 2709SOL     OW 9025   5.230   6.824   6.772
 2709SOL    HW1 9026   5.178   6.739   6.777
 2709SOL    HW2 9027   5.326   6.804   6.751
 2710SOL     OW 9028   1.601   2.869   3.917
 2710SOL    HW1 9029   1.635   2.879   3.823
 2710SOL    HW2 9030   1.579   2.959   3.954
 2711SOL     OW 9031   3.032   0.719   4.171
 2711SOL    HW1 9032   3.024   0.621   4.193
 2711SOL    HW2 9033   2.966   0.742   4.099
 2712SOL     OW 9034   2.777   5.421   1.912
 2712SOL    HW1 9035   2.749   5.336   1.868
 2712SOL    HW2 9036   2.775   5.410   2.012
 2713SOL     OW 9037   2.514   3.596   6.375
 2713SOL    HW1 9038   2.593   3.587   6.315
 2713SOL    HW2 9039   2.450   3.521   6.357
 2714SOL     OW 9040   3.594   2.818   6.699
 2714SOL    HW1 9041   3.620   2.915   6.706
 2714SOL    HW2 9042   3.611   2.787   6.605
 2715SOL     OW 9043   5.196   2.094   0.625
 2715SOL    HW1 9044   5.174   2.072   0.720
 2715SOL    HW2 9045   5.283   2.051   0.600
 2716SOL     OW 9046   4.901   3.528   3.956
 2716SOL    HW1 9047   4.965   3.536   3.879
 2716SOL    HW2 9048   4.943   3.476   4.029
 2717SOL     OW 9049   0.649   6.933   1.867
 2717SOL    HW1 9050   0.564   6.960   1.823
 2717SOL    HW2 9051   0.629   6.894   1.957
 2718SOL     OW 9052   0.588   0.968   5.265
 2718SOL    HW1 9053   0.551   0.894   5.209
 2718SOL    HW2 9054   0.517   1.003   5.325
 2719SOL     OW 9055   1.061   4.946   1.647
 2719SOL    HW1 9056   1.031   4.981   1.736
 2719SOL    HW2 9057   0.983   4.907   1.598
 2720SOL     OW 9058   1.514   0.195   2.526
 2720SOL    HW1 9059   1.587   0.262   2.542
 2720SOL    HW2 9060   1.427   0.232   2.559
 2721SOL     OW 9061   3.326   6.026   3.073
 2721SOL    HW1 9062   3.371   6.060   3.155
 2721SOL    HW2 9063   3.261   5.954   3.097
 2722SOL     OW 9064   5.295   5.242   6.837
 2722SOL    HW1 9065   5.343   5.172   6.889
 2722SOL    HW2 9066   5.272   5.319   6.898
 2723SOL     OW 9067   1.752   5.993   6.497
 2723SOL    HW1 9068   1.685   6.016   6.427
 2723SOL    HW2 9069   1.710   5.935   6.567
 2724SOL     OW 9070   1.590   6.542   6.114
 2724SOL    HW1 9071   1.512   6.601   6.094
 2724SOL    HW2 9072   1.557   6.456   6.153
 2725SOL     OW 9073   5.279   4.274   5.123
 2725SOL    HW1 9074   5.200   4.324   5.159
 2725SOL    HW2 9075   5.357   4.285   5.185
 2726SOL     OW 9076   0.369   2.736   2.081
 2726SOL    HW1 9077   0.438   2.676   2.123
 2726SOL    HW2 9078   0.415   2.812   2.035
 2727SOL     OW 9079   0.947   3.911   4.020
 2727SOL    HW1 9080   0.943   3.861   4.107
 2727SOL    HW2 9081   0.945   4.010   4.039
 2728SOL     OW 9082   5.062   6.191   5.425
 2728SOL    HW1 9083   5.125   6.257   5.466
 2728SOL    HW2 9084   4.969   6.227   5.427
 2729SOL     OW 9085   6.920   6.476   0.515
 2729SOL    HW1 9086   6.863   6.400   0.546
 2729SOL    HW2 9087   6.992   6.494   0.583
 2730SOL     OW 9088   1.429   5.979   1.815
 2730SOL    HW1 9089   1.416   6.075   1.790
 2730SOL    HW2 9090   1.514   5.970   1.866
 2731SOL     OW 9091   2.908   3.721   3.410
 2731SOL    HW1 9092   2.925   3.757   3.318
 2731SOL    HW2 9093   2.879   3.625   3.403
 2732SOL     OW 9094   5.859   1.547   0.754
 2732SOL    HW1 9095   5.813   1.574   0.838
 2732SOL    HW2 9096   5.958   1.554   0.766
 2733SOL     OW 9097   6.597   1.688   5.360
 2733SOL    HW1 9098   6.598   1.678   5.460
 2733SOL    HW2 9099   6.508   1.723   5.331
 2734SOL     OW 9100   2.773   5.648   0.894
 2734SOL    HW1 9101   2.852   5.589   0.879
 2734SOL    HW2 9102   2.756   5.702   0.811
 2735SOL     OW 9103   1.505   2.393   2.162
 2735SOL    HW1 9104   1.485   2.296   2.173
 2735SOL    HW2 9105   1.426   2.446   2.191
 2736SOL     OW 9106   6.965   6.030   4.798
 2736SOL    HW1 9107   6.922   6.049   4.886
 2736SOL    HW2 9108   6.987   5.932   4.793
 2737SOL     OW 9109   3.072   3.507   5.372
 2737SOL    HW1 9110   3.060   3.501   5.471
 2737SOL    HW2 9111   2.987   3.480   5.327
 2738SOL     OW 9112   5.707   5.850   2.024
 2738SOL    HW1 9113   5.778   5.883   2.086
 2738SOL    HW2 9114   5.617   5.863   2.066
 2739SOL     OW 9115   1.147   4.463   0.685
 2739SOL    HW1 9116   1.062   4.458   0.738
 2739SOL    HW2 9117   1.198   4.545   0.711
 2740SOL     OW 9118   6.501   5.092   1.390
 2740SOL    HW1 9119   6.591   5.047   1.393
 2740SOL    HW2 9120   6.503   5.174   1.448
 2741SOL     OW 9121   6.428   1.249   4.425
 2741SOL    HW1 9122   6.335   1.213   4.425
 2741SOL    HW2 9123   6.476   1.217   4.343
 2742SOL     OW 9124   2.084   5.175   0.427
 2742SOL    HW1 9125   2.118   5.164   0.520
 2742SOL    HW2 9126   2.002   5.119   0.416
 2743SOL     OW 9127   0.195   4.775   2.404
 2743SOL    HW1 9128   0.106   4.751   2.442
 2743SOL    HW2 9129   0.237   4.694   2.364
 2744SOL     OW 9130   4.402   2.771   0.202
 2744SOL    HW1 9131   4.317   2.820   0.184
 2744SOL    HW2 9132   4.465   2.832   0.252
 2745SOL     OW 9133   6.980   1.046   4.802
 2745SOL    HW1 9134   0.006   0.971   4.753
 2745SOL    HW2 9135   7.015   1.050   4.896
 2746SOL     OW 9136   1.151   2.597   4.889
 2746SOL    HW1 9137   1.101   2.516   4.918
 2746SOL    HW2 9138   1.249   2.577   4.888
 2747SOL     OW 9139   4.888   5.437   6.734
 2747SOL    HW1 9140   4.958   5.379   6.693
 2747SOL    HW2 9141   4.800   5.423   6.689
 2748SOL     OW 9142   4.497   1.421   2.351
 2748SOL    HW1 9143   4.592   1.402   2.374
 2748SOL    HW2 9144   4.493   1.501   2.291
 2749SOL     OW 9145   6.449   4.772   1.121
 2749SOL    HW1 9146   6.535   4.820   1.136
 2749SOL    HW2 9147   6.438   4.701   1.190
 2750SOL     OW 9148   2.170   4.079   2.039
 2750SOL    HW1 9149   2.227   4.110   1.963
 2750SOL    HW2 9150   2.118   3.999   2.012
 2751SOL     OW 9151   0.713   2.793   1.617
 2751SOL    HW1 9152   0.756   2.740   1.544
 2751SOL    HW2 9153   0.774   2.795   1.696
 2752SOL     OW 9154   3.299   4.472   5.980
 2752SOL    HW1 9155   3.314   4.379   6.016
 2752SOL    HW2 9156   3.302   4.470   5.880
 2753SOL     OW 9157   6.816   6.829   5.008
 2753SOL    HW1 9158   6.834   6.731   5.013
 2753SOL    HW2 9159   6.829   6.860   4.913
 2754SOL     OW 9160   0.437   0.231   0.924
 2754SOL    HW1 9161   0.431   0.261   1.019
 2754SOL    HW2 9162   0.410   0.135   0.918
 2755SOL     OW 9163   3.721   6.654   2.231
 2755SOL    HW1 9164   3.741   6.577   2.170
 2755SOL    HW2 9165   3.782   6.730   2.209
 2756SOL     OW 9166   4.339   6.148   6.831
 2756SOL    HW1 9167   4.365   6.066   6.781
 2756SOL    HW2 9168   4.290   6.122   6.914
 2757SOL     OW 9169   2.417   6.541   0.178
 2757SOL    HW1 9170   2.458   6.631   0.196
 2757SOL    HW2 9171   2.391   6.498   0.264
 2758SOL     OW 9172   4.150   0.286   3.671
 2758SOL    HW1 9173   4.138   0.301   3.769
 2758SOL    HW2 9174   4.154   0.374   3.624
 2759SOL     OW 9175   5.852   6.391   5.790
 2759SOL    HW1 9176   5.946   6.360   5.808
 2759SOL    HW2 9177   5.791   6.312   5.785
 2760SOL     OW 9178   0.176   5.724   1.848
 2760SOL    HW1 9179   0.235   5.770   1.781
 2760SOL    HW2 9180   0.156   5.632   1.816
 2761SOL     OW 9181   2.108   5.043   4.416
 2761SOL    HW1 9182   2.077   4.979   4.345
 2761SOL    HW2 9183   2.125   5.132   4.374
 2762SOL     OW 9184   1.752   0.990   5.489
 2762SOL    HW1 9185   1.708   0.901   5.483
 2762SOL    HW2 9186   1.736   1.041   5.405
 2763SOL     OW 9187   4.962   1.736   3.610
 2763SOL    HW1 9188   4.997   1.660   3.664
 2763SOL    HW2 9189   4.863   1.745   3.623
 2764SOL     OW 9190   6.151   0.851   1.023
 2764SOL    HW1 9191   6.128   0.794   0.944
 2764SOL    HW2 9192   6.068   0.879   1.070
 2765SOL     OW 9193   5.526   0.086   0.856
 2765SOL    HW1 9194   5.526   0.058   0.760
 2765SOL    HW2 9195   5.617   0.070   0.895
 2766SOL     OW 9196   4.368   2.217   6.805
 2766SOL    HW1 9197   4.332   2.307   6.831
 2766SOL    HW2 9198   4.468   2.219   6.807
 2767SOL     OW 9199   6.635   5.129   0.114
 2767SOL    HW1 9200   6.664   5.044   0.069
 2767SOL    HW2 9201   6.548   5.159   0.075
 2768SOL     OW 9202   4.739   0.477   0.832
 2768SOL    HW1 9203   4.670   0.548   0.820
 2768SOL    HW2 9204   4.816   0.513   0.884
 2769SOL     OW 9205   0.836   4.368   3.919
 2769SOL    HW1 9206   0.870   4.298   3.981
 2769SOL    HW2 9207   0.863   4.345   3.825
 2770SOL     OW 9208   2.913   5.094   5.565
 2770SOL    HW1 9209   2.980   5.167   5.579
 2770SOL    HW2 9210   2.834   5.111   5.622
 2771SOL     OW 9211   6.574   0.773   3.254
 2771SOL    HW1 9212   6.609   0.803   3.343
 2771SOL    HW2 9213   6.523   0.848   3.211
 2772SOL     OW 9214   4.571   1.565   0.385
 2772SOL    HW1 9215   4.628   1.629   0.436
 2772SOL    HW2 9216   4.486   1.610   0.358
 2773SOL     OW 9217   5.853   2.377   5.627
 2773SOL    HW1 9218   5.940   2.418   5.653
 2773SOL    HW2 9219   5.790   2.450   5.599
 2774SOL     OW 9220   6.166   3.699   3.580
 2774SOL    HW1 9221   6.202   3.611   3.613
 2774SOL    HW2 9222   6.092   3.682   3.515
 2775SOL     OW 9223   6.741   5.242   6.868
 2775SOL    HW1 9224   6.768   5.261   6.774
 2775SOL    HW2 9225   6.700   5.151   6.873
 2776SOL     OW 9226   4.594   4.513   6.382
 2776SOL    HW1 9227   4.540   4.548   6.305
 2776SOL    HW2 9228   4.676   4.569   6.392
 2777SOL     OW 9229   2.792   1.307   2.068
 2777SOL    HW1 9230   2.868   1.363   2.100
 2777SOL    HW2 9231   2.818   1.260   1.983
 2778SOL     OW 9232   1.212   0.020   5.455
 2778SOL    HW1 9233   1.302   7.015   5.490
 2778SOL    HW2 9234   1.174   6.962   5.404
 2779SOL     OW 9235   4.973   6.663   0.939
 2779SOL    HW1 9236   5.036   6.612   0.881
 2779SOL    HW2 9237   4.978   6.629   1.033
 2780SOL     OW 9238   6.688   6.167   6.989
 2780SOL    HW1 9239   6.633   6.107   6.930
 2780SOL    HW2 9240   6.768   6.200   6.938
 2781SOL     OW 9241   5.986   6.021   1.756
 2781SOL    HW1 9242   5.939   5.952   1.701
 2781SOL    HW2 9243   5.952   6.112   1.733
 2782SOL     OW 9244   3.703   1.916   5.398
 2782SOL    HW1 9245   3.736   1.821   5.395
 2782SOL    HW2 9246   3.706   1.949   5.493
 2783SOL     OW 9247   5.225   3.863   4.088
 2783SOL    HW1 9248   5.211   3.882   4.185
 2783SOL    HW2 9249   5.150   3.903   4.035
 2784SOL     OW 9250   3.440   1.763   1.161
 2784SOL    HW1 9251   3.357   1.787   1.110
 2784SOL    HW2 9252   3.521   1.790   1.109
 2785SOL     OW 9253   5.611   1.810   1.086
 2785SOL    HW1 9254   5.560   1.887   1.048
 2785SOL    HW2 9255   5.707   1.834   1.094
 2786SOL     OW 9256   4.430   5.711   2.301
 2786SOL    HW1 9257   4.469   5.622   2.278
 2786SOL    HW2 9258   4.388   5.751   2.220
 2787SOL     OW 9259   3.252   1.999   0.035
 2787SOL    HW1 9260   3.330   2.013   6.993
 2787SOL    HW2 9261   3.170   1.980   7.001
 2788SOL     OW 9262   2.220   4.841   6.292
 2788SOL    HW1 9263   2.196   4.744   6.292
 2788SOL    HW2 9264   2.137   4.896   6.282
 2789SOL     OW 9265   2.363   2.180   3.736
 2789SOL    HW1 9266   2.306   2.180   3.654
 2789SOL    HW2 9267   2.335   2.254   3.797
 2790SOL     OW 9268   3.241   5.544   2.006
 2790SOL    HW1 9269   3.193   5.608   2.067
 2790SOL    HW2 9270   3.192   5.537   1.920
 2791SOL     OW 9271   1.104   4.046   3.215
 2791SOL    HW1 9272   1.103   4.145   3.234
 2791SOL    HW2 9273   1.198   4.013   3.217
 2792SOL     OW 9274   0.734   6.626   4.315
 2792SOL    HW1 9275   0.810   6.681   4.348
 2792SOL    HW2 9276   0.664   6.618   4.386
 2793SOL     OW 9277   4.925   3.383   3.315
 2793SOL    HW1 9278   4.909   3.477   3.287
 2793SOL    HW2 9279   4.933   3.378   3.414
 2794SOL     OW 9280   0.528   3.438   0.177
 2794SOL    HW1 9281   0.509   3.509   0.245
 2794SOL    HW2 9282   0.449   3.379   0.166
 2795SOL     OW 9283   1.620   3.095   0.564
 2795SOL    HW1 9284   1.688   3.166   0.577
 2795SOL    HW2 9285   1.630   3.025   0.636
 2796SOL     OW 9286   6.538   5.461   2.491
 2796SOL    HW1 9287   6.577   5.545   2.452
 2796SOL    HW2 9288   6.475   5.485   2.564
 2797SOL     OW 9289   5.596   4.971   4.558
 2797SOL    HW1 9290   5.686   4.967   4.515
 2797SOL    HW2 9291   5.580   5.063   4.594
 2798SOL     OW 9292   0.965   5.437   1.367
 2798SOL    HW1 9293   1.055   5.435   1.410
 2798SOL    HW2 9294   0.947   5.528   1.329
 2799SOL     OW 9295   6.734   0.079   0.382
 2799SOL    HW1 9296   6.755   7.001   0.369
 2799SOL    HW2 9297   6.790   0.115   0.456
 2800SOL     OW 9298   4.494   5.222   6.938
 2800SOL    HW1 9299   4.521   5.293   7.003
 2800SOL    HW2 9300   4.515   5.252   6.845
 2801SOL     OW 9301   5.655   5.263   4.905
 2801SOL    HW1 9302   5.594   5.314   4.845
 2801SOL    HW2 9303   5.679   5.320   4.984
 2802SOL     OW 9304   4.615   2.014   5.609
 2802SOL    HW1 9305   4.532   1.972   5.573
 2802SOL    HW2 9306   4.618   2.110   5.581
 2803SOL     OW 9307   3.168   5.801   6.455
 2803SOL    HW1 9308   3.213   5.888   6.436
 2803SOL    HW2 9309   3.084   5.793   6.402
 2804SOL     OW 9310   0.146   4.622   5.137
 2804SOL    HW1 9311   0.069   4.644   5.077
 2804SOL    HW2 9312   0.231   4.631   5.086
 2805SOL     OW 9313   5.221   2.478   1.940
 2805SOL    HW1 9314   5.195   2.563   1.986
 2805SOL    HW2 9315   5.144   2.414   1.943
 2806SOL     OW 9316   6.814   5.493   4.693
 2806SOL    HW1 9317   6.770   5.445   4.769
 2806SOL    HW2 9318   6.907   5.519   4.720
 2807SOL     OW 9319   4.786   5.527   3.318
 2807SOL    HW1 9320   4.871   5.512   3.267
 2807SOL    HW2 9321   4.735   5.603   3.276
 2808SOL     OW 9322   5.514   3.674   2.824
 2808SOL    HW1 9323   5.510   3.755   2.881
 2808SOL    HW2 9324   5.423   3.633   2.817
 2809SOL     OW 9325   5.959   3.088   1.048
 2809SOL    HW1 9326   5.895   3.089   0.971
 2809SOL    HW2 9327   6.045   3.047   1.018
 2810SOL     OW 9328   3.258   5.729   4.250
 2810SOL    HW1 9329   3.234   5.697   4.342
 2810SOL    HW2 9330   3.300   5.654   4.199
 2811SOL     OW 9331   1.284   1.662   3.391
 2811SOL    HW1 9332   1.371   1.703   3.361
 2811SOL    HW2 9333   1.233   1.728   3.445
 2812SOL     OW 9334   5.073   3.845   0.100
 2812SOL    HW1 9335   4.973   3.853   0.104
 2812SOL    HW2 9336   5.103   3.772   0.160
 2813SOL     OW 9337   6.753   7.015   5.764
 2813SOL    HW1 9338   6.678   6.997   5.827
 2813SOL    HW2 9339   6.778   0.092   5.767
 2814SOL     OW 9340   4.442   3.429   6.476
 2814SOL    HW1 9341   4.416   3.511   6.526
 2814SOL    HW2 9342   4.421   3.348   6.532
 2815SOL     OW 9343   6.047   0.865   5.342
 2815SOL    HW1 9344   6.055   0.843   5.245
 2815SOL    HW2 9345   6.094   0.795   5.396
 2816SOL     OW 9346   5.903   5.714   3.582
 2816SOL    HW1 9347   5.947   5.642   3.528
 2816SOL    HW2 9348   5.880   5.791   3.523
 2817SOL     OW 9349   2.570   6.909   1.381
 2817SOL    HW1 9350   2.611   6.978   1.440
 2817SOL    HW2 9351   2.535   6.952   1.298
 2818SOL     OW 9352   0.035   0.494   0.421
 2818SOL    HW1 9353   6.991   0.493   0.498
 2818SOL    HW2 9354   0.094   0.574   0.426
 2819SOL     OW 9355   1.025   1.059   1.327
 2819SOL    HW1 9356   1.018   1.108   1.240
 2819SOL    HW2 9357   0.971   0.975   1.323
 2820SOL     OW 9358   1.246   2.059   3.209
 2820SOL    HW1 9359   1.221   1.977   3.158
 2820SOL    HW2 9360   1.203   2.139   3.167
 2821SOL     OW 9361   3.936   3.363   0.170
 2821SOL    HW1 9362   3.885   3.449   0.166
 2821SOL    HW2 9363   3.969   3.348   0.263
 2822SOL     OW 9364   4.720   2.116   0.068
 2822SOL    HW1 9365   4.790   2.185   0.089
 2822SOL    HW2 9366   4.632   2.146   0.104
 2823SOL     OW 9367   3.880   6.205   0.360
 2823SOL    HW1 9368   3.940   6.167   0.431
 2823SOL    HW2 9369   3.847   6.294   0.389
 2824SOL     OW 9370   2.760   1.308   3.064
 2824SOL    HW1 9371   2.811   1.248   3.126
 2824SOL    HW2 9372   2.678   1.261   3.032
 2825SOL     OW 9373   6.739   0.357   6.627
 2825SOL    HW1 9374   6.782   0.363   6.717
 2825SOL    HW2 9375   6.654   0.304   6.634
 2826SOL     OW 9376   4.646   1.393   6.629
 2826SOL    HW1 9377   4.589   1.368   6.551
 2826SOL    HW2 9378   4.742   1.397   6.601
 2827SOL     OW 9379   6.526   0.739   5.512
 2827SOL    HW1 9380   6.429   0.755   5.497
 2827SOL    HW2 9381   6.580   0.785   5.442
 2828SOL     OW 9382   3.261   1.395   0.135
 2828SOL    HW1 9383   3.277   1.366   0.230
 2828SOL    HW2 9384   3.348   1.423   0.094
 2829SOL     OW 9385   3.534   3.654   5.388
 2829SOL    HW1 9386   3.492   3.617   5.305
 2829SOL    HW2 9387   3.539   3.754   5.380
 2830SOL     OW 9388   1.262   3.022   6.211
 2830SOL    HW1 9389   1.178   3.020   6.155
 2830SOL    HW2 9390   1.297   3.116   6.214
 2831SOL     OW 9391   0.931   5.192   3.164
 2831SOL    HW1 9392   0.883   5.127   3.104
 2831SOL    HW2 9393   0.881   5.201   3.250
 2832SOL     OW 9394   1.270   1.052   2.302
 2832SOL    HW1 9395   1.221   0.978   2.348
 2832SOL    HW2 9396   1.235   1.140   2.334
 2833SOL     OW 9397   4.380   2.180   2.238
 2833SOL    HW1 9398   4.291   2.160   2.280
 2833SOL    HW2 9399   4.370   2.256   2.175
 2834SOL     OW 9400   2.672   5.674   6.217
 2834SOL    HW1 9401   2.640   5.591   6.263
 2834SOL    HW2 9402   2.654   5.753   6.276
 2835SOL     OW 9403   6.819   0.201   1.569
 2835SOL    HW1 9404   6.865   0.126   1.522
 2835SOL    HW2 9405   6.775   0.165   1.652
 2836SOL     OW 9406   5.930   0.470   2.471
 2836SOL    HW1 9407   5.964   0.468   2.565
 2836SOL    HW2 9408   6.004   0.497   2.409
 2837SOL     OW 9409   5.348   4.158   2.954
 2837SOL    HW1 9410   5.281   4.127   3.022
 2837SOL    HW2 9411   5.311   4.142   2.862
 2838SOL     OW 9412   2.095   4.368   1.052
 2838SOL    HW1 9413   2.009   4.387   1.099
 2838SOL    HW2 9414   2.169   4.359   1.119
 2839SOL     OW 9415   6.792   1.798   1.792
 2839SOL    HW1 9416   6.725   1.866   1.764
 2839SOL    HW2 9417   6.748   1.708   1.797
 2840SOL     OW 9418   2.218   1.058   3.137
 2840SOL    HW1 9419   2.314   1.082   3.154
 2840SOL    HW2 9420   2.206   1.039   3.039
 2841SOL     OW 9421   0.727   0.565   5.647
 2841SOL    HW1 9422   0.689   0.480   5.610
 2841SOL    HW2 9423   0.690   0.581   5.738
 2842SOL     OW 9424   6.764   3.702   4.000
 2842SOL    HW1 9425   6.747   3.734   3.906
 2842SOL    HW2 9426   6.684   3.721   4.056
 2843SOL     OW 9427   2.608   1.216   2.649
 2843SOL    HW1 9428   2.533   1.261   2.601
 2843SOL    HW2 9429   2.621   1.124   2.612
 2844SOL     OW 9430   0.404   5.592   0.227
 2844SOL    HW1 9431   0.422   5.674   0.280
 2844SOL    HW2 9432   0.383   5.516   0.288
 2845SOL     OW 9433   6.434   3.042   1.384
 2845SOL    HW1 9434   6.405   3.068   1.476
 2845SOL    HW2 9435   6.354   3.030   1.326
 2846SOL     OW 9436   4.160   0.989   6.150
 2846SOL    HW1 9437   4.214   0.913   6.184
 2846SOL    HW2 9438   4.068   0.985   6.189
 2847SOL     OW 9439   4.883   3.791   4.039
 2847SOL    HW1 9440   4.917   3.840   3.959
 2847SOL    HW2 9441   4.874   3.694   4.016
 2848SOL     OW 9442   1.467   3.073   5.877
 2848SOL    HW1 9443   1.530   3.016   5.824
 2848SOL    HW2 9444   1.520   3.135   5.936
 2849SOL     OW 9445   3.756   6.323   0.722
 2849SOL    HW1 9446   3.694   6.358   0.793
 2849SOL    HW2 9447   3.766   6.224   0.733
 2850SOL     OW 9448   2.358   0.079   2.479
 2850SOL    HW1 9449   2.429   0.112   2.417
 2850SOL    HW2 9450   2.394   0.006   2.536
 2851SOL     OW 9451   6.842   1.390   5.650
 2851SOL    HW1 9452   6.872   1.432   5.564
 2851SOL    HW2 9453   6.888   1.435   5.727
 2852SOL     OW 9454   5.317   5.217   0.185
 2852SOL    HW1 9455   5.407   5.178   0.202
 2852SOL    HW2 9456   5.301   5.294   0.246
 2853SOL     OW 9457   1.782   2.872   6.948
 2853SOL    HW1 9458   1.837   2.950   6.978
 2853SOL    HW2 9459   1.698   2.869   7.002
 2854SOL     OW 9460   3.787   1.025   5.179
 2854SOL    HW1 9461   3.772   0.941   5.127
 2854SOL    HW2 9462   3.705   1.046   5.232
 2855SOL     OW 9463   2.586   1.144   6.818
 2855SOL    HW1 9464   2.577   1.148   6.718
 2855SOL    HW2 9465   2.664   1.200   6.847
 2856SOL     OW 9466   1.502   2.827   6.135
 2856SOL    HW1 9467   1.553   2.852   6.217
 2856SOL    HW2 9468   1.443   2.903   6.108
 2857SOL     OW 9469   3.263   1.369   2.310
 2857SOL    HW1 9470   3.204   1.441   2.347
 2857SOL    HW2 9471   3.358   1.399   2.314
 2858SOL     OW 9472   4.963   4.497   3.030
 2858SOL    HW1 9473   4.872   4.501   3.070
 2858SOL    HW2 9474   5.004   4.407   3.049
 2859SOL     OW 9475   5.072   2.000   0.261
 2859SOL    HW1 9476   5.067   1.926   0.194
 2859SOL    HW2 9477   4.980   2.039   0.275
 2860SOL     OW 9478   3.254   1.845   1.586
 2860SOL    HW1 9479   3.201   1.861   1.669
 2860SOL    HW2 9480   3.338   1.795   1.609
 2861SOL     OW 9481   3.972   3.794   5.931
 2861SOL    HW1 9482   3.957   3.865   5.862
 2861SOL    HW2 9483   4.069   3.787   5.952
 2862SOL     OW 9484   5.333   1.866   3.121
 2862SOL    HW1 9485   5.412   1.928   3.128
 2862SOL    HW2 9486   5.251   1.913   3.152
 2863SOL     OW 9487   5.162   0.966   6.709
 2863SOL    HW1 9488   5.235   0.920   6.660
 2863SOL    HW2 9489   5.199   1.010   6.791
 2864SOL     OW 9490   4.250   1.294   1.436
 2864SOL    HW1 9491   4.175   1.330   1.382
 2864SOL    HW2 9492   4.328   1.357   1.432
 2865SOL     OW 9493   4.908   4.154   6.300
 2865SOL    HW1 9494   4.919   4.065   6.344
 2865SOL    HW2 9495   4.948   4.150   6.208
 2866SOL     OW 9496   6.226   5.661   0.178
 2866SOL    HW1 9497   6.177   5.698   0.099
 2866SOL    HW2 9498   6.251   5.736   0.239
 2867SOL     OW 9499   6.087   3.857   2.729
 2867SOL    HW1 9500   6.176   3.816   2.751
 2867SOL    HW2 9501   6.014   3.797   2.760
 2868SOL     OW 9502   6.829   2.176   5.671
 2868SOL    HW1 9503   6.763   2.114   5.713
 2868SOL    HW2 9504   6.837   2.258   5.727
 2869SOL     OW 9505   6.497   0.660   3.007
 2869SOL    HW1 9506   6.541   0.691   3.091
 2869SOL    HW2 9507   6.543   0.577   2.974
 2870SOL     OW 9508   6.957   1.332   4.690
 2870SOL    HW1 9509   6.959   1.259   4.758
 2870SOL    HW2 9510   6.947   1.291   4.599
 2871SOL     OW 9511   0.518   1.979   0.591
 2871SOL    HW1 9512   0.528   1.920   0.511
 2871SOL    HW2 9513   0.569   2.064   0.577
 2872SOL     OW 9514   2.829   1.368   2.591
 2872SOL    HW1 9515   2.823   1.418   2.505
 2872SOL    HW2 9516   2.751   1.307   2.600
 2873SOL     OW 9517   0.222   4.914   2.781
 2873SOL    HW1 9518   0.225   4.987   2.713
 2873SOL    HW2 9519   0.162   4.941   2.857
 2874SOL     OW 9520   3.201   6.173   3.370
 2874SOL    HW1 9521   3.149   6.170   3.285
 2874SOL    HW2 9522   3.182   6.260   3.417
 2875SOL     OW 9523   4.543   6.797   0.967
 2875SOL    HW1 9524   4.537   6.895   0.983
 2875SOL    HW2 9525   4.507   6.776   0.876
 2876SOL     OW 9526   1.047   0.098   1.871
 2876SOL    HW1 9527   1.136   0.101   1.916
 2876SOL    HW2 9528   1.041   0.017   1.812
 2877SOL     OW 9529   3.139   2.594   5.345
 2877SOL    HW1 9530   3.141   2.501   5.308
 2877SOL    HW2 9531   3.232   2.631   5.345
 2878SOL     OW 9532   4.372   5.212   4.583
 2878SOL    HW1 9533   4.439   5.200   4.656
 2878SOL    HW2 9534   4.294   5.152   4.599
 2879SOL     OW 9535   4.903   4.851   0.853
 2879SOL    HW1 9536   4.822   4.804   0.819
 2879SOL    HW2 9537   4.909   4.839   0.952
 2880SOL     OW 9538   5.604   6.702   1.506
 2880SOL    HW1 9539   5.590   6.609   1.472
 2880SOL    HW2 9540   5.681   6.744   1.458
 2881SOL     OW 9541   5.232   6.078   6.665
 2881SOL    HW1 9542   5.307   6.099   6.602
 2881SOL    HW2 9543   5.169   6.014   6.621
 2882SOL     OW 9544   0.774   4.496   2.687
 2882SOL    HW1 9545   0.860   4.497   2.636
 2882SOL    HW2 9546   0.775   4.567   2.756
 2883SOL     OW 9547   6.119   0.450   3.950
 2883SOL    HW1 9548   6.141   0.373   3.890
 2883SOL    HW2 9549   6.036   0.496   3.918
 2884SOL     OW 9550   0.860   5.715   3.107
 2884SOL    HW1 9551   0.904   5.630   3.135
 2884SOL    HW2 9552   0.906   5.751   3.025
 2885SOL     OW 9553   0.619   3.270   2.189
 2885SOL    HW1 9554   0.535   3.282   2.242
 2885SOL    HW2 9555   0.679   3.348   2.206
 2886SOL     OW 9556   2.626   4.086   5.835
 2886SOL    HW1 9557   2.717   4.121   5.854
 2886SOL    HW2 9558   2.622   4.054   5.740
 2887SOL     OW 9559   0.738   0.697   4.499
 2887SOL    HW1 9560   0.694   0.699   4.409
 2887SOL    HW2 9561   0.828   0.655   4.492
 2888SOL     OW 9562   0.957   4.325   7.009
 2888SOL    HW1 9563   0.996   4.290   6.923
 2888SOL    HW2 9564   1.027   4.328   0.060
 2889SOL     OW 9565   1.793   7.014   2.018
 2889SOL    HW1 9566   1.886   0.013   1.986
 2889SOL    HW2 9567   1.772   0.053   2.096
 2890SOL     OW 9568   2.187   6.751   0.564
 2890SOL    HW1 9569   2.191   6.653   0.585
 2890SOL    HW2 9570   2.280   6.788   0.561
 2891SOL     OW 9571   1.466   4.266   3.261
 2891SOL    HW1 9572   1.529   4.328   3.307
 2891SOL    HW2 9573   1.379   4.312   3.245
 2892SOL     OW 9574   5.713   3.718   6.500
 2892SOL    HW1 9575   5.642   3.696   6.566
 2892SOL    HW2 9576   5.734   3.816   6.505
 2893SOL     OW 9577   0.411   6.220   4.328
 2893SOL    HW1 9578   0.420   6.272   4.412
 2893SOL    HW2 9579   0.322   6.173   4.327
 2894SOL     OW 9580   2.789   2.949   0.809
 2894SOL    HW1 9581   2.854   3.008   0.760
 2894SOL    HW2 9582   2.768   2.869   0.752
 2895SOL     OW 9583   4.568   2.506   5.899
 2895SOL    HW1 9584   4.470   2.519   5.886
 2895SOL    HW2 9585   4.601   2.568   5.971
 2896SOL     OW 9586   3.817   5.487   6.400
 2896SOL    HW1 9587   3.730   5.531   6.422
 2896SOL    HW2 9588   3.841   5.506   6.305
 2897SOL     OW 9589   3.561   4.885   3.574
 2897SOL    HW1 9590   3.529   4.877   3.480
 2897SOL    HW2 9591   3.504   4.950   3.624
 2898SOL     OW 9592   3.671   5.773   4.365
 2898SOL    HW1 9593   3.583   5.762   4.413
 2898SOL    HW2 9594   3.738   5.709   4.403
 2899SOL     OW 9595   0.648   1.731   0.650
 2899SOL    HW1 9596   0.617   1.822   0.622
 2899SOL    HW2 9597   0.602   1.662   0.593
 2900SOL     OW 9598   2.475   4.600   5.187
 2900SOL    HW1 9599   2.408   4.670   5.213
 2900SOL    HW2 9600   2.429   4.512   5.177
 2901SOL     OW 9601   2.085   6.374   3.616
 2901SOL    HW1 9602   2.118   6.415   3.701
 2901SOL    HW2 9603   2.084   6.274   3.626
 2902SOL     OW 9604   4.732   6.572   1.711
 2902SOL    HW1 9605   4.714   6.497   1.647
 2902SOL    HW2 9606   4.655   6.583   1.773
 2903SOL     OW 9607   3.667   1.159   0.554
 2903SOL    HW1 9608   3.765   1.150   0.536
 2903SOL    HW2 9609   3.616   1.114   0.480
 2904SOL     OW 9610   2.252   3.789   5.311
 2904SOL    HW1 9611   2.233   3.714   5.248
 2904SOL    HW2 9612   2.325   3.846   5.273
 2905SOL     OW 9613   1.215   2.338   3.527
 2905SOL    HW1 9614   1.273   2.381   3.595
 2905SOL    HW2 9615   1.119   2.354   3.550
 2906SOL     OW 9616   4.762   5.865   2.639
 2906SOL    HW1 9617   4.795   5.959   2.645
 2906SOL    HW2 9618   4.819   5.814   2.575
 2907SOL     OW 9619   0.573   1.728   3.563
 2907SOL    HW1 9620   0.596   1.810   3.615
 2907SOL    HW2 9621   0.490   1.744   3.510
 2908SOL     OW 9622   4.638   6.539   4.553
 2908SOL    HW1 9623   4.666   6.452   4.512
 2908SOL    HW2 9624   4.614   6.524   4.649
 2909SOL     OW 9625   1.023   6.572   3.396
 2909SOL    HW1 9626   1.089   6.500   3.422
 2909SOL    HW2 9627   1.070   6.642   3.342
 2910SOL     OW 9628   4.558   6.550   4.871
 2910SOL    HW1 9629   4.478   6.572   4.927
 2910SOL    HW2 9630   4.630   6.618   4.886
 2911SOL     OW 9631   1.950   5.430   3.349
 2911SOL    HW1 9632   1.998   5.504   3.301
 2911SOL    HW2 9633   1.893   5.468   3.421
 2912SOL     OW 9634   4.633   0.114   6.645
 2912SOL    HW1 9635   4.539   0.106   6.678
 2912SOL    HW2 9636   4.678   0.192   6.689
 2913SOL     OW 9637   2.451   4.486   3.138
 2913SOL    HW1 9638   2.518   4.557   3.159
 2913SOL    HW2 9639   2.436   4.429   3.219
 2914SOL     OW 9640   6.094   6.300   5.893
 2914SOL    HW1 9641   6.071   6.285   5.989
 2914SOL    HW2 9642   6.164   6.371   5.886
 2915SOL     OW 9643   5.680   1.886   5.104
 2915SOL    HW1 9644   5.600   1.942   5.127
 2915SOL    HW2 9645   5.752   1.944   5.066
 2916SOL     OW 9646   0.050   6.215   6.571
 2916SOL    HW1 9647   0.101   6.284   6.623
 2916SOL    HW2 9648   0.013   6.257   6.488
 2917SOL     OW 9649   3.680   6.363   2.425
 2917SOL    HW1 9650   3.758   6.328   2.477
 2917SOL    HW2 9651   3.699   6.457   2.396
 2918SOL     OW 9652   6.692   4.173   4.010
 2918SOL    HW1 9653   6.753   4.242   3.973
 2918SOL    HW2 9654   6.669   4.195   4.105
 2919SOL     OW 9655   6.662   0.868   1.193
 2919SOL    HW1 9656   6.727   0.937   1.163
 2919SOL    HW2 9657   6.703   0.777   1.183
 2920SOL     OW 9658   2.762   2.100   1.941
 2920SOL    HW1 9659   2.794   2.191   1.966
 2920SOL    HW2 9660   2.794   2.033   2.009
 2921SOL     OW 9661   1.248   0.999   3.261
 2921SOL    HW1 9662   1.278   0.905   3.279
 2921SOL    HW2 9663   1.228   1.044   3.347
 2922SOL     OW 9664   5.026   0.361   0.657
 2922SOL    HW1 9665   4.942   0.398   0.697
 2922SOL    HW2 9666   5.086   0.436   0.632
 2923SOL     OW 9667   6.726   4.897   1.986
 2923SOL    HW1 9668   6.678   4.812   1.965
 2923SOL    HW2 9669   6.660   4.973   1.986
 2924SOL     OW 9670   0.125   2.055   6.742
 2924SOL    HW1 9671   0.156   1.989   6.674
 2924SOL    HW2 9672   0.100   2.008   6.826
 2925SOL     OW 9673   4.415   1.055   2.942
 2925SOL    HW1 9674   4.492   0.993   2.927
 2925SOL    HW2 9675   4.380   1.043   3.035
 2926SOL     OW 9676   6.653   1.228   4.649
 2926SOL    HW1 9677   6.734   1.251   4.596
 2926SOL    HW2 9678   6.571   1.245   4.594
 2927SOL     OW 9679   1.105   2.256   2.657
 2927SOL    HW1 9680   1.073   2.162   2.649
 2927SOL    HW2 9681   1.203   2.256   2.680
 2928SOL     OW 9682   0.204   1.954   6.017
 2928SOL    HW1 9683   0.148   1.875   6.042
 2928SOL    HW2 9684   0.237   1.998   6.101
 2929SOL     OW 9685   0.657   1.260   6.700
 2929SOL    HW1 9686   0.631   1.334   6.762
 2929SOL    HW2 9687   0.603   1.268   6.616
 2930SOL     OW 9688   4.486   6.214   4.929
 2930SOL    HW1 9689   4.567   6.273   4.933
 2930SOL    HW2 9690   4.427   6.244   4.854
 2931SOL     OW 9691   5.470   5.099   0.651
 2931SOL    HW1 9692   5.564   5.090   0.684
 2931SOL    HW2 9693   5.410   5.038   0.704
 2932SOL     OW 9694   0.494   5.307   0.938
 2932SOL    HW1 9695   0.486   5.372   1.014
 2932SOL    HW2 9696   0.479   5.355   0.851
 2933SOL     OW 9697   6.525   4.411   3.673
 2933SOL    HW1 9698   6.566   4.499   3.651
 2933SOL    HW2 9699   6.427   4.414   3.653
 2934SOL     OW 9700   4.764   1.339   0.351
 2934SOL    HW1 9701   4.695   1.411   0.364
 2934SOL    HW2 9702   4.795   1.340   0.256
 2935SOL     OW 9703   6.492   3.110   1.046
 2935SOL    HW1 9704   6.590   3.121   1.027
 2935SOL    HW2 9705   6.444   3.195   1.023
 2936SOL     OW 9706   3.984   5.309   1.939
 2936SOL    HW1 9707   3.890   5.285   1.913
 2936SOL    HW2 9708   3.995   5.408   1.934
 2937SOL     OW 9709   4.236   4.421   0.306
 2937SOL    HW1 9710   4.167   4.490   0.284
 2937SOL    HW2 9711   4.194   4.347   0.359
 2938SOL     OW 9712   4.549   5.059   6.277
 2938SOL    HW1 9713   4.456   5.037   6.248
 2938SOL    HW2 9714   4.580   5.142   6.229
 2939SOL     OW 9715   1.081   0.497   3.897
 2939SOL    HW1 9716   1.128   0.409   3.908
 2939SOL    HW2 9717   1.009   0.504   3.966
 2940SOL     OW 9718   5.752   5.628   6.305
 2940SOL    HW1 9719   5.760   5.728   6.310
 2940SOL    HW2 9720   5.671   5.604   6.252
 2941SOL     OW 9721   2.088   3.194   4.246
 2941SOL    HW1 9722   2.127   3.252   4.174
 2941SOL    HW2 9723   1.989   3.200   4.244
 2942SOL     OW 9724   3.267   2.258   1.317
 2942SOL    HW1 9725   3.341   2.240   1.252
 2942SOL    HW2 9726   3.211   2.175   1.327
 2943SOL     OW 9727   5.392   4.389   3.260
 2943SOL    HW1 9728   5.428   4.437   3.180
 2943SOL    HW2 9729   5.292   4.384   3.253
 2944SOL     OW 9730   2.934   5.563   5.619
 2944SOL    HW1 9731   2.942   5.467   5.592
 2944SOL    HW2 9732   2.842   5.596   5.595
 2945SOL     OW 9733   3.357   3.842   3.439
 2945SOL    HW1 9734   3.270   3.868   3.399
 2945SOL    HW2 9735   3.410   3.925   3.462
 2946SOL     OW 9736   0.899   5.570   6.947
 2946SOL    HW1 9737   0.806   5.591   6.976
 2946SOL    HW2 9738   0.943   5.653   6.914
 2947SOL     OW 9739   0.381   3.551   6.934
 2947SOL    HW1 9740   0.455   3.542   6.868
 2947SOL    HW2 9741   0.371   3.466   6.985
 2948SOL     OW 9742   0.029   4.527   5.599
 2948SOL    HW1 9743   0.100   4.596   5.589
 2948SOL    HW2 9744   0.002   4.494   5.509
 2949SOL     OW 9745   2.724   5.590   0.414
 2949SOL    HW1 9746   2.781   5.573   0.334
 2949SOL    HW2 9747   2.707   5.688   0.423
 2950SOL     OW 9748   4.872   3.772   4.522
 2950SOL    HW1 9749   4.879   3.713   4.441
 2950SOL    HW2 9750   4.841   3.863   4.495
 2951SOL     OW 9751   6.045   1.571   1.026
 2951SOL    HW1 9752   6.076   1.626   1.104
 2951SOL    HW2 9753   6.101   1.592   0.946
 2952SOL     OW 9754   0.819   5.299   5.430
 2952SOL    HW1 9755   0.901   5.346   5.397
 2952SOL    HW2 9756   0.827   5.282   5.528
 2953SOL     OW 9757   5.164   3.380   2.987
 2953SOL    HW1 9758   5.252   3.355   2.946
 2953SOL    HW2 9759   5.147   3.323   3.067
 2954SOL     OW 9760   0.578   5.837   1.828
 2954SOL    HW1 9761   0.585   5.757   1.887
 2954SOL    HW2 9762   0.490   5.838   1.781
 2955SOL     OW 9763   0.569   3.767   1.452
 2955SOL    HW1 9764   0.569   3.853   1.503
 2955SOL    HW2 9765   0.527   3.781   1.362
 2956SOL     OW 9766   6.085   6.489   3.506
 2956SOL    HW1 9767   6.003   6.476   3.450
 2956SOL    HW2 9768   6.059   6.487   3.603
 2957SOL     OW 9769   5.937   2.961   1.839
 2957SOL    HW1 9770   5.870   3.004   1.780
 2957SOL    HW2 9771   5.937   3.006   1.929
 2958SOL     OW 9772   2.436   4.466   4.392
 2958SOL    HW1 9773   2.489   4.435   4.313
 2958SOL    HW2 9774   2.458   4.562   4.410
 2959SOL     OW 9775   4.899   5.111   0.529
 2959SOL    HW1 9776   4.841   5.056   0.468
 2959SOL    HW2 9777   4.989   5.122   0.488
 2960SOL     OW 9778   4.237   6.754   6.063
 2960SOL    HW1 9779   4.293   6.823   6.017
 2960SOL    HW2 9780   4.245   6.765   6.162
 2961SOL     OW 9781   4.684   2.771   3.964
 2961SOL    HW1 9782   4.683   2.711   3.884
 2961SOL    HW2 9783   4.721   2.722   4.043
 2962SOL     OW 9784   4.319   0.705   3.202
 2962SOL    HW1 9785   4.232   0.707   3.152
 2962SOL    HW2 9786   4.360   0.796   3.199
 2963SOL     OW 9787   2.111   1.268   5.741
 2963SOL    HW1 9788   2.033   1.235   5.794
 2963SOL    HW2 9789   2.080   1.337   5.676
 2964SOL     OW 9790   0.139   0.031   2.793
 2964SOL    HW1 9791   0.177   6.958   2.784
 2964SOL    HW2 9792   0.111   0.064   2.703
 2965SOL     OW 9793   6.577   0.767   4.844
 2965SOL    HW1 9794   6.553   0.825   4.921
 2965SOL    HW2 9795   6.640   0.816   4.784
 2966SOL     OW 9796   6.277   5.889   4.436
 2966SOL    HW1 9797   6.346   5.866   4.368
 2966SOL    HW2 9798   6.239   5.805   4.474
 2967SOL     OW 9799   5.951   1.765   4.546
 2967SOL    HW1 9800   5.994   1.691   4.493
 2967SOL    HW2 9801   5.940   1.845   4.488
 2968SOL     OW 9802   0.858   3.084   6.397
 2968SOL    HW1 9803   0.828   3.136   6.477
 2968SOL    HW2 9804   0.896   3.146   6.328
 2969SOL     OW 9805   5.800   0.862   4.687
 2969SOL    HW1 9806   5.750   0.796   4.630
 2969SOL    HW2 9807   5.832   0.816   4.770
 2970SOL     OW 9808   0.853   4.352   5.899
 2970SOL    HW1 9809   0.931   4.299   5.933
 2970SOL    HW2 9810   0.849   4.346   5.799
 2971SOL     OW 9811   5.966   3.667   6.270
 2971SOL    HW1 9812   6.010   3.686   6.182
 2971SOL    HW2 9813   5.992   3.576   6.301
 2972SOL     OW 9814   6.214   4.349   6.463
 2972SOL    HW1 9815   6.198   4.363   6.366
 2972SOL    HW2 9816   6.302   4.302   6.476
 2973SOL     OW 9817   5.463   1.089   4.136
 2973SOL    HW1 9818   5.406   1.020   4.091
 2973SOL    HW2 9819   5.517   1.138   4.067
 2974SOL     OW 9820   0.495   3.896   2.474
 2974SOL    HW1 9821   0.531   3.807   2.446
 2974SOL    HW2 9822   0.556   3.937   2.542
 2975SOL     OW 9823   0.057   2.409   5.246
 2975SOL    HW1 9824   6.993   2.362   5.219
 2975SOL    HW2 9825   0.107   2.353   5.312
 2976SOL     OW 9826   4.115   2.230   3.155
 2976SOL    HW1 9827   4.089   2.142   3.115
 2976SOL    HW2 9828   4.159   2.287   3.085
 2977SOL     OW 9829   1.448   6.785   3.904
 2977SOL    HW1 9830   1.359   6.773   3.947
 2977SOL    HW2 9831   1.512   6.716   3.940
 2978SOL     OW 9832   4.318   4.521   6.796
 2978SOL    HW1 9833   4.219   4.515   6.782
 2978SOL    HW2 9834   4.358   4.582   6.728
 2979SOL     OW 9835   4.688   0.382   4.139
 2979SOL    HW1 9836   4.661   0.358   4.232
 2979SOL    HW2 9837   4.777   0.427   4.141
 2980SOL     OW 9838   1.216   5.908   3.640
 2980SOL    HW1 9839   1.241   5.930   3.734
 2980SOL    HW2 9840   1.141   5.841   3.640
 2981SOL     OW 9841   2.062   1.364   6.080
 2981SOL    HW1 9842   1.963   1.358   6.088
 2981SOL    HW2 9843   2.090   1.337   5.988
 2982SOL     OW 9844   3.700   6.250   3.065
 2982SOL    HW1 9845   3.768   6.176   3.066
 2982SOL    HW2 9846   3.651   6.251   3.153
 2983SOL     OW 9847   0.937   1.451   4.078
 2983SOL    HW1 9848   0.990   1.371   4.049
 2983SOL    HW2 9849   0.840   1.430   4.072
 2984SOL     OW 9850   5.118   5.387   1.856
 2984SOL    HW1 9851   5.056   5.353   1.785
 2984SOL    HW2 9852   5.129   5.318   1.927
 2985SOL     OW 9853   1.285   2.319   5.793
 2985SOL    HW1 9854   1.296   2.233   5.744
 2985SOL    HW2 9855   1.375   2.359   5.810
 2986SOL     OW 9856   1.986   3.894   6.241
 2986SOL    HW1 9857   2.045   3.813   6.249
 2986SOL    HW2 9858   1.998   3.951   6.322
 2987SOL     OW 9859   5.603   1.421   4.127
 2987SOL    HW1 9860   5.680   1.442   4.187
 2987SOL    HW2 9861   5.592   1.493   4.059
 2988SOL     OW 9862   0.444   6.438   2.795
 2988SOL    HW1 9863   0.446   6.401   2.888
 2988SOL    HW2 9864   0.499   6.379   2.735
 2989SOL     OW 9865   6.656   5.825   0.422
 2989SOL    HW1 9866   6.720   5.834   0.498
 2989SOL    HW2 9867   6.698   5.863   0.339
 2990SOL     OW 9868   4.517   1.800   4.640
 2990SOL    HW1 9869   4.588   1.793   4.570
 2990SOL    HW2 9870   4.463   1.716   4.641
 2991SOL     OW 9871   6.313   4.138   6.099
 2991SOL    HW1 9872   6.272   4.229   6.109
 2991SOL    HW2 9873   6.377   4.137   6.023
 2992SOL     OW 9874   2.242   4.957   5.564
 2992SOL    HW1 9875   2.191   5.038   5.592
 2992SOL    HW2 9876   2.328   4.986   5.521
 2993SOL     OW 9877   0.493   5.456   1.210
 2993SOL    HW1 9878   0.547   5.378   1.243
 2993SOL    HW2 9879   0.399   5.427   1.195
 2994SOL     OW 9880   3.687   6.735   0.426
 2994SOL    HW1 9881   3.590   6.747   0.407
 2994SOL    HW2 9882   3.740   6.802   0.374
 2995SOL     OW 9883   1.737   3.523   6.737
 2995SOL    HW1 9884   1.684   3.511   6.653
 2995SOL    HW2 9885   1.809   3.590   6.721
 2996SOL     OW 9886   1.798   0.079   4.342
 2996SOL    HW1 9887   1.802   7.009   4.296
 2996SOL    HW2 9888   1.811   0.152   4.275
 2997SOL     OW 9889   5.290   0.587   2.629
 2997SOL    HW1 9890   5.225   0.662   2.638
 2997SOL    HW2 9891   5.345   0.599   2.546
 2998SOL     OW 9892   5.042   0.290   4.391
 2998SOL    HW1 9893   5.027   0.310   4.294
 2998SOL    HW2 9894   5.119   0.227   4.401
 2999SOL     OW 9895   3.174   4.915   4.180
 2999SOL    HW1 9896   3.245   4.845   4.185
 2999SOL    HW2 9897   3.172   4.967   4.265
 3000SOL     OW 9898   2.178   3.761   6.871
 3000SOL    HW1 9899   2.203   3.670   6.837
 3000SOL    HW2 9900   2.163   3.757   6.970
 3001SOL     OW 9901   6.030   5.543   6.253
 3001SOL    HW1 9902   6.062   5.636   6.234
 3001SOL    HW2 9903   5.931   5.546   6.271
 3002SOL     OW 9904   3.893   0.003   6.027
 3002SOL    HW1 9905   3.870   7.000   5.932
 3002SOL    HW2 9906   3.880   6.942   6.084
 3003SOL     OW 9907   2.234   6.857   6.906
 3003SOL    HW1 9908   2.207   6.917   6.982
 3003SOL    HW2 9909   2.189   6.768   6.916
 3004SOL     OW 9910   1.401   5.085   3.053
 3004SOL    HW1 9911   1.403   4.987   3.073
 3004SOL    HW2 9912   1.487   5.112   3.009
 3005SOL     OW 9913   2.802   2.243   6.836
 3005SOL    HW1 9914   2.810   2.299   6.919
 3005SOL    HW2 9915   2.769   2.299   6.760
 3006SOL     OW 9916   4.770   2.528   6.266
 3006SOL    HW1 9917   4.787   2.609   6.323
 3006SOL    HW2 9918   4.697   2.549   6.201
 3007SOL     OW 9919   5.639   5.301   1.485
 3007SOL    HW1 9920   5.657   5.398   1.496
 3007SOL    HW2 9921   5.633   5.278   1.388
 3008SOL     OW 9922   3.675   0.416   6.409
 3008SOL    HW1 9923   3.640   0.478   6.339
 3008SOL    HW2 9924   3.647   0.449   6.500
 3009SOL     OW 9925   0.669   0.643   2.890
 3009SOL    HW1 9926   0.592   0.592   2.851
 3009SOL    HW2 9927   0.705   0.592   2.968
 3010SOL     OW 9928   3.234   6.238   3.902
 3010SOL    HW1 9929   3.241   6.293   3.819
 3010SOL    HW2 9930   3.158   6.271   3.958
 3011SOL     OW 9931   5.160   1.771   1.092
 3011SOL    HW1 9932   5.194   1.805   1.005
 3011SOL    HW2 9933   5.187   1.676   1.104
 3012SOL     OW 9934   1.336   3.822   5.105
 3012SOL    HW1 9935   1.246   3.780   5.090
 3012SOL    HW2 9936   1.359   3.880   5.028
 3013SOL     OW 9937   5.611   5.795   4.777
 3013SOL    HW1 9938   5.609   5.814   4.679
 3013SOL    HW2 9939   5.675   5.720   4.795
 3014SOL     OW 9940   4.844   3.071   4.789
 3014SOL    HW1 9941   4.795   2.995   4.831
 3014SOL    HW2 9942   4.815   3.080   4.693
 3015SOL     OW 9943   2.467   2.075   0.150
 3015SOL    HW1 9944   2.497   2.084   0.245
 3015SOL    HW2 9945   2.373   2.042   0.147
 3016SOL     OW 9946   2.996   6.050   4.267
 3016SOL    HW1 9947   2.944   6.015   4.189
 3016SOL    HW2 9948   2.982   5.989   4.346
 3017SOL     OW 9949   0.548   5.594   1.955
 3017SOL    HW1 9950   0.472   5.580   2.018
 3017SOL    HW2 9951   0.631   5.553   1.993
 3018SOL     OW 9952   2.184   6.817   5.750
 3018SOL    HW1 9953   2.236   6.793   5.833
 3018SOL    HW2 9954   2.198   6.747   5.681
 3019SOL     OW 9955   1.529   0.194   6.879
 3019SOL    HW1 9956   1.625   0.222   6.885
 3019SOL    HW2 9957   1.479   0.227   6.959
 3020SOL     OW 9958   4.127   3.724   2.206
 3020SOL    HW1 9959   4.107   3.746   2.110
 3020SOL    HW2 9960   4.212   3.673   2.212
 3021SOL     OW 9961   3.386   0.342   0.045
 3021SOL    HW1 9962   3.484   0.349   0.063
 3021SOL    HW2 9963   3.342   0.292   0.119
 3022SOL     OW 9964   4.181   4.840   4.629
 3022SOL    HW1 9965   4.101   4.805   4.580
 3022SOL    HW2 9966   4.265   4.806   4.586
 3023SOL     OW 9967   4.556   0.145   2.734
 3023SOL    HW1 9968   4.519   0.119   2.645
 3023SOL    HW2 9969   4.481   0.172   2.794
 3024SOL     OW 9970   4.288   6.345   5.578
 3024SOL    HW1 9971   4.385   6.319   5.584
 3024SOL    HW2 9972   4.246   6.298   5.501
 3025SOL     OW 9973   3.519   1.462   0.054
 3025SOL    HW1 9974   3.488   1.555   0.031
 3025SOL    HW2 9975   3.609   1.446   0.014
 3026SOL     OW 9976   1.568   1.215   0.801
 3026SOL    HW1 9977   1.606   1.250   0.887
 3026SOL    HW2 9978   1.637   1.161   0.753
 3027SOL     OW 9979   3.910   0.324   2.347
 3027SOL    HW1 9980   3.942   0.376   2.267
 3027SOL    HW2 9981   3.977   0.253   2.369
 3028SOL     OW 9982   1.353   3.893   5.684
 3028SOL    HW1 9983   1.425   3.884   5.615
 3028SOL    HW2 9984   1.319   3.987   5.685
 3029SOL     OW 9985   0.162   3.237   4.751
 3029SOL    HW1 9986   0.092   3.198   4.692
 3029SOL    HW2 9987   0.252   3.215   4.714
 3030SOL     OW 9988   0.836   2.310   6.098
 3030SOL    HW1 9989   0.920   2.258   6.084
 3030SOL    HW2 9990   0.762   2.270   6.044
 3031SOL     OW 9991   0.705   2.810   1.058
 3031SOL    HW1 9992   0.667   2.719   1.039
 3031SOL    HW2 9993   0.645   2.880   1.018
 3032SOL     OW 9994   4.232   6.163   1.874
 3032SOL    HW1 9995   4.313   6.122   1.915
 3032SOL    HW2 9996   4.188   6.097   1.813
 3033SOL     OW 9997   0.017   2.190   2.012
 3033SOL    HW1 9998   6.965   2.130   2.048
 3033SOL    HW2 9999   0.107   2.150   2.028
 3034SOL     OW10000   1.750   5.196   3.422
 3034SOL    HW110001   1.767   5.230   3.515
 3034SOL    HW210002   1.797   5.254   3.356
 3035SOL     OW10003   0.212   3.120   0.446
 3035SOL    HW110004   0.141   3.052   0.462
 3035SOL    HW210005   0.170   3.210   0.433
 3036SOL     OW10006   1.862   2.596   6.918
 3036SOL    HW110007   1.826   2.547   6.839
 3036SOL    HW210008   1.820   2.686   6.923
 3037SOL     OW10009   0.888   5.807   5.073
 3037SOL    HW110010   0.947   5.886   5.059
 3037SOL    HW210011   0.808   5.833   5.126
 3038SOL     OW10012   5.767   5.814   5.905
 3038SOL    HW110013   5.685   5.792   5.852
 3038SOL    HW210014   5.821   5.731   5.920
 3039SOL     OW10015   7.003   4.002   1.256
 3039SOL    HW110016   7.011   3.911   1.295
 3039SOL    HW210017   6.932   4.003   1.186
 3040SOL     OW10018   4.149   3.619   6.136
 3040SOL    HW110019   4.225   3.563   6.169
 3040SOL    HW210020   4.064   3.590   6.181
 3041SOL     OW10021   2.011   2.936   4.726
 3041SOL    HW110022   2.101   2.895   4.740
 3041SOL    HW210023   1.942   2.882   4.774
 3042SOL     OW10024   4.922   6.174   2.237
 3042SOL    HW110025   4.872   6.112   2.177
 3042SOL    HW210026   4.996   6.218   2.187
 3043SOL     OW10027   0.876   5.775   1.813
 3043SOL    HW110028   0.813   5.782   1.736
 3043SOL    HW210029   0.931   5.858   1.819
 3044SOL     OW10030   3.084   3.576   6.123
 3044SOL    HW110031   3.100   3.497   6.182
 3044SOL    HW210032   3.106   3.660   6.173
 3045SOL     OW10033   4.791   1.458   2.839
 3045SOL    HW110034   4.745   1.370   2.847
 3045SOL    HW210035   4.725   1.532   2.848
 3046SOL     OW10036   2.618   1.566   6.678
 3046SOL    HW110037   2.675   1.490   6.648
 3046SOL    HW210038   2.525   1.554   6.644
 3047SOL     OW10039   4.902   0.453   2.298
 3047SOL    HW110040   4.880   0.393   2.221
 3047SOL    HW210041   4.999   0.479   2.294
 3048SOL     OW10042   3.936   2.344   1.713
 3048SOL    HW110043   3.906   2.345   1.618
 3048SOL    HW210044   3.856   2.345   1.773
 3049SOL     OW10045   0.759   6.377   1.527
 3049SOL    HW110046   0.740   6.420   1.616
 3049SOL    HW210047   0.696   6.300   1.514
 3050SOL     OW10048   2.910   0.677   2.288
 3050SOL    HW110049   2.954   0.637   2.208
 3050SOL    HW210050   2.853   0.754   2.259
 3051SOL     OW10051   2.147   3.770   0.171
 3051SOL    HW110052   2.225   3.832   0.179
 3051SOL    HW210053   2.071   3.818   0.126
 3052SOL     OW10054   5.200   6.927   2.384
 3052SOL    HW110055   5.142   6.999   2.424
 3052SOL    HW210056   5.175   6.915   2.288
 3053SOL     OW10057   0.233   1.744   0.035
 3053SOL    HW110058   0.263   1.679   0.105
 3053SOL    HW210059   0.300   1.818   0.026
 3054SOL     OW10060   6.966   2.357   1.796
 3054SOL    HW110061   0.006   2.303   1.736
 3054SOL    HW210062   6.990   2.339   1.892
 3055SOL     OW10063   5.234   6.843   3.884
 3055SOL    HW110064   5.144   6.841   3.927
 3055SOL    HW210065   5.256   6.751   3.849
 3056SOL     OW10066   6.352   1.412   5.460
 3056SOL    HW110067   6.368   1.495   5.514
 3056SOL    HW210068   6.281   1.429   5.392
 3057SOL     OW10069   3.793   6.194   3.699
 3057SOL    HW110070   3.817   6.112   3.648
 3057SOL    HW210071   3.787   6.173   3.796
 3058SOL     OW10072   6.657   5.504   0.615
 3058SOL    HW110073   6.687   5.580   0.673
 3058SOL    HW210074   6.733   5.472   0.559
 3059SOL     OW10075   2.773   2.326   4.578
 3059SOL    HW110076   2.757   2.310   4.481
 3059SOL    HW210077   2.688   2.318   4.628
 3060SOL     OW10078   0.832   5.779   0.226
 3060SOL    HW110079   0.735   5.797   0.242
 3060SOL    HW210080   0.849   5.681   0.232
 3061SOL     OW10081   5.728   0.608   5.410
 3061SOL    HW110082   5.753   0.681   5.473
 3061SOL    HW210083   5.650   0.637   5.354
 3062SOL     OW10084   1.137   6.727   6.650
 3062SOL    HW110085   1.106   6.674   6.728
 3062SOL    HW210086   1.212   6.679   6.604
 3063SOL     OW10087   2.638   5.289   1.531
 3063SOL    HW110088   2.575   5.282   1.608
 3063SOL    HW210089   2.724   5.244   1.556
 3064SOL     OW10090   5.545   3.973   3.501
 3064SOL    HW110091   5.634   3.957   3.458
 3064SOL    HW210092   5.558   4.023   3.587
 3065SOL     OW10093   2.317   0.765   0.295
 3065SOL    HW110094   2.368   0.728   0.218
 3065SOL    HW210095   2.366   0.747   0.380
 3066SOL     OW10096   4.756   5.338   1.072
 3066SOL    HW110097   4.736   5.317   1.167
 3066SOL    HW210098   4.851   5.318   1.051
 3067SOL     OW10099   3.724   2.016   4.750
 3067SOL    HW110100   3.628   1.990   4.735
 3067SOL    HW210101   3.754   1.981   4.839
 3068SOL     OW10102   6.053   6.473   1.606
 3068SOL    HW110103   5.980   6.449   1.542
 3068SOL    HW210104   6.125   6.523   1.557
 3069SOL     OW10105   6.419   6.476   2.056
 3069SOL    HW110106   6.453   6.533   2.132
 3069SOL    HW210107   6.374   6.395   2.093
 3070SOL     OW10108   1.216   1.051   2.039
 3070SOL    HW110109   1.230   1.039   2.137
 3070SOL    HW210110   1.168   1.138   2.023
 3071SOL     OW10111   6.376   5.828   3.125
 3071SOL    HW110112   6.352   5.912   3.077
 3071SOL    HW210113   6.296   5.792   3.172
 3072SOL     OW10114   1.250   0.125   0.024
 3072SOL    HW110115   1.329   0.086   0.071
 3072SOL    HW210116   1.209   0.196   0.082
 3073SOL     OW10117   6.663   2.553   5.009
 3073SOL    HW110118   6.760   2.568   5.026
 3073SOL    HW210119   6.651   2.489   4.934
 3074SOL     OW10120   5.460   3.570   0.708
 3074SOL    HW110121   5.448   3.535   0.801
 3074SOL    HW210122   5.519   3.651   0.711
 3075SOL     OW10123   2.264   5.963   1.672
 3075SOL    HW110124   2.252   6.052   1.716
 3075SOL    HW210125   2.280   5.977   1.574
 3076SOL     OW10126   6.934   1.015   4.349
 3076SOL    HW110127   6.878   0.937   4.376
 3076SOL    HW210128   7.008   0.985   4.289
 3077SOL     OW10129   4.653   5.477   2.599
 3077SOL    HW110130   4.741   5.516   2.627
 3077SOL    HW210131   4.579   5.525   2.645
 3078SOL     OW10132   1.015   3.423   2.043
 3078SOL    HW110133   1.025   3.488   1.968
 3078SOL    HW210134   1.012   3.330   2.006
 3079SOL     OW10135   2.590   1.929   4.463
 3079SOL    HW110136   2.574   1.832   4.441
 3079SOL    HW210137   2.688   1.947   4.466
 3080SOL     OW10138   5.040   3.638   3.245
 3080SOL    HW110139   4.968   3.645   3.175
 3080SOL    HW210140   5.129   3.632   3.200
 3081SOL     OW10141   0.795   2.564   6.176
 3081SOL    HW110142   0.869   2.616   6.219
 3081SOL    HW210143   0.830   2.477   6.142
 3082SOL     OW10144   3.007   0.070   4.123
 3082SOL    HW110145   3.067   0.149   4.105
 3082SOL    HW210146   2.955   0.086   4.207
 3083SOL     OW10147   4.123   6.472   3.217
 3083SOL    HW110148   4.208   6.461   3.165
 3083SOL    HW210149   4.130   6.552   3.276
 3084SOL     OW10150   5.116   4.190   4.502
 3084SOL    HW110151   5.108   4.092   4.523
 3084SOL    HW210152   5.160   4.236   4.578
 3085SOL     OW10153   0.012   4.573   1.472
 3085SOL    HW110154   6.997   4.479   1.468
 3085SOL    HW210155   0.108   4.571   1.500
 3086SOL     OW10156   3.915   2.050   2.058
 3086SOL    HW110157   3.836   2.109   2.047
 3086SOL    HW210158   3.992   2.087   2.007
 3087SOL     OW10159   0.778   5.009   3.942
 3087SOL    HW110160   0.718   5.029   3.864
 3087SOL    HW210161   0.859   4.960   3.909
 3088SOL     OW10162   2.647   4.692   5.872
 3088SOL    HW110163   2.654   4.789   5.898
 3088SOL    HW210164   2.588   4.683   5.792
 3089SOL     OW10165   1.484   3.518   6.973
 3089SOL    HW110166   1.578   3.519   7.006
 3089SOL    HW210167   1.429   3.455   0.009
 3090SOL     OW10168   1.888   1.715   2.159
 3090SOL    HW110169   1.851   1.622   2.155
 3090SOL    HW210170   1.919   1.743   2.068
 3091SOL     OW10171   1.463   0.510   0.868
 3091SOL    HW110172   1.536   0.563   0.911
 3091SOL    HW210173   1.433   0.557   0.785
 3092SOL     OW10174   4.931   6.809   0.703
 3092SOL    HW110175   4.986   6.890   0.727
 3092SOL    HW210176   4.923   6.750   0.783
 3093SOL     OW10177   5.016   6.294   5.820
 3093SOL    HW110178   4.997   6.377   5.872
 3093SOL    HW210179   5.109   6.299   5.783
 3094SOL     OW10180   2.214   6.617   4.153
 3094SOL    HW110181   2.290   6.676   4.125
 3094SOL    HW210182   2.249   6.544   4.211
 3095SOL     OW10183   1.990   5.235   5.121
 3095SOL    HW110184   1.924   5.167   5.087
 3095SOL    HW210185   1.946   5.325   5.125
 3096SOL     OW10186   1.410   6.533   4.759
 3096SOL    HW110187   1.367   6.454   4.717
 3096SOL    HW210188   1.355   6.615   4.741
 3097SOL     OW10189   0.018   2.829   0.810
 3097SOL    HW110190   0.060   2.781   0.886
 3097SOL    HW210191   0.087   2.847   0.739
 3098SOL     OW10192   3.103   3.079   0.999
 3098SOL    HW110193   3.111   3.041   0.907
 3098SOL    HW210194   3.037   3.025   1.052
 3099SOL     OW10195   0.765   6.671   3.319
 3099SOL    HW110196   0.755   6.630   3.228
 3099SOL    HW210197   0.844   6.631   3.365
 3100SOL     OW10198   6.351   6.563   4.816
 3100SOL    HW110199   6.443   6.526   4.812
 3100SOL    HW210200   6.355   6.663   4.805
 3101SOL     OW10201   4.859   6.535   5.937
 3101SOL    HW110202   4.784   6.506   5.877
 3101SOL    HW210203   4.824   6.602   6.003
 3102SOL     OW10204   0.432   4.944   2.396
 3102SOL    HW110205   0.341   4.916   2.364
 3102SOL    HW210206   0.431   4.949   2.496
 3103SOL     OW10207   3.656   0.569   2.068
 3103SOL    HW110208   3.620   0.620   1.990
 3103SOL    HW210209   3.633   0.617   2.152
 3104SOL     OW10210   5.496   6.498   4.958
 3104SOL    HW110211   5.541   6.480   5.045
 3104SOL    HW210212   5.541   6.576   4.913
 3105SOL     OW10213   6.356   4.357   2.036
 3105SOL    HW110214   6.375   4.262   2.064
 3105SOL    HW210215   6.353   4.362   1.936
 3106SOL     OW10216   5.670   1.552   2.648
 3106SOL    HW110217   5.652   1.647   2.671
 3106SOL    HW210218   5.728   1.548   2.566
 3107SOL     OW10219   4.498   0.905   4.342
 3107SOL    HW110220   4.504   0.812   4.377
 3107SOL    HW210221   4.531   0.969   4.411
 3108SOL     OW10222   0.993   0.401   4.493
 3108SOL    HW110223   1.013   0.498   4.475
 3108SOL    HW210224   1.078   0.353   4.515
 3109SOL     OW10225   4.978   6.017   1.871
 3109SOL    HW110226   5.005   5.937   1.817
 3109SOL    HW210227   5.060   6.058   1.911
 3110SOL     OW10228   1.777   1.779   3.971
 3110SOL    HW110229   1.831   1.788   3.887
 3110SOL    HW210230   1.813   1.841   4.041
 3111SOL     OW10231   6.280   6.218   4.022
 3111SOL    HW110232   6.266   6.120   4.014
 3111SOL    HW210233   6.374   6.237   4.050
 3112SOL     OW10234   5.203   2.651   6.202
 3112SOL    HW110235   5.143   2.638   6.123
 3112SOL    HW210236   5.242   2.563   6.229
 3113SOL     OW10237   1.962   6.295   4.166
 3113SOL    HW110238   2.010   6.300   4.078
 3113SOL    HW210239   1.995   6.215   4.217
 3114SOL     OW10240   4.020   2.297   7.012
 3114SOL    HW110241   3.991   2.372   6.952
 3114SOL    HW210242   3.951   2.283   0.064
 3115SOL     OW10243   4.054   3.321   6.395
 3115SOL    HW110244   4.071   3.386   6.470
 3115SOL    HW210245   3.956   3.306   6.386
 3116SOL     OW10246   0.071   3.392   0.257
 3116SOL    HW110247   0.062   3.408   0.356
 3116SOL    HW210248   7.000   3.396   0.214
 3117SOL     OW10249   4.301   3.373   5.232
 3117SOL    HW110250   4.381   3.431   5.217
 3117SOL    HW210251   4.254   3.358   5.145
 3118SOL     OW10252   0.280   4.446   0.535
 3118SOL    HW110253   0.328   4.359   0.545
 3118SOL    HW210254   0.263   4.486   0.625
 3119SOL     OW10255   1.878   3.636   5.465
 3119SOL    HW110256   1.891   3.547   5.422
 3119SOL    HW210257   1.795   3.634   5.521
 3120SOL     OW10258   3.072   6.780   3.868
 3120SOL    HW110259   3.127   6.818   3.794
 3120SOL    HW210260   3.016   6.852   3.909
 3121SOL     OW10261   0.073   1.504   2.863
 3121SOL    HW110262   7.015   1.490   2.801
 3121SOL    HW210263   0.130   1.422   2.865
 3122SOL     OW10264   3.369   6.333   5.986
 3122SOL    HW110265   3.305   6.377   6.049
 3122SOL    HW210266   3.350   6.363   5.893
 3123SOL     OW10267   4.187   1.268   4.194
 3123SOL    HW110268   4.286   1.274   4.212
 3123SOL    HW210269   4.169   1.289   4.098
 3124SOL     OW10270   4.377   6.302   4.696
 3124SOL    HW110271   4.308   6.373   4.682
 3124SOL    HW210272   4.437   6.298   4.616
 3125SOL     OW10273   6.487   2.333   5.037
 3125SOL    HW110274   6.434   2.398   5.091
 3125SOL    HW210275   6.476   2.241   5.075
 3126SOL     OW10276   4.289   4.702   6.308
 3126SOL    HW110277   4.289   4.622   6.248
 3126SOL    HW210278   4.347   4.683   6.387
 3127SOL     OW10279   0.768   3.184   3.679
 3127SOL    HW110280   0.789   3.216   3.587
 3127SOL    HW210281   0.763   3.084   3.680
 3128SOL     OW10282   1.800   0.543   6.514
 3128SOL    HW110283   1.801   0.481   6.435
 3128SOL    HW210284   1.890   0.584   6.526
 3129SOL     OW10285   0.294   4.195   6.607
 3129SOL    HW110286   0.264   4.108   6.568
 3129SOL    HW210287   0.394   4.194   6.616
 3130SOL     OW10288   1.458   4.546   1.735
 3130SOL    HW110289   1.425   4.552   1.829
 3130SOL    HW210290   1.552   4.580   1.731
 3131SOL     OW10291   6.897   2.973   1.793
 3131SOL    HW110292   6.991   2.941   1.787
 3131SOL    HW210293   6.896   3.073   1.791
 3132SOL     OW10294   4.177   5.037   5.828
 3132SOL    HW110295   4.223   4.963   5.877
 3132SOL    HW210296   4.081   5.013   5.814
 3133SOL     OW10297   3.661   2.043   3.898
 3133SOL    HW110298   3.590   2.107   3.927
 3133SOL    HW210299   3.624   1.950   3.899
 3134SOL     OW10300   4.483   4.269   1.450
 3134SOL    HW110301   4.541   4.246   1.528
 3134SOL    HW210302   4.507   4.360   1.417
 3135SOL     OW10303   5.129   0.749   5.429
 3135SOL    HW110304   5.196   0.680   5.403
 3135SOL    HW210305   5.037   0.711   5.420
 3136SOL     OW10306   5.232   0.588   0.270
 3136SOL    HW110307   5.188   0.530   0.201
 3136SOL    HW210308   5.182   0.674   0.279
 3137SOL     OW10309   6.523   0.473   3.521
 3137SOL    HW110310   6.526   0.570   3.543
 3137SOL    HW210311   6.561   0.458   3.429
 3138SOL     OW10312   6.508   2.710   3.944
 3138SOL    HW110313   6.604   2.683   3.944
 3138SOL    HW210314   6.454   2.640   3.898
 3139SOL     OW10315   4.941   0.059   0.281
 3139SOL    HW110316   4.974   0.150   0.306
 3139SOL    HW210317   5.019   7.016   0.274
 3140SOL     OW10318   6.085   6.991   6.814
 3140SOL    HW110319   6.003   0.029   6.820
 3140SOL    HW210320   6.066   6.911   6.757
 3141SOL     OW10321   0.098   5.693   6.235
 3141SOL    HW110322   0.166   5.751   6.280
 3141SOL    HW210323   0.136   5.658   6.149
 3142SOL     OW10324   4.702   6.384   1.512
 3142SOL    HW110325   4.732   6.290   1.528
 3142SOL    HW210326   4.722   6.409   1.417
 3143SOL     OW10327   0.026   1.958   6.975
 3143SOL    HW110328   0.088   1.894   0.000
 3143SOL    HW210329   0.004   2.033   0.018
 3144SOL     OW10330   3.760   3.778   1.046
 3144SOL    HW110331   3.727   3.872   1.062
 3144SOL    HW210332   3.838   3.760   1.106
 3145SOL     OW10333   1.717   5.235   2.237
 3145SOL    HW110334   1.812   5.212   2.216
 3145SOL    HW210335   1.710   5.266   2.332
 3146SOL     OW10336   1.434   6.983   2.702
 3146SOL    HW110337   1.434   0.047   2.647
 3146SOL    HW210338   1.383   7.000   2.787
 3147SOL     OW10339   2.858   5.101   0.266
 3147SOL    HW110340   2.857   5.178   0.202
 3147SOL    HW210341   2.921   5.031   0.233
 3148SOL     OW10342   5.222   5.859   5.061
 3148SOL    HW110343   5.228   5.936   5.125
 3148SOL    HW210344   5.133   5.815   5.071
 3149SOL     OW10345   2.695   0.689   5.200
 3149SOL    HW110346   2.683   0.748   5.280
 3149SOL    HW210347   2.773   0.722   5.146
 3150SOL     OW10348   6.990   6.051   4.444
 3150SOL    HW110349   6.962   6.090   4.356
 3150SOL    HW210350   6.978   6.120   4.516
 3151SOL     OW10351   4.157   1.293   6.368
 3151SOL    HW110352   4.160   1.331   6.460
 3151SOL    HW210353   4.085   1.338   6.315
 3152SOL     OW10354   1.218   5.531   1.012
 3152SOL    HW110355   1.299   5.475   0.991
 3152SOL    HW210356   1.171   5.494   1.091
 3153SOL     OW10357   6.373   4.628   2.203
 3153SOL    HW110358   6.366   4.528   2.192
 3153SOL    HW210359   6.383   4.670   2.113
 3154SOL     OW10360   6.944   1.802   0.493
 3154SOL    HW110361   6.847   1.781   0.486
 3154SOL    HW210362   6.971   1.805   0.590
 3155SOL     OW10363   6.214   4.893   1.366
 3155SOL    HW110364   6.219   4.968   1.432
 3155SOL    HW210365   6.305   4.855   1.350
 3156SOL     OW10366   2.904   3.335   3.815
 3156SOL    HW110367   2.804   3.338   3.815
 3156SOL    HW210368   2.935   3.290   3.732
 3157SOL     OW10369   1.796   2.738   4.824
 3157SOL    HW110370   1.707   2.775   4.849
 3157SOL    HW210371   1.789   2.639   4.810
 3158SOL     OW10372   4.232   6.898   1.986
 3158SOL    HW110373   4.324   6.891   1.947
 3158SOL    HW210374   4.204   6.994   1.989
 3159SOL     OW10375   5.777   1.070   0.455
 3159SOL    HW110376   5.800   0.998   0.390
 3159SOL    HW210377   5.841   1.146   0.444
 3160SOL     OW10378   0.249   6.331   5.237
 3160SOL    HW110379   0.171   6.346   5.298
 3160SOL    HW210380   0.261   6.412   5.179
 3161SOL     OW10381   1.917   1.902   3.752
 3161SOL    HW110382   1.905   1.987   3.701
 3161SOL    HW210383   1.996   1.853   3.718
 3162SOL     OW10384   1.067   6.604   0.641
 3162SOL    HW110385   1.150   6.558   0.611
 3162SOL    HW210386   1.034   6.562   0.725
 3163SOL     OW10387   3.891   2.279   6.643
 3163SOL    HW110388   3.889   2.351   6.712
 3163SOL    HW210389   3.984   2.243   6.634
 3164SOL     OW10390   4.341   4.040   1.454
 3164SOL    HW110391   4.379   4.012   1.542
 3164SOL    HW210392   4.371   4.133   1.433
 3165SOL     OW10393   1.032   5.716   1.329
 3165SOL    HW110394   1.053   5.784   1.259
 3165SOL    HW210395   1.065   5.748   1.418
 3166SOL     OW10396   4.317   0.822   6.312
 3166SOL    HW110397   4.388   0.807   6.243
 3166SOL    HW210398   4.298   0.737   6.360
 3167SOL     OW10399   6.967   4.290   1.502
 3167SOL    HW110400   0.041   4.255   1.508
 3167SOL    HW210401   6.905   4.226   1.548
 3168SOL     OW10402   5.211   2.919   6.929
 3168SOL    HW110403   5.159   2.962   6.855
 3168SOL    HW210404   5.288   2.869   6.891
 3169SOL     OW10405   1.682   3.169   5.169
 3169SOL    HW110406   1.635   3.084   5.145
 3169SOL    HW210407   1.733   3.156   5.255
 3170SOL     OW10408   4.596   1.078   1.104
 3170SOL    HW110409   4.652   0.996   1.117
 3170SOL    HW210410   4.541   1.067   1.022
 3171SOL     OW10411   0.298   6.462   1.334
 3171SOL    HW110412   0.212   6.428   1.372
 3171SOL    HW210413   0.351   6.385   1.298
 3172SOL     OW10414   0.212   5.310   5.886
 3172SOL    HW110415   0.202   5.225   5.937
 3172SOL    HW210416   0.309   5.326   5.867
 3173SOL     OW10417   3.228   1.871   1.031
 3173SOL    HW110418   3.246   1.967   1.009
 3173SOL    HW210419   3.283   1.812   0.972
 3174SOL     OW10420   2.828   2.515   6.233
 3174SOL    HW110421   2.885   2.449   6.284
 3174SOL    HW210422   2.882   2.595   6.210
 3175SOL     OW10423   0.590   6.558   0.486
 3175SOL    HW110424   0.616   6.502   0.408
 3175SOL    HW210425   0.669   6.611   0.516
 3176SOL     OW10426   1.888   5.182   4.791
 3176SOL    HW110427   1.864   5.279   4.790
 3176SOL    HW210428   1.943   5.161   4.710
 3177SOL     OW10429   4.821   4.931   5.121
 3177SOL    HW110430   4.819   4.832   5.108
 3177SOL    HW210431   4.739   4.972   5.082
 3178SOL     OW10432   6.922   2.599   0.769
 3178SOL    HW110433   6.949   2.695   0.773
 3178SOL    HW210434   6.824   2.593   0.748
 3179SOL     OW10435   2.068   2.587   2.204
 3179SOL    HW110436   1.993   2.563   2.266
 3179SOL    HW210437   2.051   2.546   2.114
 3180SOL     OW10438   4.697   0.239   0.194
 3180SOL    HW110439   4.620   0.302   0.190
 3180SOL    HW210440   4.720   0.221   0.290
 3181SOL     OW10441   1.180   1.248   3.154
 3181SOL    HW110442   1.117   1.304   3.208
 3181SOL    HW210443   1.215   1.174   3.210
 3182SOL     OW10444   1.566   1.293   5.494
 3182SOL    HW110445   1.589   1.236   5.573
 3182SOL    HW210446   1.623   1.375   5.495
 3183SOL     OW10447   4.694   4.105   1.337
 3183SOL    HW110448   4.640   4.182   1.371
 3183SOL    HW210449   4.666   4.021   1.384
 3184SOL     OW10450   2.339   2.705   3.045
 3184SOL    HW110451   2.306   2.624   3.094
 3184SOL    HW210452   2.418   2.680   2.989
 3185SOL     OW10453   5.883   0.779   6.501
 3185SOL    HW110454   5.929   0.862   6.472
 3185SOL    HW210455   5.933   0.699   6.467
 3186SOL     OW10456   3.610   1.644   3.248
 3186SOL    HW110457   3.531   1.704   3.241
 3186SOL    HW210458   3.604   1.573   3.177
 3187SOL     OW10459   4.369   4.674   0.520
 3187SOL    HW110460   4.309   4.612   0.470
 3187SOL    HW210461   4.367   4.652   0.617
 3188SOL     OW10462   3.400   6.392   4.395
 3188SOL    HW110463   3.429   6.310   4.346
 3188SOL    HW210464   3.337   6.366   4.469
 3189SOL     OW10465   2.300   0.801   2.424
 3189SOL    HW110466   2.273   0.889   2.385
 3189SOL    HW210467   2.234   0.731   2.396
 3190SOL     OW10468   0.588   6.176   1.489
 3190SOL    HW110469   0.625   6.083   1.489
 3190SOL    HW210470   0.558   6.201   1.581
 3191SOL     OW10471   4.065   6.953   0.757
 3191SOL    HW110472   4.144   7.014   0.757
 3191SOL    HW210473   4.096   6.858   0.758
 3192SOL     OW10474   0.172   2.164   1.400
 3192SOL    HW110475   0.105   2.091   1.412
 3192SOL    HW210476   0.265   2.125   1.403
 3193SOL     OW10477   4.300   1.811   5.922
 3193SOL    HW110478   4.260   1.899   5.899
 3193SOL    HW210479   4.400   1.816   5.910
 3194SOL     OW10480   0.911   2.677   5.877
 3194SOL    HW110481   0.940   2.717   5.964
 3194SOL    HW210482   0.845   2.737   5.833
 3195SOL     OW10483   2.145   2.841   2.536
 3195SOL    HW110484   2.153   2.937   2.511
 3195SOL    HW210485   2.198   2.785   2.473
 3196SOL     OW10486   6.951   0.483   4.962
 3196SOL    HW110487   6.861   0.520   4.987
 3196SOL    HW210488   0.001   0.553   4.978
 3197SOL     OW10489   1.868   5.847   3.563
 3197SOL    HW110490   1.902   5.850   3.657
 3197SOL    HW210491   1.769   5.861   3.563
 3198SOL     OW10492   6.364   2.452   6.134
 3198SOL    HW110493   6.416   2.522   6.182
 3198SOL    HW210494   6.352   2.373   6.195
 3199SOL     OW10495   4.682   2.771   1.843
 3199SOL    HW110496   4.706   2.789   1.747
 3199SOL    HW210497   4.632   2.849   1.879
 3200SOL     OW10498   0.144   1.579   2.000
 3200SOL    HW110499   0.051   1.557   1.970
 3200SOL    HW210500   0.140   1.650   2.071
 3201SOL     OW10501   5.248   4.265   4.734
 3201SOL    HW110502   5.179   4.250   4.805
 3201SOL    HW210503   5.338   4.275   4.777
 3202SOL     OW10504   1.111   4.560   1.753
 3202SOL    HW110505   1.018   4.597   1.745
 3202SOL    HW210506   1.156   4.566   1.664
 3203SOL     OW10507   5.351   1.271   0.904
 3203SOL    HW110508   5.410   1.211   0.959
 3203SOL    HW210509   5.277   1.217   0.864
 3204SOL     OW10510   4.567   5.614   1.931
 3204SOL    HW110511   4.543   5.518   1.917
 3204SOL    HW210512   4.645   5.637   1.872
 3205SOL     OW10513   0.380   4.044   6.354
 3205SOL    HW110514   0.350   3.978   6.422
 3205SOL    HW210515   0.310   4.055   6.284
 3206SOL     OW10516   6.677   6.625   5.811
 3206SOL    HW110517   6.652   6.694   5.742
 3206SOL    HW210518   6.768   6.589   5.791
 3207SOL     OW10519   0.295   1.537   6.493
 3207SOL    HW110520   0.261   1.471   6.427
 3207SOL    HW210521   0.313   1.624   6.447
 3208SOL     OW10522   5.109   6.126   6.030
 3208SOL    HW110523   5.083   6.142   5.934
 3208SOL    HW210524   5.071   6.198   6.087
 3209SOL     OW10525   2.996   5.479   3.738
 3209SOL    HW110526   2.992   5.495   3.639
 3209SOL    HW210527   3.090   5.460   3.765
 3210SOL     OW10528   0.785   4.112   2.075
 3210SOL    HW110529   0.873   4.147   2.106
 3210SOL    HW210530   0.731   4.187   2.037
 3211SOL     OW10531   2.607   3.843   0.992
 3211SOL    HW110532   2.654   3.759   1.018
 3211SOL    HW210533   2.508   3.830   1.003
 3212SOL     OW10534   3.918   1.280   6.647
 3212SOL    HW110535   3.882   1.222   6.574
 3212SOL    HW210536   3.851   1.352   6.668
 3213SOL     OW10537   6.115   5.264   3.019
 3213SOL    HW110538   6.163   5.306   3.096
 3213SOL    HW210539   6.020   5.294   3.019
 3214SOL     OW10540   4.972   5.998   0.325
 3214SOL    HW110541   4.874   6.016   0.334
 3214SOL    HW210542   4.986   5.922   0.261
 3215SOL     OW10543   6.932   3.465   1.326
 3215SOL    HW110544   6.977   3.408   1.395
 3215SOL    HW210545   6.983   3.550   1.314
 3216SOL     OW10546   4.989   5.650   1.841
 3216SOL    HW110547   5.012   5.558   1.810
 3216SOL    HW210548   4.932   5.645   1.923
 3217SOL     OW10549   0.901   5.108   2.446
 3217SOL    HW110550   0.947   5.066   2.368
 3217SOL    HW210551   0.846   5.185   2.416
 3218SOL     OW10552   3.988   6.388   3.656
 3218SOL    HW110553   3.962   6.457   3.589
 3218SOL    HW210554   3.909   6.330   3.676
 3219SOL     OW10555   0.047   1.480   3.278
 3219SOL    HW110556   0.024   1.439   3.366
 3219SOL    HW210557   0.133   1.441   3.246
 3220SOL     OW10558   6.301   5.322   5.867
 3220SOL    HW110559   6.254   5.351   5.951
 3220SOL    HW210560   6.379   5.382   5.850
 3221SOL     OW10561   3.118   6.722   2.165
 3221SOL    HW110562   3.190   6.792   2.161
 3221SOL    HW210563   3.112   6.676   2.076
 3222SOL     OW10564   4.776   1.941   3.456
 3222SOL    HW110565   4.812   1.907   3.370
 3222SOL    HW210566   4.738   1.865   3.509
 3223SOL     OW10567   1.569   5.288   6.453
 3223SOL    HW110568   1.488   5.234   6.429
 3223SOL    HW210569   1.603   5.259   6.543
 3224SOL     OW10570   4.105   4.906   6.233
 3224SOL    HW110571   4.167   4.829   6.252
 3224SOL    HW210572   4.017   4.871   6.201
 3225SOL     OW10573   4.389   2.580   5.589
 3225SOL    HW110574   4.361   2.557   5.682
 3225SOL    HW210575   4.453   2.657   5.591
 3226SOL     OW10576   1.736   1.642   4.610
 3226SOL    HW110577   1.711   1.610   4.519
 3226SOL    HW210578   1.820   1.597   4.639
 3227SOL     OW10579   3.128   2.221   6.342
 3227SOL    HW110580   3.167   2.182   6.426
 3227SOL    HW210581   3.148   2.159   6.265
 3228SOL     OW10582   5.267   3.369   4.212
 3228SOL    HW110583   5.254   3.437   4.140
 3228SOL    HW210584   5.349   3.315   4.194
 3229SOL     OW10585   3.414   1.516   5.838
 3229SOL    HW110586   3.502   1.483   5.871
 3229SOL    HW210587   3.423   1.544   5.742
 3230SOL     OW10588   0.743   2.675   4.078
 3230SOL    HW110589   0.727   2.626   3.993
 3230SOL    HW210590   0.816   2.742   4.065
 3231SOL     OW10591   3.466   6.023   2.358
 3231SOL    HW110592   3.534   6.007   2.286
 3231SOL    HW210593   3.507   6.077   2.431
 3232SOL     OW10594   4.338   5.220   4.097
 3232SOL    HW110595   4.373   5.231   4.190
 3232SOL    HW210596   4.413   5.193   4.036
 3233SOL     OW10597   1.963   3.231   1.011
 3233SOL    HW110598   1.872   3.250   0.974
 3233SOL    HW210599   1.960   3.233   1.111
 3234SOL     OW10600   0.073   2.830   0.434
 3234SOL    HW110601   0.008   2.758   0.412
 3234SOL    HW210602   0.159   2.789   0.465
 3235SOL     OW10603   5.414   5.750   1.864
 3235SOL    HW110604   5.383   5.656   1.853
 3235SOL    HW210605   5.495   5.766   1.807
 3236SOL     OW10606   1.638   3.176   1.772
 3236SOL    HW110607   1.580   3.227   1.708
 3236SOL    HW210608   1.618   3.204   1.865
 3237SOL     OW10609   5.289   1.160   3.559
 3237SOL    HW110610   5.320   1.124   3.648
 3237SOL    HW210611   5.194   1.189   3.566
 3238SOL     OW10612   6.994   4.680   6.748
 3238SOL    HW110613   6.898   4.697   6.729
 3238SOL    HW210614   0.020   4.648   6.664
 3239SOL     OW10615   6.186   1.076   0.345
 3239SOL    HW110616   6.150   1.124   0.424
 3239SOL    HW210617   6.230   1.142   0.283
 3240SOL     OW10618   1.083   6.374   5.064
 3240SOL    HW110619   1.072   6.359   4.966
 3240SOL    HW210620   1.094   6.472   5.082
 3241SOL     OW10621   5.659   1.339   4.580
 3241SOL    HW110622   5.575   1.374   4.539
 3241SOL    HW210623   5.664   1.240   4.566
 3242SOL     OW10624   3.348   4.741   0.911
 3242SOL    HW110625   3.332   4.722   0.814
 3242SOL    HW210626   3.266   4.720   0.964
 3243SOL     OW10627   5.793   5.715   0.696
 3243SOL    HW110628   5.783   5.677   0.788
 3243SOL    HW210629   5.705   5.712   0.649
 3244SOL     OW10630   4.804   5.118   6.696
 3244SOL    HW110631   4.884   5.140   6.753
 3244SOL    HW210632   4.835   5.094   6.604
 3245SOL     OW10633   4.971   2.657   5.702
 3245SOL    HW110634   4.961   2.743   5.651
 3245SOL    HW210635   5.005   2.586   5.641
 3246SOL     OW10636   6.588   0.355   3.299
 3246SOL    HW110637   6.619   0.281   3.239
 3246SOL    HW210638   6.493   0.339   3.325
 3247SOL     OW10639   0.322   5.334   2.756
 3247SOL    HW110640   0.414   5.329   2.793
 3247SOL    HW210641   0.273   5.411   2.797
 3248SOL     OW10642   5.451   3.685   1.589
 3248SOL    HW110643   5.473   3.636   1.504
 3248SOL    HW210644   5.414   3.621   1.656
 3249SOL     OW10645   4.328   4.469   5.691
 3249SOL    HW110646   4.232   4.492   5.705
 3249SOL    HW210647   4.338   4.369   5.688
 3250SOL     OW10648   5.400   0.437   3.273
 3250SOL    HW110649   5.408   0.368   3.346
 3250SOL    HW210650   5.360   0.395   3.192
 3251SOL     OW10651   4.158   0.886   2.350
 3251SOL    HW110652   4.230   0.931   2.404
 3251SOL    HW210653   4.200   0.836   2.275
 3252SOL     OW10654   3.174   1.008   2.145
 3252SOL    HW110655   3.142   0.963   2.228
 3252SOL    HW210656   3.100   1.063   2.106
 3253SOL     OW10657   4.896   3.346   2.574
 3253SOL    HW110658   4.855   3.396   2.650
 3253SOL    HW210659   4.863   3.252   2.573
 3254SOL     OW10660   3.737   5.051   5.006
 3254SOL    HW110661   3.646   5.047   4.963
 3254SOL    HW210662   3.807   5.039   4.936
 3255SOL     OW10663   4.457   5.806   1.401
 3255SOL    HW110664   4.523   5.807   1.326
 3255SOL    HW210665   4.498   5.766   1.482
 3256SOL     OW10666   5.671   0.252   6.752
 3256SOL    HW110667   5.628   0.326   6.805
 3256SOL    HW210668   5.608   0.222   6.680
 3257SOL     OW10669   0.998   1.971   1.173
 3257SOL    HW110670   1.090   1.969   1.133
 3257SOL    HW210671   1.005   1.985   1.272
 3258SOL     OW10672   4.513   5.821   2.560
 3258SOL    HW110673   4.517   5.773   2.473
 3258SOL    HW210674   4.605   5.830   2.598
 3259SOL     OW10675   4.760   5.637   4.503
 3259SOL    HW110676   4.811   5.572   4.561
 3259SOL    HW210677   4.682   5.672   4.554
 3260SOL     OW10678   1.979   2.453   1.474
 3260SOL    HW110679   2.063   2.493   1.511
 3260SOL    HW210680   1.977   2.355   1.494
 3261SOL     OW10681   4.291   6.396   0.363
 3261SOL    HW110682   4.302   6.374   0.266
 3261SOL    HW210683   4.319   6.318   0.418
 3262SOL     OW10684   3.810   1.746   2.782
 3262SOL    HW110685   3.901   1.770   2.747
 3262SOL    HW210686   3.765   1.829   2.814
 3263SOL     OW10687   5.265   0.381   3.993
 3263SOL    HW110688   5.268   0.462   4.051
 3263SOL    HW210689   5.292   0.405   3.900
 3264SOL     OW10690   0.906   4.659   6.803
 3264SOL    HW110691   0.837   4.630   6.737
 3264SOL    HW210692   0.908   4.596   6.880
 3265SOL     OW10693   4.316   2.327   6.077
 3265SOL    HW110694   4.278   2.359   6.164
 3265SOL    HW210695   4.322   2.403   6.013
 3266SOL     OW10696   0.754   2.698   0.511
 3266SOL    HW110697   0.669   2.647   0.496
 3266SOL    HW210698   0.829   2.633   0.529
 3267SOL     OW10699   3.532   2.171   1.112
 3267SOL    HW110700   3.449   2.145   1.063
 3267SOL    HW210701   3.572   2.253   1.070
 3268SOL     OW10702   0.526   3.768   6.710
 3268SOL    HW110703   0.555   3.842   6.771
 3268SOL    HW210704   0.536   3.680   6.758
 3269SOL     OW10705   4.247   4.889   2.025
 3269SOL    HW110706   4.222   4.981   2.054
 3269SOL    HW210707   4.209   4.822   2.089
 3270SOL     OW10708   1.356   5.700   4.865
 3270SOL    HW110709   1.320   5.792   4.880
 3270SOL    HW210710   1.441   5.688   4.915
 3271SOL     OW10711   5.423   3.111   2.607
 3271SOL    HW110712   5.504   3.060   2.634
 3271SOL    HW210713   5.449   3.186   2.546
 3272SOL     OW10714   3.820   5.280   0.706
 3272SOL    HW110715   3.743   5.330   0.667
 3272SOL    HW210716   3.786   5.200   0.755
 3273SOL     OW10717   0.707   6.525   2.220
 3273SOL    HW110718   0.777   6.454   2.225
 3273SOL    HW210719   0.746   6.612   2.248
 3274SOL     OW10720   3.709   2.100   6.833
 3274SOL    HW110721   3.719   2.133   6.927
 3274SOL    HW210722   3.774   2.147   6.774
 3275SOL     OW10723   1.681   0.601   6.864
 3275SOL    HW110724   1.623   0.588   6.784
 3275SOL    HW210725   1.689   0.515   6.914
 3276SOL     OW10726   3.063   4.942   6.324
 3276SOL    HW110727   3.127   5.015   6.347
 3276SOL    HW210728   3.073   4.917   6.228
 3277SOL     OW10729   5.662   0.194   6.197
 3277SOL    HW110730   5.715   0.249   6.261
 3277SOL    HW210731   5.724   0.146   6.135
 3278SOL     OW10732   6.610   0.949   5.827
 3278SOL    HW110733   6.554   0.965   5.746
 3278SOL    HW210734   6.552   0.920   5.903
 3279SOL     OW10735   0.631   0.837   1.176
 3279SOL    HW110736   0.630   0.770   1.101
 3279SOL    HW210737   0.548   0.828   1.230
 3280SOL     OW10738   2.553   5.710   5.993
 3280SOL    HW110739   2.556   5.644   5.918
 3280SOL    HW210740   2.611   5.678   6.068
 3281SOL     OW10741   1.927   5.366   1.023
 3281SOL    HW110742   2.007   5.340   1.078
 3281SOL    HW210743   1.914   5.299   0.950
 3282SOL     OW10744   2.096   5.508   4.552
 3282SOL    HW110745   2.073   5.588   4.498
 3282SOL    HW210746   2.193   5.486   4.539
 3283SOL     OW10747   3.147   1.560   1.936
 3283SOL    HW110748   3.206   1.569   2.016
 3283SOL    HW210749   3.122   1.651   1.903
 3284SOL     OW10750   6.349   7.001   6.327
 3284SOL    HW110751   6.320   0.077   6.326
 3284SOL    HW210752   6.443   6.994   6.294
 3285SOL     OW10753   6.794   2.680   3.456
 3285SOL    HW110754   6.873   2.737   3.434
 3285SOL    HW210755   6.715   2.709   3.402
 3286SOL     OW10756   4.083   3.292   3.979
 3286SOL    HW110757   4.016   3.290   4.053
 3286SOL    HW210758   4.068   3.214   3.918
 3287SOL     OW10759   1.350   5.856   0.509
 3287SOL    HW110760   1.345   5.893   0.602
 3287SOL    HW210761   1.315   5.762   0.510
 3288SOL     OW10762   1.036   5.496   6.618
 3288SOL    HW110763   1.003   5.434   6.689
 3288SOL    HW210764   1.061   5.443   6.537
 3289SOL     OW10765   1.961   6.594   5.700
 3289SOL    HW110766   1.945   6.666   5.767
 3289SOL    HW210767   1.888   6.526   5.706
 3290SOL     OW10768   0.274   6.779   1.936
 3290SOL    HW110769   0.215   6.718   1.882
 3290SOL    HW210770   0.279   6.868   1.892
 3291SOL     OW10771   0.818   6.755   6.634
 3291SOL    HW110772   0.890   6.807   6.680
 3291SOL    HW210773   0.857   6.673   6.592
 3292SOL     OW10774   0.597   1.346   0.255
 3292SOL    HW110775   0.527   1.416   0.269
 3292SOL    HW210776   0.682   1.389   0.224
 3293SOL     OW10777   6.442   2.137   3.160
 3293SOL    HW110778   6.537   2.147   3.132
 3293SOL    HW210779   6.401   2.227   3.173
 3294SOL     OW10780   0.143   0.377   6.102
 3294SOL    HW110781   0.112   0.472   6.092
 3294SOL    HW210782   0.194   0.350   6.020
 3295SOL     OW10783   2.332   2.625   0.936
 3295SOL    HW110784   2.274   2.673   0.870
 3295SOL    HW210785   2.374   2.546   0.893
 3296SOL     OW10786   2.158   6.432   1.033
 3296SOL    HW110787   2.124   6.338   1.041
 3296SOL    HW210788   2.088   6.488   0.988
 3297SOL     OW10789   2.962   1.285   4.385
 3297SOL    HW110790   2.973   1.236   4.299
 3297SOL    HW210791   2.898   1.235   4.443
 3298SOL     OW10792   6.337   2.830   3.109
 3298SOL    HW110793   6.414   2.809   3.169
 3298SOL    HW210794   6.300   2.745   3.070
 3299SOL     OW10795   2.235   6.697   3.689
 3299SOL    HW110796   2.211   6.707   3.592
 3299SOL    HW210797   2.309   6.760   3.712
 3300SOL     OW10798   0.166   0.074   5.871
 3300SOL    HW110799   0.104   0.028   5.936
 3300SOL    HW210800   0.259   0.075   5.908
 3301SOL     OW10801   2.129   4.124   3.423
 3301SOL    HW110802   2.185   4.102   3.343
 3301SOL    HW210803   2.074   4.205   3.404
 3302SOL     OW10804   1.297   5.515   4.612
 3302SOL    HW110805   1.350   5.517   4.696
 3302SOL    HW210806   1.206   5.479   4.630
 3303SOL     OW10807   3.403   2.702   1.862
 3303SOL    HW110808   3.477   2.649   1.823
 3303SOL    HW210809   3.326   2.706   1.798
 3304SOL     OW10810   1.765   4.856   3.131
 3304SOL    HW110811   1.749   4.923   3.203
 3304SOL    HW210812   1.702   4.779   3.142
 3305SOL     OW10813   2.676   2.001   2.721
 3305SOL    HW110814   2.767   2.028   2.692
 3305SOL    HW210815   2.676   1.906   2.752
 3306SOL     OW10816   2.309   4.747   3.857
 3306SOL    HW110817   2.331   4.839   3.826
 3306SOL    HW210818   2.213   4.727   3.838
 3307SOL     OW10819   0.204   5.992   6.632
 3307SOL    HW110820   0.142   6.070   6.634
 3307SOL    HW210821   0.299   6.024   6.629
 3308SOL     OW10822   4.642   6.079   6.534
 3308SOL    HW110823   4.728   6.131   6.539
 3308SOL    HW210824   4.657   5.986   6.568
 3309SOL     OW10825   0.897   5.444   2.623
 3309SOL    HW110826   0.938   5.511   2.685
 3309SOL    HW210827   0.879   5.360   2.674
 3310SOL     OW10828   6.978   3.757   3.262
 3310SOL    HW110829   6.891   3.807   3.265
 3310SOL    HW210830   6.988   3.712   3.173
 3311SOL     OW10831   2.913   5.206   1.177
 3311SOL    HW110832   2.970   5.146   1.121
 3311SOL    HW210833   2.949   5.299   1.172
 3312SOL     OW10834   2.897   3.930   6.394
 3312SOL    HW110835   2.859   4.000   6.333
 3312SOL    HW210836   2.834   3.853   6.399
 3313SOL     OW10837   0.607   5.530   2.643
 3313SOL    HW110838   0.646   5.593   2.575
 3313SOL    HW210839   0.625   5.565   2.735
 3314SOL     OW10840   2.132   2.280   5.266
 3314SOL    HW110841   2.036   2.277   5.240
 3314SOL    HW210842   2.180   2.348   5.210
 3315SOL     OW10843   7.016   2.398   4.103
 3315SOL    HW110844   6.999   2.300   4.090
 3315SOL    HW210845   6.997   2.423   4.198
 3316SOL     OW10846   3.697   1.189   5.455
 3316SOL    HW110847   3.703   1.288   5.470
 3316SOL    HW210848   3.625   1.171   5.388
 3317SOL     OW10849   4.930   2.873   1.926
 3317SOL    HW110850   4.887   2.951   1.973
 3317SOL    HW210851   4.859   2.812   1.891
 3318SOL     OW10852   2.720   0.180   0.283
 3318SOL    HW110853   2.644   0.242   0.301
 3318SOL    HW210854   2.774   0.215   0.206
 3319SOL     OW10855   6.408   6.672   3.466
 3319SOL    HW110856   6.414   6.584   3.512
 3319SOL    HW210857   6.490   6.725   3.485
 3320SOL     OW10858   5.910   1.240   5.827
 3320SOL    HW110859   5.918   1.338   5.843
 3320SOL    HW210860   5.817   1.211   5.850
 3321SOL     OW10861   3.152   2.899   1.764
 3321SOL    HW110862   3.196   2.947   1.688
 3321SOL    HW210863   3.129   2.806   1.735
 3322SOL     OW10864   4.787   2.127   1.653
 3322SOL    HW110865   4.872   2.178   1.641
 3322SOL    HW210866   4.799   2.033   1.622
 3323SOL     OW10867   2.025   4.108   6.432
 3323SOL    HW110868   2.030   4.059   6.520
 3323SOL    HW210869   1.939   4.158   6.428
 3324SOL     OW10870   0.663   3.973   6.849
 3324SOL    HW110871   0.663   4.017   6.939
 3324SOL    HW210872   0.758   3.955   6.821
 3325SOL     OW10873   2.037   3.383   0.022
 3325SOL    HW110874   1.988   3.360   6.957
 3325SOL    HW210875   1.974   3.423   0.087
 3326SOL     OW10876   5.300   1.674   1.707
 3326SOL    HW110877   5.332   1.586   1.674
 3326SOL    HW210878   5.234   1.712   1.643
 3327SOL     OW10879   2.520   6.382   0.722
 3327SOL    HW110880   2.559   6.452   0.662
 3327SOL    HW210881   2.477   6.426   0.801
 3328SOL     OW10882   4.720   1.368   2.558
 3328SOL    HW110883   4.787   1.294   2.570
 3328SOL    HW210884   4.768   1.456   2.552
 3329SOL     OW10885   4.637   0.281   5.250
 3329SOL    HW110886   4.695   0.214   5.205
 3329SOL    HW210887   4.542   0.268   5.221
 3330SOL     OW10888   5.589   6.453   2.390
 3330SOL    HW110889   5.628   6.456   2.482
 3330SOL    HW210890   5.510   6.392   2.389
 3331SOL     OW10891   1.833   3.363   2.442
 3331SOL    HW110892   1.827   3.373   2.542
 3331SOL    HW210893   1.765   3.422   2.399
 3332SOL     OW10894   6.108   4.066   0.255
 3332SOL    HW110895   6.142   3.975   0.279
 3332SOL    HW210896   6.082   4.116   0.338
 3333SOL     OW10897   2.748   3.542   6.823
 3333SOL    HW110898   2.699   3.477   6.764
 3333SOL    HW210899   2.692   3.624   6.837
 3334SOL     OW10900   2.084   3.104   1.956
 3334SOL    HW110901   2.012   3.068   1.897
 3334SOL    HW210902   2.129   3.181   1.910
 3335SOL     OW10903   4.755   5.690   6.004
 3335SOL    HW110904   4.735   5.763   5.939
 3335SOL    HW210905   4.680   5.683   6.071
 3336SOL     OW10906   2.286   0.180   4.138
 3336SOL    HW110907   2.222   0.104   4.129
 3336SOL    HW210908   2.363   0.151   4.195
 3337SOL     OW10909   3.691   3.171   2.253
 3337SOL    HW110910   3.767   3.118   2.215
 3337SOL    HW210911   3.614   3.109   2.272
 3338SOL     OW10912   0.366   2.653   1.663
 3338SOL    HW110913   0.401   2.722   1.727
 3338SOL    HW210914   0.279   2.684   1.625
 3339SOL     OW10915   1.741   0.372   5.975
 3339SOL    HW110916   1.824   0.398   6.023
 3339SOL    HW210917   1.693   0.453   5.943
 3340SOL     OW10918   4.379   0.540   4.084
 3340SOL    HW110919   4.348   0.634   4.096
 3340SOL    HW210920   4.471   0.531   4.122
 3341SOL     OW10921   2.418   4.441   3.641
 3341SOL    HW110922   2.504   4.471   3.682
 3341SOL    HW210923   2.344   4.501   3.673
 3342SOL     OW10924   0.416   0.434   2.584
 3342SOL    HW110925   0.413   0.417   2.486
 3342SOL    HW210926   0.329   0.408   2.625
 3343SOL     OW10927   5.177   5.294   6.177
 3343SOL    HW110928   5.102   5.346   6.135
 3343SOL    HW210929   5.238   5.261   6.105
 3344SOL     OW10930   6.252   2.865   3.424
 3344SOL    HW110931   6.277   2.771   3.401
 3344SOL    HW210932   6.205   2.907   3.347
 3345SOL     OW10933   0.634   3.964   5.950
 3345SOL    HW110934   0.685   3.973   5.865
 3345SOL    HW210935   0.539   3.993   5.935
 3346SOL     OW10936   1.664   1.128   6.872
 3346SOL    HW110937   1.694   1.040   6.910
 3346SOL    HW210938   1.579   1.114   6.821
 3347SOL     OW10939   1.695   2.488   6.720
 3347SOL    HW110940   1.628   2.420   6.752
 3347SOL    HW210941   1.650   2.576   6.707
 3348SOL     OW10942   4.301   3.803   5.351
 3348SOL    HW110943   4.382   3.751   5.324
 3348SOL    HW210944   4.271   3.773   5.442
 3349SOL     OW10945   2.628   4.972   3.682
 3349SOL    HW110946   2.660   5.064   3.705
 3349SOL    HW210947   2.690   4.904   3.722
 3350SOL     OW10948   0.818   2.951   5.844
 3350SOL    HW110949   0.906   2.931   5.799
 3350SOL    HW210950   0.763   3.010   5.785
 3351SOL     OW10951   5.259   1.475   1.408
 3351SOL    HW110952   5.277   1.469   1.310
 3351SOL    HW210953   5.160   1.479   1.424
 3352SOL     OW10954   5.321   2.351   0.713
 3352SOL    HW110955   5.306   2.264   0.667
 3352SOL    HW210956   5.287   2.425   0.654
 3353SOL     OW10957   1.962   6.680   0.197
 3353SOL    HW110958   1.925   6.773   0.197
 3353SOL    HW210959   2.061   6.684   0.214
 3354SOL     OW10960   3.979   2.829   5.251
 3354SOL    HW110961   4.022   2.740   5.236
 3354SOL    HW210962   3.907   2.821   5.320
 3355SOL     OW10963   2.108   1.667   5.901
 3355SOL    HW110964   2.069   1.594   5.957
 3355SOL    HW210965   2.045   1.745   5.900
 3356SOL     OW10966   0.541   6.585   6.528
 3356SOL    HW110967   0.554   6.560   6.433
 3356SOL    HW210968   0.627   6.576   6.578
 3357SOL     OW10969   3.363   3.206   1.805
 3357SOL    HW110970   3.374   3.212   1.904
 3357SOL    HW210971   3.429   3.141   1.768
 3358SOL     OW10972   5.561   1.230   3.392
 3358SOL    HW110973   5.478   1.194   3.349
 3358SOL    HW210974   5.542   1.251   3.488
 3359SOL     OW10975   0.304   5.310   3.292
 3359SOL    HW110976   0.271   5.228   3.245
 3359SOL    HW210977   0.356   5.283   3.373
 3360SOL     OW10978   0.643   2.329   6.343
 3360SOL    HW110979   0.692   2.387   6.278
 3360SOL    HW210980   0.553   2.369   6.361
 3361SOL     OW10981   0.892   0.536   4.070
 3361SOL    HW110982   0.812   0.484   4.099
 3361SOL    HW210983   0.911   0.608   4.137
 3362SOL     OW10984   3.812   1.515   2.984
 3362SOL    HW110985   3.781   1.565   2.903
 3362SOL    HW210986   3.908   1.488   2.972
 3363SOL     OW10987   6.753   3.644   1.741
 3363SOL    HW110988   6.678   3.579   1.755
 3363SOL    HW210989   6.756   3.673   1.645
 3364SOL     OW10990   1.895   4.710   2.726
 3364SOL    HW110991   1.949   4.667   2.654
 3364SOL    HW210992   1.909   4.660   2.812
 3365SOL     OW10993   1.250   2.591   4.402
 3365SOL    HW110994   1.220   2.686   4.403
 3365SOL    HW210995   1.345   2.585   4.430
 3366SOL     OW10996   6.568   3.960   3.867
 3366SOL    HW110997   6.601   4.048   3.902
 3366SOL    HW210998   6.521   3.910   3.940
 3367SOL     OW10999   3.575   3.272   3.504
 3367SOL    HW111000   3.548   3.181   3.474
 3367SOL    HW211001   3.640   3.265   3.580
 3368SOL     OW11002   0.569   5.749   6.405
 3368SOL    HW111003   0.601   5.712   6.492
 3368SOL    HW211004   0.647   5.776   6.349
 3369SOL     OW11005   4.507   1.746   1.713
 3369SOL    HW111006   4.408   1.737   1.722
 3369SOL    HW211007   4.528   1.810   1.639
 3370SOL     OW11008   5.770   6.553   1.734
 3370SOL    HW111009   5.852   6.598   1.769
 3370SOL    HW211010   5.733   6.605   1.657
 3371SOL     OW11011   2.137   3.683   1.804
 3371SOL    HW111012   2.213   3.623   1.831
 3371SOL    HW211013   2.084   3.707   1.885
 3372SOL     OW11014   6.940   2.476   0.145
 3372SOL    HW111015   6.861   2.526   0.110
 3372SOL    HW211016   7.013   2.476   0.077
 3373SOL     OW11017   0.564   2.099   3.124
 3373SOL    HW111018   0.520   2.186   3.146
 3373SOL    HW211019   0.510   2.052   3.054
 3374SOL     OW11020   1.377   0.421   3.819
 3374SOL    HW111021   1.315   0.382   3.888
 3374SOL    HW211022   1.347   0.394   3.728
 3375SOL     OW11023   6.620   4.641   0.469
 3375SOL    HW111024   6.664   4.595   0.546
 3375SOL    HW211025   6.549   4.582   0.431
 3376SOL     OW11026   3.007   3.452   5.003
 3376SOL    HW111027   2.986   3.407   4.916
 3376SOL    HW211028   3.102   3.433   5.028
 3377SOL     OW11029   6.533   4.545   4.445
 3377SOL    HW111030   6.556   4.496   4.361
 3377SOL    HW211031   6.583   4.505   4.522
 3378SOL     OW11032   0.549   0.130   0.031
 3378SOL    HW111033   0.590   0.078   6.975
 3378SOL    HW211034   0.562   0.228   0.016
 3379SOL     OW11035   0.923   2.988   4.711
 3379SOL    HW111036   0.948   2.893   4.695
 3379SOL    HW211037   0.972   3.022   4.792
 3380SOL     OW11038   4.118   5.541   5.406
 3380SOL    HW111039   4.089   5.449   5.429
 3380SOL    HW211040   4.094   5.561   5.311
 3381SOL     OW11041   6.848   3.180   1.507
 3381SOL    HW111042   6.780   3.125   1.459
 3381SOL    HW211043   6.940   3.153   1.478
 3382SOL     OW11044   0.243   2.989   0.995
 3382SOL    HW111045   0.277   3.082   0.975
 3382SOL    HW211046   0.235   2.938   0.910
 3383SOL     OW11047   3.616   5.450   0.624
 3383SOL    HW111048   3.540   5.482   0.681
 3383SOL    HW211049   3.589   5.449   0.528
 3384SOL     OW11050   2.925   4.761   0.777
 3384SOL    HW111051   2.892   4.668   0.764
 3384SOL    HW211052   2.937   4.778   0.875
 3385SOL     OW11053   6.498   3.270   3.962
 3385SOL    HW111054   6.487   3.231   3.870
 3385SOL    HW211055   6.549   3.206   4.019
 3386SOL     OW11056   6.261   4.714   0.054
 3386SOL    HW111057   6.182   4.660   0.024
 3386SOL    HW211058   6.246   4.745   0.148
 3387SOL     OW11059   5.261   0.270   3.125
 3387SOL    HW111060   5.190   0.242   3.189
 3387SOL    HW211061   5.221   0.322   3.050
 3388SOL     OW11062   5.137   4.277   2.376
 3388SOL    HW111063   5.234   4.259   2.357
 3388SOL    HW211064   5.124   4.374   2.392
 3389SOL     OW11065   6.604   5.416   6.571
 3389SOL    HW111066   6.519   5.368   6.591
 3389SOL    HW211067   6.587   5.514   6.565
 3390SOL     OW11068   4.389   6.424   6.535
 3390SOL    HW111069   4.382   6.511   6.584
 3390SOL    HW211070   4.399   6.350   6.600
 3391SOL     OW11071   5.200   2.252   3.157
 3391SOL    HW111072   5.245   2.228   3.072
 3391SOL    HW211073   5.176   2.169   3.207
 3392SOL     OW11074   3.265   6.946   4.075
 3392SOL    HW111075   3.192   6.904   4.023
 3392SOL    HW211076   3.344   6.962   4.016
 3393SOL     OW11077   5.573   6.905   0.206
 3393SOL    HW111078   5.524   6.986   0.240
 3393SOL    HW211079   5.617   6.859   0.284
 3394SOL     OW11080   4.132   4.732   0.690
 3394SOL    HW111081   4.159   4.638   0.672
 3394SOL    HW211082   4.034   4.736   0.707
 3395SOL     OW11083   4.803   1.613   3.214
 3395SOL    HW111084   4.785   1.520   3.183
 3395SOL    HW211085   4.815   1.673   3.135
 3396SOL     OW11086   5.327   1.519   4.149
 3396SOL    HW111087   5.318   1.567   4.062
 3396SOL    HW211088   5.418   1.478   4.156
 3397SOL     OW11089   3.062   5.515   6.183
 3397SOL    HW111090   3.021   5.469   6.262
 3397SOL    HW211091   3.000   5.506   6.104
 3398SOL     OW11092   0.720   0.029   5.365
 3398SOL    HW111093   0.642   0.009   5.424
 3398SOL    HW211094   0.790   0.078   5.417
 3399SOL     OW11095   6.606   5.043   2.988
 3399SOL    HW111096   6.588   4.991   3.071
 3399SOL    HW211097   6.521   5.057   2.937
 3400SOL     OW11098   6.416   3.440   6.822
 3400SOL    HW111099   6.390   3.412   6.730
 3400SOL    HW211100   6.494   3.385   6.853
 3401SOL     OW11101   6.380   3.480   6.010
 3401SOL    HW111102   6.363   3.504   5.914
 3401SOL    HW211103   6.306   3.420   6.043
 3402SOL     OW11104   6.201   5.408   0.568
 3402SOL    HW111105   6.278   5.443   0.622
 3402SOL    HW211106   6.130   5.374   0.630
 3403SOL     OW11107   5.343   5.419   6.355
 3403SOL    HW111108   5.345   5.369   6.441
 3403SOL    HW211109   5.280   5.375   6.292
 3404SOL     OW11110   4.914   3.048   6.936
 3404SOL    HW111111   4.954   3.098   6.860
 3404SOL    HW211112   4.951   3.083   0.003
 3405SOL     OW11113   5.446   4.863   6.022
 3405SOL    HW111114   5.429   4.801   6.098
 3405SOL    HW211115   5.515   4.930   6.048
 3406SOL     OW11116   2.119   3.410   2.458
 3406SOL    HW111117   2.157   3.483   2.515
 3406SOL    HW211118   2.019   3.411   2.465
 3407SOL     OW11119   2.970   4.537   0.382
 3407SOL    HW111120   2.961   4.442   0.412
 3407SOL    HW211121   2.886   4.587   0.407
 3408SOL     OW11122   4.438   2.441   4.722
 3408SOL    HW111123   4.419   2.378   4.797
 3408SOL    HW211124   4.357   2.449   4.664
 3409SOL     OW11125   3.398   6.123   0.459
 3409SOL    HW111126   3.333   6.140   0.534
 3409SOL    HW211127   3.424   6.026   0.460
 3410SOL     OW11128   5.745   6.249   2.892
 3410SOL    HW111129   5.687   6.315   2.938
 3410SOL    HW211130   5.695   6.163   2.881
 3411SOL     OW11131   6.942   2.853   0.139
 3411SOL    HW111132   0.003   2.904   0.167
 3411SOL    HW211133   6.967   2.787   0.068
 3412SOL     OW11134   5.018   3.647   1.323
 3412SOL    HW111135   5.024   3.566   1.381
 3412SOL    HW211136   5.045   3.728   1.375
 3413SOL     OW11137   6.291   2.311   6.913
 3413SOL    HW111138   6.331   2.353   6.994
 3413SOL    HW211139   6.203   2.354   6.892
 3414SOL     OW11140   3.685   1.967   5.665
 3414SOL    HW111141   3.598   2.008   5.638
 3414SOL    HW211142   3.668   1.901   5.739
 3415SOL     OW11143   2.515   2.389   4.082
 3415SOL    HW111144   2.529   2.291   4.073
 3415SOL    HW211145   2.495   2.428   3.992
 3416SOL     OW11146   5.900   0.131   6.705
 3416SOL    HW111147   5.956   0.191   6.648
 3416SOL    HW211148   5.811   0.173   6.720
 3417SOL     OW11149   0.078   6.742   2.720
 3417SOL    HW111150   0.048   6.668   2.660
 3417SOL    HW211151   0.135   6.806   2.669
 3418SOL     OW11152   3.577   5.962   3.643
 3418SOL    HW111153   3.630   5.954   3.559
 3418SOL    HW211154   3.480   5.971   3.621
 3419SOL     OW11155   3.857   5.498   6.124
 3419SOL    HW111156   3.782   5.492   6.058
 3419SOL    HW211157   3.929   5.433   6.098
 3420SOL     OW11158   5.550   2.990   4.210
 3420SOL    HW111159   5.620   2.919   4.201
 3420SOL    HW211160   5.519   2.994   4.305
 3421SOL     OW11161   5.743   1.806   2.917
 3421SOL    HW111162   5.679   1.851   2.979
 3421SOL    HW211163   5.720   1.830   2.823
 3422SOL     OW11164   2.710   0.706   0.432
 3422SOL    HW111165   2.750   0.614   0.437
 3422SOL    HW211166   2.624   0.707   0.483
 3423SOL     OW11167   0.355   4.080   5.874
 3423SOL    HW111168   0.380   4.151   5.939
 3423SOL    HW211169   0.256   4.066   5.875
 3424SOL     OW11170   3.405   0.377   1.331
 3424SOL    HW111171   3.451   0.365   1.243
 3424SOL    HW211172   3.308   0.354   1.322
 3425SOL     OW11173   4.526   4.888   1.940
 3425SOL    HW111174   4.556   4.835   2.020
 3425SOL    HW211175   4.428   4.906   1.946
 3426SOL     OW11176   4.951   3.045   0.463
 3426SOL    HW111177   4.932   3.117   0.529
 3426SOL    HW211178   4.944   3.082   0.370
 3427SOL     OW11179   0.691   2.075   1.783
 3427SOL    HW111180   0.652   2.031   1.702
 3427SOL    HW211181   0.693   2.174   1.769
 3428SOL     OW11182   4.404   4.654   6.566
 3428SOL    HW111183   4.453   4.741   6.567
 3428SOL    HW211184   4.469   4.578   6.561
 3429SOL     OW11185   0.619   1.175   1.168
 3429SOL    HW111186   0.532   1.128   1.153
 3429SOL    HW211187   0.670   1.181   1.083
 3430SOL     OW11188   2.182   5.194   5.900
 3430SOL    HW111189   2.165   5.111   5.953
 3430SOL    HW211190   2.154   5.180   5.805
 3431SOL     OW11191   2.067   6.546   2.314
 3431SOL    HW111192   2.165   6.556   2.296
 3431SOL    HW211193   2.015   6.602   2.250
 3432SOL     OW11194   2.406   4.707   6.657
 3432SOL    HW111195   2.334   4.643   6.686
 3432SOL    HW211196   2.466   4.662   6.591
 3433SOL     OW11197   1.801   1.296   6.130
 3433SOL    HW111198   1.777   1.235   6.205
 3433SOL    HW211199   1.718   1.328   6.085
 3434SOL     OW11200   3.103   1.828   1.824
 3434SOL    HW111201   3.003   1.827   1.822
 3434SOL    HW211202   3.134   1.903   1.882
 3435SOL     OW11203   2.831   1.049   0.027
 3435SOL    HW111204   2.783   1.129   0.064
 3435SOL    HW211205   2.894   1.014   0.096
 3436SOL     OW11206   3.723   5.653   0.012
 3436SOL    HW111207   3.746   5.605   0.096
 3436SOL    HW211208   3.729   5.752   0.028
 3437SOL     OW11209   1.867   6.862   5.741
 3437SOL    HW111210   1.966   6.879   5.747
 3437SOL    HW211211   1.824   6.893   5.826
 3438SOL     OW11212   0.360   4.191   1.148
 3438SOL    HW111213   0.438   4.129   1.144
 3438SOL    HW211214   0.291   4.154   1.211
 3439SOL     OW11215   3.150   5.890   3.658
 3439SOL    HW111216   3.053   5.865   3.649
 3439SOL    HW211217   3.169   5.917   3.752
 3440SOL     OW11218   4.065   3.357   3.035
 3440SOL    HW111219   4.041   3.301   2.956
 3440SOL    HW211220   4.096   3.447   3.004
 3441SOL     OW11221   0.776   6.307   6.899
 3441SOL    HW111222   0.715   6.237   6.861
 3441SOL    HW211223   0.851   6.262   6.948
 3442SOL     OW11224   2.961   3.733   0.682
 3442SOL    HW111225   3.005   3.670   0.747
 3442SOL    HW211226   2.923   3.680   0.606
 3443SOL     OW11227   3.710   5.627   2.337
 3443SOL    HW111228   3.654   5.649   2.417
 3443SOL    HW211229   3.680   5.540   2.298
 3444SOL     OW11230   5.008   4.829   1.936
 3444SOL    HW111231   4.984   4.894   1.864
 3444SOL    HW211232   4.973   4.738   1.913
 3445SOL     OW11233   0.382   5.272   3.822
 3445SOL    HW111234   0.424   5.318   3.900
 3445SOL    HW211235   0.344   5.340   3.760
 3446SOL     OW11236   5.821   0.405   1.138
 3446SOL    HW111237   5.828   0.503   1.116
 3446SOL    HW211238   5.736   0.369   1.101
 3447SOL     OW11239   5.144   0.731   6.853
 3447SOL    HW111240   5.138   0.815   6.800
 3447SOL    HW211241   5.085   0.738   6.934
 3448SOL     OW11242   2.782   6.355   6.077
 3448SOL    HW111243   2.819   6.428   6.134
 3448SOL    HW211244   2.856   6.294   6.048
 3449SOL     OW11245   5.987   5.183   5.121
 3449SOL    HW111246   5.976   5.187   5.220
 3449SOL    HW211247   5.920   5.119   5.083
 3450SOL     OW11248   1.500   1.143   6.588
 3450SOL    HW111249   1.513   1.086   6.507
 3450SOL    HW211250   1.430   1.102   6.646
 3451SOL     OW11251   1.580   5.818   0.357
 3451SOL    HW111252   1.550   5.762   0.279
 3451SOL    HW211253   1.502   5.839   0.415
 3452SOL     OW11254   5.967   0.821   5.793
 3452SOL    HW111255   5.885   0.763   5.791
 3452SOL    HW211256   5.962   0.882   5.873
 3453SOL     OW11257   5.495   5.955   6.247
 3453SOL    HW111258   5.444   6.023   6.300
 3453SOL    HW211259   5.432   5.887   6.210
 3454SOL     OW11260   1.409   3.459   4.171
 3454SOL    HW111261   1.311   3.481   4.174
 3454SOL    HW211262   1.440   3.433   4.262
 3455SOL     OW11263   2.609   1.617   4.910
 3455SOL    HW111264   2.588   1.544   4.845
 3455SOL    HW211265   2.698   1.602   4.951
 3456SOL     OW11266   4.466   4.547   2.062
 3456SOL    HW111267   4.481   4.449   2.053
 3456SOL    HW211268   4.396   4.577   1.997
 3457SOL     OW11269   4.115   5.327   4.801
 3457SOL    HW111270   4.094   5.236   4.766
 3457SOL    HW211271   4.178   5.319   4.879
 3458SOL     OW11272   4.623   1.805   1.958
 3458SOL    HW111273   4.609   1.802   1.859
 3458SOL    HW211274   4.563   1.873   1.999
 3459SOL     OW11275   5.164   1.946   3.609
 3459SOL    HW111276   5.112   1.861   3.616
 3459SOL    HW211277   5.102   2.022   3.592
 3460SOL     OW11278   3.031   1.889   5.746
 3460SOL    HW111279   3.052   1.987   5.739
 3460SOL    HW211280   3.101   1.844   5.802
 3461SOL     OW11281   6.096   4.517   6.913
 3461SOL    HW111282   6.135   4.519   6.821
 3461SOL    HW211283   6.010   4.567   6.914
 3462SOL     OW11284   1.071   3.611   5.727
 3462SOL    HW111285   1.127   3.675   5.779
 3462SOL    HW211286   1.071   3.522   5.772
 3463SOL     OW11287   0.768   4.147   0.895
 3463SOL    HW111288   0.858   4.160   0.937
 3463SOL    HW211289   0.719   4.234   0.894
 3464SOL     OW11290   0.284   4.382   6.369
 3464SOL    HW111291   0.326   4.338   6.290
 3464SOL    HW211292   0.306   4.330   6.452
 3465SOL     OW11293   2.246   1.577   1.906
 3465SOL    HW111294   2.255   1.514   1.829
 3465SOL    HW211295   2.323   1.641   1.907
 3466SOL     OW11296   6.737   5.554   6.238
 3466SOL    HW111297   6.663   5.491   6.212
 3466SOL    HW211298   6.700   5.624   6.300
 3467SOL     OW11299   1.731   1.714   0.067
 3467SOL    HW111300   1.760   1.629   0.111
 3467SOL    HW211301   1.641   1.741   0.101
 3468SOL     OW11302   3.384   5.326   3.021
 3468SOL    HW111303   3.330   5.243   3.012
 3468SOL    HW211304   3.342   5.400   2.969
 3469SOL     OW11305   6.262   2.165   3.969
 3469SOL    HW111306   6.225   2.095   3.909
 3469SOL    HW211307   6.287   2.246   3.915
 3470SOL     OW11308   0.385   5.055   0.845
 3470SOL    HW111309   0.436   4.978   0.881
 3470SOL    HW211310   0.412   5.139   0.892
 3471SOL     OW11311   4.551   5.282   5.266
 3471SOL    HW111312   4.587   5.301   5.356
 3471SOL    HW211313   4.466   5.230   5.274
 3472SOL     OW11314   2.691   0.818   3.714
 3472SOL    HW111315   2.783   0.847   3.686
 3472SOL    HW211316   2.626   0.890   3.691
 3473SOL     OW11317   5.699   1.682   6.112
 3473SOL    HW111318   5.600   1.697   6.118
 3473SOL    HW211319   5.728   1.691   6.017
 3474SOL     OW11320   2.966   5.037   1.431
 3474SOL    HW111321   3.007   5.086   1.508
 3474SOL    HW211322   2.970   5.094   1.349
 3475SOL     OW11323   1.019   6.371   4.072
 3475SOL    HW111324   0.960   6.298   4.106
 3475SOL    HW211325   1.093   6.387   4.137
 3476SOL     OW11326   3.500   0.231   4.291
 3476SOL    HW111327   3.456   0.304   4.343
 3476SOL    HW211328   3.586   0.206   4.336
 3477SOL     OW11329   3.063   5.482   1.466
 3477SOL    HW111330   3.097   5.573   1.491
 3477SOL    HW211331   2.967   5.490   1.438
 3478SOL     OW11332   2.551   6.355   5.913
 3478SOL    HW111333   2.565   6.420   5.839
 3478SOL    HW211334   2.607   6.381   5.992
 3479SOL     OW11335   0.787   6.907   2.960
 3479SOL    HW111336   0.791   6.856   3.046
 3479SOL    HW211337   0.879   6.929   2.930
 3480SOL     OW11338   6.808   1.511   4.162
 3480SOL    HW111339   6.712   1.529   4.141
 3480SOL    HW211340   6.846   1.450   4.091
 3481SOL     OW11341   4.426   6.708   6.602
 3481SOL    HW111342   4.474   6.755   6.527
 3481SOL    HW211343   4.347   6.763   6.630
 3482SOL     OW11344   5.536   1.551   1.081
 3482SOL    HW111345   5.524   1.516   0.989
 3482SOL    HW211346   5.541   1.651   1.078
 3483SOL     OW11347   3.190   0.630   0.814
 3483SOL    HW111348   3.133   0.553   0.785
 3483SOL    HW211349   3.281   0.597   0.838
 3484SOL     OW11350   3.062   3.409   2.904
 3484SOL    HW111351   3.033   3.504   2.889
 3484SOL    HW211352   3.054   3.359   2.818
 3485SOL     OW11353   1.418   0.839   5.136
 3485SOL    HW111354   1.367   0.813   5.218
 3485SOL    HW211355   1.448   0.934   5.143
 3486SOL     OW11356   3.855   1.331   2.023
 3486SOL    HW111357   3.786   1.262   2.003
 3486SOL    HW211358   3.822   1.392   2.095
 3487SOL     OW11359   5.319   1.658   6.753
 3487SOL    HW111360   5.333   1.623   6.845
 3487SOL    HW211361   5.405   1.653   6.701
 3488SOL     OW11362   5.841   3.310   4.276
 3488SOL    HW111363   5.781   3.330   4.353
 3488SOL    HW211364   5.885   3.222   4.290
 3489SOL     OW11365   3.489   6.525   0.513
 3489SOL    HW111366   3.475   6.618   0.480
 3489SOL    HW211367   3.563   6.524   0.580
 3490SOL     OW11368   4.557   4.720   0.324
 3490SOL    HW111369   4.504   4.706   0.407
 3490SOL    HW211370   4.538   4.811   0.287
 3491SOL     OW11371   6.899   2.842   6.068
 3491SOL    HW111372   6.818   2.885   6.029
 3491SOL    HW211373   6.872   2.767   6.129
 3492SOL     OW11374   0.867   5.483   0.349
 3492SOL    HW111375   0.839   5.393   0.382
 3492SOL    HW211376   0.917   5.474   0.263
 3493SOL     OW11377   5.762   5.162   0.333
 3493SOL    HW111378   5.825   5.125   0.265
 3493SOL    HW211379   5.771   5.262   0.336
 3494SOL     OW11380   4.336   7.000   0.513
 3494SOL    HW111381   4.337   0.051   0.442
 3494SOL    HW211382   4.318   0.023   0.601
 3495SOL     OW11383   4.454   4.555   2.770
 3495SOL    HW111384   4.481   4.636   2.718
 3495SOL    HW211385   4.479   4.473   2.718
 3496SOL     OW11386   0.958   3.205   1.104
 3496SOL    HW111387   0.925   3.297   1.086
 3496SOL    HW211388   0.882   3.148   1.136
 3497SOL     OW11389   4.109   0.444   2.774
 3497SOL    HW111390   4.062   0.401   2.852
 3497SOL    HW211391   4.042   0.468   2.704
 3498SOL     OW11392   3.372   1.762   0.852
 3498SOL    HW111393   3.314   1.707   0.792
 3498SOL    HW211394   3.399   1.845   0.804
 3499SOL     OW11395   6.695   3.375   4.680
 3499SOL    HW111396   6.638   3.320   4.741
 3499SOL    HW211397   6.647   3.458   4.654
 3500SOL     OW11398   6.569   4.584   6.213
 3500SOL    HW111399   6.611   4.661   6.164
 3500SOL    HW211400   6.640   4.527   6.254
 3501SOL     OW11401   0.055   4.787   4.709
 3501SOL    HW111402   6.997   4.848   4.689
 3501SOL    HW211403   0.140   4.838   4.704
 3502SOL     OW11404   0.486   1.976   1.965
 3502SOL    HW111405   0.490   1.876   1.957
 3502SOL    HW211406   0.567   2.016   1.922
 3503SOL     OW11407   4.932   5.727   5.060
 3503SOL    HW111408   4.841   5.769   5.066
 3503SOL    HW211409   4.939   5.654   5.128
 3504SOL     OW11410   2.840   3.216   1.170
 3504SOL    HW111411   2.806   3.257   1.085
 3504SOL    HW211412   2.770   3.223   1.241
 3505SOL     OW11413   5.284   5.471   5.028
 3505SOL    HW111414   5.376   5.509   5.019
 3505SOL    HW211415   5.226   5.507   4.954
 3506SOL     OW11416   4.063   5.848   4.992
 3506SOL    HW111417   4.092   5.770   4.936
 3506SOL    HW211418   4.140   5.878   5.049
 3507SOL     OW11419   1.680   0.781   6.611
 3507SOL    HW111420   1.696   0.688   6.579
 3507SOL    HW211421   1.721   0.846   6.547
 3508SOL     OW11422   4.495   2.471   6.557
 3508SOL    HW111423   4.510   2.376   6.586
 3508SOL    HW211424   4.567   2.529   6.596
 3509SOL     OW11425   5.742   6.088   6.795
 3509SOL    HW111426   5.775   6.083   6.889
 3509SOL    HW211427   5.786   6.017   6.740
 3510SOL     OW11428   1.798   2.458   2.240
 3510SOL    HW111429   1.713   2.453   2.188
 3510SOL    HW211430   1.831   2.365   2.260
 3511SOL     OW11431   1.617   3.303   6.806
 3511SOL    HW111432   1.682   3.378   6.799
 3511SOL    HW211433   1.525   3.334   6.781
 3512SOL     OW11434   1.120   4.287   0.196
 3512SOL    HW111435   1.060   4.318   0.270
 3512SOL    HW211436   1.147   4.192   0.212
 3513SOL     OW11437   6.200   4.493   0.535
 3513SOL    HW111438   6.221   4.584   0.570
 3513SOL    HW211439   6.102   4.478   0.539
 3514SOL     OW11440   0.432   6.982   1.706
 3514SOL    HW111441   0.513   6.996   1.650
 3514SOL    HW211442   0.377   0.047   1.707
 3515SOL     OW11443   3.293   5.792   2.741
 3515SOL    HW111444   3.232   5.871   2.733
 3515SOL    HW211445   3.303   5.749   2.651
 3516SOL     OW11446   3.564   0.834   0.839
 3516SOL    HW111447   3.624   0.757   0.819
 3516SOL    HW211448   3.573   0.860   0.935
 3517SOL     OW11449   0.576   0.909   0.300
 3517SOL    HW111450   0.623   0.822   0.284
 3517SOL    HW211451   0.510   0.924   0.226
 3518SOL     OW11452   5.216   3.837   5.945
 3518SOL    HW111453   5.212   3.754   5.888
 3518SOL    HW211454   5.151   3.828   6.021
 3519SOL     OW11455   1.138   0.189   6.602
 3519SOL    HW111456   1.167   0.118   6.537
 3519SOL    HW211457   1.091   0.146   6.679
 3520SOL     OW11458   3.636   4.461   1.464
 3520SOL    HW111459   3.636   4.561   1.460
 3520SOL    HW211460   3.602   4.432   1.553
 3521SOL     OW11461   5.458   3.106   1.308
 3521SOL    HW111462   5.421   3.126   1.217
 3521SOL    HW211463   5.541   3.160   1.322
 3522SOL     OW11464   3.213   5.252   2.022
 3522SOL    HW111465   3.204   5.207   1.933
 3522SOL    HW211466   3.268   5.335   2.012
 3523SOL     OW11467   3.162   4.583   5.305
 3523SOL    HW111468   3.099   4.511   5.277
 3523SOL    HW211469   3.167   4.653   5.233
 3524SOL     OW11470   2.626   0.888   0.894
 3524SOL    HW111471   2.527   0.883   0.910
 3524SOL    HW211472   2.647   0.972   0.844
 3525SOL     OW11473   0.467   3.275   1.963
 3525SOL    HW111474   0.526   3.255   2.041
 3525SOL    HW211475   0.520   3.270   1.879
 3526SOL     OW11476   1.395   0.705   3.799
 3526SOL    HW111477   1.373   0.608   3.789
 3526SOL    HW211478   1.343   0.759   3.732
 3527SOL     OW11479   4.888   2.955   6.074
 3527SOL    HW111480   4.921   2.906   5.994
 3527SOL    HW211481   4.961   3.014   6.109
 3528SOL     OW11482   0.897   6.060   3.034
 3528SOL    HW111483   0.897   6.079   3.132
 3528SOL    HW211484   0.826   6.115   2.990
 3529SOL     OW11485   3.951   6.609   5.612
 3529SOL    HW111486   3.968   6.510   5.604
 3529SOL    HW211487   3.994   6.657   5.536
 3530SOL     OW11488   2.698   5.903   2.823
 3530SOL    HW111489   2.600   5.890   2.836
 3530SOL    HW211490   2.713   5.966   2.746
 3531SOL     OW11491   5.662   3.843   0.313
 3531SOL    HW111492   5.753   3.801   0.312
 3531SOL    HW211493   5.671   3.942   0.321
 3532SOL     OW11494   2.514   0.677   0.116
 3532SOL    HW111495   2.603   0.720   0.128
 3532SOL    HW211496   2.488   0.679   0.020
 3533SOL     OW11497   1.162   2.064   3.481
 3533SOL    HW111498   1.189   2.146   3.530
 3533SOL    HW211499   1.196   2.068   3.387
 3534SOL     OW11500   5.810   1.803   5.320
 3534SOL    HW111501   5.810   1.874   5.390
 3534SOL    HW211502   5.799   1.845   5.230
 3535SOL     OW11503   6.767   6.009   0.177
 3535SOL    HW111504   6.818   5.926   0.155
 3535SOL    HW211505   6.746   6.059   0.093
 3536SOL     OW11506   1.510   3.372   3.244
 3536SOL    HW111507   1.420   3.370   3.200
 3536SOL    HW211508   1.509   3.438   3.319
 3537SOL     OW11509   2.568   4.763   1.160
 3537SOL    HW111510   2.632   4.837   1.180
 3537SOL    HW211511   2.601   4.711   1.081
 3538SOL     OW11512   3.556   0.875   3.946
 3538SOL    HW111513   3.651   0.842   3.938
 3538SOL    HW211514   3.554   0.958   4.001
 3539SOL     OW11515   6.163   3.404   5.183
 3539SOL    HW111516   6.238   3.348   5.217
 3539SOL    HW211517   6.154   3.391   5.084
 3540SOL     OW11518   1.912   3.322   6.809
 3540SOL    HW111519   1.904   3.232   6.767
 3540SOL    HW211520   1.843   3.383   6.771
 3541SOL     OW11521   2.622   2.663   0.161
 3541SOL    HW111522   2.528   2.679   0.189
 3541SOL    HW211523   2.680   2.736   0.197
 3542SOL     OW11524   5.686   2.332   0.325
 3542SOL    HW111525   5.697   2.332   0.425
 3542SOL    HW211526   5.763   2.380   0.283
 3543SOL     OW11527   1.275   3.535   3.118
 3543SOL    HW111528   1.280   3.563   3.214
 3543SOL    HW211529   1.263   3.616   3.060
 3544SOL     OW11530   3.087   4.559   6.992
 3544SOL    HW111531   2.998   4.524   6.963
 3544SOL    HW211532   3.159   4.507   6.947
 3545SOL     OW11533   3.888   5.038   0.513
 3545SOL    HW111534   3.790   5.056   0.503
 3545SOL    HW211535   3.906   4.942   0.493
 3546SOL     OW11536   6.717   4.555   3.221
 3546SOL    HW111537   6.782   4.531   3.148
 3546SOL    HW211538   6.624   4.543   3.187
 3547SOL     OW11539   6.864   2.780   4.385
 3547SOL    HW111540   6.780   2.793   4.438
 3547SOL    HW211541   6.843   2.738   4.297
 3548SOL     OW11542   4.966   1.458   5.838
 3548SOL    HW111543   4.954   1.481   5.741
 3548SOL    HW211544   4.879   1.466   5.885
 3549SOL     OW11545   2.218   5.323   6.537
 3549SOL    HW111546   2.214   5.316   6.636
 3549SOL    HW211547   2.236   5.417   6.510
 3550SOL     OW11548   5.392   2.364   4.978
 3550SOL    HW111549   5.403   2.271   4.943
 3550SOL    HW211550   5.298   2.377   5.010
 3551SOL     OW11551   3.317   1.498   5.100
 3551SOL    HW111552   3.290   1.403   5.088
 3551SOL    HW211553   3.249   1.546   5.155
 3552SOL     OW11554   6.374   5.514   1.985
 3552SOL    HW111555   6.328   5.425   1.989
 3552SOL    HW211556   6.471   5.502   2.009
 3553SOL     OW11557   2.931   5.803   6.293
 3553SOL    HW111558   2.883   5.878   6.339
 3553SOL    HW211559   2.865   5.736   6.260
 3554SOL     OW11560   3.608   3.758   0.826
 3554SOL    HW111561   3.663   3.763   0.909
 3554SOL    HW211562   3.646   3.819   0.757
 3555SOL     OW11563   2.084   2.470   4.576
 3555SOL    HW111564   2.020   2.513   4.513
 3555SOL    HW211565   2.131   2.394   4.530
 3556SOL     OW11566   3.819   0.949   4.761
 3556SOL    HW111567   3.906   0.993   4.741
 3556SOL    HW211568   3.834   0.871   4.821
 3557SOL     OW11569   0.659   0.377   2.673
 3557SOL    HW111570   0.562   0.360   2.660
 3557SOL    HW211571   0.682   0.467   2.636
 3558SOL     OW11572   2.425   6.004   0.813
 3558SOL    HW111573   2.384   5.966   0.896
 3558SOL    HW211574   2.382   5.961   0.733
 3559SOL     OW11575   2.850   6.794   4.960
 3559SOL    HW111576   2.809   6.765   5.046
 3559SOL    HW211577   2.796   6.759   4.884
 3560SOL     OW11578   1.731   4.888   4.381
 3560SOL    HW111579   1.711   4.972   4.432
 3560SOL    HW211580   1.671   4.815   4.413
 3561SOL     OW11581   5.905   4.202   5.623
 3561SOL    HW111582   5.851   4.260   5.563
 3561SOL    HW211583   5.845   4.136   5.668
 3562SOL     OW11584   3.485   1.544   4.175
 3562SOL    HW111585   3.539   1.483   4.118
 3562SOL    HW211586   3.418   1.491   4.226
 3563SOL     OW11587   6.019   2.540   6.235
 3563SOL    HW111588   6.035   2.442   6.246
 3563SOL    HW211589   6.088   2.591   6.285
 3564SOL     OW11590   0.462   4.999   2.668
 3564SOL    HW111591   0.498   5.086   2.703
 3564SOL    HW211592   0.389   4.966   2.728
 3565SOL     OW11593   3.722   4.934   2.826
 3565SOL    HW111594   3.759   4.938   2.919
 3565SOL    HW211595   3.798   4.924   2.761
 3566SOL     OW11596   6.857   0.831   5.557
 3566SOL    HW111597   6.853   0.766   5.482
 3566SOL    HW211598   6.767   0.837   5.600
 3567SOL     OW11599   0.375   3.080   6.224
 3567SOL    HW111600   0.457   3.061   6.171
 3567SOL    HW211601   0.348   2.998   6.275
 3568SOL     OW11602   6.938   4.007   5.722
 3568SOL    HW111603   6.857   4.064   5.711
 3568SOL    HW211604   6.911   3.915   5.750
 3569SOL     OW11605   2.132   1.759   5.416
 3569SOL    HW111606   2.126   1.663   5.442
 3569SOL    HW211607   2.086   1.773   5.329
 3570SOL     OW11608   5.001   0.108   5.767
 3570SOL    HW111609   5.070   0.084   5.699
 3570SOL    HW211610   4.932   0.036   5.773
 3571SOL     OW11611   0.313   5.723   0.008
 3571SOL    HW111612   0.223   5.689   7.004
 3571SOL    HW211613   0.347   5.675   0.089
 3572SOL     OW11614   5.695   3.942   4.112
 3572SOL    HW111615   5.756   3.986   4.045
 3572SOL    HW211616   5.749   3.885   4.173
 3573SOL     OW11617   0.929   4.178   4.102
 3573SOL    HW111618   1.024   4.207   4.116
 3573SOL    HW211619   0.874   4.207   4.180
 3574SOL     OW11620   0.749   4.799   0.121
 3574SOL    HW111621   0.822   4.821   0.186
 3574SOL    HW211622   0.783   4.733   0.055
 3575SOL     OW11623   5.294   5.247   3.446
 3575SOL    HW111624   5.271   5.252   3.543
 3575SOL    HW211625   5.375   5.190   3.434
 3576SOL     OW11626   1.597   1.708   5.837
 3576SOL    HW111627   1.611   1.780   5.769
 3576SOL    HW211628   1.519   1.652   5.811
 3577SOL     OW11629   1.261   2.593   6.631
 3577SOL    HW111630   1.325   2.653   6.584
 3577SOL    HW211631   1.308   2.544   6.704
 3578SOL     OW11632   3.616   3.363   6.877
 3578SOL    HW111633   3.599   3.450   6.923
 3578SOL    HW211634   3.670   3.380   6.794
 3579SOL     OW11635   0.158   3.680   4.448
 3579SOL    HW111636   0.062   3.671   4.421
 3579SOL    HW211637   0.189   3.594   4.489
 3580SOL     OW11638   6.133   1.652   1.266
 3580SOL    HW111639   6.058   1.595   1.300
 3580SOL    HW211640   6.218   1.600   1.268
 3581SOL     OW11641   6.413   0.639   3.827
 3581SOL    HW111642   6.473   0.585   3.885
 3581SOL    HW211643   6.326   0.655   3.874
 3582SOL     OW11644   0.618   2.840   6.575
 3582SOL    HW111645   0.632   2.871   6.481
 3582SOL    HW211646   0.706   2.824   6.619
 3583SOL     OW11647   0.572   4.106   6.589
 3583SOL    HW111648   0.577   4.051   6.505
 3583SOL    HW211649   0.555   4.046   6.667
 3584SOL     OW11650   6.348   5.851   6.309
 3584SOL    HW111651   6.364   5.874   6.405
 3584SOL    HW211652   6.273   5.907   6.274
 3585SOL     OW11653   3.390   5.232   5.664
 3585SOL    HW111654   3.323   5.307   5.663
 3585SOL    HW211655   3.482   5.270   5.662
 3586SOL     OW11656   6.716   2.409   5.544
 3586SOL    HW111657   6.628   2.445   5.576
 3586SOL    HW211658   6.779   2.485   5.527
 3587SOL     OW11659   2.439   5.580   0.354
 3587SOL    HW111660   2.533   5.550   0.369
 3587SOL    HW211661   2.417   5.575   0.256
 3588SOL     OW11662   0.994   2.901   5.639
 3588SOL    HW111663   0.951   2.820   5.600
 3588SOL    HW211664   1.087   2.879   5.669
 3589SOL     OW11665   4.050   0.827   4.198
 3589SOL    HW111666   3.985   0.755   4.223
 3589SOL    HW211667   4.033   0.908   4.253
 3590SOL     OW11668   0.006   4.353   6.374
 3590SOL    HW111669   0.099   4.377   6.346
 3590SOL    HW211670   0.010   4.276   6.438
 3591SOL     OW11671   4.843   3.734   6.571
 3591SOL    HW111672   4.794   3.764   6.654
 3591SOL    HW211673   4.937   3.712   6.595
 3592SOL     OW11674   5.626   3.604   3.363
 3592SOL    HW111675   5.609   3.656   3.279
 3592SOL    HW211676   5.554   3.624   3.429
 3593SOL     OW11677   2.253   6.463   4.384
 3593SOL    HW111678   2.212   6.417   4.463
 3593SOL    HW211679   2.307   6.541   4.414
 3594SOL     OW11680   3.909   0.851   2.256
 3594SOL    HW111681   3.888   0.792   2.178
 3594SOL    HW211682   4.008   0.866   2.260
 3595SOL     OW11683   2.013   6.222   6.087
 3595SOL    HW111684   2.059   6.198   6.002
 3595SOL    HW211685   1.945   6.152   6.109
 3596SOL     OW11686   6.914   1.738   2.929
 3596SOL    HW111687   6.988   1.671   2.923
 3596SOL    HW211688   6.826   1.693   2.922
 3597SOL     OW11689   2.799   6.452   5.116
 3597SOL    HW111690   2.872   6.434   5.183
 3597SOL    HW211691   2.754   6.538   5.138
 3598SOL     OW11692   1.370   0.545   5.717
 3598SOL    HW111693   1.468   0.543   5.736
 3598SOL    HW211694   1.320   0.505   5.794
 3599SOL     OW11695   0.688   1.784   5.552
 3599SOL    HW111696   0.751   1.710   5.575
 3599SOL    HW211697   0.664   1.779   5.455
 3600SOL     OW11698   6.871   3.614   0.944
 3600SOL    HW111699   6.958   3.567   0.959
 3600SOL    HW211700   6.842   3.658   1.028
 3601SOL     OW11701   6.508   4.148   0.580
 3601SOL    HW111702   6.524   4.165   0.482
 3601SOL    HW211703   6.471   4.055   0.592
 3602SOL     OW11704   1.867   1.331   1.324
 3602SOL    HW111705   1.896   1.406   1.265
 3602SOL    HW211706   1.933   1.320   1.398
 3603SOL     OW11707   3.584   6.499   3.790
 3603SOL    HW111708   3.570   6.465   3.697
 3603SOL    HW211709   3.560   6.596   3.794
 3604SOL     OW11710   6.571   4.482   3.928
 3604SOL    HW111711   6.656   4.531   3.908
 3604SOL    HW211712   6.545   4.429   3.847
 3605SOL     OW11713   6.030   4.711   6.055
 3605SOL    HW111714   5.992   4.727   5.964
 3605SOL    HW211715   5.970   4.651   6.107
 3606SOL     OW11716   6.421   4.982   5.504
 3606SOL    HW111717   6.520   4.975   5.499
 3606SOL    HW211718   6.393   5.078   5.494
 3607SOL     OW11719   5.177   6.514   0.824
 3607SOL    HW111720   5.267   6.551   0.847
 3607SOL    HW211721   5.184   6.415   0.814
 3608SOL     OW11722   6.802   1.800   2.070
 3608SOL    HW111723   6.769   1.806   1.976
 3608SOL    HW211724   6.852   1.714   2.082
 3609SOL     OW11725   0.240   0.377   4.327
 3609SOL    HW111726   0.322   0.320   4.319
 3609SOL    HW211727   0.239   0.423   4.415
 3610SOL     OW11728   0.644   0.375   5.365
 3610SOL    HW111729   0.731   0.345   5.403
 3610SOL    HW211730   0.577   0.384   5.439
 3611SOL     OW11731   3.815   4.826   5.586
 3611SOL    HW111732   3.743   4.801   5.522
 3611SOL    HW211733   3.902   4.835   5.537
 3612SOL     OW11734   6.632   6.820   5.614
 3612SOL    HW111735   6.682   6.893   5.661
 3612SOL    HW211736   6.598   6.855   5.527
 3613SOL     OW11737   5.579   5.141   1.253
 3613SOL    HW111738   5.486   5.110   1.268
 3613SOL    HW211739   5.591   5.167   1.157
 3614SOL     OW11740   3.844   3.499   3.724
 3614SOL    HW111741   3.876   3.512   3.630
 3614SOL    HW211742   3.804   3.584   3.758
 3615SOL     OW11743   6.055   6.288   6.154
 3615SOL    HW111744   6.134   6.307   6.211
 3615SOL    HW211745   5.983   6.355   6.172
 3616SOL     OW11746   6.944   1.487   6.272
 3616SOL    HW111747   6.912   1.399   6.307
 3616SOL    HW211748   6.979   1.542   6.348
 3617SOL     OW11749   5.280   1.315   6.595
 3617SOL    HW111750   5.215   1.284   6.525
 3617SOL    HW211751   5.336   1.389   6.558
 3618SOL     OW11752   1.557   1.903   5.670
 3618SOL    HW111753   1.581   1.988   5.716
 3618SOL    HW211754   1.600   1.899   5.580
 3619SOL     OW11755   5.797   2.517   3.852
 3619SOL    HW111756   5.781   2.537   3.755
 3619SOL    HW211757   5.737   2.573   3.908
 3620SOL     OW11758   5.915   5.292   5.614
 3620SOL    HW111759   5.856   5.215   5.590
 3620SOL    HW211760   5.990   5.260   5.671
 3621SOL     OW11761   2.768   1.881   5.789
 3621SOL    HW111762   2.732   1.966   5.750
 3621SOL    HW211763   2.868   1.881   5.784
 3622SOL     OW11764   2.806   2.019   3.169
 3622SOL    HW111765   2.855   1.992   3.252
 3622SOL    HW211766   2.836   1.962   3.093
 3623SOL     OW11767   5.864   6.103   3.977
 3623SOL    HW111768   5.889   6.098   4.074
 3623SOL    HW211769   5.914   6.033   3.926
 3624SOL     OW11770   2.083   6.970   2.410
 3624SOL    HW111771   2.182   6.981   2.422
 3624SOL    HW211772   2.038   6.976   2.499
 3625SOL     OW11773   6.114   3.245   6.968
 3625SOL    HW111774   6.140   3.158   6.927
 3625SOL    HW211775   6.093   3.311   6.895
 3626SOL     OW11776   1.619   3.939   5.259
 3626SOL    HW111777   1.589   4.005   5.189
 3626SOL    HW211778   1.673   3.867   5.216
 3627SOL     OW11779   3.934   3.163   3.531
 3627SOL    HW111780   3.959   3.253   3.567
 3627SOL    HW211781   3.957   3.158   3.434
 3628SOL     OW11782   1.683   6.931   1.437
 3628SOL    HW111783   1.747   6.995   1.481
 3628SOL    HW211784   1.684   6.948   1.338
 3629SOL     OW11785   6.323   2.379   4.237
 3629SOL    HW111786   6.302   2.312   4.308
 3629SOL    HW211787   6.260   2.369   4.161
 3630SOL     OW11788   5.585   3.009   3.313
 3630SOL    HW111789   5.625   3.079   3.373
 3630SOL    HW211790   5.514   3.051   3.256
 3631SOL     OW11791   1.934   6.904   3.941
 3631SOL    HW111792   1.841   6.909   3.977
 3631SOL    HW211793   1.939   6.954   3.855
 3632SOL     OW11794   5.246   0.548   0.577
 3632SOL    HW111795   5.218   0.561   0.482
 3632SOL    HW211796   5.289   0.631   0.610
 3633SOL     OW11797   3.211   1.289   5.831
 3633SOL    HW111798   3.269   1.367   5.810
 3633SOL    HW211799   3.259   1.227   5.894
 3634SOL     OW11800   0.545   5.321   5.444
 3634SOL    HW111801   0.528   5.380   5.523
 3634SOL    HW211802   0.643   5.301   5.437
 3635SOL     OW11803   2.477   0.276   5.794
 3635SOL    HW111804   2.531   0.248   5.873
 3635SOL    HW211805   2.404   0.210   5.777
 3636SOL     OW11806   1.094   5.872   6.396
 3636SOL    HW111807   1.027   5.817   6.446
 3636SOL    HW211808   1.047   5.931   6.330
 3637SOL     OW11809   6.555   2.208   1.448
 3637SOL    HW111810   6.610   2.289   1.427
 3637SOL    HW211811   6.514   2.174   1.363
 3638SOL     OW11812   0.189   4.340   4.561
 3638SOL    HW111813   0.132   4.373   4.486
 3638SOL    HW211814   0.222   4.248   4.540
 3639SOL     OW11815   3.773   3.520   0.771
 3639SOL    HW111816   3.809   3.510   0.864
 3639SOL    HW211817   3.706   3.595   0.770
 3640SOL     OW11818   3.600   0.017   6.827
 3640SOL    HW111819   3.547   0.102   6.828
 3640SOL    HW211820   3.538   6.959   6.815
 3641SOL     OW11821   4.833   2.983   4.040
 3641SOL    HW111822   4.756   2.928   4.009
 3641SOL    HW211823   4.916   2.927   4.039
 3642SOL     OW11824   4.962   0.785   0.005
 3642SOL    HW111825   4.901   0.709   0.026
 3642SOL    HW211826   4.916   0.872   0.026
 3643SOL     OW11827   2.784   5.629   5.065
 3643SOL    HW111828   2.817   5.697   5.131
 3643SOL    HW211829   2.856   5.562   5.047
 3644SOL     OW11830   6.953   1.275   1.377
 3644SOL    HW111831   6.955   1.243   1.472
 3644SOL    HW211832   6.900   1.360   1.372
 3645SOL     OW11833   6.411   1.597   3.919
 3645SOL    HW111834   6.432   1.695   3.916
 3645SOL    HW211835   6.335   1.578   3.857
 3646SOL     OW11836   6.685   4.395   6.579
 3646SOL    HW111837   6.664   4.298   6.571
 3646SOL    HW211838   6.720   4.429   6.492
 3647SOL     OW11839   2.377   3.741   0.404
 3647SOL    HW111840   2.367   3.738   0.304
 3647SOL    HW211841   2.305   3.798   0.442
 3648SOL     OW11842   3.001   5.244   3.346
 3648SOL    HW111843   3.010   5.230   3.445
 3648SOL    HW211844   3.091   5.256   3.305
 3649SOL     OW11845   4.768   3.037   1.665
 3649SOL    HW111846   4.730   3.015   1.755
 3649SOL    HW211847   4.749   3.133   1.643
 3650SOL     OW11848   0.084   4.945   6.948
 3650SOL    HW111849   0.052   5.039   6.955
 3650SOL    HW211850   0.059   4.907   6.859
 3651SOL     OW11851   0.449   6.079   2.916
 3651SOL    HW111852   0.481   6.052   3.007
 3651SOL    HW211853   0.510   6.041   2.846
 3652SOL     OW11854   5.704   6.133   3.196
 3652SOL    HW111855   5.776   6.080   3.152
 3652SOL    HW211856   5.687   6.217   3.146
 3653SOL     OW11857   6.969   0.644   3.606
 3653SOL    HW111858   7.004   0.626   3.514
 3653SOL    HW211859   0.020   0.622   3.673
 3654SOL     OW11860   1.747   6.610   0.369
 3654SOL    HW111861   1.804   6.657   0.301
 3654SOL    HW211862   1.773   6.514   0.375
 3655SOL     OW11863   1.290   0.115   3.517
 3655SOL    HW111864   1.336   0.202   3.533
 3655SOL    HW211865   1.355   0.040   3.532
 3656SOL     OW11866   1.392   3.520   1.905
 3656SOL    HW111867   1.325   3.594   1.896
 3656SOL    HW211868   1.484   3.559   1.912
 3657SOL     OW11869   5.130   5.613   6.220
 3657SOL    HW111870   5.101   5.517   6.228
 3657SOL    HW211871   5.074   5.660   6.153
 3658SOL     OW11872   1.662   5.996   3.781
 3658SOL    HW111873   1.663   6.087   3.740
 3658SOL    HW211874   1.751   5.978   3.824
 3659SOL     OW11875   2.374   3.190   5.735
 3659SOL    HW111876   2.371   3.103   5.687
 3659SOL    HW211877   2.372   3.265   5.669
 3660SOL     OW11878   4.883   0.051   3.086
 3660SOL    HW111879   4.917   0.084   3.174
 3660SOL    HW211880   4.821   0.119   3.047
 3661SOL     OW11881   4.881   1.992   5.578
 3661SOL    HW111882   4.785   1.987   5.605
 3661SOL    HW211883   4.923   2.074   5.617
 3662SOL     OW11884   4.556   0.564   3.314
 3662SOL    HW111885   4.477   0.612   3.277
 3662SOL    HW211886   4.525   0.493   3.377
 3663SOL     OW11887   2.296   1.973   0.637
 3663SOL    HW111888   2.339   2.012   0.719
 3663SOL    HW211889   2.198   1.993   0.640
 3664SOL     OW11890   4.309   2.119   1.473
 3664SOL    HW111891   4.282   2.023   1.466
 3664SOL    HW211892   4.395   2.133   1.424
 3665SOL     OW11893   1.250   6.358   5.492
 3665SOL    HW111894   1.154   6.381   5.479
 3665SOL    HW211895   1.274   6.366   5.588
 3666SOL     OW11896   2.157   3.813   2.843
 3666SOL    HW111897   2.155   3.859   2.932
 3666SOL    HW211898   2.165   3.882   2.771
 3667SOL     OW11899   6.845   0.845   0.651
 3667SOL    HW111900   6.842   0.944   0.663
 3667SOL    HW211901   6.782   0.801   0.715
 3668SOL     OW11902   1.750   0.832   2.228
 3668SOL    HW111903   1.830   0.834   2.169
 3668SOL    HW211904   1.709   0.923   2.231
 3669SOL     OW11905   6.127   1.066   3.928
 3669SOL    HW111906   6.067   1.002   3.881
 3669SOL    HW211907   6.198   1.016   3.977
 3670SOL     OW11908   2.522   4.105   0.371
 3670SOL    HW111909   2.493   4.119   0.466
 3670SOL    HW211910   2.561   4.190   0.336
 3671SOL     OW11911   6.241   0.406   4.218
 3671SOL    HW111912   6.247   0.307   4.229
 3671SOL    HW211913   6.218   0.428   4.123
 3672SOL     OW11914   5.191   1.886   1.539
 3672SOL    HW111915   5.127   1.861   1.467
 3672SOL    HW211916   5.140   1.910   1.622
 3673SOL     OW11917   3.609   0.102   6.035
 3673SOL    HW111918   3.539   0.060   5.977
 3673SOL    HW211919   3.697   0.057   6.019
 3674SOL     OW11920   0.316   0.359   4.760
 3674SOL    HW111921   0.351   0.406   4.841
 3674SOL    HW211922   0.227   0.318   4.781
 3675SOL     OW11923   1.655   3.150   4.886
 3675SOL    HW111924   1.689   3.145   4.980
 3675SOL    HW211925   1.712   3.213   4.834
 3676SOL     OW11926   4.641   4.854   4.649
 3676SOL    HW111927   4.637   4.950   4.677
 3676SOL    HW211928   4.600   4.797   4.721
 3677SOL     OW11929   1.704   6.536   3.376
 3677SOL    HW111930   1.735   6.621   3.333
 3677SOL    HW211931   1.729   6.537   3.472
 3678SOL     OW11932   1.249   3.886   3.741
 3678SOL    HW111933   1.175   3.820   3.728
 3678SOL    HW211934   1.257   3.908   3.838
 3679SOL     OW11935   1.951   0.465   3.467
 3679SOL    HW111936   2.034   0.432   3.514
 3679SOL    HW211937   1.969   0.471   3.369
 3680SOL     OW11938   5.794   2.183   3.191
 3680SOL    HW111939   5.799   2.249   3.266
 3680SOL    HW211940   5.885   2.147   3.171
 3681SOL     OW11941   0.847   0.967   4.857
 3681SOL    HW111942   0.797   1.001   4.777
 3681SOL    HW211943   0.907   1.039   4.892
 3682SOL     OW11944   5.270   2.485   6.930
 3682SOL    HW111945   5.259   2.489   6.831
 3682SOL    HW211946   5.191   2.526   6.974
 3683SOL     OW11947   6.820   6.749   3.581
 3683SOL    HW111948   6.865   6.729   3.494
 3683SOL    HW211949   6.810   6.665   3.634
 3684SOL     OW11950   1.218   3.983   6.942
 3684SOL    HW111951   1.304   4.009   6.898
 3684SOL    HW211952   1.225   3.998   0.022
 3685SOL     OW11953   6.540   6.707   6.588
 3685SOL    HW111954   6.500   6.798   6.581
 3685SOL    HW211955   6.640   6.714   6.589
 3686SOL     OW11956   6.330   6.048   3.551
 3686SOL    HW111957   6.311   6.145   3.535
 3686SOL    HW211958   6.418   6.024   3.510
 3687SOL     OW11959   3.647   6.196   5.825
 3687SOL    HW111960   3.560   6.157   5.856
 3687SOL    HW211961   3.720   6.168   5.887
 3688SOL     OW11962   0.470   3.400   6.333
 3688SOL    HW111963   0.425   3.325   6.382
 3688SOL    HW211964   0.463   3.384   6.234
 3689SOL     OW11965   1.677   0.844   6.955
 3689SOL    HW111966   1.703   0.754   6.921
 3689SOL    HW211967   1.732   0.867   0.016
 3690SOL     OW11968   4.270   0.091   6.202
 3690SOL    HW111969   4.323   0.089   6.286
 3690SOL    HW211970   4.195   0.157   6.212
 3691SOL     OW11971   2.770   2.341   0.081
 3691SOL    HW111972   2.785   2.304   0.173
 3691SOL    HW211973   2.675   2.368   0.071
 3692SOL     OW11974   0.693   6.000   5.124
 3692SOL    HW111975   0.693   6.083   5.181
 3692SOL    HW211976   0.761   6.010   5.051
 3693SOL     OW11977   2.185   2.726   2.784
 3693SOL    HW111978   2.283   2.722   2.802
 3693SOL    HW211979   2.166   2.799   2.719
 3694SOL     OW11980   1.887   5.497   2.970
 3694SOL    HW111981   1.968   5.443   2.995
 3694SOL    HW211982   1.836   5.521   3.053
 3695SOL     OW11983   6.149   2.596   2.602
 3695SOL    HW111984   6.219   2.642   2.549
 3695SOL    HW211985   6.059   2.610   2.559
 3696SOL     OW11986   3.218   5.859   5.216
 3696SOL    HW111987   3.310   5.825   5.232
 3696SOL    HW211988   3.222   5.945   5.165
 3697SOL     OW11989   0.390   5.926   3.352
 3697SOL    HW111990   0.425   5.998   3.412
 3697SOL    HW211991   0.412   5.836   3.391
 3698SOL     OW11992   2.869   7.014   5.207
 3698SOL    HW111993   2.795   0.061   5.198
 3698SOL    HW211994   2.882   6.967   5.119
 3699SOL     OW11995   0.119   3.097   3.231
 3699SOL    HW111996   0.054   3.125   3.160
 3699SOL    HW211997   0.199   3.055   3.189
 3700SOL     OW11998   0.060   0.560   4.521
 3700SOL    HW111999   7.015   0.508   4.577
 3700SOL    HW212000   0.137   0.590   4.578
 3701SOL     OW12001   0.591   0.766   3.508
 3701SOL    HW112002   0.642   0.852   3.512
 3701SOL    HW212003   0.639   0.701   3.451
 3702SOL     OW12004   5.325   6.328   2.406
 3702SOL    HW112005   5.327   6.249   2.467
 3702SOL    HW212006   5.270   6.401   2.447
 3703SOL     OW12007   4.533   2.145   6.509
 3703SOL    HW112008   4.524   2.049   6.534
 3703SOL    HW212009   4.450   2.175   6.461
 3704SOL     OW12010   3.159   1.217   1.335
 3704SOL    HW112011   3.259   1.217   1.334
 3704SOL    HW212012   3.125   1.127   1.309
 3705SOL     OW12013   5.442   5.469   3.994
 3705SOL    HW112014   5.408   5.454   3.901
 3705SOL    HW212015   5.502   5.549   3.995
 3706SOL     OW12016   1.279   3.341   5.144
 3706SOL    HW112017   1.375   3.353   5.169
 3706SOL    HW212018   1.236   3.431   5.133
 3707SOL     OW12019   6.184   3.674   5.269
 3707SOL    HW112020   6.161   3.577   5.269
 3707SOL    HW212021   6.119   3.724   5.211
 3708SOL     OW12022   6.443   0.641   5.797
 3708SOL    HW112023   6.478   0.690   5.717
 3708SOL    HW212024   6.449   0.700   5.877
 3709SOL     OW12025   3.833   0.649   0.476
 3709SOL    HW112026   3.909   0.676   0.534
 3709SOL    HW212027   3.782   0.575   0.520
 3710SOL     OW12028   0.013   5.876   0.331
 3710SOL    HW112029   6.954   5.848   0.276
 3710SOL    HW212030   0.075   5.932   0.276
 3711SOL     OW12031   6.753   6.676   2.038
 3711SOL    HW112032   6.680   6.654   2.104
 3711SOL    HW212033   6.841   6.680   2.085
 3712SOL     OW12034   6.745   6.505   0.150
 3712SOL    HW112035   6.690   6.426   0.179
 3712SOL    HW212036   6.700   6.589   0.180
 3713SOL     OW12037   1.879   6.212   4.491
 3713SOL    HW112038   1.855   6.150   4.565
 3713SOL    HW212039   1.945   6.168   4.430
 3714SOL     OW12040   4.655   5.321   5.523
 3714SOL    HW112041   4.753   5.319   5.502
 3714SOL    HW212042   4.628   5.413   5.551
 3715SOL     OW12043   6.004   3.682   3.339
 3715SOL    HW112044   5.926   3.715   3.392
 3715SOL    HW212045   5.986   3.589   3.307
 3716SOL     OW12046   5.911   6.448   5.317
 3716SOL    HW112047   5.880   6.477   5.226
 3716SOL    HW212048   5.896   6.350   5.327
 3717SOL     OW12049   5.626   5.500   5.984
 3717SOL    HW112050   5.715   5.545   5.989
 3717SOL    HW212051   5.557   5.560   6.024
 3718SOL     OW12052   2.232   0.621   6.383
 3718SOL    HW112053   2.178   0.580   6.310
 3718SOL    HW212054   2.226   0.721   6.376
 3719SOL     OW12055   5.574   4.706   0.983
 3719SOL    HW112056   5.631   4.628   0.958
 3719SOL    HW212057   5.628   4.770   1.037
 3720SOL     OW12058   6.255   1.969   5.475
 3720SOL    HW112059   6.283   1.955   5.570
 3720SOL    HW212060   6.192   1.897   5.447
 3721SOL     OW12061   5.161   4.896   1.537
 3721SOL    HW112062   5.179   4.906   1.439
 3721SOL    HW212063   5.145   4.800   1.558
 3722SOL     OW12064   5.976   6.980   2.094
 3722SOL    HW112065   6.016   6.967   2.003
 3722SOL    HW212066   5.880   6.953   2.092
 3723SOL     OW12067   5.985   6.672   1.836
 3723SOL    HW112068   6.024   6.760   1.808
 3723SOL    HW212069   6.045   6.598   1.807
 3724SOL     OW12070   1.774   5.100   5.655
 3724SOL    HW112071   1.740   5.008   5.638
 3724SOL    HW212072   1.720   5.142   5.728
 3725SOL     OW12073   5.570   6.027   0.572
 3725SOL    HW112074   5.541   6.036   0.476
 3725SOL    HW212075   5.567   6.116   0.617
 3726SOL     OW12076   6.418   5.745   0.779
 3726SOL    HW112077   6.400   5.770   0.874
 3726SOL    HW212078   6.417   5.646   0.769
 3727SOL     OW12079   6.877   2.683   6.318
 3727SOL    HW112080   6.963   2.734   6.327
 3727SOL    HW212081   6.852   2.644   6.406
 3728SOL     OW12082   1.549   3.921   0.166
 3728SOL    HW112083   1.649   3.924   0.165
 3728SOL    HW212084   1.518   3.827   0.158
 3729SOL     OW12085   1.387   2.431   3.737
 3729SOL    HW112086   1.389   2.525   3.773
 3729SOL    HW212087   1.376   2.367   3.813
 3730SOL     OW12088   2.536   5.336   6.333
 3730SOL    HW112089   2.462   5.402   6.318
 3730SOL    HW212090   2.611   5.354   6.269
 3731SOL     OW12091   4.333   0.294   1.017
 3731SOL    HW112092   4.291   0.370   0.966
 3731SOL    HW212093   4.337   0.318   1.114
 3732SOL     OW12094   1.448   2.302   6.460
 3732SOL    HW112095   1.480   2.287   6.553
 3732SOL    HW212096   1.380   2.233   6.436
 3733SOL     OW12097   1.373   3.441   1.630
 3733SOL    HW112098   1.394   3.526   1.581
 3733SOL    HW212099   1.382   3.457   1.728
 3734SOL     OW12100   4.447   1.353   1.815
 3734SOL    HW112101   4.519   1.302   1.769
 3734SOL    HW212102   4.487   1.434   1.858
 3735SOL     OW12103   2.120   0.915   3.372
 3735SOL    HW112104   2.150   0.954   3.285
 3735SOL    HW212105   2.153   0.821   3.380
 3736SOL     OW12106   6.589   2.587   1.151
 3736SOL    HW112107   6.582   2.590   1.250
 3736SOL    HW212108   6.574   2.679   1.114
 3737SOL     OW12109   4.990   0.629   3.229
 3737SOL    HW112110   4.942   0.596   3.310
 3737SOL    HW212111   5.085   0.651   3.253
 3738SOL     OW12112   0.090   5.725   2.284
 3738SOL    HW112113   0.113   5.651   2.220
 3738SOL    HW212114   0.168   5.744   2.342
 3739SOL     OW12115   2.101   4.618   1.330
 3739SOL    HW112116   2.187   4.602   1.281
 3739SOL    HW212117   2.120   4.661   1.418
 3740SOL     OW12118   5.059   0.295   0.401
 3740SOL    HW112119   5.006   0.376   0.373
 3740SOL    HW212120   5.070   0.295   0.500
 3741SOL     OW12121   4.541   3.105   1.267
 3741SOL    HW112122   4.555   3.011   1.299
 3741SOL    HW212123   4.619   3.161   1.293
 3742SOL     OW12124   2.494   2.188   6.324
 3742SOL    HW112125   2.534   2.181   6.233
 3742SOL    HW212126   2.566   2.206   6.391
 3743SOL     OW12127   5.234   4.206   1.262
 3743SOL    HW112128   5.222   4.285   1.201
 3743SOL    HW212129   5.303   4.145   1.223
 3744SOL     OW12130   0.264   5.919   2.776
 3744SOL    HW112131   0.304   5.828   2.781
 3744SOL    HW212132   0.308   5.979   2.843
 3745SOL     OW12133   3.531   4.943   2.626
 3745SOL    HW112134   3.561   5.039   2.628
 3745SOL    HW212135   3.576   4.892   2.699
 3746SOL     OW12136   5.094   1.708   2.795
 3746SOL    HW112137   5.082   1.635   2.727
 3746SOL    HW212138   5.186   1.704   2.833
 3747SOL     OW12139   3.113   6.969   5.752
 3747SOL    HW112140   3.118   6.998   5.847
 3747SOL    HW212141   3.107   0.030   5.692
 3748SOL     OW12142   5.266   0.785   1.444
 3748SOL    HW112143   5.268   0.879   1.478
 3748SOL    HW212144   5.340   0.732   1.486
 3749SOL     OW12145   1.581   6.654   4.414
 3749SOL    HW112146   1.538   6.733   4.458
 3749SOL    HW212147   1.678   6.650   4.440
 3750SOL     OW12148   1.546   3.763   0.910
 3750SOL    HW112149   1.562   3.851   0.864
 3750SOL    HW212150   1.601   3.692   0.866
 3751SOL     OW12151   6.542   3.492   2.478
 3751SOL    HW112152   6.622   3.433   2.467
 3751SOL    HW212153   6.531   3.548   2.396
 3752SOL     OW12154   5.169   0.509   6.466
 3752SOL    HW112155   5.156   0.502   6.367
 3752SOL    HW212156   5.265   0.495   6.488
 3753SOL     OW12157   6.321   0.755   5.050
 3753SOL    HW112158   6.240   0.779   5.104
 3753SOL    HW212159   6.372   0.838   5.028
 3754SOL     OW12160   2.518   0.466   1.713
 3754SOL    HW112161   2.537   0.398   1.785
 3754SOL    HW212162   2.432   0.512   1.734
 3755SOL     OW12163   4.098   5.346   5.110
 3755SOL    HW112164   4.076   5.425   5.053
 3755SOL    HW212165   4.019   5.285   5.116
 3756SOL     OW12166   2.269   5.549   6.959
 3756SOL    HW112167   2.335   5.624   6.967
 3756SOL    HW212168   2.212   5.547   0.021
 3757SOL     OW12169   6.293   5.159   1.904
 3757SOL    HW112170   6.223   5.226   1.877
 3757SOL    HW212171   6.252   5.068   1.909
 3758SOL     OW12172   2.061   1.232   4.209
 3758SOL    HW112173   2.021   1.164   4.146
 3758SOL    HW212174   2.140   1.192   4.255
 3759SOL     OW12175   4.736   0.380   4.935
 3759SOL    HW112176   4.783   0.332   5.009
 3759SOL    HW212177   4.779   0.469   4.920
 3760SOL     OW12178   0.936   1.619   3.607
 3760SOL    HW112179   0.894   1.633   3.697
 3760SOL    HW212180   1.010   1.553   3.615
 3761SOL     OW12181   6.538   0.960   5.022
 3761SOL    HW112182   6.564   1.043   4.973
 3761SOL    HW212183   6.502   0.985   5.112
 3762SOL     OW12184   1.599   4.170   1.168
 3762SOL    HW112185   1.599   4.106   1.246
 3762SOL    HW212186   1.505   4.184   1.137
 3763SOL     OW12187   6.830   3.997   0.436
 3763SOL    HW112188   6.881   4.036   0.513
 3763SOL    HW212189   6.793   4.071   0.380
 3764SOL     OW12190   1.962   6.541   2.571
 3764SOL    HW112191   2.011   6.546   2.484
 3764SOL    HW212192   2.015   6.486   2.636
 3765SOL     OW12193   6.192   1.223   0.899
 3765SOL    HW112194   6.221   1.227   0.995
 3765SOL    HW212195   6.241   1.149   0.853
 3766SOL     OW12196   2.317   2.494   4.266
 3766SOL    HW112197   2.276   2.574   4.221
 3766SOL    HW212198   2.389   2.456   4.208
 3767SOL     OW12199   3.112   3.793   6.303
 3767SOL    HW112200   3.025   3.840   6.315
 3767SOL    HW212201   3.134   3.743   6.387
 3768SOL     OW12202   0.739   0.384   5.017
 3768SOL    HW112203   0.716   0.289   5.039
 3768SOL    HW212204   0.655   0.433   4.995
 3769SOL     OW12205   6.456   5.468   5.084
 3769SOL    HW112206   6.423   5.376   5.108
 3769SOL    HW212207   6.390   5.511   5.023
 3770SOL     OW12208   1.114   1.083   0.104
 3770SOL    HW112209   1.189   1.019   0.123
 3770SOL    HW212210   1.143   1.176   0.128
 3771SOL     OW12211   5.679   4.740   6.698
 3771SOL    HW112212   5.769   4.782   6.707
 3771SOL    HW212213   5.650   4.705   6.787
 3772SOL     OW12214   0.403   0.570   0.105
 3772SOL    HW112215   0.408   0.568   0.205
 3772SOL    HW212216   0.486   0.611   0.068
 3773SOL     OW12217   6.717   2.958   5.546
 3773SOL    HW112218   6.678   3.045   5.515
 3773SOL    HW212219   6.756   2.910   5.468
 3774SOL     OW12220   5.572   5.468   1.719
 3774SOL    HW112221   5.615   5.530   1.653
 3774SOL    HW212222   5.473   5.481   1.717
 3775SOL     OW12223   4.102   4.966   3.829
 3775SOL    HW112224   4.126   4.917   3.913
 3775SOL    HW212225   4.185   5.001   3.785
 3776SOL     OW12226   3.906   2.614   6.455
 3776SOL    HW112227   3.906   2.713   6.472
 3776SOL    HW212228   3.837   2.593   6.386
 3777SOL     OW12229   2.370   5.805   4.077
 3777SOL    HW112230   2.460   5.789   4.037
 3777SOL    HW212231   2.305   5.737   4.043
 3778SOL     OW12232   2.250   5.828   3.676
 3778SOL    HW112233   2.289   5.910   3.634
 3778SOL    HW212234   2.227   5.762   3.604
 3779SOL     OW12235   0.705   5.138   1.011
 3779SOL    HW112236   0.748   5.130   1.101
 3779SOL    HW212237   0.640   5.214   1.012
 3780SOL     OW12238   6.877   3.969   4.068
 3780SOL    HW112239   6.820   4.045   4.036
 3780SOL    HW212240   6.823   3.885   4.069
 3781SOL     OW12241   0.649   0.420   4.150
 3781SOL    HW112242   0.564   0.467   4.127
 3781SOL    HW212243   0.664   0.426   4.249
 3782SOL     OW12244   3.492   6.785   2.372
 3782SOL    HW112245   3.583   6.754   2.344
 3782SOL    HW212246   3.450   6.835   2.296
 3783SOL     OW12247   6.822   6.161   3.894
 3783SOL    HW112248   6.867   6.073   3.876
 3783SOL    HW212249   6.892   6.232   3.902
 3784SOL     OW12250   5.430   2.773   2.733
 3784SOL    HW112251   5.331   2.766   2.731
 3784SOL    HW212252   5.467   2.748   2.643
 3785SOL     OW12253   1.448   3.414   4.852
 3785SOL    HW112254   1.349   3.426   4.860
 3785SOL    HW212255   1.491   3.434   4.939
 3786SOL     OW12256   2.279   4.104   3.193
 3786SOL    HW112257   2.247   4.028   3.137
 3786SOL    HW212258   2.255   4.190   3.148
 3787SOL     OW12259   5.542   0.650   2.486
 3787SOL    HW112260   5.612   0.593   2.529
 3787SOL    HW212261   5.584   0.736   2.456
 3788SOL     OW12262   5.881   4.283   5.150
 3788SOL    HW112263   5.933   4.362   5.115
 3788SOL    HW212264   5.927   4.199   5.122
 3789SOL     OW12265   0.180   3.545   3.184
 3789SOL    HW112266   0.233   3.622   3.221
 3789SOL    HW212267   0.243   3.474   3.153
 3790SOL     OW12268   0.835   4.758   6.378
 3790SOL    HW112269   0.748   4.791   6.341
 3790SOL    HW212270   0.908   4.772   6.310
 3791SOL     OW12271   5.172   1.898   6.794
 3791SOL    HW112272   5.208   1.805   6.787
 3791SOL    HW212273   5.212   1.943   6.874
 3792SOL     OW12274   1.188   1.675   4.519
 3792SOL    HW112275   1.157   1.652   4.427
 3792SOL    HW212276   1.181   1.774   4.532
 3793SOL     OW12277   5.205   6.230   1.844
 3793SOL    HW112278   5.212   6.202   1.940
 3793SOL    HW212279   5.218   6.329   1.837
 3794SOL     OW12280   2.880   3.110   1.666
 3794SOL    HW112281   2.917   3.110   1.758
 3794SOL    HW212282   2.781   3.121   1.669
 3795SOL     OW12283   3.767   5.009   1.308
 3795SOL    HW112284   3.865   5.023   1.323
 3795SOL    HW212285   3.715   5.075   1.362
 3796SOL     OW12286   4.228   1.739   1.680
 3796SOL    HW112287   4.252   1.825   1.634
 3796SOL    HW212288   4.129   1.734   1.693
 3797SOL     OW12289   0.861   3.684   2.964
 3797SOL    HW112290   0.869   3.756   2.896
 3797SOL    HW212291   0.826   3.601   2.921
 3798SOL     OW12292   2.980   6.320   2.101
 3798SOL    HW112293   3.050   6.262   2.144
 3798SOL    HW212294   2.955   6.281   2.013
 3799SOL     OW12295   0.260   2.547   3.538
 3799SOL    HW112296   0.328   2.593   3.481
 3799SOL    HW212297   0.216   2.474   3.486
 3800SOL     OW12298   4.976   2.106   3.880
 3800SOL    HW112299   4.977   2.155   3.793
 3800SOL    HW212300   4.976   2.008   3.863
 3801SOL     OW12301   5.614   6.611   2.181
 3801SOL    HW112302   5.621   6.541   2.251
 3801SOL    HW212303   5.524   6.653   2.184
 3802SOL     OW12304   0.484   1.265   2.301
 3802SOL    HW112305   0.451   1.357   2.323
 3802SOL    HW212306   0.569   1.247   2.351
 3803SOL     OW12307   3.851   3.613   3.474
 3803SOL    HW112308   3.825   3.619   3.378
 3803SOL    HW212309   3.889   3.700   3.504
 3804SOL     OW12310   4.034   1.301   3.621
 3804SOL    HW112311   3.985   1.366   3.563
 3804SOL    HW212312   3.969   1.236   3.661
 3805SOL     OW12313   1.749   2.436   1.800
 3805SOL    HW112314   1.727   2.464   1.706
 3805SOL    HW212315   1.669   2.392   1.841
 3806SOL     OW12316   3.414   3.714   5.802
 3806SOL    HW112317   3.360   3.765   5.735
 3806SOL    HW212318   3.461   3.638   5.758
 3807SOL     OW12319   2.054   5.218   3.778
 3807SOL    HW112320   2.055   5.199   3.876
 3807SOL    HW212321   2.146   5.241   3.747
 3808SOL     OW12322   4.249   1.214   6.922
 3808SOL    HW112323   4.288   1.306   6.923
 3808SOL    HW212324   4.209   1.194   7.012
 3809SOL     OW12325   5.204   2.774   1.368
 3809SOL    HW112326   5.296   2.736   1.366
 3809SOL    HW212327   5.149   2.726   1.436
 3810SOL     OW12328   6.016   2.553   3.377
 3810SOL    HW112329   6.102   2.515   3.343
 3810SOL    HW212330   6.030   2.589   3.469
 3811SOL     OW12331   0.209   6.369   4.804
 3811SOL    HW112332   0.227   6.271   4.792
 3811SOL    HW212333   0.278   6.408   4.864
 3812SOL     OW12334   3.317   4.431   5.716
 3812SOL    HW112335   3.233   4.440   5.662
 3812SOL    HW212336   3.381   4.504   5.691
 3813SOL     OW12337   5.637   3.832   0.580
 3813SOL    HW112338   5.631   3.827   0.480
 3813SOL    HW212339   5.576   3.903   0.614
 3814SOL     OW12340   6.928   6.756   4.708
 3814SOL    HW112341   6.888   6.846   4.727
 3814SOL    HW212342   6.932   6.742   4.609
 3815SOL     OW12343   3.974   3.185   1.021
 3815SOL    HW112344   3.892   3.176   0.964
 3815SOL    HW212345   4.042   3.118   0.992
 3816SOL     OW12346   1.093   5.128   6.154
 3816SOL    HW112347   1.097   5.157   6.249
 3816SOL    HW212348   1.153   5.049   6.140
 3817SOL     OW12349   4.919   4.062   2.483
 3817SOL    HW112350   4.998   4.114   2.517
 3817SOL    HW212351   4.901   4.087   2.388
 3818SOL     OW12352   6.871   1.032   1.122
 3818SOL    HW112353   6.921   1.067   1.043
 3818SOL    HW212354   6.916   1.062   1.206
 3819SOL     OW12355   6.068   4.705   2.829
 3819SOL    HW112356   6.043   4.790   2.782
 3819SOL    HW212357   6.041   4.627   2.773
 3820SOL     OW12358   5.876   0.049   3.741
 3820SOL    HW112359   5.929   7.015   3.674
 3820SOL    HW212360   5.823   0.119   3.694
 3821SOL     OW12361   1.507   0.990   1.951
 3821SOL    HW112362   1.435   0.976   2.019
 3821SOL    HW212363   1.574   1.055   1.987
 3822SOL     OW12364   1.833   6.752   6.935
 3822SOL    HW112365   1.929   6.725   6.943
 3822SOL    HW212366   1.809   6.763   6.838
 3823SOL     OW12367   3.856   3.354   6.172
 3823SOL    HW112368   3.756   3.349   6.177
 3823SOL    HW212369   3.883   3.432   6.116
 3824SOL     OW12370   0.969   2.547   0.623
 3824SOL    HW112371   0.950   2.629   0.677
 3824SOL    HW212372   1.038   2.491   0.670
 3825SOL     OW12373   0.972   4.821   0.281
 3825SOL    HW112374   1.039   4.750   0.258
 3825SOL    HW212375   1.015   4.911   0.275
 3826SOL     OW12376   0.003   3.730   1.283
 3826SOL    HW112377   0.029   3.692   1.195
 3826SOL    HW212378   0.075   3.710   1.351
 3827SOL     OW12379   1.023   1.162   1.580
 3827SOL    HW112380   1.026   1.145   1.481
 3827SOL    HW212381   0.929   1.176   1.609
 3828SOL     OW12382   3.456   3.814   4.020
 3828SOL    HW112383   3.470   3.789   4.116
 3828SOL    HW212384   3.426   3.909   4.014
 3829SOL     OW12385   0.411   4.762   1.919
 3829SOL    HW112386   0.485   4.695   1.929
 3829SOL    HW212387   0.342   4.745   1.989
 3830SOL     OW12388   0.572   1.221   5.812
 3830SOL    HW112389   0.577   1.143   5.874
 3830SOL    HW212390   0.624   1.201   5.729
 3831SOL     OW12391   4.385   2.458   2.386
 3831SOL    HW112392   4.328   2.539   2.371
 3831SOL    HW212393   4.456   2.478   2.453
 3832SOL     OW12394   6.788   0.459   2.296
 3832SOL    HW112395   6.830   0.546   2.270
 3832SOL    HW212396   6.782   0.453   2.395
 3833SOL     OW12397   0.284   5.837   6.375
 3833SOL    HW112398   0.370   5.785   6.383
 3833SOL    HW212399   0.267   5.886   6.461
 3834SOL     OW12400   3.652   4.798   0.543
 3834SOL    HW112401   3.565   4.845   0.563
 3834SOL    HW212402   3.660   4.784   0.445
 3835SOL     OW12403   4.109   6.267   5.342
 3835SOL    HW112404   4.049   6.281   5.420
 3835SOL    HW212405   4.070   6.195   5.284
 3836SOL     OW12406   6.843   5.217   5.770
 3836SOL    HW112407   6.764   5.186   5.824
 3836SOL    HW212408   6.883   5.298   5.813
 3837SOL     OW12409   4.719   4.755   5.544
 3837SOL    HW112410   4.660   4.835   5.535
 3837SOL    HW212411   4.671   4.683   5.595
 3838SOL     OW12412   1.094   2.703   3.916
 3838SOL    HW112413   1.075   2.704   3.818
 3838SOL    HW212414   1.190   2.723   3.932
 3839SOL     OW12415   5.352   1.737   2.592
 3839SOL    HW112416   5.316   1.830   2.587
 3839SOL    HW212417   5.405   1.726   2.677
 3840SOL     OW12418   2.854   1.359   6.291
 3840SOL    HW112419   2.864   1.459   6.298
 3840SOL    HW212420   2.805   1.337   6.207
 3841SOL     OW12421   0.271   3.316   4.115
 3841SOL    HW112422   0.192   3.291   4.171
 3841SOL    HW212423   0.346   3.344   4.175
 3842SOL     OW12424   2.128   2.674   3.361
 3842SOL    HW112425   2.048   2.684   3.420
 3842SOL    HW212426   2.120   2.591   3.307
 3843SOL     OW12427   5.259   3.584   2.733
 3843SOL    HW112428   5.191   3.647   2.696
 3843SOL    HW212429   5.268   3.505   2.672
 3844SOL     OW12430   1.255   2.903   5.726
 3844SOL    HW112431   1.293   2.897   5.819
 3844SOL    HW212432   1.250   2.999   5.699
 3845SOL     OW12433   3.077   4.597   6.057
 3845SOL    HW112434   3.052   4.587   6.153
 3845SOL    HW212435   3.161   4.547   6.038
 3846SOL     OW12436   1.265   4.480   3.564
 3846SOL    HW112437   1.202   4.432   3.625
 3846SOL    HW212438   1.351   4.429   3.556
 3847SOL     OW12439   5.465   3.053   4.488
 3847SOL    HW112440   5.527   3.099   4.551
 3847SOL    HW212441   5.413   2.983   4.537
 3848SOL     OW12442   4.737   4.575   3.184
 3848SOL    HW112443   4.809   4.625   3.231
 3848SOL    HW212444   4.659   4.562   3.245
 3849SOL     OW12445   0.674   1.804   6.384
 3849SOL    HW112446   0.663   1.708   6.358
 3849SOL    HW212447   0.737   1.848   6.320
 3850SOL     OW12448   3.121   3.296   1.760
 3850SOL    HW112449   3.088   3.237   1.834
 3850SOL    HW212450   3.219   3.284   1.749
 3851SOL     OW12451   0.409   4.075   3.185
 3851SOL    HW112452   0.477   4.005   3.164
 3851SOL    HW212453   0.318   4.042   3.160
 3852SOL     OW12454   4.241   6.320   3.748
 3852SOL    HW112455   4.291   6.403   3.728
 3852SOL    HW212456   4.143   6.334   3.731
 3853SOL     OW12457   0.816   4.012   3.215
 3853SOL    HW112458   0.916   4.021   3.219
 3853SOL    HW212459   0.784   4.035   3.124
 3854SOL     OW12460   1.829   2.443   3.010
 3854SOL    HW112461   1.805   2.517   3.073
 3854SOL    HW212462   1.899   2.475   2.946
 3855SOL     OW12463   4.773   6.456   6.690
 3855SOL    HW112464   4.689   6.409   6.716
 3855SOL    HW212465   4.754   6.514   6.610
 3856SOL     OW12466   6.983   0.387   5.679
 3856SOL    HW112467   6.898   0.391   5.731
 3856SOL    HW212468   6.969   0.330   5.597
 3857SOL     OW12469   0.513   6.238   6.467
 3857SOL    HW112470   0.544   6.218   6.374
 3857SOL    HW212471   0.587   6.282   6.518
 3858SOL     OW12472   2.392   0.742   5.525
 3858SOL    HW112473   2.370   0.658   5.476
 3858SOL    HW212474   2.308   0.786   5.556
 3859SOL     OW12475   6.296   1.330   1.602
 3859SOL    HW112476   6.243   1.335   1.686
 3859SOL    HW212477   6.384   1.287   1.620
 3860SOL     OW12478   1.658   1.864   4.301
 3860SOL    HW112479   1.587   1.918   4.256
 3860SOL    HW212480   1.642   1.863   4.399
 3861SOL     OW12481   4.303   5.493   4.064
 3861SOL    HW112482   4.309   5.394   4.076
 3861SOL    HW212483   4.290   5.514   3.967
 3862SOL     OW12484   0.596   0.937   4.511
 3862SOL    HW112485   0.663   0.862   4.512
 3862SOL    HW212486   0.643   1.024   4.496
 3863SOL     OW12487   6.033   2.151   7.018
 3863SOL    HW112488   5.981   2.069   6.995
 3863SOL    HW212489   6.038   2.210   6.938
 3864SOL     OW12490   2.336   1.135   5.562
 3864SOL    HW112491   2.308   1.179   5.647
 3864SOL    HW212492   2.433   1.153   5.546
 3865SOL     OW12493   4.115   1.065   0.813
 3865SOL    HW112494   4.188   1.022   0.867
 3865SOL    HW212495   4.153   1.097   0.726
 3866SOL     OW12496   4.069   0.278   0.274
 3866SOL    HW112497   3.979   0.286   0.318
 3866SOL    HW212498   4.120   0.204   0.318
 3867SOL     OW12499   0.487   6.009   3.843
 3867SOL    HW112500   0.536   6.089   3.878
 3867SOL    HW212501   0.530   5.926   3.879
 3868SOL     OW12502   3.196   0.580   0.461
 3868SOL    HW112503   3.112   0.614   0.418
 3868SOL    HW212504   3.174   0.535   0.547
 3869SOL     OW12505   6.140   3.390   4.395
 3869SOL    HW112506   6.153   3.410   4.298
 3869SOL    HW212507   6.157   3.293   4.411
 3870SOL     OW12508   6.556   6.732   0.143
 3870SOL    HW112509   6.569   6.787   0.060
 3870SOL    HW212510   6.460   6.730   0.167
 3871SOL     OW12511   3.948   1.149   3.368
 3871SOL    HW112512   3.866   1.207   3.367
 3871SOL    HW212513   4.002   1.166   3.286
 3872SOL     OW12514   3.757   2.910   3.870
 3872SOL    HW112515   3.667   2.874   3.891
 3872SOL    HW212516   3.797   2.951   3.952
 3873SOL     OW12517   6.514   3.972   1.658
 3873SOL    HW112518   6.459   4.051   1.632
 3873SOL    HW212519   6.592   3.963   1.596
 3874SOL     OW12520   4.889   6.206   6.645
 3874SOL    HW112521   4.907   6.155   6.730
 3874SOL    HW212522   4.856   6.297   6.668
 3875SOL     OW12523   2.142   3.105   2.437
 3875SOL    HW112524   2.159   3.084   2.341
 3875SOL    HW212525   2.188   3.191   2.461
 3876SOL     OW12526   3.960   5.821   1.045
 3876SOL    HW112527   3.973   5.745   1.108
 3876SOL    HW212528   3.985   5.793   0.953
 3877SOL     OW12529   5.876   2.476   0.634
 3877SOL    HW112530   5.778   2.458   0.627
 3877SOL    HW212531   5.894   2.573   0.619
 3878SOL     OW12532   3.734   6.654   4.593
 3878SOL    HW112533   3.686   6.658   4.680
 3878SOL    HW212534   3.667   6.652   4.518
 3879SOL     OW12535   5.930   5.180   1.003
 3879SOL    HW112536   5.986   5.155   1.083
 3879SOL    HW212537   5.957   5.271   0.971
 3880SOL     OW12538   5.831   4.866   4.401
 3880SOL    HW112539   5.792   4.938   4.342
 3880SOL    HW212540   5.867   4.908   4.485
 3881SOL     OW12541   1.495   3.272   1.998
 3881SOL    HW112542   1.441   3.254   2.080
 3881SOL    HW212543   1.464   3.358   1.957
 3882SOL     OW12544   1.165   1.121   5.797
 3882SOL    HW112545   1.176   1.039   5.853
 3882SOL    HW212546   1.072   1.125   5.761
 3883SOL     OW12547   4.667   0.923   2.909
 3883SOL    HW112548   4.716   1.000   2.868
 3883SOL    HW212549   4.721   0.885   2.984
 3884SOL     OW12550   0.786   5.635   2.463
 3884SOL    HW112551   0.838   5.721   2.467
 3884SOL    HW212552   0.825   5.570   2.530
 3885SOL     OW12553   5.435   6.292   2.703
 3885SOL    HW112554   5.421   6.389   2.726
 3885SOL    HW212555   5.529   6.278   2.672
 3886SOL     OW12556   5.925   5.375   4.846
 3886SOL    HW112557   5.882   5.295   4.804
 3886SOL    HW212558   5.975   5.346   4.927
 3887SOL     OW12559   0.499   0.699   6.653
 3887SOL    HW112560   0.581   0.643   6.638
 3887SOL    HW212561   0.418   0.648   6.625
 3888SOL     OW12562   6.745   0.645   5.028
 3888SOL    HW112563   6.660   0.661   4.978
 3888SOL    HW212564   6.735   0.678   5.121
 3889SOL     OW12565   0.140   4.034   0.485
 3889SOL    HW112566   0.072   3.976   0.439
 3889SOL    HW212567   0.159   4.114   0.429
 3890SOL     OW12568   6.043   5.912   3.884
 3890SOL    HW112569   6.093   5.826   3.878
 3890SOL    HW212570   5.967   5.912   3.819
 3891SOL     OW12571   6.163   4.682   4.630
 3891SOL    HW112572   6.216   4.733   4.562
 3891SOL    HW212573   6.141   4.743   4.706
 3892SOL     OW12574   6.680   2.352   1.914
 3892SOL    HW112575   6.754   2.313   1.858
 3892SOL    HW212576   6.596   2.356   1.861
 3893SOL     OW12577   4.411   4.980   0.326
 3893SOL    HW112578   4.360   5.000   0.242
 3893SOL    HW212579   4.348   4.972   0.402
 3894SOL     OW12580   3.797   1.618   0.669
 3894SOL    HW112581   3.822   1.528   0.633
 3894SOL    HW212582   3.726   1.607   0.739
 3895SOL     OW12583   1.591   0.617   5.082
 3895SOL    HW112584   1.517   0.683   5.091
 3895SOL    HW212585   1.618   0.584   5.172
 3896SOL     OW12586   6.611   0.550   6.060
 3896SOL    HW112587   6.565   0.462   6.051
 3896SOL    HW212588   6.696   0.538   6.111
 3897SOL     OW12589   3.512   5.498   2.729
 3897SOL    HW112590   3.510   5.554   2.646
 3897SOL    HW212591   3.445   5.533   2.795
 3898SOL     OW12592   2.833   3.803   5.154
 3898SOL    HW112593   2.884   3.881   5.190
 3898SOL    HW212594   2.744   3.799   5.199
 3899SOL     OW12595   5.586   6.904   5.025
 3899SOL    HW112596   5.629   6.852   5.098
 3899SOL    HW212597   5.510   6.958   5.062
 3900SOL     OW12598   5.091   3.570   3.780
 3900SOL    HW112599   5.124   3.603   3.692
 3900SOL    HW212600   5.168   3.538   3.835
 3901SOL     OW12601   2.993   0.507   5.844
 3901SOL    HW112602   3.052   0.576   5.802
 3901SOL    HW212603   2.912   0.551   5.882
 3902SOL     OW12604   5.393   3.580   2.029
 3902SOL    HW112605   5.415   3.511   1.959
 3902SOL    HW212606   5.453   3.659   2.018
 3903SOL     OW12607   3.810   5.938   6.549
 3903SOL    HW112608   3.724   5.888   6.547
 3903SOL    HW212609   3.802   6.021   6.495
 3904SOL     OW12610   2.372   1.065   4.753
 3904SOL    HW112611   2.470   1.049   4.754
 3904SOL    HW212612   2.332   1.035   4.840
 3905SOL     OW12613   0.099   0.353   6.382
 3905SOL    HW112614   0.113   0.428   6.317
 3905SOL    HW212615   0.005   0.321   6.377
 3906SOL     OW12616   4.277   5.081   6.152
 3906SOL    HW112617   4.296   5.147   6.224
 3906SOL    HW212618   4.202   5.020   6.180
 3907SOL     OW12619   5.486   6.987   4.764
 3907SOL    HW112620   5.408   0.026   4.787
 3907SOL    HW212621   5.547   6.980   4.843
 3908SOL     OW12622   1.093   1.999   0.852
 3908SOL    HW112623   1.037   1.923   0.819
 3908SOL    HW212624   1.153   1.967   0.925
 3909SOL     OW12625   0.341   4.937   5.516
 3909SOL    HW112626   0.428   4.901   5.484
 3909SOL    HW212627   0.272   4.927   5.444
 3910SOL     OW12628   3.685   3.747   1.979
 3910SOL    HW112629   3.702   3.650   1.994
 3910SOL    HW212630   3.619   3.758   1.904
 3911SOL     OW12631   4.940   1.091   0.060
 3911SOL    HW112632   4.992   1.156   0.115
 3911SOL    HW212633   4.969   1.097   6.984
 3912SOL     OW12634   4.322   0.010   5.939
 3912SOL    HW112635   4.420   0.023   5.923
 3912SOL    HW212636   4.296   0.053   6.025
 3913SOL     OW12637   2.210   0.075   6.023
 3913SOL    HW112638   2.203   0.130   6.107
 3913SOL    HW212639   2.154   0.117   5.952
 3914SOL     OW12640   4.178   1.166   0.562
 3914SOL    HW112641   4.156   1.260   0.534
 3914SOL    HW212642   4.240   1.125   0.495
 3915SOL     OW12643   3.577   5.749   2.572
 3915SOL    HW112644   3.609   5.823   2.632
 3915SOL    HW212645   3.478   5.753   2.564
 3916SOL     OW12646   1.644   5.852   4.147
 3916SOL    HW112647   1.619   5.899   4.062
 3916SOL    HW212648   1.569   5.791   4.174
 3917SOL     OW12649   0.998   4.904   6.904
 3917SOL    HW112650   0.957   4.814   6.894
 3917SOL    HW212651   1.086   4.908   6.857
 3918SOL     OW12652   4.447   0.029   2.521
 3918SOL    HW112653   4.486   6.966   2.479
 3918SOL    HW212654   4.407   0.087   2.450
 3919SOL     OW12655   2.228   5.936   6.302
 3919SOL    HW112656   2.281   5.957   6.219
 3919SOL    HW212657   2.133   5.918   6.277
 3920SOL     OW12658   2.808   2.810   0.456
 3920SOL    HW112659   2.732   2.872   0.434
 3920SOL    HW212660   2.880   2.820   0.387
 3921SOL     OW12661   6.733   2.978   1.354
 3921SOL    HW112662   6.637   3.000   1.335
 3921SOL    HW212663   6.771   2.926   1.278
 3922SOL     OW12664   5.968   4.160   1.771
 3922SOL    HW112665   6.059   4.121   1.763
 3922SOL    HW212666   5.968   4.232   1.841
 3923SOL     OW12667   0.017   1.596   6.961
 3923SOL    HW112668   0.109   1.636   6.966
 3923SOL    HW212669   6.976   1.643   0.006
 3924SOL     OW12670   0.805   5.015   2.967
 3924SOL    HW112671   0.720   4.965   2.985
 3924SOL    HW212672   0.816   5.025   2.868
 3925SOL     OW12673   3.870   4.779   0.746
 3925SOL    HW112674   3.789   4.772   0.687
 3925SOL    HW212675   3.866   4.864   0.798
 3926SOL     OW12676   6.629   5.486   3.115
 3926SOL    HW112677   6.646   5.482   3.016
 3926SOL    HW212678   6.552   5.426   3.138
 3927SOL     OW12679   6.640   3.337   3.362
 3927SOL    HW112680   6.566   3.283   3.323
 3927SOL    HW212681   6.675   3.292   3.444
 3928SOL     OW12682   2.824   5.787   5.946
 3928SOL    HW112683   2.865   5.843   6.018
 3928SOL    HW212684   2.732   5.759   5.974
 3929SOL     OW12685   0.755   1.979   5.775
 3929SOL    HW112686   0.741   1.902   5.713
 3929SOL    HW212687   0.789   1.945   5.863
 3930SOL     OW12688   2.468   1.613   4.183
 3930SOL    HW112689   2.511   1.699   4.154
 3930SOL    HW212690   2.480   1.601   4.281
 3931SOL     OW12691   1.673   2.060   2.714
 3931SOL    HW112692   1.654   2.142   2.768
 3931SOL    HW212693   1.664   2.081   2.617
 3932SOL     OW12694   1.910   4.095   2.725
 3932SOL    HW112695   1.872   4.013   2.683
 3932SOL    HW212696   1.912   4.083   2.825
 3933SOL     OW12697   1.624   6.672   0.057
 3933SOL    HW112698   1.574   6.742   0.108
 3933SOL    HW212699   1.702   6.714   0.010
 3934SOL     OW12700   6.881   0.770   1.013
 3934SOL    HW112701   6.966   0.735   1.051
 3934SOL    HW212702   6.867   0.865   1.043
 3935SOL     OW12703   2.257   6.895   0.212
 3935SOL    HW112704   2.351   6.907   0.181
 3935SOL    HW212705   2.257   6.880   0.311
 3936SOL     OW12706   6.870   5.159   5.506
 3936SOL    HW112707   6.860   5.198   5.598
 3936SOL    HW212708   6.906   5.066   5.513
 3937SOL     OW12709   6.830   0.249   1.928
 3937SOL    HW112710   6.830   0.149   1.921
 3937SOL    HW212711   6.772   0.276   2.005
 3938SOL     OW12712   0.195   1.904   3.455
 3938SOL    HW112713   0.158   1.843   3.385
 3938SOL    HW212714   0.285   1.936   3.427
 3939SOL     OW12715   2.811   1.827   1.863
 3939SOL    HW112716   2.802   1.924   1.842
 3939SOL    HW212717   2.792   1.811   1.960
 3940SOL     OW12718   4.279   5.299   2.276
 3940SOL    HW112719   4.366   5.306   2.325
 3940SOL    HW212720   4.204   5.324   2.337
 3941SOL     OW12721   5.056   1.610   6.412
 3941SOL    HW112722   5.071   1.700   6.371
 3941SOL    HW212723   5.103   1.541   6.358
 3942SOL     OW12724   0.443   0.445   6.191
 3942SOL    HW112725   0.411   0.433   6.096
 3942SOL    HW212726   0.446   0.355   6.236
 3943SOL     OW12727   0.900   3.886   2.724
 3943SOL    HW112728   0.829   3.949   2.692
 3943SOL    HW212729   0.984   3.937   2.741
 3944SOL     OW12730   5.717   3.136   5.480
 3944SOL    HW112731   5.782   3.184   5.421
 3944SOL    HW212732   5.751   3.138   5.574
 3945SOL     OW12733   0.802   2.356   1.786
 3945SOL    HW112734   0.758   2.425   1.845
 3945SOL    HW212735   0.895   2.338   1.819
 3946SOL     OW12736   5.535   5.761   5.765
 3946SOL    HW112737   5.522   5.677   5.712
 3946SOL    HW212738   5.463   5.769   5.833
 3947SOL     OW12739   6.149   5.348   1.303
 3947SOL    HW112740   6.232   5.401   1.281
 3947SOL    HW212741   6.166   5.251   1.287
 3948SOL     OW12742   1.011   5.571   1.690
 3948SOL    HW112743   0.994   5.488   1.742
 3948SOL    HW212744   0.955   5.645   1.727
 3949SOL     OW12745   6.235   0.539   3.249
 3949SOL    HW112746   6.257   0.620   3.303
 3949SOL    HW212747   6.243   0.562   3.151
 3950SOL     OW12748   2.958   4.062   1.728
 3950SOL    HW112749   2.898   3.990   1.762
 3950SOL    HW212750   2.906   4.146   1.716
 3951SOL     OW12751   6.902   6.935   1.121
 3951SOL    HW112752   6.912   7.009   1.054
 3951SOL    HW212753   6.976   6.869   1.109
 3952SOL     OW12754   6.578   3.911   2.856
 3952SOL    HW112755   6.674   3.903   2.829
 3952SOL    HW212756   6.558   4.006   2.882
 3953SOL     OW12757   3.853   4.264   0.586
 3953SOL    HW112758   3.799   4.315   0.519
 3953SOL    HW212759   3.810   4.175   0.602
 3954SOL     OW12760   5.613   5.456   5.118
 3954SOL    HW112761   5.562   5.417   5.195
 3954SOL    HW212762   5.621   5.555   5.130
 3955SOL     OW12763   3.173   5.409   5.814
 3955SOL    HW112764   3.229   5.364   5.883
 3955SOL    HW212765   3.180   5.508   5.824
 3956SOL     OW12766   0.223   0.836   2.729
 3956SOL    HW112767   0.226   0.857   2.631
 3956SOL    HW212768   0.279   0.755   2.748
 3957SOL     OW12769   4.753   6.644   3.603
 3957SOL    HW112770   4.722   6.613   3.513
 3957SOL    HW212771   4.695   6.719   3.634
 3958SOL     OW12772   5.759   0.843   6.099
 3958SOL    HW112773   5.697   0.900   6.044
 3958SOL    HW212774   5.721   0.831   6.190
 3959SOL     OW12775   3.962   6.040   1.214
 3959SOL    HW112776   3.936   5.977   1.142
 3959SOL    HW212777   4.007   6.120   1.174
 3960SOL     OW12778   4.189   1.390   6.623
 3960SOL    HW112779   4.105   1.353   6.662
 3960SOL    HW212780   4.245   1.429   6.696
 3961SOL     OW12781   5.904   2.286   1.722
 3961SOL    HW112782   5.813   2.250   1.741
 3961SOL    HW212783   5.963   2.212   1.688
 3962SOL     OW12784   2.792   4.665   6.954
 3962SOL    HW112785   2.860   4.701   6.889
 3962SOL    HW212786   2.763   4.738   7.015
 3963SOL     OW12787   4.679   4.448   4.472
 3963SOL    HW112788   4.663   4.545   4.453
 3963SOL    HW212789   4.777   4.430   4.476
 3964SOL     OW12790   4.000   4.853   3.601
 3964SOL    HW112791   4.043   4.873   3.689
 3964SOL    HW212792   4.071   4.841   3.532
 3965SOL     OW12793   4.480   3.304   5.895
 3965SOL    HW112794   4.429   3.387   5.920
 3965SOL    HW212795   4.495   3.248   5.977
 3966SOL     OW12796   5.622   5.963   0.858
 3966SOL    HW112797   5.578   6.045   0.893
 3966SOL    HW212798   5.597   5.950   0.762
 3967SOL     OW12799   1.491   4.235   2.425
 3967SOL    HW112800   1.560   4.295   2.465
 3967SOL    HW212801   1.494   4.243   2.326
 3968SOL     OW12802   5.300   0.097   0.978
 3968SOL    HW112803   5.387   0.076   0.934
 3968SOL    HW212804   5.242   0.016   0.979
 3969SOL     OW12805   1.771   3.866   2.632
 3969SOL    HW112806   1.710   3.805   2.683
 3969SOL    HW212807   1.718   3.913   2.561
 3970SOL     OW12808   5.656   5.868   3.717
 3970SOL    HW112809   5.579   5.809   3.696
 3970SOL    HW212810   5.703   5.892   3.632
 3971SOL     OW12811   2.677   5.157   1.808
 3971SOL    HW112812   2.772   5.126   1.815
 3971SOL    HW212813   2.615   5.079   1.818
 3972SOL     OW12814   1.111   5.404   0.674
 3972SOL    HW112815   1.105   5.317   0.624
 3972SOL    HW212816   1.151   5.474   0.615
 3973SOL     OW12817   0.963   4.607   5.904
 3973SOL    HW112818   0.902   4.530   5.920
 3973SOL    HW212819   1.041   4.577   5.849
 3974SOL     OW12820   1.220   1.220   4.650
 3974SOL    HW112821   1.127   1.192   4.626
 3974SOL    HW212822   1.228   1.227   4.749
 3975SOL     OW12823   5.183   0.615   5.851
 3975SOL    HW112824   5.256   0.580   5.792
 3975SOL    HW212825   5.207   0.599   5.947
 3976SOL     OW12826   1.214   5.989   1.990
 3976SOL    HW112827   1.289   5.964   1.929
 3976SOL    HW212828   1.183   5.908   2.040
 3977SOL     OW12829   2.878   4.391   5.641
 3977SOL    HW112830   2.825   4.459   5.590
 3977SOL    HW212831   2.864   4.405   5.739
 3978SOL     OW12832   5.965   6.338   4.913
 3978SOL    HW112833   6.015   6.340   4.826
 3978SOL    HW212834   5.948   6.243   4.939
 3979SOL     OW12835   3.028   5.816   0.677
 3979SOL    HW112836   2.994   5.908   0.657
 3979SOL    HW212837   3.049   5.809   0.775
 3980SOL     OW12838   0.641   5.490   0.144
 3980SOL    HW112839   0.692   5.515   0.226
 3980SOL    HW212840   0.543   5.496   0.163
 3981SOL     OW12841   2.057   1.558   0.640
 3981SOL    HW112842   2.125   1.518   0.701
 3981SOL    HW212843   2.079   1.654   0.625
 3982SOL     OW12844   2.085   0.397   4.283
 3982SOL    HW112845   2.000   0.351   4.259
 3982SOL    HW212846   2.083   0.421   4.381
 3983SOL     OW12847   5.037   5.190   4.585
 3983SOL    HW112848   5.068   5.184   4.680
 3983SOL    HW212849   5.115   5.211   4.526
 3984SOL     OW12850   6.906   0.869   2.508
 3984SOL    HW112851   6.950   0.944   2.558
 3984SOL    HW212852   6.813   0.896   2.482
 3985SOL     OW12853   3.346   4.665   6.262
 3985SOL    HW112854   3.299   4.606   6.197
 3985SOL    HW212855   3.322   4.761   6.243
 3986SOL     OW12856   6.435   1.646   3.042
 3986SOL    HW112857   6.364   1.601   3.095
 3986SOL    HW212858   6.417   1.744   3.039
 3987SOL     OW12859   2.677   5.271   4.130
 3987SOL    HW112860   2.602   5.221   4.173
 3987SOL    HW212861   2.745   5.206   4.096
 3988SOL     OW12862   3.992   3.565   6.955
 3988SOL    HW112863   3.923   3.494   6.966
 3988SOL    HW212864   3.967   3.624   6.878
 3989SOL     OW12865   6.675   2.537   6.797
 3989SOL    HW112866   6.719   2.447   6.794
 3989SOL    HW212867   6.653   2.560   6.892
 3990SOL     OW12868   5.416   2.181   2.938
 3990SOL    HW112869   5.324   2.145   2.925
 3990SOL    HW212870   5.417   2.278   2.913
 3991SOL     OW12871   5.891   0.894   2.029
 3991SOL    HW112872   5.975   0.848   2.059
 3991SOL    HW212873   5.897   0.914   1.931
 3992SOL     OW12874   3.242   2.324   6.947
 3992SOL    HW112875   3.325   2.369   6.979
 3992SOL    HW212876   3.204   2.267   0.001
 3993SOL     OW12877   1.160   1.845   2.946
 3993SOL    HW112878   1.241   1.903   2.935
 3993SOL    HW212879   1.170   1.789   3.028
 3994SOL     OW12880   0.523   1.119   6.488
 3994SOL    HW112881   0.434   1.091   6.453
 3994SOL    HW212882   0.540   1.214   6.462
 3995SOL     OW12883   1.923   3.862   5.066
 3995SOL    HW112884   2.013   3.847   5.026
 3995SOL    HW212885   1.906   3.960   5.077
 3996SOL     OW12886   1.029   1.168   4.295
 3996SOL    HW112887   1.042   1.187   4.198
 3996SOL    HW212888   1.094   1.223   4.349
 3997SOL     OW12889   4.769   1.336   3.536
 3997SOL    HW112890   4.698   1.390   3.582
 3997SOL    HW212891   4.837   1.397   3.496
 3998SOL     OW12892   4.326   1.039   3.212
 3998SOL    HW112893   4.292   1.132   3.222
 3998SOL    HW212894   4.396   1.022   3.281
 3999SOL     OW12895   5.783   3.553   3.848
 3999SOL    HW112896   5.812   3.567   3.943
 3999SOL    HW212897   5.699   3.500   3.847
 4000SOL     OW12898   3.116   5.605   3.255
 4000SOL    HW112899   3.185   5.677   3.259
 4000SOL    HW212900   3.025   5.645   3.265
 4001SOL     OW12901   2.845   2.264   3.946
 4001SOL    HW112902   2.884   2.356   3.946
 4001SOL    HW212903   2.887   2.209   3.873
 4002SOL     OW12904   2.556   2.790   0.949
 4002SOL    HW112905   2.516   2.880   0.931
 4002SOL    HW212906   2.489   2.719   0.927
 4003SOL     OW12907   3.433   5.712   4.582
 4003SOL    HW112908   3.435   5.644   4.509
 4003SOL    HW212909   3.369   5.683   4.654
 4004SOL     OW12910   5.430   2.091   3.783
 4004SOL    HW112911   5.461   2.005   3.742
 4004SOL    HW212912   5.386   2.147   3.712
 4005SOL     OW12913   4.994   6.016   0.669
 4005SOL    HW112914   4.978   5.959   0.589
 4005SOL    HW212915   5.085   6.056   0.663
 4006SOL     OW12916   3.593   5.540   3.375
 4006SOL    HW112917   3.629   5.617   3.323
 4006SOL    HW212918   3.538   5.573   3.452
 4007SOL     OW12919   0.913   2.343   1.499
 4007SOL    HW112920   0.914   2.372   1.595
 4007SOL    HW212921   0.819   2.342   1.465
 4008SOL     OW12922   3.475   1.826   3.801
 4008SOL    HW112923   3.512   1.751   3.745
 4008SOL    HW212924   3.431   1.787   3.882
 4009SOL     OW12925   5.661   3.333   0.958
 4009SOL    HW112926   5.708   3.275   0.891
 4009SOL    HW212927   5.564   3.339   0.935
 4010SOL     OW12928   2.413   2.546   1.756
 4010SOL    HW112929   2.343   2.480   1.728
 4010SOL    HW212930   2.406   2.561   1.855
 4011SOL     OW12931   0.208   0.792   1.855
 4011SOL    HW112932   0.124   0.846   1.844
 4011SOL    HW212933   0.286   0.846   1.825
 4012SOL     OW12934   3.878   5.724   1.507
 4012SOL    HW112935   3.881   5.717   1.407
 4012SOL    HW212936   3.971   5.730   1.543
 4013SOL     OW12937   2.921   6.903   6.971
 4013SOL    HW112938   2.934   6.964   0.030
 4013SOL    HW212939   3.010   6.872   6.938
 4014SOL     OW12940   4.076   6.039   3.350
 4014SOL    HW112941   4.163   6.035   3.399
 4014SOL    HW212942   4.052   6.135   3.334
 4015SOL     OW12943   4.931   5.163   6.446
 4015SOL    HW112944   4.912   5.207   6.359
 4015SOL    HW212945   5.005   5.212   6.493
 4016SOL     OW12946   2.051   5.929   6.855
 4016SOL    HW112947   2.069   5.993   6.781
 4016SOL    HW212948   2.008   5.847   6.818
 4017SOL     OW12949   0.253   6.302   0.938
 4017SOL    HW112950   0.162   6.304   0.898
 4017SOL    HW212951   0.267   6.214   0.986
 4018SOL     OW12952   5.181   6.032   3.342
 4018SOL    HW112953   5.221   6.027   3.434
 4018SOL    HW212954   5.140   6.122   3.328
 4019SOL     OW12955   6.001   3.923   3.171
 4019SOL    HW112956   6.023   3.837   3.217
 4019SOL    HW212957   6.065   3.938   3.096
 4020SOL     OW12958   5.388   2.077   5.899
 4020SOL    HW112959   5.361   2.170   5.926
 4020SOL    HW212960   5.334   2.048   5.820
 4021SOL     OW12961   3.904   3.787   6.237
 4021SOL    HW112962   3.853   3.864   6.198
 4021SOL    HW212963   3.903   3.710   6.173
 4022SOL     OW12964   3.982   0.108   6.949
 4022SOL    HW112965   4.005   0.155   0.015
 4022SOL    HW212966   3.902   0.152   6.908
 4023SOL     OW12967   5.885   2.408   5.237
 4023SOL    HW112968   5.932   2.429   5.152
 4023SOL    HW212969   5.789   2.435   5.231
 4024SOL     OW12970   3.800   6.499   3.959
 4024SOL    HW112971   3.748   6.473   3.878
 4024SOL    HW212972   3.861   6.424   3.985
 4025SOL     OW12973   0.969   5.870   4.141
 4025SOL    HW112974   0.893   5.825   4.093
 4025SOL    HW212975   1.056   5.833   4.109
 4026SOL     OW12976   6.466   6.026   4.591
 4026SOL    HW112977   6.496   6.075   4.509
 4026SOL    HW212978   6.402   5.953   4.564
 4027SOL     OW12979   3.825   4.126   1.840
 4027SOL    HW112980   3.796   4.069   1.763
 4027SOL    HW212981   3.779   4.095   1.923
 4028SOL     OW12982   0.985   2.476   4.059
 4028SOL    HW112983   0.999   2.568   4.024
 4028SOL    HW212984   0.952   2.416   3.986
 4029SOL     OW12985   1.507   4.181   6.361
 4029SOL    HW112986   1.450   4.108   6.322
 4029SOL    HW212987   1.455   4.266   6.364
 4030SOL     OW12988   1.513   2.060   6.099
 4030SOL    HW112989   1.518   2.033   6.195
 4030SOL    HW212990   1.591   2.119   6.077
 4031SOL     OW12991   4.878   6.087   3.000
 4031SOL    HW112992   4.851   6.142   3.079
 4031SOL    HW212993   4.831   6.121   2.919
 4032SOL     OW12994   6.032   0.187   2.964
 4032SOL    HW112995   5.977   0.131   3.027
 4032SOL    HW212996   6.111   0.223   3.014
 4033SOL     OW12997   3.517   3.029   3.142
 4033SOL    HW112998   3.419   3.025   3.120
 4033SOL    HW212999   3.529   3.027   3.242
 4034SOL     OW13000   5.466   2.058   5.153
 4034SOL    HW113001   5.533   2.098   5.216
 4034SOL    HW213002   5.376   2.095   5.173
 4035SOL     OW13003   6.396   4.320   1.314
 4035SOL    HW113004   6.384   4.344   1.218
 4035SOL    HW213005   6.487   4.348   1.345
 4036SOL     OW13006   5.361   6.256   3.101
 4036SOL    HW113007   5.321   6.282   3.189
 4036SOL    HW213008   5.453   6.293   3.093
 4037SOL     OW13009   1.612   2.554   0.847
 4037SOL    HW113010   1.665   2.474   0.820
 4037SOL    HW213011   1.629   2.628   0.782
 4038SOL     OW13012   4.775   4.923   2.285
 4038SOL    HW113013   4.792   4.916   2.383
 4038SOL    HW213014   4.746   4.834   2.250
 4039SOL     OW13015   5.178   5.270   1.397
 4039SOL    HW113016   5.234   5.221   1.331
 4039SOL    HW213017   5.198   5.368   1.392
 4040SOL     OW13018   2.734   6.472   0.111
 4040SOL    HW113019   2.820   6.473   0.059
 4040SOL    HW213020   2.753   6.494   0.207
 4041SOL     OW13021   1.710   5.504   2.261
 4041SOL    HW113022   1.709   5.410   2.227
 4041SOL    HW213023   1.800   5.544   2.244
 4042SOL     OW13024   6.326   4.443   2.683
 4042SOL    HW113025   6.342   4.383   2.605
 4042SOL    HW213026   6.374   4.409   2.763
 4043SOL     OW13027   5.552   2.371   4.158
 4043SOL    HW113028   5.470   2.362   4.214
 4043SOL    HW213029   5.631   2.336   4.208
 4044SOL     OW13030   5.396   0.812   4.884
 4044SOL    HW113031   5.415   0.909   4.897
 4044SOL    HW213032   5.310   0.788   4.930
 4045SOL     OW13033   3.040   4.215   6.408
 4045SOL    HW113034   3.017   4.293   6.466
 4045SOL    HW213035   2.956   4.179   6.367
 4046SOL     OW13036   0.875   2.038   3.338
 4046SOL    HW113037   0.814   2.116   3.325
 4046SOL    HW213038   0.958   2.069   3.386
 4047SOL     OW13039   2.407   3.020   0.721
 4047SOL    HW113040   2.496   2.977   0.707
 4047SOL    HW213041   2.420   3.116   0.747
 4048SOL     OW13042   5.866   0.890   1.749
 4048SOL    HW113043   5.915   0.959   1.696
 4048SOL    HW213044   5.819   0.827   1.688
 4049SOL     OW13045   6.410   5.964   6.534
 4049SOL    HW113046   6.474   5.919   6.596
 4049SOL    HW213047   6.450   6.049   6.500
 4050SOL     OW13048   0.811   6.963   0.285
 4050SOL    HW113049   0.739   6.988   0.350
 4050SOL    HW213050   0.775   6.897   0.220
 4051SOL     OW13051   2.813   3.507   0.057
 4051SOL    HW113052   2.799   3.511   6.977
 4051SOL    HW213053   2.729   3.476   0.101
 4052SOL     OW13054   1.024   7.014   1.287
 4052SOL    HW113055   0.981   0.068   1.234
 4052SOL    HW213056   1.111   0.027   1.324
 4053SOL     OW13057   3.292   4.899   3.902
 4053SOL    HW113058   3.250   4.967   3.962
 4053SOL    HW213059   3.355   4.944   3.839
 4054SOL     OW13060   2.089   3.314   0.588
 4054SOL    HW113061   2.105   3.275   0.497
 4054SOL    HW213062   2.092   3.413   0.583
 4055SOL     OW13063   2.513   3.364   5.587
 4055SOL    HW113064   2.579   3.424   5.543
 4055SOL    HW213065   2.503   3.280   5.533
 4056SOL     OW13066   4.328   3.193   6.581
 4056SOL    HW113067   4.247   3.134   6.574
 4056SOL    HW213068   4.410   3.136   6.574
 4057SOL     OW13069   4.759   3.245   0.120
 4057SOL    HW113070   4.840   3.199   0.157
 4057SOL    HW213071   4.722   3.308   0.189
 4058SOL     OW13072   1.581   1.415   4.385
 4058SOL    HW113073   1.508   1.466   4.432
 4058SOL    HW213074   1.541   1.361   4.311
 4059SOL     OW13075   2.325   2.277   3.354
 4059SOL    HW113076   2.419   2.249   3.374
 4059SOL    HW213077   2.261   2.218   3.403
 4060SOL     OW13078   3.803   4.965   5.293
 4060SOL    HW113079   3.877   4.915   5.248
 4060SOL    HW213080   3.734   4.990   5.225
 4061SOL     OW13081   3.401   4.470   1.678
 4061SOL    HW113082   3.331   4.403   1.651
 4061SOL    HW213083   3.481   4.422   1.713
 4062SOL     OW13084   4.122   1.539   3.210
 4062SOL    HW113085   4.080   1.524   3.120
 4062SOL    HW213086   4.164   1.630   3.212
 4063SOL     OW13087   4.261   5.970   5.671
 4063SOL    HW113088   4.170   5.972   5.630
 4063SOL    HW213089   4.258   6.010   5.763
 4064SOL     OW13090   2.227   6.588   2.845
 4064SOL    HW113091   2.208   6.674   2.797
 4064SOL    HW213092   2.221   6.512   2.781
 4065SOL     OW13093   1.098   0.247   0.234
 4065SOL    HW113094   1.037   0.300   0.176
 4065SOL    HW213095   1.061   0.243   0.327
 4066SOL     OW13096   5.483   4.595   2.365
 4066SOL    HW113097   5.458   4.679   2.318
 4066SOL    HW213098   5.550   4.615   2.436
 4067SOL     OW13099   5.890   2.072   2.700
 4067SOL    HW113100   5.882   2.159   2.651
 4067SOL    HW213101   5.828   2.071   2.778
 4068SOL     OW13102   4.773   0.045   4.488
 4068SOL    HW113103   4.811   0.052   4.396
 4068SOL    HW213104   4.704   6.992   4.491
 4069SOL     OW13105   4.488   3.516   0.045
 4069SOL    HW113106   4.422   3.588   0.027
 4069SOL    HW213107   4.517   3.520   0.141
 4070SOL     OW13108   1.825   3.381   2.715
 4070SOL    HW113109   1.755   3.374   2.785
 4070SOL    HW213110   1.900   3.318   2.736
 4071SOL     OW13111   1.877   1.356   4.984
 4071SOL    HW113112   1.955   1.329   4.927
 4071SOL    HW213113   1.793   1.345   4.932
 4072SOL     OW13114   1.992   6.783   4.347
 4072SOL    HW113115   1.969   6.702   4.293
 4072SOL    HW213116   1.991   6.760   4.444
 4073SOL     OW13117   2.471   5.506   5.785
 4073SOL    HW113118   2.384   5.530   5.828
 4073SOL    HW213119   2.492   5.410   5.805
 4074SOL     OW13120   0.629   3.296   1.739
 4074SOL    HW113121   0.610   3.280   1.642
 4074SOL    HW213122   0.673   3.386   1.750
 4075SOL     OW13123   5.043   1.955   2.718
 4075SOL    HW113124   5.056   1.856   2.728
 4075SOL    HW213125   4.946   1.973   2.699
 4076SOL     OW13126   2.459   4.206   5.298
 4076SOL    HW113127   2.557   4.225   5.307
 4076SOL    HW213128   2.446   4.112   5.265
 4077SOL     OW13129   2.790   6.007   1.031
 4077SOL    HW113130   2.761   5.976   1.122
 4077SOL    HW213131   2.765   5.938   0.963
 4078SOL     OW13132   5.778   5.264   2.046
 4078SOL    HW113133   5.820   5.340   2.095
 4078SOL    HW213134   5.796   5.179   2.096
 4079SOL     OW13135   1.529   0.519   3.363
 4079SOL    HW113136   1.594   0.581   3.407
 4079SOL    HW213137   1.579   0.450   3.310
 4080SOL     OW13138   3.092   3.898   6.833
 4080SOL    HW113139   2.998   3.893   6.799
 4080SOL    HW213140   3.116   3.813   6.879
 4081SOL     OW13141   1.990   0.950   4.465
 4081SOL    HW113142   1.910   0.992   4.423
 4081SOL    HW213143   1.996   0.977   4.561
 4082SOL     OW13144   1.552   1.869   6.822
 4082SOL    HW113145   1.495   1.816   6.885
 4082SOL    HW213146   1.547   1.829   6.730
 4083SOL     OW13147   5.909   4.385   3.843
 4083SOL    HW113148   5.887   4.323   3.768
 4083SOL    HW213149   5.866   4.474   3.826
 4084SOL     OW13150   4.784   2.811   3.213
 4084SOL    HW113151   4.793   2.790   3.311
 4084SOL    HW213152   4.784   2.910   3.200
 4085SOL     OW13153   2.721   4.971   1.232
 4085SOL    HW113154   2.718   4.968   1.332
 4085SOL    HW213155   2.755   5.060   1.203
 4086SOL     OW13156   0.049   5.110   0.245
 4086SOL    HW113157   0.131   5.054   0.229
 4086SOL    HW213158   0.023   5.103   0.341
 4087SOL     OW13159   2.716   0.945   2.598
 4087SOL    HW113160   2.792   0.911   2.652
 4087SOL    HW213161   2.634   0.891   2.617
 4088SOL     OW13162   6.370   1.015   5.678
 4088SOL    HW113163   6.345   0.976   5.590
 4088SOL    HW213164   6.291   1.011   5.740
 4089SOL     OW13165   0.111   5.499   4.301
 4089SOL    HW113166   0.066   5.579   4.340
 4089SOL    HW213167   0.113   5.425   4.370
 4090SOL     OW13168   1.867   6.188   5.352
 4090SOL    HW113169   1.847   6.241   5.270
 4090SOL    HW213170   1.966   6.179   5.363
 4091SOL     OW13171   1.026   5.413   0.122
 4091SOL    HW113172   0.986   5.433   0.032
 4091SOL    HW213173   1.056   5.318   0.125
 4092SOL     OW13174   4.962   3.353   4.698
 4092SOL    HW113175   5.013   3.415   4.758
 4092SOL    HW213176   4.870   3.341   4.734
 4093SOL     OW13177   5.674   5.785   1.757
 4093SOL    HW113178   5.685   5.819   1.850
 4093SOL    HW213179   5.764   5.769   1.716
 4094SOL     OW13180   1.125   4.730   6.605
 4094SOL    HW113181   1.170   4.793   6.669
 4094SOL    HW213182   1.037   4.702   6.642
 4095SOL     OW13183   0.736   3.389   0.353
 4095SOL    HW113184   0.764   3.466   0.410
 4095SOL    HW213185   0.653   3.413   0.303
 4096SOL     OW13186   2.282   1.191   6.127
 4096SOL    HW113187   2.200   1.249   6.123
 4096SOL    HW213188   2.341   1.211   6.049
 4097SOL     OW13189   5.946   4.495   5.511
 4097SOL    HW113190   5.939   4.496   5.611
 4097SOL    HW213191   6.026   4.441   5.484
 4098SOL     OW13192   2.095   2.864   1.616
 4098SOL    HW113193   2.012   2.903   1.656
 4098SOL    HW213194   2.161   2.938   1.601
 4099SOL     OW13195   3.643   4.955   6.923
 4099SOL    HW113196   3.596   4.991   6.843
 4099SOL    HW213197   3.672   5.031   6.982
 4100SOL     OW13198   1.003   0.756   3.866
 4100SOL    HW113199   1.014   0.657   3.859
 4100SOL    HW213200   1.063   0.792   3.937
 4101SOL     OW13201   6.603   1.022   6.241
 4101SOL    HW113202   6.605   1.121   6.234
 4101SOL    HW213203   6.697   0.987   6.248
 4102SOL     OW13204   2.151   0.765   0.608
 4102SOL    HW113205   2.147   0.672   0.642
 4102SOL    HW213206   2.109   0.769   0.517
 4103SOL     OW13207   0.048   0.123   2.240
 4103SOL    HW113208   0.147   0.138   2.242
 4103SOL    HW213209   0.011   0.162   2.156
 4104SOL     OW13210   0.238   5.084   3.147
 4104SOL    HW113211   0.196   5.041   3.227
 4104SOL    HW213212   0.176   5.077   3.069
 4105SOL     OW13213   5.039   1.300   1.932
 4105SOL    HW113214   4.966   1.362   1.960
 4105SOL    HW213215   5.035   1.217   1.989
 4106SOL     OW13216   0.139   2.225   3.700
 4106SOL    HW113217   0.045   2.193   3.703
 4106SOL    HW213218   0.182   2.214   3.790
 4107SOL     OW13219   0.473   5.993   6.583
 4107SOL    HW113220   0.504   5.907   6.542
 4107SOL    HW213221   0.497   6.069   6.523
 4108SOL     OW13222   0.732   5.695   4.163
 4108SOL    HW113223   0.736   5.747   4.247
 4108SOL    HW213224   0.704   5.755   4.088
 4109SOL     OW13225   5.833   5.939   3.461
 4109SOL    HW113226   5.780   5.947   3.376
 4109SOL    HW213227   5.854   6.030   3.495
 4110SOL     OW13228   3.895   3.095   6.441
 4110SOL    HW113229   3.985   3.106   6.483
 4110SOL    HW213230   3.906   3.075   6.343
 4111SOL     OW13231   5.724   5.031   6.269
 4111SOL    HW113232   5.712   5.119   6.223
 4111SOL    HW213233   5.640   4.978   6.263
 4112SOL     OW13234   5.262   6.789   4.728
 4112SOL    HW113235   5.350   6.813   4.686
 4112SOL    HW213236   5.223   6.870   4.771
 4113SOL     OW13237   4.378   5.249   4.914
 4113SOL    HW113238   4.337   5.175   4.860
 4113SOL    HW213239   4.461   5.280   4.870
 4114SOL     OW13240   6.177   1.315   3.099
 4114SOL    HW113241   6.251   1.349   3.158
 4114SOL    HW213242   6.205   1.229   3.057
 4115SOL     OW13243   2.595   4.894   3.424
 4115SOL    HW113244   2.568   4.927   3.514
 4115SOL    HW213245   2.695   4.899   3.415
 4116SOL     OW13246   5.201   2.652   3.657
 4116SOL    HW113247   5.114   2.605   3.641
 4116SOL    HW213248   5.267   2.625   3.587
 4117SOL     OW13249   1.354   2.015   2.921
 4117SOL    HW113250   1.368   2.090   2.857
 4117SOL    HW213251   1.443   1.984   2.956
 4118SOL     OW13252   6.555   6.802   6.220
 4118SOL    HW113253   6.503   6.801   6.134
 4118SOL    HW213254   6.491   6.799   6.297
 4119SOL     OW13255   3.020   0.669   3.217
 4119SOL    HW113256   3.085   0.738   3.248
 4119SOL    HW213257   3.069   0.592   3.176
 4120SOL     OW13258   4.355   1.565   6.341
 4120SOL    HW113259   4.385   1.562   6.246
 4120SOL    HW213260   4.265   1.522   6.349
 4121SOL     OW13261   6.536   6.651   2.225
 4121SOL    HW113262   6.577   6.650   2.316
 4121SOL    HW213263   6.462   6.719   2.222
 4122SOL     OW13264   0.875   6.550   4.745
 4122SOL    HW113265   0.825   6.617   4.799
 4122SOL    HW213266   0.815   6.471   4.727
 4123SOL     OW13267   4.440   5.328   4.343
 4123SOL    HW113268   4.434   5.269   4.423
 4123SOL    HW213269   4.385   5.410   4.357
 4124SOL     OW13270   6.695   6.750   1.062
 4124SOL    HW113271   6.609   6.800   1.048
 4124SOL    HW213272   6.763   6.813   1.100
 4125SOL     OW13273   4.773   2.780   2.619
 4125SOL    HW113274   4.762   2.853   2.687
 4125SOL    HW213275   4.870   2.759   2.609
 4126SOL     OW13276   1.580   2.903   1.992
 4126SOL    HW113277   1.654   2.839   1.969
 4126SOL    HW213278   1.598   2.943   2.082
 4127SOL     OW13279   4.652   2.592   4.799
 4127SOL    HW113280   4.566   2.575   4.751
 4127SOL    HW213281   4.650   2.549   4.889
 4128SOL     OW13282   0.549   2.985   1.525
 4128SOL    HW113283   0.603   2.904   1.550
 4128SOL    HW213284   0.545   2.992   1.425
 4129SOL     OW13285   3.779   1.513   0.371
 4129SOL    HW113286   3.827   1.538   0.287
 4129SOL    HW213287   3.701   1.574   0.384
 4130SOL     OW13288   6.157   2.461   0.725
 4130SOL    HW113289   6.089   2.411   0.779
 4130SOL    HW213290   6.239   2.478   0.780
 4131SOL     OW13291   6.561   0.777   2.492
 4131SOL    HW113292   6.503   0.701   2.462
 4131SOL    HW213293   6.556   0.785   2.592
 4132SOL     OW13294   5.991   3.879   4.235
 4132SOL    HW113295   5.961   3.974   4.224
 4132SOL    HW213296   5.942   3.837   4.311
 4133SOL     OW13297   4.720   6.395   1.237
 4133SOL    HW113298   4.708   6.297   1.221
 4133SOL    HW213299   4.700   6.446   1.153
 4134SOL     OW13300   2.563   3.294   0.540
 4134SOL    HW113301   2.640   3.332   0.489
 4134SOL    HW213302   2.498   3.367   0.561
 4135SOL     OW13303   0.322   2.229   2.656
 4135SOL    HW113304   0.255   2.245   2.729
 4135SOL    HW213305   0.360   2.137   2.666
 4136SOL     OW13306   1.065   3.584   1.829
 4136SOL    HW113307   1.041   3.585   1.732
 4136SOL    HW213308   1.072   3.678   1.863
 4137SOL     OW13309   1.126   2.743   0.235
 4137SOL    HW113310   1.124   2.669   0.168
 4137SOL    HW213311   1.180   2.820   0.198
 4138SOL     OW13312   4.372   5.129   1.323
 4138SOL    HW113313   4.462   5.089   1.308
 4138SOL    HW213314   4.302   5.070   1.283
 4139SOL     OW13315   1.332   2.152   3.968
 4139SOL    HW113316   1.266   2.077   3.974
 4139SOL    HW213317   1.294   2.233   4.013
 4140SOL     OW13318   3.423   2.033   4.046
 4140SOL    HW113319   3.376   1.945   4.046
 4140SOL    HW213320   3.428   2.069   4.140
 4141SOL     OW13321   4.904   0.267   0.009
 4141SOL    HW113322   4.832   0.282   0.077
 4141SOL    HW213323   4.920   0.169   7.017
 4142SOL     OW13324   0.025   4.240   1.873
 4142SOL    HW113325   7.002   4.211   1.959
 4142SOL    HW213326   0.119   4.207   1.869
 4143SOL     OW13327   5.247   3.299   0.711
 4143SOL    HW113328   5.292   3.269   0.626
 4143SOL    HW213329   5.189   3.226   0.745
 4144SOL     OW13330   5.235   1.560   0.272
 4144SOL    HW113331   5.191   1.557   0.362
 4144SOL    HW213332   5.304   1.488   0.267
 4145SOL     OW13333   1.201   6.219   0.656
 4145SOL    HW113334   1.238   6.249   0.568
 4145SOL    HW213335   1.249   6.137   0.686
 4146SOL     OW13336   6.522   0.822   4.137
 4146SOL    HW113337   6.591   0.776   4.193
 4146SOL    HW213338   6.564   0.853   4.052
 4147SOL     OW13339   5.398   4.637   6.185
 4147SOL    HW113340   5.462   4.635   6.262
 4147SOL    HW213341   5.305   4.653   6.219
 4148SOL     OW13342   2.638   0.558   5.466
 4148SOL    HW113343   2.596   0.640   5.506
 4148SOL    HW213344   2.676   0.581   5.377
 4149SOL     OW13345   0.112   3.608   1.778
 4149SOL    HW113346   0.160   3.694   1.761
 4149SOL    HW213347   0.036   3.624   1.841
 4150SOL     OW13348   6.884   1.997   5.314
 4150SOL    HW113349   6.962   2.010   5.253
 4150SOL    HW213350   6.836   1.913   5.289
 4151SOL     OW13351   1.867   0.241   5.250
 4151SOL    HW113352   1.768   0.240   5.258
 4151SOL    HW213353   1.907   0.272   5.337
 4152SOL     OW13354   4.204   5.552   2.091
 4152SOL    HW113355   4.109   5.571   2.115
 4152SOL    HW213356   4.236   5.473   2.143
 4153SOL     OW13357   6.559   4.899   1.721
 4153SOL    HW113358   6.638   4.837   1.722
 4153SOL    HW213359   6.585   4.986   1.763
 4154SOL     OW13360   0.532   5.670   3.498
 4154SOL    HW113361   0.437   5.650   3.475
 4154SOL    HW213362   0.579   5.708   3.418
 4155SOL     OW13363   6.920   2.044   1.158
 4155SOL    HW113364   6.986   2.061   1.084
 4155SOL    HW213365   6.827   2.060   1.124
 4156SOL     OW13366   6.742   5.213   4.891
 4156SOL    HW113367   6.646   5.215   4.864
 4156SOL    HW213368   6.778   5.306   4.895
 4157SOL     OW13369   5.905   5.995   3.079
 4157SOL    HW113370   5.916   5.906   3.122
 4157SOL    HW213371   5.822   5.996   3.023
 4158SOL     OW13372   1.978   2.442   1.957
 4158SOL    HW113373   2.041   2.366   1.942
 4158SOL    HW213374   1.906   2.441   1.887
 4159SOL     OW13375   3.149   2.153   3.367
 4159SOL    HW113376   3.236   2.187   3.404
 4159SOL    HW213377   3.078   2.164   3.437
 4160SOL     OW13378   5.900   0.071   0.055
 4160SOL    HW113379   5.910   0.131   6.995
 4160SOL    HW213380   5.803   0.053   0.070
 4161SOL     OW13381   1.644   1.911   1.655
 4161SOL    HW113382   1.634   2.004   1.688
 4161SOL    HW213383   1.717   1.907   1.586
 4162SOL     OW13384   6.164   5.572   1.475
 4162SOL    HW113385   6.220   5.566   1.558
 4162SOL    HW213386   6.164   5.483   1.429
 4163SOL     OW13387   5.872   1.498   3.314
 4163SOL    HW113388   5.916   1.410   3.294
 4163SOL    HW213389   5.862   1.550   3.229
 4164SOL     OW13390   1.033   6.760   5.567
 4164SOL    HW113391   0.933   6.756   5.576
 4164SOL    HW213392   1.057   6.805   5.481
 4165SOL     OW13393   4.723   7.000   6.160
 4165SOL    HW113394   4.700   0.078   6.160
 4165SOL    HW213395   4.685   6.956   6.079
 4166SOL     OW13396   5.692   1.323   1.525
 4166SOL    HW113397   5.661   1.395   1.464
 4166SOL    HW213398   5.653   1.235   1.496
 4167SOL     OW13399   2.860   5.190   6.387
 4167SOL    HW113400   2.930   5.162   6.322
 4167SOL    HW213401   2.879   5.283   6.420
 4168SOL     OW13402   6.971   4.326   0.661
 4168SOL    HW113403   6.887   4.274   0.679
 4168SOL    HW213404   6.994   4.319   0.564
 4169SOL     OW13405   6.021   3.891   5.154
 4169SOL    HW113406   6.085   3.916   5.082
 4169SOL    HW213407   6.015   3.965   5.221
 4170SOL     OW13408   4.697   2.807   5.187
 4170SOL    HW113409   4.709   2.786   5.090
 4170SOL    HW213410   4.687   2.905   5.200
 4171SOL     OW13411   0.835   5.527   1.063
 4171SOL    HW113412   0.823   5.463   1.138
 4171SOL    HW213413   0.842   5.476   0.977
 4172SOL     OW13414   2.229   2.871   0.466
 4172SOL    HW113415   2.290   2.796   0.492
 4172SOL    HW213416   2.272   2.959   0.489
 4173SOL     OW13417   4.894   3.167   5.486
 4173SOL    HW113418   4.886   3.138   5.582
 4173SOL    HW213419   4.861   3.261   5.477
 4174SOL     OW13420   5.118   1.443   2.281
 4174SOL    HW113421   5.209   1.419   2.247
 4174SOL    HW213422   5.116   1.432   2.380
 4175SOL     OW13423   1.645   4.498   4.840
 4175SOL    HW113424   1.711   4.445   4.787
 4175SOL    HW213425   1.659   4.480   4.938
 4176SOL     OW13426   4.204   6.764   1.628
 4176SOL    HW113427   4.292   6.732   1.664
 4176SOL    HW213428   4.205   6.758   1.528
 4177SOL     OW13429   5.511   4.631   5.028
 4177SOL    HW113430   5.533   4.648   4.932
 4177SOL    HW213431   5.511   4.532   5.045
 4178SOL     OW13432   4.258   0.441   3.113
 4178SOL    HW113433   4.275   0.526   3.163
 4178SOL    HW213434   4.160   0.428   3.100
 4179SOL     OW13435   5.331   3.868   3.355
 4179SOL    HW113436   5.416   3.888   3.404
 4179SOL    HW213437   5.337   3.778   3.312
 4180SOL     OW13438   4.753   2.826   0.953
 4180SOL    HW113439   4.746   2.745   1.011
 4180SOL    HW213440   4.668   2.839   0.903
 4181SOL     OW13441   4.773   0.638   6.713
 4181SOL    HW113442   4.839   0.564   6.703
 4181SOL    HW213443   4.712   0.618   6.789
 4182SOL     OW13444   0.490   5.127   3.024
 4182SOL    HW113445   0.398   5.130   3.061
 4182SOL    HW213446   0.512   5.034   2.994
 4183SOL     OW13447   2.946   1.111   0.313
 4183SOL    HW113448   2.897   1.186   0.267
 4183SOL    HW213449   2.980   1.143   0.402
 4184SOL     OW13450   3.630   0.253   2.377
 4184SOL    HW113451   3.728   0.273   2.374
 4184SOL    HW213452   3.599   0.222   2.288
 4185SOL     OW13453   0.744   4.103   2.976
 4185SOL    HW113454   0.804   4.162   2.922
 4185SOL    HW213455   0.657   4.091   2.929
 4186SOL     OW13456   2.290   5.828   6.534
 4186SOL    HW113457   2.308   5.892   6.459
 4186SOL    HW213458   2.218   5.866   6.593
 4187SOL     OW13459   2.467   2.899   6.297
 4187SOL    HW113460   2.520   2.887   6.213
 4187SOL    HW213461   2.377   2.855   6.286
 4188SOL     OW13462   5.212   0.841   5.093
 4188SOL    HW113463   5.225   0.900   5.172
 4188SOL    HW213464   5.180   0.751   5.123
 4189SOL     OW13465   3.781   4.930   4.277
 4189SOL    HW113466   3.698   4.985   4.284
 4189SOL    HW213467   3.790   4.896   4.184
 4190SOL     OW13468   1.133   0.170   0.960
 4190SOL    HW113469   1.046   0.136   0.925
 4190SOL    HW213470   1.155   0.257   0.915
 4191SOL     OW13471   5.452   3.991   4.836
 4191SOL    HW113472   5.516   3.929   4.880
 4191SOL    HW213473   5.474   3.998   4.739
 4192SOL     OW13474   1.161   1.394   2.704
 4192SOL    HW113475   1.184   1.406   2.800
 4192SOL    HW213476   1.164   1.483   2.658
 4193SOL     OW13477   5.335   0.801   0.583
 4193SOL    HW113478   5.304   0.844   0.668
 4193SOL    HW213479   5.431   0.774   0.593
 4194SOL     OW13480   4.799   0.088   4.205
 4194SOL    HW113481   4.871   0.028   4.171
 4194SOL    HW213482   4.814   0.181   4.170
 4195SOL     OW13483   4.170   4.977   1.679
 4195SOL    HW113484   4.210   5.065   1.705
 4195SOL    HW213485   4.197   4.907   1.746
 4196SOL     OW13486   6.700   2.445   2.750
 4196SOL    HW113487   6.754   2.409   2.826
 4196SOL    HW213488   6.607   2.463   2.780
 4197SOL     OW13489   4.468   5.196   5.735
 4197SOL    HW113490   4.511   5.243   5.658
 4197SOL    HW213491   4.387   5.148   5.703
 4198SOL     OW13492   6.549   1.841   1.179
 4198SOL    HW113493   6.552   1.932   1.138
 4198SOL    HW213494   6.572   1.773   1.109
 4199SOL     OW13495   1.071   2.246   5.339
 4199SOL    HW113496   1.067   2.148   5.323
 4199SOL    HW213497   1.028   2.267   5.427
 4200SOL     OW13498   2.900   0.539   6.881
 4200SOL    HW113499   2.876   0.636   6.875
 4200SOL    HW213500   2.946   0.522   6.968
 4201SOL     OW13501   6.280   0.214   3.803
 4201SOL    HW113502   6.309   0.187   3.895
 4201SOL    HW213503   6.238   0.136   3.757
 4202SOL     OW13504   2.280   5.479   6.232
 4202SOL    HW113505   2.216   5.417   6.187
 4202SOL    HW213506   2.235   5.525   6.309
 4203SOL     OW13507   4.807   4.414   0.605
 4203SOL    HW113508   4.858   4.338   0.565
 4203SOL    HW213509   4.823   4.497   0.551
 4204SOL     OW13510   4.066   3.669   4.581
 4204SOL    HW113511   4.029   3.580   4.606
 4204SOL    HW213512   4.084   3.672   4.483
 4205SOL     OW13513   4.126   6.059   4.717
 4205SOL    HW113514   4.076   5.973   4.716
 4205SOL    HW213515   4.091   6.119   4.645
 4206SOL     OW13516   6.151   1.585   5.043
 4206SOL    HW113517   6.108   1.581   4.953
 4206SOL    HW213518   6.138   1.676   5.082
 4207SOL     OW13519   2.125   2.729   1.855
 4207SOL    HW113520   2.137   2.768   1.764
 4207SOL    HW213521   2.044   2.670   1.856
 4208SOL     OW13522   0.250   3.423   5.387
 4208SOL    HW113523   0.174   3.470   5.341
 4208SOL    HW213524   0.251   3.449   5.484
 4209SOL     OW13525   0.176   6.226   3.614
 4209SOL    HW113526   0.168   6.143   3.559
 4209SOL    HW213527   0.189   6.202   3.710
 4210SOL     OW13528   3.090   3.027   2.780
 4210SOL    HW113529   3.162   3.039   2.711
 4210SOL    HW213530   3.127   3.049   2.870
 4211SOL     OW13531   3.906   0.558   5.452
 4211SOL    HW113532   3.821   0.556   5.505
 4211SOL    HW213533   3.936   0.464   5.435
 4212SOL     OW13534   6.336   1.928   3.052
 4212SOL    HW113535   6.383   2.008   3.088
 4212SOL    HW213536   6.238   1.933   3.074
 4213SOL     OW13537   2.827   0.438   2.514
 4213SOL    HW113538   2.838   0.494   2.431
 4213SOL    HW213539   2.767   0.485   2.578
 4214SOL     OW13540   0.193   5.502   5.613
 4214SOL    HW113541   0.196   5.414   5.566
 4214SOL    HW213542   0.098   5.532   5.622
 4215SOL     OW13543   4.907   0.115   5.444
 4215SOL    HW113544   4.971   0.039   5.439
 4215SOL    HW213545   4.949   0.192   5.492
 4216SOL     OW13546   1.442   0.980   2.974
 4216SOL    HW113547   1.404   1.014   2.888
 4216SOL    HW213548   1.391   1.019   3.051
 4217SOL     OW13549   1.279   1.145   2.803
 4217SOL    HW113550   1.195   1.170   2.850
 4217SOL    HW213551   1.257   1.094   2.720
 4218SOL     OW13552   3.321   0.785   1.497
 4218SOL    HW113553   3.388   0.712   1.510
 4218SOL    HW213554   3.366   0.864   1.456
 4219SOL     OW13555   4.292   5.544   4.456
 4219SOL    HW113556   4.221   5.537   4.527
 4219SOL    HW213557   4.318   5.640   4.446
 4220SOL     OW13558   6.505   3.152   2.622
 4220SOL    HW113559   6.586   3.210   2.630
 4220SOL    HW213560   6.514   3.093   2.541
 4221SOL     OW13561   5.479   4.455   5.999
 4221SOL    HW113562   5.391   4.415   5.975
 4221SOL    HW213563   5.464   4.535   6.058
 4222SOL     OW13564   6.797   1.497   2.256
 4222SOL    HW113565   6.801   1.580   2.311
 4222SOL    HW213566   6.718   1.442   2.283
 4223SOL     OW13567   2.953   3.869   0.923
 4223SOL    HW113568   2.959   3.836   0.829
 4223SOL    HW213569   2.959   3.792   0.986
 4224SOL     OW13570   5.699   5.060   4.241
 4224SOL    HW113571   5.613   5.037   4.195
 4224SOL    HW213572   5.725   5.154   4.219
 4225SOL     OW13573   1.937   2.472   5.034
 4225SOL    HW113574   2.032   2.489   5.061
 4225SOL    HW213575   1.887   2.433   5.111
 4226SOL     OW13576   0.754   6.379   2.871
 4226SOL    HW113577   0.827   6.312   2.865
 4226SOL    HW213578   0.685   6.361   2.801
 4227SOL     OW13579   3.536   5.315   2.001
 4227SOL    HW113580   3.613   5.274   1.953
 4227SOL    HW213581   3.467   5.345   1.934
 4228SOL     OW13582   0.957   6.348   5.780
 4228SOL    HW113583   0.858   6.348   5.762
 4228SOL    HW213584   1.006   6.366   5.695
 4229SOL     OW13585   4.691   5.903   5.844
 4229SOL    HW113586   4.746   5.906   5.760
 4229SOL    HW213587   4.677   5.996   5.877
 4230SOL     OW13588   1.587   5.738   3.082
 4230SOL    HW113589   1.615   5.647   3.112
 4230SOL    HW213590   1.530   5.781   3.152
 4231SOL     OW13591   5.315   6.744   5.918
 4231SOL    HW113592   5.266   6.765   6.003
 4231SOL    HW213593   5.319   6.826   5.861
 4232SOL     OW13594   1.419   4.537   3.051
 4232SOL    HW113595   1.500   4.482   3.028
 4232SOL    HW213596   1.343   4.509   2.993
 4233SOL     OW13597   6.165   0.576   4.897
 4233SOL    HW113598   6.191   0.480   4.909
 4233SOL    HW213599   6.232   0.635   4.942
 4234SOL     OW13600   2.021   4.906   5.428
 4234SOL    HW113601   2.106   4.908   5.479
 4234SOL    HW213602   1.991   4.999   5.408
 4235SOL     OW13603   5.969   3.989   5.915
 4235SOL    HW113604   5.978   3.989   6.014
 4235SOL    HW213605   5.881   4.028   5.889
 4236SOL     OW13606   6.094   3.677   2.160
 4236SOL    HW113607   6.142   3.638   2.081
 4236SOL    HW213608   5.996   3.658   2.152
 4237SOL     OW13609   5.932   5.236   3.850
 4237SOL    HW113610   6.017   5.195   3.883
 4237SOL    HW213611   5.898   5.302   3.917
 4238SOL     OW13612   1.742   6.417   3.003
 4238SOL    HW113613   1.733   6.394   2.907
 4238SOL    HW213614   1.833   6.391   3.036
 4239SOL     OW13615   4.995   1.467   2.999
 4239SOL    HW113616   5.064   1.529   2.962
 4239SOL    HW213617   4.914   1.468   2.939
 4240SOL     OW13618   2.035   5.596   0.451
 4240SOL    HW113619   2.101   5.602   0.526
 4240SOL    HW213620   1.944   5.578   0.488
 4241SOL     OW13621   5.759   1.148   0.816
 4241SOL    HW113622   5.689   1.155   0.744
 4241SOL    HW213623   5.805   1.236   0.826
 4242SOL     OW13624   3.277   2.136   4.514
 4242SOL    HW113625   3.260   2.152   4.612
 4242SOL    HW213626   3.190   2.134   4.465
 4243SOL     OW13627   5.717   2.669   2.761
 4243SOL    HW113628   5.674   2.758   2.745
 4243SOL    HW213629   5.667   2.621   2.834
 4244SOL     OW13630   4.100   4.151   1.603
 4244SOL    HW113631   4.139   4.110   1.521
 4244SOL    HW213632   4.142   4.241   1.618
 4245SOL     OW13633   6.618   1.597   6.278
 4245SOL    HW113634   6.683   1.639   6.214
 4245SOL    HW213635   6.571   1.667   6.330
 4246SOL     OW13636   6.892   3.756   2.990
 4246SOL    HW113637   6.876   3.658   3.003
 4246SOL    HW213638   6.834   3.807   3.054
 4247SOL     OW13639   2.639   5.871   3.519
 4247SOL    HW113640   2.604   5.813   3.446
 4247SOL    HW213641   2.625   5.967   3.496
 4248SOL     OW13642   3.484   1.182   3.758
 4248SOL    HW113643   3.523   1.161   3.668
 4248SOL    HW213644   3.390   1.147   3.763
 4249SOL     OW13645   6.877   2.753   4.952
 4249SOL    HW113646   6.904   2.848   4.969
 4249SOL    HW213647   6.908   2.725   4.861
 4250SOL     OW13648   6.518   4.366   2.847
 4250SOL    HW113649   6.579   4.445   2.854
 4250SOL    HW213650   6.560   4.296   2.789
 4251SOL     OW13651   5.746   4.500   0.883
 4251SOL    HW113652   5.811   4.476   0.955
 4251SOL    HW213653   5.714   4.416   0.838
 4252SOL     OW13654   6.019   6.106   5.089
 4252SOL    HW113655   5.932   6.142   5.123
 4252SOL    HW213656   6.094   6.152   5.136
 4253SOL     OW13657   3.318   6.437   0.693
 4253SOL    HW113658   3.383   6.467   0.623
 4253SOL    HW213659   3.273   6.353   0.663
 4254SOL     OW13660   1.005   2.547   2.214
 4254SOL    HW113661   0.916   2.505   2.229
 4254SOL    HW213662   1.056   2.549   2.300
 4255SOL     OW13663   5.802   3.770   3.488
 4255SOL    HW113664   5.745   3.692   3.463
 4255SOL    HW213665   5.810   3.776   3.587
 4256SOL     OW13666   1.644   0.308   0.749
 4256SOL    HW113667   1.695   0.375   0.803
 4256SOL    HW213668   1.592   0.248   0.810
 4257SOL     OW13669   3.465   0.486   3.796
 4257SOL    HW113670   3.435   0.410   3.737
 4257SOL    HW213671   3.490   0.450   3.885
 4258SOL     OW13672   5.328   6.181   1.357
 4258SOL    HW113673   5.254   6.131   1.402
 4258SOL    HW213674   5.290   6.240   1.286
 4259SOL     OW13675   2.795   0.711   0.071
 4259SOL    HW113676   2.870   0.717   0.136
 4259SOL    HW213677   2.808   0.778   7.018
 4260SOL     OW13678   5.007   6.803   6.565
 4260SOL    HW113679   4.947   6.830   6.641
 4260SOL    HW213680   4.951   6.771   6.488
 4261SOL     OW13681   1.891   0.067   1.639
 4261SOL    HW113682   1.835   0.125   1.698
 4261SOL    HW213683   1.981   0.055   1.681
 4262SOL     OW13684   0.470   3.951   5.047
 4262SOL    HW113685   0.546   3.887   5.038
 4262SOL    HW213686   0.498   4.028   5.105
 4263SOL     OW13687   2.648   6.406   3.249
 4263SOL    HW113688   2.671   6.502   3.233
 4263SOL    HW213689   2.549   6.395   3.250
 4264SOL     OW13690   0.341   2.683   2.702
 4264SOL    HW113691   0.358   2.634   2.617
 4264SOL    HW213692   0.379   2.631   2.779
 4265SOL     OW13693   5.550   1.443   0.817
 4265SOL    HW113694   5.474   1.379   0.830
 4265SOL    HW213695   5.608   1.411   0.742
 4266SOL     OW13696   1.877   4.910   0.359
 4266SOL    HW113697   1.797   4.966   0.378
 4266SOL    HW213698   1.859   4.850   0.281
 4267SOL     OW13699   1.848   3.661   4.585
 4267SOL    HW113700   1.923   3.659   4.650
 4267SOL    HW213701   1.762   3.646   4.633
 4268SOL     OW13702   1.519   6.013   6.341
 4268SOL    HW113703   1.462   6.003   6.423
 4268SOL    HW213704   1.470   5.977   6.262
 4269SOL     OW13705   2.423   1.029   1.880
 4269SOL    HW113706   2.464   1.066   1.964
 4269SOL    HW213707   2.427   1.097   1.808
 4270SOL     OW13708   4.011   3.774   3.845
 4270SOL    HW113709   3.992   3.776   3.747
 4270SOL    HW213710   4.064   3.855   3.870
 4271SOL     OW13711   0.411   1.365   6.994
 4271SOL    HW113712   0.371   1.411   6.915
 4271SOL    HW213713   0.347   1.371   0.052
 4272SOL     OW13714   0.280   3.167   5.002
 4272SOL    HW113715   0.212   3.193   4.934
 4272SOL    HW213716   0.321   3.080   4.977
 4273SOL     OW13717   4.826   6.004   5.261
 4273SOL    HW113718   4.847   6.042   5.171
 4273SOL    HW213719   4.911   5.974   5.305
 4274SOL     OW13720   1.700   6.917   1.759
 4274SOL    HW113721   1.780   6.924   1.699
 4274SOL    HW213722   1.722   6.960   1.847
 4275SOL     OW13723   6.645   1.224   4.945
 4275SOL    HW113724   6.632   1.210   4.847
 4275SOL    HW213725   6.577   1.290   4.979
 4276SOL     OW13726   1.959   4.821   3.787
 4276SOL    HW113727   2.040   4.869   3.756
 4276SOL    HW213728   1.877   4.865   3.749
 4277SOL     OW13729   6.439   4.398   4.137
 4277SOL    HW113730   6.494   4.329   4.185
 4277SOL    HW213731   6.489   4.430   4.057
 4278SOL     OW13732   0.311   0.738   4.382
 4278SOL    HW113733   0.348   0.674   4.451
 4278SOL    HW213734   0.302   0.829   4.423
 4279SOL     OW13735   3.727   0.016   5.238
 4279SOL    HW113736   3.811   0.065   5.215
 4279SOL    HW213737   3.670   0.008   5.157
 4280SOL     OW13738   5.259   0.235   5.838
 4280SOL    HW113739   5.161   0.216   5.829
 4280SOL    HW213740   5.282   0.250   5.934
 4281SOL     OW13741   1.211   5.167   3.919
 4281SOL    HW113742   1.192   5.265   3.922
 4281SOL    HW213743   1.230   5.133   4.011
 4282SOL     OW13744   3.520   3.661   6.637
 4282SOL    HW113745   3.612   3.627   6.617
 4282SOL    HW213746   3.516   3.759   6.618
 4283SOL     OW13747   2.234   0.647   3.394
 4283SOL    HW113748   2.284   0.684   3.472
 4283SOL    HW213749   2.229   0.548   3.401
 4284SOL     OW13750   4.589   4.969   1.306
 4284SOL    HW113751   4.685   4.981   1.332
 4284SOL    HW213752   4.571   4.873   1.287
 4285SOL     OW13753   0.407   0.779   5.964
 4285SOL    HW113754   0.399   0.786   6.063
 4285SOL    HW213755   0.334   0.719   5.929
 4286SOL     OW13756   4.816   6.018   6.129
 4286SOL    HW113757   4.774   6.108   6.129
 4286SOL    HW213758   4.889   6.015   6.060
 4287SOL     OW13759   5.529   1.579   6.981
 4287SOL    HW113760   5.567   1.634   6.906
 4287SOL    HW213761   5.479   1.638   0.025
 4288SOL     OW13762   1.557   5.830   3.557
 4288SOL    HW113763   1.532   5.749   3.609
 4288SOL    HW213764   1.587   5.902   3.620
 4289SOL     OW13765   6.575   3.349   0.792
 4289SOL    HW113766   6.643   3.310   0.854
 4289SOL    HW213767   6.575   3.299   0.706
 4290SOL     OW13768   1.963   6.928   2.678
 4290SOL    HW113769   1.915   6.843   2.658
 4290SOL    HW213770   1.902   6.990   2.726
 4291SOL     OW13771   3.966   3.690   1.202
 4291SOL    HW113772   4.007   3.766   1.252
 4291SOL    HW213773   3.966   3.608   1.260
 4292SOL     OW13774   6.299   4.594   6.247
 4292SOL    HW113775   6.397   4.590   6.226
 4292SOL    HW213776   6.272   4.689   6.261
 4293SOL     OW13777   0.948   3.490   0.738
 4293SOL    HW113778   0.926   3.401   0.777
 4293SOL    HW213779   0.880   3.514   0.669
 4294SOL     OW13780   2.938   2.811   0.136
 4294SOL    HW113781   2.932   2.783   0.041
 4294SOL    HW213782   2.945   2.910   0.142
 4295SOL     OW13783   3.871   5.593   4.476
 4295SOL    HW113784   3.932   5.614   4.553
 4295SOL    HW213785   3.849   5.496   4.477
 4296SOL     OW13786   4.439   0.750   0.533
 4296SOL    HW113787   4.340   0.760   0.541
 4296SOL    HW213788   4.468   0.777   0.441
 4297SOL     OW13789   5.389   0.783   6.653
 4297SOL    HW113790   5.488   0.794   6.669
 4297SOL    HW213791   5.351   0.722   6.723
 4298SOL     OW13792   3.228   5.358   6.898
 4298SOL    HW113793   3.149   5.419   6.905
 4298SOL    HW213794   3.304   5.394   6.953
 4299SOL     OW13795   1.188   2.948   0.060
 4299SOL    HW113796   1.260   3.000   0.105
 4299SOL    HW213797   1.216   2.926   6.986
 4300SOL     OW13798   3.957   0.612   6.990
 4300SOL    HW113799   3.910   0.550   0.034
 4300SOL    HW213800   3.923   0.597   6.897
 4301SOL     OW13801   3.711   1.869   0.871
 4301SOL    HW113802   3.783   1.833   0.812
 4301SOL    HW213803   3.751   1.901   0.957
 4302SOL     OW13804   1.357   6.747   5.581
 4302SOL    HW113805   1.422   6.671   5.582
 4302SOL    HW213806   1.271   6.717   5.538
 4303SOL     OW13807   6.120   4.833   4.321
 4303SOL    HW113808   6.144   4.769   4.248
 4303SOL    HW213809   6.021   4.841   4.328
 4304SOL     OW13810   3.220   4.063   3.334
 4304SOL    HW113811   3.293   4.123   3.300
 4304SOL    HW213812   3.152   4.049   3.262
 4305SOL     OW13813   6.480   0.689   4.601
 4305SOL    HW113814   6.535   0.683   4.684
 4305SOL    HW213815   6.531   0.650   4.524
 4306SOL     OW13816   6.633   3.315   6.885
 4306SOL    HW113817   6.661   3.267   6.802
 4306SOL    HW213818   6.709   3.369   6.920
 4307SOL     OW13819   4.382   3.568   5.959
 4307SOL    HW113820   4.312   3.596   6.025
 4307SOL    HW213821   4.460   3.631   5.966
 4308SOL     OW13822   5.870   5.567   6.548
 4308SOL    HW113823   5.901   5.474   6.524
 4308SOL    HW213824   5.797   5.594   6.486
 4309SOL     OW13825   1.367   1.525   0.436
 4309SOL    HW113826   1.291   1.567   0.385
 4309SOL    HW213827   1.355   1.541   0.534
 4310SOL     OW13828   1.683   2.817   3.132
 4310SOL    HW113829   1.659   2.757   3.209
 4310SOL    HW213830   1.664   2.912   3.157
 4311SOL     OW13831   1.899   5.920   3.909
 4311SOL    HW113832   1.993   5.952   3.895
 4311SOL    HW213833   1.900   5.843   3.973
 4312SOL     OW13834   1.220   4.866   0.562
 4312SOL    HW113835   1.186   4.930   0.492
 4312SOL    HW213836   1.227   4.913   0.650
 4313SOL     OW13837   4.721   1.817   1.257
 4313SOL    HW113838   4.625   1.792   1.269
 4313SOL    HW213839   4.749   1.799   1.162
 4314SOL     OW13840   5.797   1.459   4.331
 4314SOL    HW113841   5.802   1.427   4.426
 4314SOL    HW213842   5.881   1.436   4.284
 4315SOL     OW13843   2.635   6.946   2.241
 4315SOL    HW113844   2.564   6.883   2.210
 4315SOL    HW213845   2.599   0.020   2.241
 4316SOL     OW13846   5.014   6.986   1.226
 4316SOL    HW113847   5.048   6.923   1.156
 4316SOL    HW213848   5.017   6.941   1.315
 4317SOL     OW13849   4.110   1.635   5.278
 4317SOL    HW113850   4.046   1.563   5.250
 4317SOL    HW213851   4.189   1.636   5.217
 4318SOL     OW13852   0.820   3.639   3.672
 4318SOL    HW113853   0.858   3.637   3.579
 4318SOL    HW213854   0.741   3.579   3.677
 4319SOL     OW13855   2.147   2.640   0.303
 4319SOL    HW113856   2.162   2.653   0.205
 4319SOL    HW213857   2.080   2.706   0.337
 4320SOL     OW13858   5.761   6.304   2.113
 4320SOL    HW113859   5.668   6.271   2.097
 4320SOL    HW213860   5.786   6.286   2.208
 4321SOL     OW13861   6.921   6.575   5.059
 4321SOL    HW113862   6.888   6.485   5.031
 4321SOL    HW213863   6.957   6.570   5.152
 4322SOL     OW13864   6.412   2.058   6.805
 4322SOL    HW113865   6.382   2.149   6.834
 4322SOL    HW213866   6.464   2.066   6.720
 4323SOL     OW13867   4.934   4.260   1.271
 4323SOL    HW113868   5.026   4.221   1.270
 4323SOL    HW213869   4.866   4.188   1.257
 4324SOL     OW13870   5.621   3.996   6.228
 4324SOL    HW113871   5.557   3.987   6.303
 4324SOL    HW213872   5.574   3.975   6.142
 4325SOL     OW13873   2.744   1.052   1.349
 4325SOL    HW113874   2.801   1.102   1.414
 4325SOL    HW213875   2.788   0.966   1.324
 4326SOL     OW13876   5.460   3.678   5.146
 4326SOL    HW113877   5.376   3.632   5.114
 4326SOL    HW213878   5.469   3.665   5.244
 4327SOL     OW13879   6.006   5.468   2.081
 4327SOL    HW113880   5.975   5.554   2.040
 4327SOL    HW213881   6.054   5.488   2.166
 4328SOL     OW13882   4.233   3.549   5.689
 4328SOL    HW113883   4.279   3.540   5.778
 4328SOL    HW213884   4.236   3.461   5.642
 4329SOL     OW13885   3.944   2.071   5.652
 4329SOL    HW113886   3.995   2.011   5.591
 4329SOL    HW213887   3.856   2.029   5.674
 4330SOL     OW13888   2.704   0.427   5.062
 4330SOL    HW113889   2.679   0.521   5.082
 4330SOL    HW213890   2.762   0.425   4.980
 4331SOL     OW13891   5.328   2.838   0.336
 4331SOL    HW113892   5.253   2.856   0.273
 4331SOL    HW213893   5.292   2.824   0.428
 4332SOL     OW13894   5.141   4.543   2.471
 4332SOL    HW113895   5.160   4.592   2.386
 4332SOL    HW213896   5.081   4.599   2.528
 4333SOL     OW13897   4.226   0.450   5.045
 4333SOL    HW113898   4.236   0.539   5.090
 4333SOL    HW213899   4.302   0.390   5.072
 4334SOL     OW13900   1.837   2.036   2.944
 4334SOL    HW113901   1.924   1.987   2.939
 4334SOL    HW213902   1.789   2.028   2.857
 4335SOL     OW13903   3.553   3.759   2.910
 4335SOL    HW113904   3.569   3.858   2.919
 4335SOL    HW213905   3.619   3.720   2.846
 4336SOL     OW13906   1.413   6.722   6.358
 4336SOL    HW113907   1.475   6.778   6.414
 4336SOL    HW213908   1.413   6.628   6.393
 4337SOL     OW13909   0.784   4.764   0.779
 4337SOL    HW113910   0.862   4.813   0.819
 4337SOL    HW213911   0.790   4.766   0.680
 4338SOL     OW13912   5.206   5.483   4.598
 4338SOL    HW113913   5.152   5.505   4.679
 4338SOL    HW213914   5.149   5.434   4.533
 4339SOL     OW13915   6.450   3.002   5.297
 4339SOL    HW113916   6.475   3.083   5.243
 4339SOL    HW213917   6.509   2.925   5.271
 4340SOL     OW13918   6.378   4.206   1.589
 4340SOL    HW113919   6.313   4.138   1.621
 4340SOL    HW213920   6.348   4.242   1.500
 4341SOL     OW13921   0.304   6.112   2.170
 4341SOL    HW113922   0.282   6.040   2.104
 4341SOL    HW213923   0.227   6.127   2.231
 4342SOL     OW13924   6.422   3.559   4.175
 4342SOL    HW113925   6.330   3.586   4.146
 4342SOL    HW213926   6.419   3.465   4.211
 4343SOL     OW13927   2.596   6.168   6.196
 4343SOL    HW113928   2.655   6.230   6.144
 4343SOL    HW213929   2.555   6.101   6.133
 4344SOL     OW13930   1.683   5.521   3.222
 4344SOL    HW113931   1.751   5.543   3.291
 4344SOL    HW213932   1.696   5.428   3.190
 4345SOL     OW13933   2.263   2.781   5.059
 4345SOL    HW113934   2.318   2.864   5.070
 4345SOL    HW213935   2.166   2.807   5.056
 4346SOL     OW13936   1.798   3.219   2.025
 4346SOL    HW113937   1.846   3.300   1.994
 4346SOL    HW213938   1.714   3.245   2.073
 4347SOL     OW13939   5.911   6.812   2.914
 4347SOL    HW113940   5.912   6.809   2.814
 4347SOL    HW213941   5.856   6.890   2.944
 4348SOL     OW13942   6.936   4.208   2.737
 4348SOL    HW113943   6.957   4.131   2.798
 4348SOL    HW213944   7.008   4.277   2.745
 4349SOL     OW13945   6.832   1.717   2.407
 4349SOL    HW113946   6.827   1.768   2.493
 4349SOL    HW213947   6.772   1.759   2.339
 4350SOL     OW13948   5.173   2.266   4.022
 4350SOL    HW113949   5.144   2.174   3.997
 4350SOL    HW213950   5.237   2.300   3.953
 4351SOL     OW13951   1.767   6.668   0.945
 4351SOL    HW113952   1.688   6.619   0.907
 4351SOL    HW213953   1.786   6.635   1.037
 4352SOL     OW13954   0.618   2.982   2.241
 4352SOL    HW113955   0.614   3.081   2.252
 4352SOL    HW213956   0.708   2.956   2.207
 4353SOL     OW13957   3.490   3.269   0.125
 4353SOL    HW113958   3.433   3.198   0.083
 4353SOL    HW213959   3.563   3.295   0.061
 4354SOL     OW13960   2.542   7.009   5.909
 4354SOL    HW113961   2.462   6.953   5.888
 4354SOL    HW213962   2.599   6.962   5.977
 4355SOL     OW13963   3.221   0.271   2.481
 4355SOL    HW113964   3.316   0.247   2.500
 4355SOL    HW213965   3.201   0.255   2.385
 4356SOL     OW13966   4.914   4.114   0.846
 4356SOL    HW113967   4.890   4.071   0.933
 4356SOL    HW213968   4.879   4.208   0.844
 4357SOL     OW13969   6.119   0.219   0.301
 4357SOL    HW113970   6.030   0.172   0.298
 4357SOL    HW213971   6.191   0.157   0.271
 4358SOL     OW13972   0.096   6.259   6.934
 4358SOL    HW113973   0.191   6.265   6.902
 4358SOL    HW213974   0.070   6.162   6.942
 4359SOL     OW13975   1.980   2.161   6.361
 4359SOL    HW113976   2.050   2.179   6.429
 4359SOL    HW213977   2.016   2.098   6.292
 4360SOL     OW13978   1.250   2.391   4.108
 4360SOL    HW113979   1.321   2.453   4.143
 4360SOL    HW213980   1.161   2.436   4.113
 4361SOL     OW13981   2.662   3.258   1.379
 4361SOL    HW113982   2.668   3.281   1.476
 4361SOL    HW213983   2.665   3.343   1.325
 4362SOL     OW13984   6.317   5.102   2.974
 4362SOL    HW113985   6.261   5.183   2.993
 4362SOL    HW213986   6.316   5.083   2.876
 4363SOL     OW13987   4.887   2.795   6.981
 4363SOL    HW113988   4.903   2.893   6.972
 4363SOL    HW213989   4.789   2.778   6.992
 4364SOL     OW13990   3.402   3.596   5.130
 4364SOL    HW113991   3.355   3.663   5.073
 4364SOL    HW213992   3.501   3.610   5.122
 4365SOL     OW13993   2.230   2.228   1.910
 4365SOL    HW113994   2.236   2.295   1.836
 4365SOL    HW213995   2.319   2.219   1.955
 4366SOL     OW13996   6.186   6.547   0.408
 4366SOL    HW113997   6.182   6.556   0.507
 4366SOL    HW213998   6.095   6.532   0.371
 4367SOL     OW13999   2.379   4.550   4.893
 4367SOL    HW114000   2.458   4.608   4.875
 4367SOL    HW214001   2.391   4.502   4.980
 4368SOL     OW14002   4.017   4.318   0.783
 4368SOL    HW114003   4.079   4.239   0.784
 4368SOL    HW214004   3.954   4.309   0.706
 4369SOL     OW14005   3.405   5.568   4.120
 4369SOL    HW114006   3.383   5.560   4.023
 4369SOL    HW214007   3.501   5.595   4.130
 4370SOL     OW14008   5.317   5.077   2.889
 4370SOL    HW114009   5.367   5.152   2.846
 4370SOL    HW214010   5.325   5.084   2.989
 4371SOL     OW14011   0.577   1.316   1.411
 4371SOL    HW114012   0.491   1.340   1.366
 4371SOL    HW214013   0.642   1.280   1.344
 4372SOL     OW14014   3.827   1.177   3.026
 4372SOL    HW114015   3.822   1.277   3.031
 4372SOL    HW214016   3.811   1.138   3.116
 4373SOL     OW14017   0.044   2.320   6.725
 4373SOL    HW114018   0.079   2.227   6.744
 4373SOL    HW214019   0.030   2.330   6.627
 4374SOL     OW14020   1.046   1.897   2.411
 4374SOL    HW114021   0.948   1.877   2.414
 4374SOL    HW214022   1.083   1.895   2.504
 4375SOL     OW14023   3.724   0.413   3.176
 4375SOL    HW114024   3.728   0.476   3.099
 4375SOL    HW214025   3.696   0.322   3.145
 4376SOL     OW14026   6.460   6.741   2.718
 4376SOL    HW114027   6.411   6.813   2.668
 4376SOL    HW214028   6.398   6.663   2.732
 4377SOL     OW14029   5.410   4.318   0.747
 4377SOL    HW114030   5.338   4.256   0.779
 4377SOL    HW214031   5.369   4.405   0.719
 4378SOL     OW14032   2.118   1.254   2.861
 4378SOL    HW114033   2.155   1.337   2.902
 4378SOL    HW214034   2.073   1.199   2.930
 4379SOL     OW14035   1.930   1.035   2.753
 4379SOL    HW114036   2.026   1.061   2.755
 4379SOL    HW214037   1.910   0.985   2.668
 4380SOL     OW14038   1.774   6.728   2.657
 4380SOL    HW114039   1.701   6.739   2.589
 4380SOL    HW214040   1.835   6.654   2.627
 4381SOL     OW14041   0.670   5.838   5.602
 4381SOL    HW114042   0.669   5.875   5.695
 4381SOL    HW214043   0.576   5.827   5.570
 4382SOL     OW14044   0.966   3.812   5.078
 4382SOL    HW114045   0.906   3.870   5.133
 4382SOL    HW214046   0.912   3.759   5.013
 4383SOL     OW14047   0.274   3.316   0.067
 4383SOL    HW114048   0.291   3.217   0.064
 4383SOL    HW214049   0.208   3.336   0.139
 4384SOL     OW14050   6.007   0.237   4.537
 4384SOL    HW114051   6.012   0.298   4.616
 4384SOL    HW214052   5.930   0.263   4.479
 4385SOL     OW14053   5.040   2.765   4.885
 4385SOL    HW114054   5.040   2.838   4.954
 4385SOL    HW214055   5.051   2.677   4.929
 4386SOL     OW14056   1.796   3.431   5.865
 4386SOL    HW114057   1.705   3.433   5.823
 4386SOL    HW214058   1.810   3.515   5.917
 4387SOL     OW14059   6.599   2.599   1.607
 4387SOL    HW114060   6.515   2.565   1.649
 4387SOL    HW214061   6.605   2.698   1.619
 4388SOL     OW14062   4.167   2.375   5.694
 4388SOL    HW114063   4.094   2.418   5.640
 4388SOL    HW214064   4.234   2.334   5.632
 4389SOL     OW14065   6.119   3.263   1.200
 4389SOL    HW114066   6.054   3.252   1.125
 4389SOL    HW214067   6.177   3.182   1.206
 4390SOL     OW14068   3.490   6.793   1.747
 4390SOL    HW114069   3.390   6.789   1.743
 4390SOL    HW214070   3.518   6.830   1.836
 4391SOL     OW14071   2.107   6.026   0.089
 4391SOL    HW114072   2.080   5.969   0.012
 4391SOL    HW214073   2.073   5.987   0.174
 4392SOL     OW14074   0.478   2.791   5.203
 4392SOL    HW114075   0.569   2.803   5.243
 4392SOL    HW214076   0.445   2.698   5.223
 4393SOL     OW14077   6.361   1.091   1.921
 4393SOL    HW114078   6.325   1.070   2.012
 4393SOL    HW214079   6.457   1.117   1.929
 4394SOL     OW14080   6.934   5.692   2.488
 4394SOL    HW114081   6.872   5.770   2.481
 4394SOL    HW214082   7.006   5.701   2.419
 4395SOL     OW14083   2.111   0.298   1.996
 4395SOL    HW114084   2.027   0.343   2.027
 4395SOL    HW214085   2.140   0.338   1.909
 4396SOL     OW14086   1.660   1.496   4.013
 4396SOL    HW114087   1.681   1.594   4.006
 4396SOL    HW214088   1.733   1.450   4.065
 4397SOL     OW14089   1.884   2.574   4.030
 4397SOL    HW114090   1.829   2.541   3.954
 4397SOL    HW214091   1.954   2.506   4.052
 4398SOL     OW14092   1.056   3.371   5.863
 4398SOL    HW114093   0.985   3.357   5.931
 4398SOL    HW214094   1.092   3.282   5.834
 4399SOL     OW14095   3.599   6.171   2.603
 4399SOL    HW114096   3.518   6.158   2.661
 4399SOL    HW214097   3.580   6.244   2.537
 4400SOL     OW14098   2.226   6.752   5.009
 4400SOL    HW114099   2.195   6.680   5.071
 4400SOL    HW214100   2.321   6.737   4.984
 4401SOL     OW14101   2.787   6.919   5.720
 4401SOL    HW114102   2.702   6.910   5.772
 4401SOL    HW214103   2.796   7.012   5.687
 4402SOL     OW14104   1.700   0.364   2.577
 4402SOL    HW114105   1.670   0.458   2.591
 4402SOL    HW214106   1.772   0.342   2.644
 4403SOL     OW14107   0.896   0.262   0.482
 4403SOL    HW114108   0.907   0.358   0.509
 4403SOL    HW214109   0.799   0.245   0.462
 4404SOL     OW14110   1.754   6.406   5.732
 4404SOL    HW114111   1.743   6.335   5.663
 4404SOL    HW214112   1.669   6.459   5.739
 4405SOL     OW14113   1.918   4.548   1.754
 4405SOL    HW114114   1.936   4.548   1.655
 4405SOL    HW214115   1.852   4.619   1.775
 4406SOL     OW14116   0.900   2.770   0.843
 4406SOL    HW114117   0.817   2.815   0.811
 4406SOL    HW214118   0.930   2.812   0.928
 4407SOL     OW14119   6.762   5.677   1.455
 4407SOL    HW114120   6.767   5.597   1.395
 4407SOL    HW214121   6.850   5.724   1.455
 4408SOL     OW14122   2.318   0.116   0.473
 4408SOL    HW114123   2.247   0.163   0.420
 4408SOL    HW214124   2.347   0.175   0.548
 4409SOL     OW14125   4.371   1.383   2.120
 4409SOL    HW114126   4.421   1.340   2.195
 4409SOL    HW214127   4.298   1.322   2.089
 4410SOL     OW14128   0.499   4.722   0.399
 4410SOL    HW114129   0.427   4.679   0.345
 4410SOL    HW214130   0.472   4.816   0.423
 4411SOL     OW14131   3.803   4.121   5.000
 4411SOL    HW114132   3.709   4.092   4.981
 4411SOL    HW214133   3.840   4.166   4.919
 4412SOL     OW14134   4.824   6.133   4.151
 4412SOL    HW114135   4.763   6.054   4.142
 4412SOL    HW214136   4.877   6.145   4.067
 4413SOL     OW14137   5.961   4.657   3.989
 4413SOL    HW114138   6.051   4.622   4.013
 4413SOL    HW214139   5.892   4.614   4.046
 4414SOL     OW14140   3.335   5.919   1.192
 4414SOL    HW114141   3.425   5.945   1.155
 4414SOL    HW214142   3.283   6.002   1.214
 4415SOL     OW14143   4.459   2.813   6.775
 4415SOL    HW114144   4.374   2.840   6.729
 4415SOL    HW214145   4.504   2.894   6.813
 4416SOL     OW14146   4.271   1.816   3.998
 4416SOL    HW114147   4.308   1.808   4.090
 4416SOL    HW214148   4.202   1.745   3.983
 4417SOL     OW14149   5.995   3.743   3.995
 4417SOL    HW114150   5.997   3.769   4.091
 4417SOL    HW214151   6.027   3.819   3.939
 4418SOL     OW14152   6.536   1.376   2.939
 4418SOL    HW114153   6.458   1.333   2.894
 4418SOL    HW214154   6.510   1.466   2.974
 4419SOL     OW14155   6.278   0.355   5.521
 4419SOL    HW114156   6.366   0.312   5.502
 4419SOL    HW214157   6.261   0.355   5.620
 4420SOL     OW14158   4.032   1.124   1.955
 4420SOL    HW114159   3.990   1.215   1.950
 4420SOL    HW214160   3.959   1.055   1.960
 4421SOL     OW14161   2.112   2.007   4.728
 4421SOL    HW114162   2.069   1.981   4.815
 4421SOL    HW214163   2.049   2.065   4.676
 4422SOL     OW14164   1.314   4.548   6.650
 4422SOL    HW114165   1.263   4.623   6.608
 4422SOL    HW214166   1.257   4.504   6.720
 4423SOL     OW14167   0.124   3.628   5.259
 4423SOL    HW114168   0.196   3.696   5.273
 4423SOL    HW214169   0.099   3.625   5.163
 4424SOL     OW14170   5.269   0.568   4.225
 4424SOL    HW114171   5.226   0.595   4.312
 4424SOL    HW214172   5.341   0.502   4.243
 4425SOL     OW14173   3.231   5.061   0.363
 4425SOL    HW114174   3.265   5.102   0.278
 4425SOL    HW214175   3.171   4.984   0.342
 4426SOL     OW14176   0.996   1.150   3.786
 4426SOL    HW114177   0.939   1.233   3.782
 4426SOL    HW214178   0.938   1.072   3.811
 4427SOL     OW14179   5.836   6.990   2.688
 4427SOL    HW114180   5.789   6.947   2.611
 4427SOL    HW214181   5.914   0.024   2.654
 4428SOL     OW14182   4.161   0.674   3.744
 4428SOL    HW114183   4.224   0.597   3.746
 4428SOL    HW214184   4.197   0.749   3.799
 4429SOL     OW14185   3.060   0.096   2.100
 4429SOL    HW114186   3.071   0.194   2.117
 4429SOL    HW214187   3.004   0.056   2.173
 4430SOL     OW14188   5.295   5.019   5.124
 4430SOL    HW114189   5.200   5.024   5.156
 4430SOL    HW214190   5.296   5.003   5.026
 4431SOL     OW14191   2.365   0.680   2.895
 4431SOL    HW114192   2.323   0.645   2.979
 4431SOL    HW214193   2.462   0.659   2.895
 4432SOL     OW14194   2.548   3.247   6.211
 4432SOL    HW114195   2.534   3.329   6.156
 4432SOL    HW214196   2.541   3.166   6.153
 4433SOL     OW14197   6.472   2.565   4.532
 4433SOL    HW114198   6.571   2.565   4.548
 4433SOL    HW214199   6.450   2.634   4.463
 4434SOL     OW14200   5.817   1.567   3.045
 4434SOL    HW114201   5.802   1.658   3.007
 4434SOL    HW214202   5.841   1.504   2.971
 4435SOL     OW14203   4.234   3.490   1.212
 4435SOL    HW114204   4.305   3.505   1.280
 4435SOL    HW214205   4.144   3.486   1.256
 4436SOL     OW14206   4.505   1.002   1.702
 4436SOL    HW114207   4.562   1.017   1.783
 4436SOL    HW214208   4.561   0.960   1.630
 4437SOL     OW14209   1.265   3.083   2.548
 4437SOL    HW114210   1.345   3.126   2.506
 4437SOL    HW214211   1.240   3.001   2.497
 4438SOL     OW14212   4.593   6.852   6.392
 4438SOL    HW114213   4.641   6.882   6.309
 4438SOL    HW214214   4.650   6.872   6.472
 4439SOL     OW14215   0.259   4.494   1.572
 4439SOL    HW114216   0.268   4.557   1.649
 4439SOL    HW214217   0.320   4.416   1.585
 4440SOL     OW14218   3.172   4.942   0.796
 4440SOL    HW114219   3.082   4.978   0.771
 4440SOL    HW214220   3.188   4.857   0.745
 4441SOL     OW14221   0.032   1.821   1.836
 4441SOL    HW114222   6.953   1.832   1.829
 4441SOL    HW214223   0.053   1.742   1.894
 4442SOL     OW14224   1.691   5.106   4.537
 4442SOL    HW114225   1.605   5.144   4.570
 4442SOL    HW214226   1.749   5.081   4.614
 4443SOL     OW14227   1.494   3.382   5.758
 4443SOL    HW114228   1.425   3.421   5.698
 4443SOL    HW214229   1.528   3.297   5.718
 4444SOL     OW14230   3.662   4.028   0.080
 4444SOL    HW114231   3.637   4.120   0.048
 4444SOL    HW214232   3.596   3.962   0.044
 4445SOL     OW14233   1.304   6.548   0.186
 4445SOL    HW114234   1.381   6.486   0.200
 4445SOL    HW214235   1.319   6.600   0.101
 4446SOL     OW14236   5.150   2.097   0.918
 4446SOL    HW114237   5.141   2.194   0.936
 4446SOL    HW214238   5.106   2.044   0.991
 4447SOL     OW14239   6.076   4.121   5.315
 4447SOL    HW114240   6.048   4.087   5.405
 4447SOL    HW214241   6.085   4.220   5.318
 4448SOL     OW14242   2.396   5.252   1.327
 4448SOL    HW114243   2.339   5.267   1.408
 4448SOL    HW214244   2.492   5.250   1.354
 4449SOL     OW14245   5.320   1.075   5.992
 4449SOL    HW114246   5.245   1.016   6.023
 4449SOL    HW214247   5.282   1.159   5.953
 4450SOL     OW14248   3.582   2.154   6.161
 4450SOL    HW114249   3.656   2.148   6.229
 4450SOL    HW214250   3.507   2.208   6.198
 4451SOL     OW14251   5.127   4.922   4.305
 4451SOL    HW114252   5.049   4.978   4.278
 4451SOL    HW214253   5.138   4.925   4.404
 4452SOL     OW14254   5.722   5.924   4.271
 4452SOL    HW114255   5.785   5.930   4.193
 4452SOL    HW214256   5.641   5.873   4.245
 4453SOL     OW14257   1.527   2.887   1.689
 4453SOL    HW114258   1.522   2.896   1.590
 4453SOL    HW214259   1.541   2.977   1.730
 4454SOL     OW14260   1.312   1.645   6.983
 4454SOL    HW114261   1.237   1.643   6.917
 4454SOL    HW214262   1.392   1.599   6.943
 4455SOL     OW14263   5.489   5.553   5.598
 4455SOL    HW114264   5.580   5.523   5.568
 4455SOL    HW214265   5.448   5.612   5.528
 4456SOL     OW14266   2.432   6.158   3.104
 4456SOL    HW114267   2.452   6.184   3.010
 4456SOL    HW214268   2.456   6.061   3.118
 4457SOL     OW14269   3.387   1.547   3.431
 4457SOL    HW114270   3.447   1.560   3.352
 4457SOL    HW214271   3.305   1.603   3.419
 4458SOL     OW14272   2.432   3.447   0.989
 4458SOL    HW114273   2.407   3.406   0.902
 4458SOL    HW214274   2.388   3.399   1.064
 4459SOL     OW14275   4.199   2.206   4.614
 4459SOL    HW114276   4.128   2.176   4.678
 4459SOL    HW214277   4.281   2.151   4.626
 4460SOL     OW14278   1.053   3.020   0.609
 4460SOL    HW114279   1.091   2.940   0.655
 4460SOL    HW214280   0.987   2.991   0.539
 4461SOL     OW14281   1.892   0.716   0.859
 4461SOL    HW114282   1.982   0.753   0.883
 4461SOL    HW214283   1.859   0.759   0.776
 4462SOL     OW14284   5.797   5.015   2.474
 4462SOL    HW114285   5.735   5.019   2.395
 4462SOL    HW214286   5.835   5.105   2.492
 4463SOL     OW14287   4.698   1.352   0.877
 4463SOL    HW114288   4.662   1.380   0.966
 4463SOL    HW214289   4.623   1.345   0.812
 4464SOL     OW14290   0.450   5.826   0.376
 4464SOL    HW114291   0.521   5.896   0.382
 4464SOL    HW214292   0.361   5.867   0.396
 4465SOL     OW14293   3.628   5.309   0.953
 4465SOL    HW114294   3.656   5.241   0.886
 4465SOL    HW214295   3.592   5.390   0.905
 4466SOL     OW14296   1.048   2.123   3.014
 4466SOL    HW114297   1.077   2.028   3.002
 4466SOL    HW214298   0.950   2.130   2.996
 4467SOL     OW14299   2.014   5.128   3.105
 4467SOL    HW114300   2.063   5.199   3.055
 4467SOL    HW214301   2.040   5.038   3.068
 4468SOL     OW14302   1.510   4.004   0.744
 4468SOL    HW114303   1.478   3.963   0.659
 4468SOL    HW214304   1.464   4.091   0.759
 4469SOL     OW14305   3.537   1.078   1.049
 4469SOL    HW114306   3.517   1.058   1.145
 4469SOL    HW214307   3.629   1.114   1.041
 4470SOL     OW14308   0.623   1.702   2.628
 4470SOL    HW114309   0.706   1.666   2.671
 4470SOL    HW214310   0.543   1.666   2.676
 4471SOL     OW14311   0.825   2.804   7.016
 4471SOL    HW114312   0.879   2.849   0.069
 4471SOL    HW214313   0.886   2.762   6.950
 4472SOL     OW14314   0.119   2.716   1.579
 4472SOL    HW114315   0.048   2.653   1.611
 4472SOL    HW214316   0.122   2.796   1.639
 4473SOL     OW14317   5.970   3.074   4.308
 4473SOL    HW114318   6.050   3.080   4.367
 4473SOL    HW214319   5.969   2.985   4.262
 4474SOL     OW14320   3.291   6.375   1.905
 4474SOL    HW114321   3.325   6.348   1.995
 4474SOL    HW214322   3.364   6.363   1.838
 4475SOL     OW14323   1.341   3.898   1.870
 4475SOL    HW114324   1.338   3.991   1.835
 4475SOL    HW214325   1.402   3.894   1.949
 4476SOL     OW14326   6.265   1.172   3.517
 4476SOL    HW114327   6.298   1.118   3.595
 4476SOL    HW214328   6.212   1.113   3.456
 4477SOL     OW14329   1.910   0.532   5.010
 4477SOL    HW114330   1.943   0.439   5.021
 4477SOL    HW214331   1.810   0.532   5.007
 4478SOL     OW14332   2.583   6.660   2.557
 4478SOL    HW114333   2.588   6.575   2.611
 4478SOL    HW214334   2.643   6.728   2.599
 4479SOL     OW14335   0.290   2.046   1.718
 4479SOL    HW114336   0.339   1.994   1.788
 4479SOL    HW214337   0.229   1.984   1.667
 4480SOL     OW14338   0.143   3.946   4.726
 4480SOL    HW114339   0.095   4.011   4.784
 4480SOL    HW214340   0.182   3.873   4.782
 4481SOL     OW14341   2.285   5.275   5.078
 4481SOL    HW114342   2.281   5.279   4.978
 4481SOL    HW214343   2.193   5.275   5.116
 4482SOL     OW14344   2.087   2.999   5.425
 4482SOL    HW114345   2.114   2.906   5.402
 4482SOL    HW214346   2.131   3.064   5.362
 4483SOL     OW14347   6.701   2.252   2.169
 4483SOL    HW114348   6.687   2.298   2.081
 4483SOL    HW214349   6.742   2.163   2.154
 4484SOL     OW14350   3.307   2.285   6.682
 4484SOL    HW114351   3.261   2.359   6.634
 4484SOL    HW214352   3.293   2.294   6.780
 4485SOL     OW14353   5.785   2.537   4.689
 4485SOL    HW114354   5.721   2.515   4.615
 4485SOL    HW214355   5.736   2.539   4.776
 4486SOL     OW14356   6.351   5.394   4.622
 4486SOL    HW114357   6.378   5.313   4.570
 4486SOL    HW214358   6.256   5.385   4.652
 4487SOL     OW14359   2.853   2.809   6.861
 4487SOL    HW114360   2.806   2.723   6.881
 4487SOL    HW214361   2.883   2.809   6.766
 4488SOL     OW14362   1.140   3.576   5.116
 4488SOL    HW114363   1.085   3.556   5.036
 4488SOL    HW214364   1.091   3.638   5.177
 4489SOL     OW14365   4.627   5.275   4.735
 4489SOL    HW114366   4.699   5.306   4.797
 4489SOL    HW214367   4.663   5.268   4.642
 4490SOL     OW14368   5.338   2.046   1.167
 4490SOL    HW114369   5.244   2.026   1.139
 4490SOL    HW214370   5.367   1.980   1.236
 4491SOL     OW14371   0.080   3.591   3.650
 4491SOL    HW114372   0.099   3.651   3.572
 4491SOL    HW214373   0.114   3.633   3.734
 4492SOL     OW14374   5.948   3.373   1.915
 4492SOL    HW114375   5.866   3.317   1.899
 4492SOL    HW214376   5.955   3.393   2.013
 4493SOL     OW14377   5.348   6.109   4.827
 4493SOL    HW114378   5.277   6.039   4.819
 4493SOL    HW214379   5.305   6.199   4.834
 4494SOL     OW14380   0.182   0.641   5.907
 4494SOL    HW114381   0.130   0.653   5.822
 4494SOL    HW214382   0.120   0.645   5.985
 4495SOL     OW14383   4.684   0.318   3.872
 4495SOL    HW114384   4.690   0.325   3.972
 4495SOL    HW214385   4.760   0.264   3.837
 4496SOL     OW14386   5.480   6.250   0.683
 4496SOL    HW114387   5.479   6.246   0.783
 4496SOL    HW214388   5.486   6.345   0.653
 4497SOL     OW14389   4.262   1.841   6.374
 4497SOL    HW114390   4.314   1.760   6.398
 4497SOL    HW214391   4.323   1.911   6.338
 4498SOL     OW14392   6.646   4.648   6.713
 4498SOL    HW114393   6.678   4.569   6.660
 4498SOL    HW214394   6.683   4.732   6.673
 4499SOL     OW14395   6.114   3.271   3.506
 4499SOL    HW114396   6.131   3.186   3.557
 4499SOL    HW214397   6.190   3.334   3.522
 4500SOL     OW14398   3.768   4.032   6.138
 4500SOL    HW114399   3.696   4.032   6.068
 4500SOL    HW214400   3.857   4.046   6.094
 4501SOL     OW14401   6.762   3.503   2.965
 4501SOL    HW114402   6.748   3.404   2.969
 4501SOL    HW214403   6.689   3.545   2.912
 4502SOL     OW14404   0.938   3.486   7.010
 4502SOL    HW114405   0.991   3.489   6.926
 4502SOL    HW214406   0.852   3.437   6.994
 4503SOL     OW14407   3.741   6.740   1.625
 4503SOL    HW114408   3.663   6.734   1.689
 4503SOL    HW214409   3.825   6.719   1.674
 4504SOL     OW14410   0.747   1.422   4.370
 4504SOL    HW114411   0.846   1.422   4.357
 4504SOL    HW214412   0.721   1.502   4.424
 4505SOL     OW14413   6.374   4.706   1.931
 4505SOL    HW114414   6.371   4.793   1.882
 4505SOL    HW214415   6.464   4.666   1.921
 4506SOL     OW14416   5.030   2.871   3.572
 4506SOL    HW114417   4.939   2.833   3.554
 4506SOL    HW214418   5.084   2.806   3.625
 4507SOL     OW14419   6.731   3.204   3.586
 4507SOL    HW114420   6.794   3.259   3.641
 4507SOL    HW214421   6.780   3.128   3.544
 4508SOL     OW14422   1.460   5.089   6.691
 4508SOL    HW114423   1.558   5.072   6.701
 4508SOL    HW214424   1.441   5.186   6.710
 4509SOL     OW14425   5.097   1.989   3.208
 4509SOL    HW114426   5.085   1.904   3.259
 4509SOL    HW214427   5.010   2.016   3.168
 4510SOL     OW14428   4.333   1.563   4.373
 4510SOL    HW114429   4.385   1.553   4.458
 4510SOL    HW214430   4.357   1.489   4.310
 4511SOL     OW14431   6.027   3.569   6.683
 4511SOL    HW114432   6.116   3.574   6.729
 4511SOL    HW214433   6.004   3.659   6.647
 4512SOL     OW14434   3.263   0.651   5.786
 4512SOL    HW114435   3.306   0.684   5.702
 4512SOL    HW214436   3.334   0.623   5.851
 4513SOL     OW14437   1.121   5.198   6.427
 4513SOL    HW114438   1.084   5.107   6.447
 4513SOL    HW214439   1.220   5.192   6.418
 4514SOL     OW14440   3.247   2.693   5.873
 4514SOL    HW114441   3.220   2.728   5.782
 4514SOL    HW214442   3.290   2.604   5.863
 4515SOL     OW14443   5.643   2.167   5.338
 4515SOL    HW114444   5.618   2.261   5.314
 4515SOL    HW214445   5.740   2.152   5.319
 4516SOL     OW14446   2.445   0.249   0.092
 4516SOL    HW114447   2.447   0.263   7.012
 4516SOL    HW214448   2.355   0.216   0.119
 4517SOL     OW14449   4.976   6.711   6.261
 4517SOL    HW114450   5.027   6.660   6.331
 4517SOL    HW214451   4.884   6.672   6.253
 4518SOL     OW14452   0.301   6.497   2.405
 4518SOL    HW114453   0.379   6.525   2.463
 4518SOL    HW214454   0.311   6.539   2.315
 4519SOL     OW14455   5.420   6.650   0.878
 4519SOL    HW114456   5.458   6.695   0.798
 4519SOL    HW214457   5.484   6.657   0.955
 4520SOL     OW14458   4.549   5.901   6.155
 4520SOL    HW114459   4.623   5.956   6.116
 4520SOL    HW214460   4.528   5.825   6.093
 4521SOL     OW14461   5.596   2.271   5.655
 4521SOL    HW114462   5.685   2.273   5.609
 4521SOL    HW214463   5.601   2.213   5.736
 4522SOL     OW14464   5.583   4.733   3.505
 4522SOL    HW114465   5.566   4.735   3.407
 4522SOL    HW214466   5.634   4.814   3.532
 4523SOL     OW14467   1.368   4.382   0.125
 4523SOL    HW114468   1.431   4.397   0.202
 4523SOL    HW214469   1.293   4.323   0.155
 4524SOL     OW14470   6.283   3.491   2.552
 4524SOL    HW114471   6.233   3.404   2.543
 4524SOL    HW214472   6.375   3.480   2.516
 4525SOL     OW14473   3.883   2.143   5.379
 4525SOL    HW114474   3.847   2.067   5.326
 4525SOL    HW214475   3.893   2.115   5.475
 4526SOL     OW14476   6.532   0.139   6.890
 4526SOL    HW114477   6.463   0.076   6.929
 4526SOL    HW214478   6.544   0.216   6.952
 4527SOL     OW14479   6.810   0.146   2.715
 4527SOL    HW114480   6.837   0.133   2.811
 4527SOL    HW214481   6.815   0.059   2.667
 4528SOL     OW14482   4.368   0.588   6.523
 4528SOL    HW114483   4.385   0.628   6.613
 4528SOL    HW214484   4.439   0.521   6.503
 4529SOL     OW14485   2.414   0.954   5.350
 4529SOL    HW114486   2.429   0.865   5.394
 4529SOL    HW214487   2.395   1.022   5.421
 4530SOL     OW14488   2.450   5.513   3.370
 4530SOL    HW114489   2.534   5.472   3.335
 4530SOL    HW214490   2.372   5.453   3.350
 4531SOL     OW14491   0.670   2.890   6.307
 4531SOL    HW114492   0.734   2.958   6.343
 4531SOL    HW214493   0.663   2.900   6.208
 4532SOL     OW14494   6.342   1.259   2.479
 4532SOL    HW114495   6.408   1.305   2.419
 4532SOL    HW214496   6.250   1.291   2.458
 4533SOL     OW14497   2.051   0.751   2.910
 4533SOL    HW114498   2.101   0.713   2.988
 4533SOL    HW214499   2.091   0.839   2.884
 4534SOL     OW14500   5.359   3.223   5.252
 4534SOL    HW114501   5.369   3.285   5.329
 4534SOL    HW214502   5.425   3.247   5.181
 4535SOL     OW14503   3.870   0.859   1.916
 4535SOL    HW114504   3.856   0.764   1.945
 4535SOL    HW214505   3.956   0.867   1.866
 4536SOL     OW14506   3.653   1.706   4.980
 4536SOL    HW114507   3.642   1.798   5.019
 4536SOL    HW214508   3.748   1.677   4.990
 4537SOL     OW14509   4.157   3.215   1.268
 4537SOL    HW114510   4.227   3.282   1.295
 4537SOL    HW214511   4.093   3.202   1.344
 4538SOL     OW14512   2.970   0.600   2.046
 4538SOL    HW114513   3.030   0.672   2.014
 4538SOL    HW214514   2.924   0.557   1.968
 4539SOL     OW14515   3.103   5.642   5.285
 4539SOL    HW114516   3.139   5.731   5.257
 4539SOL    HW214517   3.007   5.652   5.313
 4540SOL     OW14518   2.376   1.366   0.429
 4540SOL    HW114519   2.378   1.269   0.406
 4540SOL    HW214520   2.288   1.405   0.402
 4541SOL     OW14521   5.034   1.599   6.699
 4541SOL    HW114522   5.026   1.621   6.602
 4541SOL    HW214523   5.126   1.620   6.731
 4542SOL     OW14524   0.090   2.742   2.032
 4542SOL    HW114525   0.033   2.661   2.048
 4542SOL    HW214526   0.184   2.723   2.062
 4543SOL     OW14527   4.869   2.366   1.190
 4543SOL    HW114528   4.959   2.357   1.147
 4543SOL    HW214529   4.802   2.392   1.121
 4544SOL     OW14530   3.484   5.445   0.011
 4544SOL    HW114531   3.547   5.523   0.009
 4544SOL    HW214532   3.515   5.375   6.967
 4545SOL     OW14533   6.707   3.122   5.138
 4545SOL    HW114534   6.784   3.129   5.202
 4545SOL    HW214535   6.730   3.167   5.052
 4546SOL     OW14536   3.041   6.653   4.161
 4546SOL    HW114537   3.124   6.656   4.218
 4546SOL    HW214538   3.067   6.665   4.065
 4547SOL     OW14539   6.390   1.187   0.628
 4547SOL    HW114540   6.294   1.176   0.602
 4547SOL    HW214541   6.398   1.255   0.701
 4548SOL     OW14542   2.719   2.347   3.553
 4548SOL    HW114543   2.650   2.378   3.618
 4548SOL    HW214544   2.715   2.404   3.471
 4549SOL     OW14545   5.588   3.748   2.308
 4549SOL    HW114546   5.564   3.710   2.398
 4549SOL    HW214547   5.506   3.755   2.251
 4550SOL     OW14548   1.077   4.354   2.351
 4550SOL    HW114549   1.145   4.387   2.286
 4550SOL    HW214550   1.085   4.405   2.437
 4551SOL     OW14551   0.764   3.749   4.382
 4551SOL    HW114552   0.786   3.837   4.424
 4551SOL    HW214553   0.700   3.699   4.440
 4552SOL     OW14554   5.310   2.344   1.196
 4552SOL    HW114555   5.330   2.380   1.106
 4552SOL    HW214556   5.349   2.252   1.205
 4553SOL     OW14557   4.958   3.537   0.108
 4553SOL    HW114558   5.041   3.485   0.089
 4553SOL    HW214559   4.895   3.529   0.030
 4554SOL     OW14560   6.672   0.430   1.537
 4554SOL    HW114561   6.745   0.363   1.521
 4554SOL    HW214562   6.679   0.504   1.471
 4555SOL     OW14563   1.640   1.126   5.700
 4555SOL    HW114564   1.715   1.098   5.641
 4555SOL    HW214565   1.580   1.047   5.716
 4556SOL     OW14566   5.935   3.437   4.575
 4556SOL    HW114567   5.852   3.448   4.520
 4556SOL    HW214568   6.011   3.410   4.515
 4557SOL     OW14569   5.009   5.341   4.139
 4557SOL    HW114570   4.998   5.415   4.206
 4557SOL    HW214571   4.967   5.258   4.175
 4558SOL     OW14572   0.007   3.979   4.462
 4558SOL    HW114573   6.954   3.911   4.454
 4558SOL    HW214574   0.057   3.965   4.548
 4559SOL     OW14575   0.039   3.010   2.572
 4559SOL    HW114576   0.039   3.110   2.570
 4559SOL    HW214577   6.966   2.977   2.589
 4560SOL     OW14578   5.795   3.798   1.368
 4560SOL    HW114579   5.866   3.854   1.410
 4560SOL    HW214580   5.808   3.702   1.396
 4561SOL     OW14581   3.693   2.042   3.440
 4561SOL    HW114582   3.734   1.952   3.429
 4561SOL    HW214583   3.709   2.097   3.358
 4562SOL     OW14584   1.607   0.419   0.456
 4562SOL    HW114585   1.536   0.354   0.431
 4562SOL    HW214586   1.605   0.435   0.555
 4563SOL     OW14587   7.012   3.234   1.131
 4563SOL    HW114588   6.957   3.174   1.189
 4563SOL    HW214589   0.082   3.247   1.172
 4564SOL     OW14590   6.569   6.215   1.914
 4564SOL    HW114591   6.639   6.285   1.898
 4564SOL    HW214592   6.601   6.153   1.985
 4565SOL     OW14593   1.557   0.864   4.052
 4565SOL    HW114594   1.603   0.945   4.090
 4565SOL    HW214595   1.604   0.835   3.969
 4566SOL     OW14596   6.767   3.744   1.466
 4566SOL    HW114597   6.821   3.694   1.398
 4566SOL    HW214598   6.788   3.842   1.459
 4567SOL     OW14599   0.204   1.394   6.262
 4567SOL    HW114600   0.108   1.411   6.241
 4567SOL    HW214601   0.215   1.300   6.295
 4568SOL     OW14602   1.621   3.619   5.570
 4568SOL    HW114603   1.622   3.686   5.645
 4568SOL    HW214604   1.545   3.555   5.585
 4569SOL     OW14605   2.393   0.387   3.386
 4569SOL    HW114606   2.327   0.339   3.443
 4569SOL    HW214607   2.368   0.376   3.290
 4570SOL     OW14608   6.031   6.641   2.349
 4570SOL    HW114609   6.111   6.590   2.379
 4570SOL    HW214610   6.015   6.624   2.252
 4571SOL     OW14611   5.063   2.918   6.421
 4571SOL    HW114612   4.989   2.965   6.468
 4571SOL    HW214613   5.110   2.982   6.361
 4572SOL     OW14614   2.455   1.040   6.296
 4572SOL    HW114615   2.423   1.012   6.386
 4572SOL    HW214616   2.380   1.085   6.247
 4573SOL     OW14617   0.083   6.885   0.460
 4573SOL    HW114618   0.160   6.850   0.406
 4573SOL    HW214619   0.072   6.983   0.442
 4574SOL     OW14620   5.611   4.121   0.298
 4574SOL    HW114621   5.655   4.162   0.378
 4574SOL    HW214622   5.553   4.190   0.253
 4575SOL     OW14623   5.469   0.389   5.210
 4575SOL    HW114624   5.519   0.312   5.249
 4575SOL    HW214625   5.427   0.362   5.124
 4576SOL     OW14626   3.062   5.041   5.278
 4576SOL    HW114627   2.978   5.096   5.277
 4576SOL    HW214628   3.136   5.092   5.235
 4577SOL     OW14629   1.275   3.107   4.143
 4577SOL    HW114630   1.229   3.102   4.232
 4577SOL    HW214631   1.364   3.061   4.149
 4578SOL     OW14632   0.989   1.776   4.895
 4578SOL    HW114633   1.025   1.692   4.935
 4578SOL    HW214634   1.050   1.806   4.822
 4579SOL     OW14635   4.570   1.119   2.622
 4579SOL    HW114636   4.626   1.098   2.702
 4579SOL    HW214637   4.569   1.218   2.608
 4580SOL     OW14638   5.412   3.978   0.563
 4580SOL    HW114639   5.401   3.887   0.522
 4580SOL    HW214640   5.326   4.006   0.606
 4581SOL     OW14641   2.443   6.045   2.457
 4581SOL    HW114642   2.542   6.048   2.468
 4581SOL    HW214643   2.399   6.057   2.546
 4582SOL     OW14644   4.713   0.812   3.808
 4582SOL    HW114645   4.719   0.852   3.900
 4582SOL    HW214646   4.799   0.828   3.759
 4583SOL     OW14647   2.790   1.362   6.585
 4583SOL    HW114648   2.843   1.305   6.647
 4583SOL    HW214649   2.843   1.378   6.501
 4584SOL     OW14650   1.339   5.244   5.243
 4584SOL    HW114651   1.297   5.259   5.332
 4584SOL    HW214652   1.393   5.160   5.245
 4585SOL     OW14653   2.249   4.704   3.100
 4585SOL    HW114654   2.288   4.759   3.174
 4585SOL    HW214655   2.282   4.610   3.108
 4586SOL     OW14656   3.989   3.943   0.804
 4586SOL    HW114657   3.999   3.844   0.816
 4586SOL    HW214658   3.945   3.962   0.717
 4587SOL     OW14659   3.537   3.550   3.615
 4587SOL    HW114660   3.571   3.461   3.585
 4587SOL    HW214661   3.531   3.611   3.537
 4588SOL     OW14662   3.004   2.864   5.950
 4588SOL    HW114663   3.056   2.850   5.865
 4588SOL    HW214664   2.981   2.961   5.959
 4589SOL     OW14665   5.719   0.588   1.887
 4589SOL    HW114666   5.738   0.502   1.840
 4589SOL    HW214667   5.684   0.570   1.978
 4590SOL     OW14668   4.046   5.055   1.249
 4590SOL    HW114669   4.042   5.009   1.160
 4590SOL    HW214670   4.074   4.989   1.319
 4591SOL     OW14671   2.023   0.271   5.033
 4591SOL    HW114672   2.061   0.187   4.994
 4591SOL    HW214673   1.953   0.248   5.101
 4592SOL     OW14674   3.511   0.744   2.945
 4592SOL    HW114675   3.517   0.797   3.029
 4592SOL    HW214676   3.439   0.781   2.887
 4593SOL     OW14677   5.960   6.573   2.089
 4593SOL    HW114678   5.867   6.537   2.094
 4593SOL    HW214679   5.970   6.627   2.006
 4594SOL     OW14680   3.206   0.492   3.138
 4594SOL    HW114681   3.161   0.404   3.153
 4594SOL    HW214682   3.246   0.494   3.046
 4595SOL     OW14683   4.699   3.196   5.763
 4595SOL    HW114684   4.634   3.252   5.813
 4595SOL    HW214685   4.659   3.106   5.745
 4596SOL     OW14686   6.612   0.411   2.927
 4596SOL    HW114687   6.686   0.420   2.993
 4596SOL    HW214688   6.648   0.424   2.834
 4597SOL     OW14689   2.704   5.558   6.541
 4597SOL    HW114690   2.646   5.477   6.552
 4597SOL    HW214691   2.648   5.641   6.549
 4598SOL     OW14692   1.306   5.478   1.299
 4598SOL    HW114693   1.392   5.518   1.331
 4598SOL    HW214694   1.238   5.550   1.286
 4599SOL     OW14695   1.231   4.809   1.241
 4599SOL    HW114696   1.214   4.859   1.325
 4599SOL    HW214697   1.306   4.744   1.255
 4600SOL     OW14698   0.648   6.299   5.784
 4600SOL    HW114699   0.597   6.377   5.821
 4600SOL    HW214700   0.586   6.222   5.772
 4601SOL     OW14701   0.849   1.392   5.256
 4601SOL    HW114702   0.820   1.469   5.200
 4601SOL    HW214703   0.846   1.307   5.203
 4602SOL     OW14704   2.843   6.355   0.461
 4602SOL    HW114705   2.909   6.290   0.423
 4602SOL    HW214706   2.778   6.306   0.519
 4603SOL     OW14707   3.512   5.870   0.469
 4603SOL    HW114708   3.536   5.781   0.430
 4603SOL    HW214709   3.595   5.916   0.501
 4604SOL     OW14710   4.496   6.871   6.888
 4604SOL    HW114711   4.581   6.818   6.880
 4604SOL    HW214712   4.506   6.939   6.960
 4605SOL     OW14713   2.009   6.741   1.521
 4605SOL    HW114714   1.965   6.819   1.477
 4605SOL    HW214715   2.055   6.685   1.452
 4606SOL     OW14716   0.409   6.658   2.661
 4606SOL    HW114717   0.479   6.653   2.590
 4606SOL    HW214718   0.407   6.573   2.713
 4607SOL     OW14719   1.879   3.116   3.355
 4607SOL    HW114720   1.786   3.118   3.319
 4607SOL    HW214721   1.944   3.108   3.278
 4608SOL     OW14722   6.819   4.591   3.882
 4608SOL    HW114723   6.907   4.559   3.847
 4608SOL    HW214724   6.787   4.667   3.826
 4609SOL     OW14725   5.013   4.879   6.837
 4609SOL    HW114726   5.024   4.977   6.852
 4609SOL    HW214727   5.091   4.831   6.876
 4610SOL     OW14728   4.289   1.889   0.097
 4610SOL    HW114729   4.211   1.913   0.039
 4610SOL    HW214730   4.358   1.842   0.043
 4611SOL     OW14731   0.464   0.189   6.275
 4611SOL    HW114732   0.403   0.145   6.340
 4611SOL    HW214733   0.559   0.167   6.298
 4612SOL     OW14734   2.432   6.895   0.526
 4612SOL    HW114735   2.397   6.984   0.498
 4612SOL    HW214736   2.520   6.906   0.572
 4613SOL     OW14737   1.628   5.904   2.544
 4613SOL    HW114738   1.644   5.864   2.634
 4613SOL    HW214739   1.677   5.990   2.536
 4614SOL     OW14740   5.752   3.202   3.408
 4614SOL    HW114741   5.783   3.254   3.488
 4614SOL    HW214742   5.795   3.240   3.326
 4615SOL     OW14743   0.970   1.410   0.673
 4615SOL    HW114744   0.887   1.409   0.617
 4615SOL    HW214745   1.025   1.330   0.650
 4616SOL     OW14746   5.354   1.694   4.364
 4616SOL    HW114747   5.338   1.633   4.286
 4616SOL    HW214748   5.269   1.739   4.390
 4617SOL     OW14749   1.601   2.104   2.435
 4617SOL    HW114750   1.552   2.182   2.396
 4617SOL    HW214751   1.635   2.046   2.362
 4618SOL     OW14752   2.127   3.945   5.508
 4618SOL    HW114753   2.142   3.903   5.419
 4618SOL    HW214754   2.038   3.990   5.509
 4619SOL     OW14755   2.932   6.299   3.936
 4619SOL    HW114756   2.905   6.216   3.887
 4619SOL    HW214757   2.976   6.362   3.873
 4620SOL     OW14758   0.997   4.912   1.106
 4620SOL    HW114759   1.001   4.991   1.167
 4620SOL    HW214760   1.062   4.843   1.138
 4621SOL     OW14761   4.986   0.966   2.198
 4621SOL    HW114762   4.989   1.062   2.170
 4621SOL    HW214763   4.940   0.958   2.286
 4622SOL     OW14764   3.831   5.044   0.868
 4622SOL    HW114765   3.918   5.092   0.851
 4622SOL    HW214766   3.821   5.026   0.965
 4623SOL     OW14767   4.627   5.698   1.196
 4623SOL    HW114768   4.712   5.649   1.181
 4623SOL    HW214769   4.552   5.648   1.152
 4624SOL     OW14770   3.467   0.316   2.806
 4624SOL    HW114771   3.465   0.268   2.718
 4624SOL    HW214772   3.562   0.329   2.835
 4625SOL     OW14773   1.578   5.300   1.987
 4625SOL    HW114774   1.479   5.293   1.976
 4625SOL    HW214775   1.608   5.241   2.062
 4626SOL     OW14776   4.674   4.465   1.838
 4626SOL    HW114777   4.617   4.414   1.904
 4626SOL    HW214778   4.722   4.401   1.779
 4627SOL     OW14779   0.889   4.973   5.029
 4627SOL    HW114780   0.896   4.895   5.091
 4627SOL    HW214781   0.811   5.030   5.056
 4628SOL     OW14782   4.482   4.583   4.809
 4628SOL    HW114783   4.423   4.584   4.890
 4628SOL    HW214784   4.525   4.493   4.801
 4629SOL     OW14785   2.255   4.810   5.208
 4629SOL    HW114786   2.225   4.879   5.274
 4629SOL    HW214787   2.198   4.728   5.218
 4630SOL     OW14788   2.085   5.386   2.060
 4630SOL    HW114789   2.091   5.448   1.982
 4630SOL    HW214790   2.162   5.402   2.122
 4631SOL     OW14791   1.157   6.355   3.423
 4631SOL    HW114792   1.137   6.306   3.507
 4631SOL    HW214793   1.221   6.303   3.368
 4632SOL     OW14794   2.523   4.486   2.849
 4632SOL    HW114795   2.469   4.421   2.796
 4632SOL    HW214796   2.497   4.479   2.946
 4633SOL     OW14797   5.937   1.362   4.670
 4633SOL    HW114798   5.843   1.329   4.663
 4633SOL    HW214799   5.943   1.435   4.737
 4634SOL     OW14800   2.606   3.855   5.349
 4634SOL    HW114801   2.569   3.777   5.399
 4634SOL    HW214802   2.535   3.893   5.290
 4635SOL     OW14803   4.272   4.377   1.693
 4635SOL    HW114804   4.348   4.314   1.705
 4635SOL    HW214805   4.260   4.432   1.775
 4636SOL     OW14806   1.752   3.984   0.572
 4636SOL    HW114807   1.816   3.935   0.631
 4636SOL    HW214808   1.684   4.031   0.628
 4637SOL     OW14809   0.881   6.846   1.439
 4637SOL    HW114810   0.895   6.748   1.433
 4637SOL    HW214811   0.942   6.893   1.375
 4638SOL     OW14812   3.693   5.981   6.813
 4638SOL    HW114813   3.594   5.989   6.815
 4638SOL    HW214814   3.724   5.965   6.719
 4639SOL     OW14815   3.055   2.709   6.169
 4639SOL    HW114816   3.078   2.781   6.233
 4639SOL    HW214817   3.021   2.750   6.084
 4640SOL     OW14818   5.785   3.733   4.374
 4640SOL    HW114819   5.688   3.740   4.399
 4640SOL    HW214820   5.841   3.774   4.446
 4641SOL     OW14821   2.448   0.447   3.983
 4641SOL    HW114822   2.465   0.545   3.986
 4641SOL    HW214823   2.535   0.398   3.980
 4642SOL     OW14824   1.787   6.354   2.708
 4642SOL    HW114825   1.757   6.285   2.642
 4642SOL    HW214826   1.816   6.437   2.661
 4643SOL     OW14827   6.893   1.745   0.114
 4643SOL    HW114828   6.967   1.796   0.159
 4643SOL    HW214829   6.851   1.683   0.180
 4644SOL     OW14830   6.886   0.607   5.383
 4644SOL    HW114831   6.947   0.541   5.339
 4644SOL    HW214832   6.819   0.558   5.440
 4645SOL     OW14833   1.927   0.721   4.256
 4645SOL    HW114834   1.977   0.780   4.193
 4645SOL    HW214835   1.847   0.770   4.291
 4646SOL     OW14836   2.414   5.575   3.682
 4646SOL    HW114837   2.369   5.640   3.621
 4646SOL    HW214838   2.511   5.570   3.658
 4647SOL     OW14839   1.934   0.302   2.704
 4647SOL    HW114840   2.021   0.323   2.661
 4647SOL    HW214841   1.943   0.312   2.804
 4648SOL     OW14842   3.884   0.928   3.976
 4648SOL    HW114843   3.952   0.910   4.047
 4648SOL    HW214844   3.889   0.857   3.906
 4649SOL     OW14845   6.382   0.855   0.669
 4649SOL    HW114846   6.455   0.788   0.674
 4649SOL    HW214847   6.312   0.824   0.604
 4650SOL     OW14848   4.723   5.372   2.128
 4650SOL    HW114849   4.807   5.373   2.183
 4650SOL    HW214850   4.699   5.278   2.104
 4651SOL     OW14851   6.996   3.200   6.954
 4651SOL    HW114852   6.968   3.296   6.957
 4651SOL    HW214853   7.019   3.175   6.860
 4652SOL     OW14854   6.174   6.272   5.226
 4652SOL    HW114855   6.271   6.288   5.204
 4652SOL    HW214856   6.156   6.304   5.320
 4653SOL     OW14857   5.024   5.998   0.944
 4653SOL    HW114858   4.943   5.958   0.988
 4653SOL    HW214859   5.002   6.020   0.849
 4654SOL     OW14860   0.552   5.881   6.121
 4654SOL    HW114861   0.460   5.921   6.121
 4654SOL    HW214862   0.545   5.781   6.121
 4655SOL     OW14863   5.594   3.951   1.259
 4655SOL    HW114864   5.517   3.901   1.299
 4655SOL    HW214865   5.679   3.900   1.276
 4656SOL     OW14866   1.209   1.219   1.766
 4656SOL    HW114867   1.288   1.157   1.755
 4656SOL    HW214868   1.137   1.191   1.703
 4657SOL     OW14869   4.280   5.207   1.791
 4657SOL    HW114870   4.357   5.181   1.849
 4657SOL    HW214871   4.210   5.251   1.847
 4658SOL     OW14872   3.126   1.670   4.755
 4658SOL    HW114873   3.180   1.745   4.718
 4658SOL    HW214874   3.136   1.590   4.696
 4659SOL     OW14875   2.842   4.119   6.606
 4659SOL    HW114876   2.897   4.093   6.686
 4659SOL    HW214877   2.853   4.049   6.535
 4660SOL     OW14878   1.379   6.292   4.569
 4660SOL    HW114879   1.429   6.310   4.484
 4660SOL    HW214880   1.281   6.303   4.553
 4661SOL     OW14881   2.709   4.954   5.910
 4661SOL    HW114882   2.686   5.003   5.826
 4661SOL    HW214883   2.808   4.941   5.916
 4662SOL     OW14884   2.862   0.448   5.602
 4662SOL    HW114885   2.772   0.492   5.615
 4662SOL    HW214886   2.915   0.457   5.686
 4663SOL     OW14887   0.599   0.738   0.901
 4663SOL    HW114888   0.564   0.709   0.813
 4663SOL    HW214889   0.698   0.755   0.894
 4664SOL     OW14890   0.573   0.562   0.384
 4664SOL    HW114891   0.598   0.467   0.405
 4664SOL    HW214892   0.646   0.604   0.331
 4665SOL     OW14893   2.563   0.160   6.142
 4665SOL    HW114894   2.493   0.120   6.084
 4665SOL    HW214895   2.653   0.123   6.116
 4666SOL     OW14896   1.879   2.205   6.997
 4666SOL    HW114897   1.850   2.278   0.039
 4666SOL    HW214898   1.819   2.126   7.009
 4667SOL     OW14899   6.195   4.023   1.760
 4667SOL    HW114900   6.231   3.934   1.732
 4667SOL    HW214901   6.209   4.035   1.858
 4668SOL     OW14902   4.581   1.559   4.206
 4668SOL    HW114903   4.525   1.641   4.197
 4668SOL    HW214904   4.666   1.571   4.153
 4669SOL     OW14905   5.383   6.401   6.268
 4669SOL    HW114906   5.423   6.472   6.326
 4669SOL    HW214907   5.381   6.433   6.173
 4670SOL     OW14908   1.066   2.689   6.882
 4670SOL    HW114909   1.122   2.771   6.873
 4670SOL    HW214910   1.013   2.675   6.799
 4671SOL     OW14911   0.269   3.470   6.576
 4671SOL    HW114912   0.236   3.491   6.484
 4671SOL    HW214913   0.348   3.528   6.598
 4672SOL     OW14914   3.632   4.671   6.219
 4672SOL    HW114915   3.548   4.668   6.164
 4672SOL    HW214916   3.610   4.651   6.314
 4673SOL     OW14917   4.805   0.128   1.228
 4673SOL    HW114918   4.767   0.141   1.137
 4673SOL    HW214919   4.885   0.069   1.223
 4674SOL     OW14920   5.557   1.654   0.508
 4674SOL    HW114921   5.466   1.642   0.468
 4674SOL    HW214922   5.550   1.713   0.589
 4675SOL     OW14923   3.643   0.327   0.086
 4675SOL    HW114924   3.664   0.303   7.010
 4675SOL    HW214925   3.693   0.411   0.110
 4676SOL     OW14926   0.357   6.384   4.559
 4676SOL    HW114927   0.323   6.360   4.650
 4676SOL    HW214928   0.302   6.458   4.522
 4677SOL     OW14929   2.993   0.753   0.279
 4677SOL    HW114930   2.943   0.811   0.343
 4677SOL    HW214931   3.078   0.799   0.252
 4678SOL     OW14932   1.921   4.340   2.287
 4678SOL    HW114933   1.938   4.436   2.266
 4678SOL    HW214934   1.998   4.303   2.339
 4679SOL     OW14935   3.947   1.211   6.935
 4679SOL    HW114936   3.964   1.221   6.837
 4679SOL    HW214937   3.869   1.151   6.949
 4680SOL     OW14938   1.874   0.414   2.088
 4680SOL    HW114939   1.794   0.457   2.047
 4680SOL    HW214940   1.866   0.417   2.187
 4681SOL     OW14941   6.038   5.606   5.601
 4681SOL    HW114942   6.051   5.515   5.562
 4681SOL    HW214943   5.968   5.601   5.672
 4682SOL     OW14944   4.716   4.356   6.742
 4682SOL    HW114945   4.695   4.347   6.645
 4682SOL    HW214946   4.759   4.445   6.759
 4683SOL     OW14947   5.219   4.536   2.917
 4683SOL    HW114948   5.134   4.521   2.968
 4683SOL    HW214949   5.215   4.488   2.830
 4684SOL     OW14950   6.980   1.717   4.241
 4684SOL    HW114951   7.006   1.766   4.158
 4684SOL    HW214952   6.907   1.652   4.220
 4685SOL     OW14953   0.513   6.175   4.847
 4685SOL    HW114954   0.569   6.093   4.852
 4685SOL    HW214955   0.417   6.152   4.867
 4686SOL     OW14956   5.325   5.951   0.333
 4686SOL    HW114957   5.308   5.877   0.397
 4686SOL    HW214958   5.413   5.937   0.288
 4687SOL     OW14959   6.793   4.845   5.047
 4687SOL    HW114960   6.835   4.932   5.074
 4687SOL    HW214961   6.710   4.864   4.994
 4688SOL     OW14962   0.134   3.491   6.090
 4688SOL    HW114963   0.043   3.531   6.089
 4688SOL    HW214964   0.194   3.543   6.029
 4689SOL     OW14965   5.769   0.347   0.010
 4689SOL    HW114966   5.745   0.321   6.936
 4689SOL    HW214967   5.782   0.446   0.014
 4690SOL     OW14968   1.185   1.561   0.227
 4690SOL    HW114969   1.103   1.504   0.228
 4690SOL    HW214970   1.223   1.564   0.134
 4691SOL     OW14971   3.220   4.240   1.584
 4691SOL    HW114972   3.142   4.249   1.645
 4691SOL    HW214973   3.188   4.219   1.492
 4692SOL     OW14974   6.921   5.421   2.470
 4692SOL    HW114975   6.897   5.371   2.553
 4692SOL    HW214976   6.929   5.518   2.490
 4693SOL     OW14977   0.936   0.790   4.241
 4693SOL    HW114978   0.928   0.834   4.151
 4693SOL    HW214979   0.883   0.841   4.308
 4694SOL     OW14980   3.081   0.520   0.180
 4694SOL    HW114981   3.037   0.598   0.224
 4694SOL    HW214982   3.164   0.551   0.132
 4695SOL     OW14983   2.607   3.095   1.720
 4695SOL    HW114984   2.603   2.997   1.701
 4695SOL    HW214985   2.516   3.135   1.709
 4696SOL     OW14986   0.457   4.178   5.241
 4696SOL    HW114987   0.420   4.180   5.334
 4696SOL    HW214988   0.525   4.251   5.231
 4697SOL     OW14989   1.431   2.893   0.730
 4697SOL    HW114990   1.409   2.991   0.727
 4697SOL    HW214991   1.528   2.881   0.750
 4698SOL     OW14992   4.068   5.781   3.279
 4698SOL    HW114993   4.085   5.878   3.290
 4698SOL    HW214994   4.111   5.730   3.353
 4699SOL     OW14995   1.132   6.658   2.016
 4699SOL    HW114996   1.110   6.691   2.108
 4699SOL    HW214997   1.056   6.680   1.955
 4700SOL     OW14998   6.090   1.447   2.422
 4700SOL    HW114999   6.115   1.503   2.343
 4700SOL    HW215000   6.047   1.363   2.390
 4701SOL     OW15001   1.213   2.308   0.580
 4701SOL    HW115002   1.249   2.398   0.555
 4701SOL    HW215003   1.239   2.288   0.675
 4702SOL     OW15004   6.077   5.046   6.558
 4702SOL    HW115005   6.147   4.976   6.573
 4702SOL    HW215006   6.110   5.115   6.495
 4703SOL     OW15007   1.481   2.378   1.890
 4703SOL    HW115008   1.473   2.370   1.989
 4703SOL    HW215009   1.432   2.459   1.859
 4704SOL     OW15010   0.422   6.663   6.783
 4704SOL    HW115011   0.434   6.650   6.685
 4704SOL    HW215012   0.511   6.665   6.829
 4705SOL     OW15013   3.710   3.360   2.799
 4705SOL    HW115014   3.664   3.278   2.833
 4705SOL    HW215015   3.807   3.340   2.784
 4706SOL     OW15016   3.748   6.176   6.418
 4706SOL    HW115017   3.690   6.151   6.341
 4706SOL    HW215018   3.694   6.225   6.487
 4707SOL     OW15019   2.211   5.893   0.998
 4707SOL    HW115020   2.170   5.858   1.082
 4707SOL    HW215021   2.188   5.831   0.922
 4708SOL     OW15022   1.556   2.254   6.709
 4708SOL    HW115023   1.545   2.198   6.791
 4708SOL    HW215024   1.637   2.223   6.658
 4709SOL     OW15025   3.786   5.123   5.504
 4709SOL    HW115026   3.796   5.118   5.405
 4709SOL    HW215027   3.765   5.033   5.541
 4710SOL     OW15028   3.854   0.985   5.529
 4710SOL    HW115029   3.784   1.056   5.513
 4710SOL    HW215030   3.840   0.945   5.620
 4711SOL     OW15031   5.389   0.355   2.284
 4711SOL    HW115032   5.397   0.278   2.347
 4711SOL    HW215033   5.449   0.340   2.205
 4712SOL     OW15034   3.243   4.676   0.635
 4712SOL    HW115035   3.211   4.703   0.544
 4712SOL    HW215036   3.226   4.578   0.649
 4713SOL     OW15037   2.814   3.971   1.121
 4713SOL    HW115038   2.728   3.933   1.087
 4713SOL    HW215039   2.884   3.964   1.049
 4714SOL     OW15040   1.884   1.939   0.219
 4714SOL    HW115041   1.867   1.842   0.202
 4714SOL    HW215042   1.797   1.985   0.239
 4715SOL     OW15043   6.744   3.913   1.782
 4715SOL    HW115044   6.749   3.814   1.773
 4715SOL    HW215045   6.650   3.944   1.768
 4716SOL     OW15046   4.066   5.835   6.574
 4716SOL    HW115047   3.967   5.839   6.565
 4716SOL    HW215048   4.105   5.925   6.556
 4717SOL     OW15049   0.371   6.417   3.278
 4717SOL    HW115050   0.336   6.357   3.206
 4717SOL    HW215051   0.470   6.407   3.285
 4718SOL     OW15052   5.599   1.952   6.664
 4718SOL    HW115053   5.545   1.911   6.590
 4718SOL    HW215054   5.633   2.041   6.636
 4719SOL     OW15055   4.889   3.079   2.598
 4719SOL    HW115056   4.855   3.032   2.680
 4719SOL    HW215057   4.841   3.044   2.518
 4720SOL     OW15058   2.486   5.998   5.660
 4720SOL    HW115059   2.414   6.048   5.611
 4720SOL    HW215060   2.501   5.909   5.615
 4721SOL     OW15061   6.689   2.442   1.397
 4721SOL    HW115062   6.665   2.500   1.475
 4721SOL    HW215063   6.788   2.437   1.388
 4722SOL     OW15064   1.192   6.009   6.911
 4722SOL    HW115065   1.250   5.990   6.990
 4722SOL    HW215066   1.104   6.044   6.941
 4723SOL     OW15067   2.094   4.931   5.979
 4723SOL    HW115068   2.159   4.856   5.965
 4723SOL    HW215069   2.053   4.923   6.070
 4724SOL     OW15070   4.883   5.551   2.685
 4724SOL    HW115071   4.923   5.637   2.717
 4724SOL    HW215072   4.897   5.480   2.753
 4725SOL     OW15073   5.976   6.617   2.652
 4725SOL    HW115074   6.023   6.611   2.564
 4725SOL    HW215075   6.043   6.612   2.726
 4726SOL     OW15076   1.823   3.176   6.550
 4726SOL    HW115077   1.730   3.167   6.513
 4726SOL    HW215078   1.837   3.106   6.620
 4727SOL     OW15079   0.013   6.394   0.177
 4727SOL    HW115080   0.036   6.351   0.089
 4727SOL    HW215081   6.934   6.385   0.193
 4728SOL     OW15082   4.782   2.044   1.016
 4728SOL    HW115083   4.698   2.065   1.066
 4728SOL    HW215084   4.861   2.073   1.070
 4729SOL     OW15085   2.749   1.425   2.329
 4729SOL    HW115086   2.746   1.329   2.303
 4729SOL    HW215087   2.686   1.478   2.273
 4730SOL     OW15088   2.242   5.539   5.299
 4730SOL    HW115089   2.225   5.611   5.231
 4730SOL    HW215090   2.155   5.509   5.337
 4731SOL     OW15091   4.416   0.348   6.308
 4731SOL    HW115092   4.454   0.326   6.398
 4731SOL    HW215093   4.317   0.336   6.310
 4732SOL     OW15094   6.914   3.658   5.992
 4732SOL    HW115095   6.941   3.733   6.052
 4732SOL    HW215096   6.851   3.597   6.041
 4733SOL     OW15097   1.197   4.235   2.866
 4733SOL    HW115098   1.120   4.291   2.898
 4733SOL    HW215099   1.244   4.195   2.944
 4734SOL     OW15100   4.756   3.297   6.807
 4734SOL    HW115101   4.787   3.246   6.888
 4734SOL    HW215102   4.740   3.392   6.833
 4735SOL     OW15103   0.813   5.208   4.145
 4735SOL    HW115104   0.748   5.279   4.118
 4735SOL    HW215105   0.821   5.141   4.072
 4736SOL     OW15106   0.277   1.901   6.559
 4736SOL    HW115107   0.363   1.922   6.514
 4736SOL    HW215108   0.294   1.839   6.636
 4737SOL     OW15109   1.258   5.074   2.217
 4737SOL    HW115110   1.352   5.087   2.249
 4737SOL    HW215111   1.259   5.019   2.134
 4738SOL     OW15112   6.855   5.876   2.886
 4738SOL    HW115113   6.934   5.872   2.946
 4738SOL    HW215114   6.772   5.853   2.937
 4739SOL     OW15115   4.436   6.668   3.271
 4739SOL    HW115116   4.363   6.637   3.332
 4739SOL    HW215117   4.396   6.714   3.192
 4740SOL     OW15118   0.463   1.104   1.534
 4740SOL    HW115119   0.480   1.199   1.509
 4740SOL    HW215120   0.537   1.046   1.499
 4741SOL     OW15121   3.400   2.320   1.562
 4741SOL    HW115122   3.362   2.312   1.470
 4741SOL    HW215123   3.333   2.289   1.629
 4742SOL     OW15124   1.909   6.699   5.441
 4742SOL    HW115125   1.916   6.799   5.449
 4742SOL    HW215126   1.944   6.657   5.525
 4743SOL     OW15127   2.152   3.556   2.935
 4743SOL    HW115128   2.183   3.647   2.907
 4743SOL    HW215129   2.083   3.565   3.006
 4744SOL     OW15130   2.236   5.049   0.933
 4744SOL    HW115131   2.198   5.131   0.974
 4744SOL    HW215132   2.314   5.018   0.987
 4745SOL     OW15133   3.456   3.867   0.005
 4745SOL    HW115134   3.382   3.932   7.004
 4745SOL    HW215135   3.466   3.858   0.104
 4746SOL     OW15136   4.574   6.313   3.720
 4746SOL    HW115137   4.500   6.377   3.701
 4746SOL    HW215138   4.614   6.333   3.810
 4747SOL     OW15139   0.609   4.344   0.547
 4747SOL    HW115140   0.702   4.311   0.565
 4747SOL    HW215141   0.544   4.269   0.556
 4748SOL     OW15142   1.774   6.206   1.455
 4748SOL    HW115143   1.747   6.126   1.509
 4748SOL    HW215144   1.705   6.277   1.465
 4749SOL     OW15145   1.751   0.037   6.487
 4749SOL    HW115146   1.849   0.059   6.481
 4749SOL    HW215147   1.700   0.119   6.515
 4750SOL     OW15148   6.590   3.230   5.577
 4750SOL    HW115149   6.505   3.259   5.620
 4750SOL    HW215150   6.668   3.262   5.631
 4751SOL     OW15151   4.562   2.557   2.960
 4751SOL    HW115152   4.525   2.555   3.053
 4751SOL    HW215153   4.502   2.504   2.900
 4752SOL     OW15154   4.571   0.506   0.386
 4752SOL    HW115155   4.538   0.593   0.424
 4752SOL    HW215156   4.626   0.458   0.454
 4753SOL     OW15157   0.733   6.840   3.851
 4753SOL    HW115158   0.804   6.827   3.782
 4753SOL    HW215159   0.731   6.935   3.880
 4754SOL     OW15160   5.003   3.773   5.089
 4754SOL    HW115161   4.947   3.696   5.057
 4754SOL    HW215162   5.026   3.760   5.185
 4755SOL     OW15163   2.817   0.650   0.819
 4755SOL    HW115164   2.736   0.709   0.815
 4755SOL    HW215165   2.897   0.704   0.793
 4756SOL     OW15166   6.483   3.792   5.724
 4756SOL    HW115167   6.444   3.706   5.755
 4756SOL    HW215168   6.418   3.838   5.663
 4757SOL     OW15169   1.536   2.581   1.336
 4757SOL    HW115170   1.460   2.647   1.329
 4757SOL    HW215171   1.586   2.579   1.250
 4758SOL     OW15172   1.242   6.759   3.358
 4758SOL    HW115173   1.295   6.703   3.295
 4758SOL    HW215174   1.300   6.789   3.434
 4759SOL     OW15175   0.806   5.440   6.215
 4759SOL    HW115176   0.799   5.398   6.124
 4759SOL    HW215177   0.733   5.403   6.274
 4760SOL     OW15178   1.987   1.335   0.830
 4760SOL    HW115179   1.954   1.242   0.811
 4760SOL    HW215180   1.976   1.392   0.749
 4761SOL     OW15181   1.323   0.854   0.756
 4761SOL    HW115182   1.377   0.807   0.686
 4761SOL    HW215183   1.374   0.855   0.842
 4762SOL     OW15184   1.645   5.922   2.053
 4762SOL    HW115185   1.603   5.983   2.120
 4762SOL    HW215186   1.602   5.831   2.060
 4763SOL     OW15187   4.735   0.609   2.437
 4763SOL    HW115188   4.744   0.580   2.532
 4763SOL    HW215189   4.792   0.551   2.379
 4764SOL     OW15190   4.523   3.651   5.343
 4764SOL    HW115191   4.593   3.623   5.277
 4764SOL    HW215192   4.567   3.672   5.430
 4765SOL     OW15193   3.854   0.834   5.754
 4765SOL    HW115194   3.933   0.867   5.806
 4765SOL    HW215195   3.856   0.734   5.751
 4766SOL     OW15196   6.269   6.514   4.226
 4766SOL    HW115197   6.277   6.501   4.325
 4766SOL    HW215198   6.354   6.552   4.190
 4767SOL     OW15199   2.916   4.836   5.465
 4767SOL    HW115200   2.911   4.929   5.501
 4767SOL    HW215201   2.960   4.837   5.375
 4768SOL     OW15202   3.317   2.973   5.899
 4768SOL    HW115203   3.246   2.903   5.890
 4768SOL    HW215204   3.402   2.939   5.860
 4769SOL     OW15205   3.804   6.055   0.778
 4769SOL    HW115206   3.815   5.969   0.828
 4769SOL    HW215207   3.802   6.036   0.680
 4770SOL     OW15208   0.512   1.866   4.757
 4770SOL    HW115209   0.493   1.947   4.701
 4770SOL    HW215210   0.425   1.823   4.782
 4771SOL     OW15211   2.306   6.708   6.275
 4771SOL    HW115212   2.343   6.799   6.292
 4771SOL    HW215213   2.363   6.640   6.320
 4772SOL     OW15214   3.196   4.672   1.180
 4772SOL    HW115215   3.140   4.713   1.252
 4772SOL    HW215216   3.272   4.622   1.221
 4773SOL     OW15217   0.829   5.854   5.375
 4773SOL    HW115218   0.770   5.778   5.349
 4773SOL    HW215219   0.780   5.914   5.439
 4774SOL     OW15220   1.309   3.989   1.334
 4774SOL    HW115221   1.352   3.908   1.294
 4774SOL    HW215222   1.262   3.963   1.419
 4775SOL     OW15223   4.991   0.319   4.121
 4775SOL    HW115224   5.067   0.277   4.072
 4775SOL    HW215225   5.010   0.416   4.137
 4776SOL     OW15226   0.998   1.085   5.258
 4776SOL    HW115227   1.027   1.004   5.208
 4776SOL    HW215228   1.022   1.167   5.206
 4777SOL     OW15229   1.690   5.720   1.106
 4777SOL    HW115230   1.730   5.674   1.027
 4777SOL    HW215231   1.684   5.655   1.182
 4778SOL     OW15232   6.967   2.850   4.666
 4778SOL    HW115233   7.008   2.760   4.682
 4778SOL    HW215234   6.921   2.850   4.577
 4779SOL     OW15235   5.602   6.922   3.598
 4779SOL    HW115236   5.698   6.910   3.570
 4779SOL    HW215237   5.582   0.001   3.604
 4780SOL     OW15238   5.841   2.516   6.671
 4780SOL    HW115239   5.845   2.475   6.581
 4780SOL    HW215240   5.754   2.493   6.715
 4781SOL     OW15241   2.951   5.036   2.044
 4781SOL    HW115242   2.986   4.947   2.013
 4781SOL    HW215243   2.997   5.109   1.995
 4782SOL     OW15244   6.452   5.607   6.373
 4782SOL    HW115245   6.523   5.646   6.431
 4782SOL    HW215246   6.392   5.680   6.340
 4783SOL     OW15247   5.774   3.883   6.889
 4783SOL    HW115248   5.696   3.929   6.931
 4783SOL    HW215249   5.859   3.918   6.930
 4784SOL     OW15250   6.307   1.965   6.332
 4784SOL    HW115251   6.380   1.903   6.359
 4784SOL    HW215252   6.228   1.953   6.392
 4785SOL     OW15253   0.277   6.585   3.078
 4785SOL    HW115254   0.324   6.668   3.107
 4785SOL    HW215255   0.322   6.505   3.118
 4786SOL     OW15256   2.261   6.847   6.652
 4786SOL    HW115257   2.304   6.759   6.634
 4786SOL    HW215258   2.236   6.853   6.749
 4787SOL     OW15259   3.949   1.784   3.595
 4787SOL    HW115260   3.888   1.812   3.520
 4787SOL    HW215261   3.895   1.743   3.668
 4788SOL     OW15262   6.537   6.357   0.988
 4788SOL    HW115263   6.540   6.410   0.903
 4788SOL    HW215264   6.476   6.279   0.975
 4789SOL     OW15265   4.890   1.874   1.566
 4789SOL    HW115266   4.895   1.806   1.640
 4789SOL    HW215267   4.943   1.841   1.488
 4790SOL     OW15268   5.673   2.065   5.847
 4790SOL    HW115269   5.715   1.975   5.860
 4790SOL    HW215270   5.575   2.058   5.865
 4791SOL     OW15271   6.887   3.236   1.784
 4791SOL    HW115272   6.955   3.300   1.819
 4791SOL    HW215273   6.890   3.236   1.684
 4792SOL     OW15274   2.214   4.462   4.523
 4792SOL    HW115275   2.245   4.415   4.606
 4792SOL    HW215276   2.279   4.446   4.449
 4793SOL     OW15277   1.763   3.701   5.199
 4793SOL    HW115278   1.796   3.676   5.291
 4793SOL    HW215279   1.829   3.762   5.156
 4794SOL     OW15280   4.372   6.594   4.423
 4794SOL    HW115281   4.317   6.512   4.443
 4794SOL    HW215282   4.463   6.566   4.391
 4795SOL     OW15283   6.577   1.849   4.254
 4795SOL    HW115284   6.579   1.829   4.156
 4795SOL    HW215285   6.582   1.948   4.268
 4796SOL     OW15286   3.714   6.932   6.413
 4796SOL    HW115287   3.652   7.011   6.415
 4796SOL    HW215288   3.747   6.918   6.320
 4797SOL     OW15289   0.604   6.011   4.272
 4797SOL    HW115290   0.549   6.083   4.314
 4797SOL    HW215291   0.641   5.951   4.343
 4798SOL     OW15292   5.668   5.082   5.258
 4798SOL    HW115293   5.701   5.122   5.343
 4798SOL    HW215294   5.652   4.984   5.272
 4799SOL     OW15295   4.242   1.427   0.235
 4799SOL    HW115296   4.189   1.348   0.204
 4799SOL    HW215297   4.316   1.445   0.171
 4800SOL     OW15298   1.402   4.131   6.804
 4800SOL    HW115299   1.441   4.101   6.717
 4800SOL    HW215300   1.415   4.230   6.814
 4801SOL     OW15301   3.610   2.545   6.820
 4801SOL    HW115302   3.572   2.622   6.769
 4801SOL    HW215303   3.594   2.460   6.769
 4802SOL     OW15304   6.541   6.460   1.754
 4802SOL    HW115305   6.462   6.417   1.710
 4802SOL    HW215306   6.517   6.489   1.846
 4803SOL     OW15307   6.564   4.846   0.663
 4803SOL    HW115308   6.609   4.771   0.615
 4803SOL    HW215309   6.632   4.899   0.713
 4804SOL     OW15310   5.844   6.850   0.775
 4804SOL    HW115311   5.856   6.940   0.732
 4804SOL    HW215312   5.888   6.851   0.865
 4805SOL     OW15313   6.556   0.937   2.234
 4805SOL    HW115314   6.583   0.889   2.317
 4805SOL    HW215315   6.620   1.012   2.217
 4806SOL     OW15316   1.072   3.507   2.478
 4806SOL    HW115317   1.122   3.490   2.393
 4806SOL    HW215318   0.996   3.443   2.486
 4807SOL     OW15319   1.040   3.800   6.538
 4807SOL    HW115320   0.999   3.790   6.447
 4807SOL    HW215321   1.091   3.886   6.542
 4808SOL     OW15322   4.347   5.264   0.529
 4808SOL    HW115323   4.250   5.254   0.550
 4808SOL    HW215324   4.401   5.217   0.599
 4809SOL     OW15325   3.855   4.289   1.383
 4809SOL    HW115326   3.841   4.215   1.448
 4809SOL    HW215327   3.780   4.355   1.390
 4810SOL     OW15328   1.598   4.678   3.349
 4810SOL    HW115329   1.531   4.712   3.415
 4810SOL    HW215330   1.689   4.709   3.375
 4811SOL     OW15331   3.971   3.866   3.575
 4811SOL    HW115332   3.914   3.945   3.553
 4811SOL    HW215333   4.019   3.836   3.493
 4812SOL     OW15334   0.314   6.908   2.186
 4812SOL    HW115335   0.293   6.871   2.096
 4812SOL    HW215336   0.413   6.901   2.202
 4813SOL     OW15337   6.478   1.764   6.442
 4813SOL    HW115338   6.540   1.824   6.491
 4813SOL    HW215339   6.455   1.685   6.498
 4814SOL     OW15340   6.672   3.434   2.066
 4814SOL    HW115341   6.653   3.348   2.019
 4814SOL    HW215342   6.769   3.456   2.059
 4815SOL     OW15343   5.468   4.558   3.036
 4815SOL    HW115344   5.539   4.611   2.990
 4815SOL    HW215345   5.392   4.543   2.972
 4816SOL     OW15346   2.192   5.290   1.116
 4816SOL    HW115347   2.191   5.309   1.214
 4816SOL    HW215348   2.285   5.304   1.080
 4817SOL     OW15349   3.328   1.159   1.772
 4817SOL    HW115350   3.257   1.195   1.832
 4817SOL    HW215351   3.371   1.234   1.722
 4818SOL     OW15352   0.908   1.727   4.041
 4818SOL    HW115353   0.917   1.629   4.020
 4818SOL    HW215354   0.845   1.739   4.117
 4819SOL     OW15355   3.160   1.992   1.378
 4819SOL    HW115356   3.220   1.934   1.433
 4819SOL    HW215357   3.149   1.951   1.287
 4820SOL     OW15358   6.203   2.645   0.502
 4820SOL    HW115359   6.133   2.655   0.431
 4820SOL    HW215360   6.172   2.579   0.570
 4821SOL     OW15361   6.857   6.969   1.389
 4821SOL    HW115362   6.887   6.965   1.294
 4821SOL    HW215363   6.757   6.975   1.393
 4822SOL     OW15364   1.925   3.088   3.892
 4822SOL    HW115365   1.885   3.043   3.812
 4822SOL    HW215366   1.992   3.028   3.935
 4823SOL     OW15367   0.116   1.347   3.846
 4823SOL    HW115368   0.195   1.374   3.902
 4823SOL    HW215369   0.117   1.248   3.832
 4824SOL     OW15370   5.748   1.832   3.805
 4824SOL    HW115371   5.748   1.826   3.705
 4824SOL    HW215372   5.776   1.924   3.832
 4825SOL     OW15373   2.054   2.768   4.448
 4825SOL    HW115374   2.114   2.827   4.393
 4825SOL    HW215375   2.109   2.717   4.514
 4826SOL     OW15376   0.618   0.646   6.966
 4826SOL    HW115377   0.631   0.722   6.902
 4826SOL    HW215378   0.628   0.559   6.919
 4827SOL     OW15379   6.085   0.647   1.777
 4827SOL    HW115380   6.062   0.612   1.868
 4827SOL    HW215381   6.111   0.743   1.784
 4828SOL     OW15382   5.403   3.414   0.922
 4828SOL    HW115383   5.373   3.499   0.966
 4828SOL    HW215384   5.332   3.383   0.859
 4829SOL     OW15385   3.716   6.427   6.624
 4829SOL    HW115386   3.695   6.387   6.713
 4829SOL    HW215387   3.752   6.519   6.636
 4830SOL     OW15388   5.547   6.144   4.013
 4830SOL    HW115389   5.554   6.238   4.047
 4830SOL    HW215390   5.636   6.099   4.021
 4831SOL     OW15391   6.608   5.348   5.936
 4831SOL    HW115392   6.578   5.397   6.018
 4831SOL    HW215393   6.612   5.250   5.955
 4832SOL     OW15394   2.633   2.522   5.677
 4832SOL    HW115395   2.583   2.605   5.701
 4832SOL    HW215396   2.589   2.443   5.720
 4833SOL     OW15397   5.177   1.199   2.951
 4833SOL    HW115398   5.131   1.110   2.957
 4833SOL    HW215399   5.120   1.269   2.994
 4834SOL     OW15400   3.813   0.532   0.174
 4834SOL    HW115401   3.852   0.516   0.265
 4834SOL    HW215402   3.752   0.611   0.178
 4835SOL     OW15403   1.301   0.843   6.572
 4835SOL    HW115404   1.321   0.852   6.670
 4835SOL    HW215405   1.374   0.887   6.519
 4836SOL     OW15406   4.572   2.627   3.523
 4836SOL    HW115407   4.501   2.581   3.576
 4836SOL    HW215408   4.550   2.622   3.426
 4837SOL     OW15409   4.461   3.387   1.736
 4837SOL    HW115410   4.385   3.450   1.719
 4837SOL    HW215411   4.425   3.297   1.760
 4838SOL     OW15412   2.495   4.938   1.835
 4838SOL    HW115413   2.562   4.906   1.902
 4838SOL    HW215414   2.413   4.969   1.882
 4839SOL     OW15415   1.665   3.862   5.753
 4839SOL    HW115416   1.601   3.906   5.816
 4839SOL    HW215417   1.641   3.885   5.659
 4840SOL     OW15418   0.786   6.620   5.864
 4840SOL    HW115419   0.767   6.702   5.918
 4840SOL    HW215420   0.881   6.591   5.877
 4841SOL     OW15421   3.091   5.987   1.432
 4841SOL    HW115422   3.055   6.072   1.472
 4841SOL    HW215423   3.017   5.939   1.384
 4842SOL     OW15424   3.287   4.814   1.897
 4842SOL    HW115425   3.285   4.884   1.968
 4842SOL    HW215426   3.381   4.781   1.885
 4843SOL     OW15427   6.051   4.167   0.809
 4843SOL    HW115428   6.138   4.200   0.772
 4843SOL    HW215429   6.055   4.167   0.909
 4844SOL     OW15430   6.767   3.225   5.793
 4844SOL    HW115431   6.850   3.255   5.748
 4844SOL    HW215432   6.750   3.282   5.874
 4845SOL     OW15433   6.756   5.928   4.535
 4845SOL    HW115434   6.848   5.946   4.500
 4845SOL    HW215435   6.732   5.998   4.603
 4846SOL     OW15436   6.599   3.012   2.835
 4846SOL    HW115437   6.530   3.068   2.791
 4846SOL    HW215438   6.571   2.916   2.835
 4847SOL     OW15439   3.701   1.716   5.773
 4847SOL    HW115440   3.787   1.671   5.752
 4847SOL    HW215441   3.679   1.703   5.870
 4848SOL     OW15442   1.666   0.737   3.824
 4848SOL    HW115443   1.701   0.751   3.732
 4848SOL    HW215444   1.568   0.720   3.821
 4849SOL     OW15445   0.973   7.005   6.763
 4849SOL    HW115446   1.065   6.976   6.735
 4849SOL    HW215447   0.973   0.002   6.862
 4850SOL     OW15448   4.090   1.196   2.635
 4850SOL    HW115449   4.145   1.234   2.561
 4850SOL    HW215450   4.034   1.120   2.600
 4851SOL     OW15451   3.225   5.420   4.729
 4851SOL    HW115452   3.198   5.343   4.787
 4851SOL    HW215453   3.222   5.505   4.782
 4852SOL     OW15454   0.975   0.512   5.935
 4852SOL    HW115455   0.904   0.442   5.940
 4852SOL    HW215456   0.968   0.573   6.013
 4853SOL     OW15457   2.858   1.075   2.381
 4853SOL    HW115458   2.817   1.040   2.466
 4853SOL    HW215459   2.816   1.029   2.303
 4854SOL     OW15460   4.993   6.428   2.446
 4854SOL    HW115461   5.012   6.336   2.413
 4854SOL    HW215462   4.933   6.475   2.381
 4855SOL     OW15463   5.825   2.554   2.556
 4855SOL    HW115464   5.768   2.583   2.633
 4855SOL    HW215465   5.814   2.455   2.542
 4856SOL     OW15466   2.276   4.237   2.770
 4856SOL    HW115467   2.322   4.265   2.687
 4856SOL    HW215468   2.252   4.140   2.764
 4857SOL     OW15469   2.028   2.535   5.492
 4857SOL    HW115470   2.096   2.595   5.449
 4857SOL    HW215471   1.979   2.585   5.563
 4858SOL     OW15472   1.631   1.130   4.473
 4858SOL    HW115473   1.628   1.224   4.438
 4858SOL    HW215474   1.694   1.125   4.550
 4859SOL     OW15475   1.387   0.351   4.545
 4859SOL    HW115476   1.476   0.306   4.543
 4859SOL    HW215477   1.386   0.426   4.479
 4860SOL     OW15478   3.586   4.997   1.915
 4860SOL    HW115479   3.505   4.996   1.973
 4860SOL    HW215480   3.631   4.908   1.918
 4861SOL     OW15481   5.323   5.431   0.393
 4861SOL    HW115482   5.268   5.360   0.437
 4861SOL    HW215483   5.263   5.496   0.346
 4862SOL     OW15484   2.960   4.845   4.978
 4862SOL    HW115485   2.917   4.759   5.005
 4862SOL    HW215486   2.900   4.921   5.002
 4863SOL     OW15487   6.101   4.477   1.692
 4863SOL    HW115488   6.099   4.416   1.613
 4863SOL    HW215489   6.162   4.440   1.762
 4864SOL     OW15490   3.894   1.134   3.764
 4864SOL    HW115491   3.898   1.087   3.852
 4864SOL    HW215492   3.899   1.067   3.690
 4865SOL     OW15493   2.065   0.256   5.803
 4865SOL    HW115494   1.987   0.207   5.765
 4865SOL    HW215495   2.150   0.209   5.777
 4866SOL     OW15496   6.734   2.850   0.853
 4866SOL    HW115497   6.685   2.774   0.812
 4866SOL    HW215498   6.810   2.877   0.795
 4867SOL     OW15499   3.709   5.633   3.807
 4867SOL    HW115500   3.772   5.582   3.865
 4867SOL    HW215501   3.657   5.570   3.749
 4868SOL     OW15502   0.155   5.134   2.650
 4868SOL    HW115503   0.201   5.205   2.703
 4868SOL    HW215504   0.058   5.131   2.675
 4869SOL     OW15505   1.481   1.721   2.342
 4869SOL    HW115506   1.388   1.753   2.324
 4869SOL    HW215507   1.495   1.710   2.441
 4870SOL     OW15508   0.447   6.353   2.099
 4870SOL    HW115509   0.538   6.352   2.140
 4870SOL    HW215510   0.404   6.264   2.112
 4871SOL     OW15511   1.190   0.852   3.691
 4871SOL    HW115512   1.215   0.948   3.704
 4871SOL    HW215513   1.112   0.830   3.750
 4872SOL     OW15514   5.965   0.141   3.427
 4872SOL    HW115515   6.034   0.092   3.374
 4872SOL    HW215516   5.984   0.239   3.425
 4873SOL     OW15517   6.455   5.384   4.265
 4873SOL    HW115518   6.477   5.471   4.309
 4873SOL    HW215519   6.458   5.311   4.334
 4874SOL     OW15520   5.537   4.044   2.623
 4874SOL    HW115521   5.563   4.038   2.527
 4874SOL    HW215522   5.618   4.060   2.679
 4875SOL     OW15523   6.243   1.558   0.421
 4875SOL    HW115524   6.281   1.466   0.405
 4875SOL    HW215525   6.185   1.583   0.343
 4876SOL     OW15526   6.594   2.041   3.383
 4876SOL    HW115527   6.639   2.021   3.295
 4876SOL    HW215528   6.503   2.078   3.366
 4877SOL     OW15529   0.930   1.406   5.699
 4877SOL    HW115530   0.894   1.412   5.792
 4877SOL    HW215531   0.855   1.388   5.636
 4878SOL     OW15532   6.347   1.613   1.564
 4878SOL    HW115533   6.360   1.517   1.539
 4878SOL    HW215534   6.410   1.670   1.512
 4879SOL     OW15535   4.297   1.678   1.994
 4879SOL    HW115536   4.290   1.651   1.898
 4879SOL    HW215537   4.280   1.776   2.002
 4880SOL     OW15538   5.666   3.677   0.074
 4880SOL    HW115539   5.658   3.720   7.004
 4880SOL    HW215540   5.669   3.748   0.145
 4881SOL     OW15541   1.567   1.464   0.197
 4881SOL    HW115542   1.543   1.561   0.196
 4881SOL    HW215543   1.484   1.410   0.186
 4882SOL     OW15544   4.769   0.666   5.098
 4882SOL    HW115545   4.755   0.762   5.122
 4882SOL    HW215546   4.863   0.653   5.066
 4883SOL     OW15547   4.777   4.617   1.425
 4883SOL    HW115548   4.804   4.541   1.484
 4883SOL    HW215549   4.785   4.703   1.476
 4884SOL     OW15550   2.857   5.711   1.699
 4884SOL    HW115551   2.891   5.755   1.783
 4884SOL    HW215552   2.930   5.709   1.631
 4885SOL     OW15553   2.432   5.375   1.001
 4885SOL    HW115554   2.495   5.426   1.060
 4885SOL    HW215555   2.485   5.317   0.938
 4886SOL     OW15556   1.975   6.235   1.686
 4886SOL    HW115557   2.070   6.213   1.709
 4886SOL    HW215558   1.970   6.331   1.659
 4887SOL     OW15559   0.161   6.712   1.287
 4887SOL    HW115560   0.175   6.766   1.204
 4887SOL    HW215561   0.199   6.621   1.275
 4888SOL     OW15562   3.100   0.239   4.547
 4888SOL    HW115563   3.175   0.226   4.482
 4888SOL    HW215564   3.013   0.220   4.502
 4889SOL     OW15565   0.054   1.339   5.034
 4889SOL    HW115566   6.981   1.375   5.050
 4889SOL    HW215567   0.121   1.401   5.075
 4890SOL     OW15568   6.715   1.279   5.986
 4890SOL    HW115569   6.773   1.200   5.967
 4890SOL    HW215570   6.714   1.340   5.906
 4891SOL     OW15571   2.149   4.765   0.292
 4891SOL    HW115572   2.097   4.848   0.270
 4891SOL    HW215573   2.201   4.780   0.376
 4892SOL     OW15574   3.995   5.387   2.391
 4892SOL    HW115575   4.053   5.435   2.457
 4892SOL    HW215576   3.899   5.401   2.415
 4893SOL     OW15577   5.797   2.821   1.438
 4893SOL    HW115578   5.725   2.793   1.501
 4893SOL    HW215579   5.878   2.765   1.451
 4894SOL     OW15580   3.807   0.972   2.830
 4894SOL    HW115581   3.818   1.007   2.737
 4894SOL    HW215582   3.817   1.048   2.895
 4895SOL     OW15583   0.456   4.795   4.034
 4895SOL    HW115584   0.408   4.751   4.110
 4895SOL    HW215585   0.539   4.840   4.068
 4896SOL     OW15586   2.352   4.303   2.189
 4896SOL    HW115587   2.320   4.212   2.214
 4896SOL    HW215588   2.357   4.311   2.090
 4897SOL     OW15589   1.425   5.150   5.630
 4897SOL    HW115590   1.465   5.240   5.615
 4897SOL    HW215591   1.436   5.095   5.547
 4898SOL     OW15592   4.547   1.320   5.170
 4898SOL    HW115593   4.488   1.250   5.211
 4898SOL    HW215594   4.628   1.276   5.130
 4899SOL     OW15595   5.840   5.339   3.006
 4899SOL    HW115596   5.753   5.364   2.963
 4899SOL    HW215597   5.829   5.339   3.106
 4900SOL     OW15598   3.630   6.498   5.074
 4900SOL    HW115599   3.711   6.529   5.125
 4900SOL    HW215600   3.632   6.398   5.066
 4901SOL     OW15601   2.348   1.180   5.067
 4901SOL    HW115602   2.436   1.212   5.031
 4901SOL    HW215603   2.315   1.244   5.136
 4902SOL     OW15604   1.667   1.662   4.893
 4902SOL    HW115605   1.676   1.684   4.796
 4902SOL    HW215606   1.609   1.730   4.938
 4903SOL     OW15607   4.051   5.774   7.014
 4903SOL    HW115608   4.059   5.753   0.092
 4903SOL    HW215609   3.963   5.819   6.996
 4904SOL     OW15610   1.921   6.962   5.368
 4904SOL    HW115611   1.896   0.040   5.370
 4904SOL    HW215612   2.013   6.953   5.331
 4905SOL     OW15613   3.419   0.654   3.254
 4905SOL    HW115614   3.357   0.587   3.213
 4905SOL    HW215615   3.486   0.607   3.311
 4906SOL     OW15616   4.996   1.866   6.236
 4906SOL    HW115617   4.925   1.926   6.199
 4906SOL    HW215618   5.084   1.914   6.235
 4907SOL     OW15619   4.551   6.617   2.200
 4907SOL    HW115620   4.548   6.620   2.100
 4907SOL    HW215621   4.520   6.528   2.232
 4908SOL     OW15622   5.709   6.436   6.632
 4908SOL    HW115623   5.664   6.357   6.592
 4908SOL    HW215624   5.808   6.421   6.634
 4909SOL     OW15625   0.286   5.616   3.431
 4909SOL    HW115626   0.271   5.584   3.338
 4909SOL    HW215627   0.198   5.642   3.472
 4910SOL     OW15628   5.171   1.171   4.023
 4910SOL    HW115629   5.216   1.091   3.983
 4910SOL    HW215630   5.210   1.188   4.114
 4911SOL     OW15631   1.678   4.205   3.066
 4911SOL    HW115632   1.705   4.288   3.019
 4911SOL    HW215633   1.581   4.211   3.091
 4912SOL     OW15634   5.919   1.321   6.303
 4912SOL    HW115635   5.993   1.362   6.250
 4912SOL    HW215636   5.930   1.342   6.400
 4913SOL     OW15637   3.800   3.214   5.023
 4913SOL    HW115638   3.800   3.257   5.113
 4913SOL    HW215639   3.811   3.115   5.034
 4914SOL     OW15640   4.550   6.849   5.040
 4914SOL    HW115641   4.577   6.871   4.946
 4914SOL    HW215642   4.544   6.934   5.093
 4915SOL     OW15643   2.566   6.082   5.928
 4915SOL    HW115644   2.535   6.044   5.841
 4915SOL    HW215645   2.530   6.174   5.940
 4916SOL     OW15646   0.788   0.869   3.986
 4916SOL    HW115647   0.776   0.946   3.924
 4916SOL    HW215648   0.847   0.800   3.943
 4917SOL     OW15649   2.565   5.764   1.553
 4917SOL    HW115650   2.575   5.697   1.626
 4917SOL    HW215651   2.651   5.771   1.502
 4918SOL     OW15652   5.204   6.063   2.110
 4918SOL    HW115653   5.292   6.016   2.102
 4918SOL    HW215654   5.219   6.157   2.138
 4919SOL     OW15655   2.792   2.933   1.096
 4919SOL    HW115656   2.695   2.931   1.123
 4919SOL    HW215657   2.798   2.936   0.996
 4920SOL     OW15658   5.206   0.067   4.730
 4920SOL    HW115659   5.109   0.042   4.720
 4920SOL    HW215660   5.229   0.140   4.667
 4921SOL     OW15661   0.959   5.842   6.847
 4921SOL    HW115662   1.053   5.851   6.816
 4921SOL    HW215663   0.949   5.887   6.936
 4922SOL     OW15664   2.662   2.258   4.963
 4922SOL    HW115665   2.735   2.259   4.895
 4922SOL    HW215666   2.597   2.185   4.942
 4923SOL     OW15667   3.354   0.905   2.429
 4923SOL    HW115668   3.271   0.954   2.401
 4923SOL    HW215669   3.349   0.810   2.399
 4924SOL     OW15670   3.770   1.117   4.297
 4924SOL    HW115671   3.768   1.115   4.197
 4924SOL    HW215672   3.797   1.209   4.327
 4925SOL     OW15673   5.699   0.307   2.539
 4925SOL    HW115674   5.780   0.358   2.511
 4925SOL    HW215675   5.660   0.350   2.621
 4926SOL     OW15676   5.646   1.805   1.483
 4926SOL    HW115677   5.677   1.815   1.577
 4926SOL    HW215678   5.705   1.859   1.423
 4927SOL     OW15679   2.905   3.646   4.586
 4927SOL    HW115680   2.951   3.565   4.623
 4927SOL    HW215681   2.859   3.695   4.660
 4928SOL     OW15682   1.463   1.025   0.038
 4928SOL    HW115683   1.411   0.979   0.110
 4928SOL    HW215684   1.551   0.979   0.026
 4929SOL     OW15685   6.326   6.831   4.837
 4929SOL    HW115686   6.274   6.907   4.796
 4929SOL    HW215687   6.349   6.854   4.931
 4930SOL     OW15688   5.834   0.436   2.938
 4930SOL    HW115689   5.759   0.424   3.003
 4930SOL    HW215690   5.906   0.369   2.957
 4931SOL     OW15691   6.513   6.612   1.505
 4931SOL    HW115692   6.549   6.590   1.415
 4931SOL    HW215693   6.549   6.547   1.572
 4932SOL     OW15694   3.983   3.315   2.712
 4932SOL    HW115695   4.035   3.251   2.769
 4932SOL    HW215696   3.930   3.263   2.644
 4933SOL     OW15697   2.344   6.780   2.473
 4933SOL    HW115698   2.374   6.813   2.383
 4933SOL    HW215699   2.419   6.729   2.516
 4934SOL     OW15700   3.409   5.681   3.546
 4934SOL    HW115701   3.404   5.643   3.638
 4934SOL    HW215702   3.372   5.774   3.547
 4935SOL     OW15703   1.601   1.941   6.344
 4935SOL    HW115704   1.611   1.851   6.301
 4935SOL    HW215705   1.679   1.958   6.403
 4936SOL     OW15706   3.652   5.206   1.445
 4936SOL    HW115707   3.602   5.178   1.527
 4936SOL    HW215708   3.603   5.281   1.401
 4937SOL     OW15709   5.953   3.196   5.957
 4937SOL    HW115710   6.032   3.189   5.897
 4937SOL    HW215711   5.983   3.209   6.051
 4938SOL     OW15712   1.824   5.495   5.669
 4938SOL    HW115713   1.737   5.494   5.719
 4938SOL    HW215714   1.806   5.489   5.571
 4939SOL     OW15715   5.466   2.115   4.830
 4939SOL    HW115716   5.454   2.070   4.918
 4939SOL    HW215717   5.413   2.066   4.760
 4940SOL     OW15718   0.826   1.484   4.826
 4940SOL    HW115719   0.906   1.482   4.766
 4940SOL    HW215720   0.759   1.548   4.788
 4941SOL     OW15721   4.575   1.883   5.898
 4941SOL    HW115722   4.601   1.923   5.986
 4941SOL    HW215723   4.612   1.940   5.824
 4942SOL     OW15724   5.698   2.871   5.891
 4942SOL    HW115725   5.740   2.808   5.826
 4942SOL    HW215726   5.599   2.857   5.891
 4943SOL     OW15727   3.998   3.622   0.409
 4943SOL    HW115728   4.055   3.684   0.463
 4943SOL    HW215729   4.034   3.529   0.416
 4944SOL     OW15730   2.410   4.420   2.580
 4944SOL    HW115731   2.451   4.432   2.489
 4944SOL    HW215732   2.389   4.509   2.619
 4945SOL     OW15733   1.083   1.234   4.011
 4945SOL    HW115734   1.182   1.231   4.021
 4945SOL    HW215735   1.058   1.209   3.917
 4946SOL     OW15736   0.342   3.253   1.028
 4946SOL    HW115737   0.332   3.290   1.121
 4946SOL    HW215738   0.365   3.326   0.965
 4947SOL     OW15739   1.459   0.919   0.968
 4947SOL    HW115740   1.482   1.009   1.005
 4947SOL    HW215741   1.417   0.863   1.040
 4948SOL     OW15742   1.918   0.331   2.993
 4948SOL    HW115743   1.838   0.391   2.994
 4948SOL    HW215744   1.974   0.348   3.074
 4949SOL     OW15745   4.507   6.993   5.674
 4949SOL    HW115746   4.442   0.050   5.668
 4949SOL    HW215747   4.457   6.908   5.689
 4950SOL     OW15748   2.845   5.481   4.136
 4950SOL    HW115749   2.782   5.403   4.130
 4950SOL    HW215750   2.860   5.505   4.232
 4951SOL     OW15751   5.113   1.563   4.898
 4951SOL    HW115752   5.205   1.590   4.925
 4951SOL    HW215753   5.116   1.513   4.812
 4952SOL     OW15754   0.675   0.815   5.034
 4952SOL    HW115755   0.642   0.754   4.962
 4952SOL    HW215756   0.713   0.897   4.993
 4953SOL     OW15757   1.793   6.744   2.176
 4953SOL    HW115758   1.814   6.655   2.135
 4953SOL    HW215759   1.829   6.817   2.117
 4954SOL     OW15760   4.542   3.929   6.925
 4954SOL    HW115761   4.449   3.903   6.897
 4954SOL    HW215762   4.551   3.918   0.005
 4955SOL     OW15763   1.760   6.937   6.240
 4955SOL    HW115764   1.763   6.990   6.325
 4955SOL    HW215765   1.665   6.925   6.212
 4956SOL     OW15766   2.618   6.880   4.543
 4956SOL    HW115767   2.622   6.966   4.594
 4956SOL    HW215768   2.530   6.874   4.495
 4957SOL     OW15769   0.116   1.453   3.584
 4957SOL    HW115770   0.130   1.420   3.678
 4957SOL    HW215771   0.021   1.479   3.572
 4958SOL     OW15772   0.263   6.067   5.672
 4958SOL    HW115773   0.183   6.039   5.619
 4958SOL    HW215774   0.340   6.081   5.610
 4959SOL     OW15775   6.837   1.251   6.352
 4959SOL    HW115776   6.843   1.185   6.427
 4959SOL    HW215777   6.741   1.264   6.327
 4960SOL     OW15778   3.183   5.960   3.930
 4960SOL    HW115779   3.210   5.931   4.021
 4960SOL    HW215780   3.201   6.057   3.919
 4961SOL     OW15781   5.148   1.641   5.645
 4961SOL    HW115782   5.240   1.654   5.682
 4961SOL    HW215783   5.152   1.579   5.566
 4962SOL     OW15784   6.156   2.935   0.930
 4962SOL    HW115785   6.206   2.919   0.845
 4962SOL    HW215786   6.196   2.878   1.002
 4963SOL     OW15787   6.071   6.268   0.590
 4963SOL    HW115788   6.033   6.243   0.501
 4963SOL    HW215789   6.110   6.187   0.634
 4964SOL     OW15790   3.619   6.230   3.345
 4964SOL    HW115791   3.568   6.254   3.427
 4964SOL    HW215792   3.712   6.266   3.352
 4965SOL     OW15793   0.304   0.318   3.946
 4965SOL    HW115794   0.342   0.349   4.033
 4965SOL    HW215795   0.376   0.316   3.876
 4966SOL     OW15796   2.284   0.235   4.866
 4966SOL    HW115797   2.267   0.313   4.807
 4966SOL    HW215798   2.267   0.150   4.816
 4967SOL     OW15799   3.878   3.194   5.950
 4967SOL    HW115800   3.977   3.180   5.941
 4967SOL    HW215801   3.860   3.242   6.036
 4968SOL     OW15802   5.371   3.089   3.128
 4968SOL    HW115803   5.291   3.143   3.156
 4968SOL    HW215804   5.341   3.011   3.073
 4969SOL     OW15805   2.058   1.002   1.810
 4969SOL    HW115806   2.051   1.079   1.746
 4969SOL    HW215807   2.140   0.949   1.789
 4970SOL     OW15808   1.698   2.091   4.662
 4970SOL    HW115809   1.771   2.088   4.730
 4970SOL    HW215810   1.674   2.186   4.642
 4971SOL     OW15811   6.086   6.182   3.682
 4971SOL    HW115812   6.177   6.224   3.679
 4971SOL    HW215813   6.082   6.116   3.757
 4972SOL     OW15814   1.408   3.016   0.442
 4972SOL    HW115815   1.324   3.050   0.485
 4972SOL    HW215816   1.485   3.032   0.503
 4973SOL     OW15817   6.425   6.939   1.948
 4973SOL    HW115818   6.473   6.922   1.862
 4973SOL    HW215819   6.491   6.943   2.023
 4974SOL     OW15820   5.772   4.261   0.782
 4974SOL    HW115821   5.720   4.238   0.700
 4974SOL    HW215822   5.868   4.241   0.768
 4975SOL     OW15823   5.612   5.856   6.487
 4975SOL    HW115824   5.540   5.787   6.482
 4975SOL    HW215825   5.601   5.921   6.411
 4976SOL     OW15826   3.418   0.177   4.861
 4976SOL    HW115827   3.447   0.238   4.787
 4976SOL    HW215828   3.319   0.178   4.869
 4977SOL     OW15829   4.797   3.940   0.649
 4977SOL    HW115830   4.859   3.999   0.701
 4977SOL    HW215831   4.751   3.877   0.712
 4978SOL     OW15832   0.168   3.455   5.669
 4978SOL    HW115833   0.109   3.523   5.625
 4978SOL    HW215834   0.112   3.387   5.716
 4979SOL     OW15835   6.833   1.419   5.136
 4979SOL    HW115836   6.840   1.354   5.212
 4979SOL    HW215837   6.751   1.400   5.082
 4980SOL     OW15838   4.568   0.114   3.441
 4980SOL    HW115839   4.532   0.207   3.447
 4980SOL    HW215840   4.515   0.061   3.375
 4981SOL     OW15841   4.915   5.428   6.306
 4981SOL    HW115842   4.871   5.501   6.359
 4981SOL    HW215843   4.886   5.433   6.211
 4982SOL     OW15844   2.194   1.580   6.968
 4982SOL    HW115845   2.281   1.533   6.980
 4982SOL    HW215846   2.209   1.678   6.962
 4983SOL     OW15847   5.210   2.933   4.292
 4983SOL    HW115848   5.208   2.837   4.320
 4983SOL    HW215849   5.237   2.990   4.370
 4984SOL     OW15850   5.529   3.628   4.147
 4984SOL    HW115851   5.518   3.659   4.241
 4984SOL    HW215852   5.625   3.613   4.127
 4985SOL     OW15853   6.826   6.011   3.307
 4985SOL    HW115854   6.737   5.998   3.351
 4985SOL    HW215855   6.814   6.060   3.221
 4986SOL     OW15856   6.857   4.459   2.922
 4986SOL    HW115857   6.904   4.547   2.927
 4986SOL    HW215858   6.852   4.429   2.827
 4987SOL     OW15859   0.644   2.357   1.414
 4987SOL    HW115860   0.579   2.395   1.480
 4987SOL    HW215861   0.595   2.301   1.347
 4988SOL     OW15862   6.655   1.827   3.586
 4988SOL    HW115863   6.627   1.898   3.520
 4988SOL    HW215864   6.584   1.757   3.591
 4989SOL     OW15865   5.496   1.087   1.051
 4989SOL    HW115866   5.542   1.120   1.134
 4989SOL    HW215867   5.555   1.021   1.005
 4990SOL     OW15868   1.153   1.622   6.090
 4990SOL    HW115869   1.245   1.636   6.054
 4990SOL    HW215870   1.157   1.563   6.171
 4991SOL     OW15871   0.828   4.218   3.665
 4991SOL    HW115872   0.815   4.189   3.570
 4991SOL    HW215873   0.802   4.143   3.727
 4992SOL     OW15874   4.876   0.918   4.034
 4992SOL    HW115875   4.960   0.865   4.046
 4992SOL    HW215876   4.897   1.006   3.991
 4993SOL     OW15877   2.891   5.104   4.036
 4993SOL    HW115878   2.876   5.006   4.050
 4993SOL    HW215879   2.989   5.123   4.037
 4994SOL     OW15880   1.388   0.361   2.289
 4994SOL    HW115881   1.456   0.341   2.360
 4994SOL    HW215882   1.343   0.448   2.310
 4995SOL     OW15883   6.663   2.956   6.023
 4995SOL    HW115884   6.640   3.033   6.083
 4995SOL    HW215885   6.596   2.951   5.949
 4996SOL     OW15886   1.553   0.794   2.789
 4996SOL    HW115887   1.651   0.778   2.779
 4996SOL    HW215888   1.537   0.860   2.863
 4997SOL     OW15889   6.094   2.077   2.898
 4997SOL    HW115890   6.017   2.063   2.835
 4997SOL    HW215891   6.060   2.070   2.992
 4998SOL     OW15892   2.171   3.788   4.965
 4998SOL    HW115893   2.248   3.849   4.985
 4998SOL    HW215894   2.172   3.711   5.029
 4999SOL     OW15895   5.386   5.761   1.285
 4999SOL    HW115896   5.360   5.811   1.202
 4999SOL    HW215897   5.408   5.826   1.358
 5000SOL     OW15898   1.188   0.191   4.235
 5000SOL    HW115899   1.149   0.196   4.327
 5000SOL    HW215900   1.288   0.186   4.241
 5001SOL     OW15901   1.398   4.272   5.956
 5001SOL    HW115902   1.440   4.183   5.971
 5001SOL    HW215903   1.343   4.297   6.036
 5002SOL     OW15904   1.385   3.124   3.060
 5002SOL    HW115905   1.364   3.200   2.998
 5002SOL    HW215906   1.476   3.088   3.039
 5003SOL     OW15907   1.373   6.187   3.298
 5003SOL    HW115908   1.410   6.182   3.390
 5003SOL    HW215909   1.424   6.254   3.245
 5004SOL     OW15910   2.849   5.199   5.305
 5004SOL    HW115911   2.868   5.153   5.393
 5004SOL    HW215912   2.770   5.259   5.315
 5005SOL     OW15913   3.619   2.383   0.930
 5005SOL    HW115914   3.525   2.376   0.896
 5005SOL    HW215915   3.666   2.457   0.884
 5006SOL     OW15916   5.249   6.911   6.461
 5006SOL    HW115917   5.215   7.004   6.444
 5006SOL    HW215918   5.186   6.864   6.522
 5007SOL     OW15919   2.429   0.452   6.405
 5007SOL    HW115920   2.516   0.500   6.418
 5007SOL    HW215921   2.355   0.518   6.397
 5008SOL     OW15922   6.839   0.214   4.061
 5008SOL    HW115923   6.892   0.199   4.144
 5008SOL    HW215924   6.810   0.310   4.057
 5009SOL     OW15925   2.179   6.681   2.003
 5009SOL    HW115926   2.170   6.703   1.906
 5009SOL    HW215927   2.138   6.753   2.058
 5010SOL     OW15928   3.039   3.218   3.996
 5010SOL    HW115929   3.001   3.268   3.918
 5010SOL    HW215930   3.049   3.280   4.074
 5011SOL     OW15931   2.106   3.655   2.213
 5011SOL    HW115932   2.068   3.594   2.283
 5011SOL    HW215933   2.147   3.600   2.140
 5012SOL     OW15934   5.108   3.153   6.782
 5012SOL    HW115935   5.200   3.120   6.761
 5012SOL    HW215936   5.059   3.174   6.697
 5013SOL     OW15937   5.247   1.068   6.934
 5013SOL    HW115938   5.336   1.030   6.960
 5013SOL    HW215939   5.206   1.114   7.013
 5014SOL     OW15940   5.562   5.735   0.582
 5014SOL    HW115941   5.532   5.711   0.489
 5014SOL    HW215942   5.503   5.807   0.618
 5015SOL     OW15943   4.198   1.673   3.475
 5015SOL    HW115944   4.251   1.653   3.558
 5015SOL    HW215945   4.109   1.710   3.502
 5016SOL     OW15946   2.498   1.716   1.878
 5016SOL    HW115947   2.515   1.815   1.872
 5016SOL    HW215948   2.512   1.675   1.788
 5017SOL     OW15949   1.781   2.382   0.715
 5017SOL    HW115950   1.836   2.457   0.679
 5017SOL    HW215951   1.839   2.321   0.770
 5018SOL     OW15952   0.722   5.069   1.292
 5018SOL    HW115953   0.815   5.103   1.282
 5018SOL    HW215954   0.665   5.140   1.333
 5019SOL     OW15955   2.600   4.523   0.358
 5019SOL    HW115956   2.542   4.586   0.306
 5019SOL    HW215957   2.609   4.437   0.309
 5020SOL     OW15958   4.922   6.714   5.441
 5020SOL    HW115959   4.926   6.624   5.397
 5020SOL    HW215960   4.873   6.778   5.382
 5021SOL     OW15961   1.704   2.717   5.565
 5021SOL    HW115962   1.605   2.703   5.573
 5021SOL    HW215963   1.732   2.702   5.470
 5022SOL     OW15964   2.166   0.774   1.038
 5022SOL    HW115965   2.151   0.801   1.133
 5022SOL    HW215966   2.244   0.710   1.034
 5023SOL     OW15967   6.525   3.293   1.258
 5023SOL    HW115968   6.493   3.204   1.290
 5023SOL    HW215969   6.490   3.311   1.167
 5024SOL     OW15970   6.659   4.177   2.733
 5024SOL    HW115971   6.756   4.184   2.755
 5024SOL    HW215972   6.648   4.148   2.638
 5025SOL     OW15973   4.306   1.952   1.992
 5025SOL    HW115974   4.316   1.999   1.904
 5025SOL    HW215975   4.274   2.018   2.061
 5026SOL     OW15976   6.082   5.763   6.539
 5026SOL    HW115977   5.998   5.751   6.592
 5026SOL    HW215978   6.062   5.811   6.454
 5027SOL     OW15979   0.615   6.901   2.139
 5027SOL    HW115980   0.678   6.833   2.177
 5027SOL    HW215981   0.640   6.992   2.173
 5028SOL     OW15982   0.121   6.810   2.369
 5028SOL    HW115983   0.165   6.837   2.454
 5028SOL    HW215984   0.177   6.839   2.291
 5029SOL     OW15985   6.702   3.029   3.210
 5029SOL    HW115986   6.740   3.101   3.268
 5029SOL    HW215987   6.661   3.071   3.129
 5030SOL     OW15988   6.478   0.639   6.957
 5030SOL    HW115989   6.495   0.541   6.962
 5030SOL    HW215990   6.380   0.655   6.941
 5031SOL     OW15991   5.650   1.504   4.833
 5031SOL    HW115992   5.680   1.594   4.800
 5031SOL    HW215993   5.642   1.442   4.755
 5032SOL     OW15994   0.868   4.339   1.297
 5032SOL    HW115995   0.804   4.401   1.252
 5032SOL    HW215996   0.951   4.389   1.321
 5033SOL     OW15997   2.035   4.652   7.015
 5033SOL    HW115998   2.103   4.716   6.981
 5033SOL    HW215999   2.067   4.609   0.080
 5034SOL     OW16000   6.819   3.097   2.167
 5034SOL    HW116001   6.899   3.039   2.155
 5034SOL    HW216002   6.786   3.127   2.078
 5035SOL     OW16003   5.982   4.772   0.933
 5035SOL    HW116004   5.963   4.734   0.843
 5035SOL    HW216005   5.913   4.841   0.956
 5036SOL     OW16006   0.529   5.308   6.648
 5036SOL    HW116007   0.609   5.255   6.621
 5036SOL    HW216008   0.506   5.287   6.743
 5037SOL     OW16009   4.618   2.562   2.546
 5037SOL    HW116010   4.654   2.643   2.592
 5037SOL    HW216011   4.693   2.504   2.516
 5038SOL     OW16012   1.754   4.860   5.530
 5038SOL    HW116013   1.853   4.849   5.526
 5038SOL    HW216014   1.716   4.801   5.601
 5039SOL     OW16015   2.176   3.574   5.151
 5039SOL    HW116016   2.212   3.519   5.226
 5039SOL    HW216017   2.112   3.519   5.097
 5040SOL     OW16018   2.333   4.009   6.495
 5040SOL    HW116019   2.390   4.091   6.492
 5040SOL    HW216020   2.331   3.965   6.405
 5041SOL     OW16021   0.642   3.728   0.968
 5041SOL    HW116022   0.570   3.750   1.034
 5041SOL    HW216023   0.726   3.703   1.017
 5042SOL     OW16024   0.106   3.075   0.141
 5042SOL    HW116025   0.076   3.125   0.059
 5042SOL    HW216026   0.052   3.104   0.220
 5043SOL     OW16027   3.265   0.911   5.384
 5043SOL    HW116028   3.202   0.838   5.410
 5043SOL    HW216029   3.278   0.973   5.462
 5044SOL     OW16030   6.106   6.957   3.289
 5044SOL    HW116031   6.130   6.920   3.379
 5044SOL    HW216032   6.125   6.889   3.219
 5045SOL     OW16033   5.259   3.401   0.365
 5045SOL    HW116034   5.352   3.435   0.352
 5045SOL    HW216035   5.263   3.306   0.397
 5046SOL     OW16036   3.875   2.995   4.717
 5046SOL    HW116037   3.882   3.009   4.816
 5046SOL    HW216038   3.928   3.066   4.669
 5047SOL     OW16039   6.447   1.851   2.794
 5047SOL    HW116040   6.398   1.768   2.768
 5047SOL    HW216041   6.414   1.882   2.883
 5048SOL     OW16042   6.283   2.485   1.306
 5048SOL    HW116043   6.249   2.573   1.341
 5048SOL    HW216044   6.290   2.420   1.382
 5049SOL     OW16045   6.820   1.236   3.479
 5049SOL    HW116046   6.874   1.175   3.536
 5049SOL    HW216047   6.756   1.183   3.424
 5050SOL     OW16048   0.629   1.083   2.122
 5050SOL    HW116049   0.570   1.117   2.195
 5050SOL    HW216050   0.672   1.161   2.075
 5051SOL     OW16051   4.013   3.340   0.696
 5051SOL    HW116052   3.936   3.285   0.728
 5051SOL    HW216053   4.096   3.313   0.745
 5052SOL     OW16054   2.446   4.793   6.122
 5052SOL    HW116055   2.371   4.823   6.180
 5052SOL    HW216056   2.468   4.864   6.055
 5053SOL     OW16057   2.109   3.923   3.101
 5053SOL    HW116058   2.025   3.966   3.067
 5053SOL    HW216059   2.089   3.875   3.186
 5054SOL     OW16060   3.506   5.733   5.285
 5054SOL    HW116061   3.571   5.809   5.287
 5054SOL    HW216062   3.556   5.646   5.282
 5055SOL     OW16063   6.813   1.581   4.455
 5055SOL    HW116064   6.788   1.566   4.360
 5055SOL    HW216065   6.730   1.594   4.510
 5056SOL     OW16066   6.119   3.975   6.131
 5056SOL    HW116067   6.195   4.038   6.117
 5056SOL    HW216068   6.047   4.020   6.185
 5057SOL     OW16069   1.567   5.592   3.682
 5057SOL    HW116070   1.504   5.523   3.646
 5057SOL    HW216071   1.608   5.558   3.767
 5058SOL     OW16072   3.124   3.665   6.949
 5058SOL    HW116073   3.064   3.596   6.910
 5058SOL    HW216074   3.219   3.636   6.940
 5059SOL     OW16075   5.245   3.371   4.649
 5059SOL    HW116076   5.169   3.434   4.634
 5059SOL    HW216077   5.218   3.279   4.622
 5060SOL     OW16078   0.317   2.519   5.264
 5060SOL    HW116079   0.399   2.485   5.218
 5060SOL    HW216080   0.236   2.485   5.217
 5061SOL     OW16081   3.065   3.586   3.854
 5061SOL    HW116082   3.005   3.506   3.856
 5061SOL    HW216083   3.024   3.657   3.798
 5062SOL     OW16084   6.385   0.829   2.031
 5062SOL    HW116085   6.442   0.818   1.950
 5062SOL    HW216086   6.417   0.907   2.085
 5063SOL     OW16087   0.984   6.071   1.606
 5063SOL    HW116088   0.902   6.016   1.587
 5063SOL    HW216089   0.987   6.094   1.703
 5064SOL     OW16090   4.973   5.702   0.928
 5064SOL    HW116091   4.879   5.694   0.895
 5064SOL    HW216092   5.035   5.705   0.850
 5065SOL     OW16093   1.391   0.520   2.794
 5065SOL    HW116094   1.388   0.546   2.890
 5065SOL    HW216095   1.298   0.512   2.758
 5066SOL     OW16096   2.555   4.266   1.705
 5066SOL    HW116097   2.651   4.261   1.681
 5066SOL    HW216098   2.505   4.191   1.660
 5067SOL     OW16099   4.350   1.670   2.279
 5067SOL    HW116100   4.349   1.647   2.181
 5067SOL    HW216101   4.266   1.637   2.321
 5068SOL     OW16102   2.921   5.736   0.056
 5068SOL    HW116103   3.000   5.773   0.105
 5068SOL    HW216104   2.844   5.799   0.065
 5069SOL     OW16105   2.006   3.284   5.805
 5069SOL    HW116106   2.055   3.321   5.726
 5069SOL    HW216107   1.936   3.349   5.834
 5070SOL     OW16108   5.940   3.891   4.539
 5070SOL    HW116109   6.038   3.905   4.527
 5070SOL    HW216110   5.891   3.974   4.514
 5071SOL     OW16111   4.269   2.257   3.581
 5071SOL    HW116112   4.352   2.201   3.574
 5071SOL    HW216113   4.221   2.233   3.665
 5072SOL     OW16114   1.922   1.442   1.807
 5072SOL    HW116115   1.981   1.391   1.870
 5072SOL    HW216116   1.978   1.486   1.737
 5073SOL     OW16117   1.727   5.330   1.407
 5073SOL    HW116118   1.681   5.278   1.479
 5073SOL    HW216119   1.790   5.396   1.449
 5074SOL     OW16120   3.955   1.889   1.622
 5074SOL    HW116121   3.942   1.977   1.667
 5074SOL    HW216122   3.867   1.854   1.590
 5075SOL     OW16123   0.920   2.297   6.762
 5075SOL    HW116124   0.987   2.259   6.824
 5075SOL    HW216125   0.960   2.375   6.713
 5076SOL     OW16126   5.526   0.016   6.991
 5076SOL    HW116127   5.455   0.086   7.000
 5076SOL    HW216128   5.529   6.981   0.056
 5077SOL     OW16129   0.394   3.660   5.988
 5077SOL    HW116130   0.386   3.722   5.910
 5077SOL    HW216131   0.410   3.713   6.071
 5078SOL     OW16132   0.154   1.010   4.212
 5078SOL    HW116133   0.194   1.020   4.303
 5078SOL    HW216134   0.225   1.023   4.143
 5079SOL     OW16135   2.178   2.724   5.334
 5079SOL    HW116136   2.276   2.737   5.349
 5079SOL    HW216137   2.157   2.738   5.237
 5080SOL     OW16138   5.746   5.496   5.542
 5080SOL    HW116139   5.779   5.582   5.502
 5080SOL    HW216140   5.805   5.421   5.512
 5081SOL     OW16141   3.120   4.478   5.560
 5081SOL    HW116142   3.032   4.447   5.596
 5081SOL    HW216143   3.108   4.511   5.466
 5082SOL     OW16144   5.223   6.996   0.125
 5082SOL    HW116145   5.247   0.064   0.167
 5082SOL    HW216146   5.253   6.921   0.185
 5083SOL     OW16147   3.660   0.330   0.955
 5083SOL    HW116148   3.741   0.304   1.007
 5083SOL    HW216149   3.579   0.291   0.998
 5084SOL     OW16150   0.530   5.047   4.419
 5084SOL    HW116151   0.438   5.077   4.396
 5084SOL    HW216152   0.573   5.006   4.339
 5085SOL     OW16153   1.016   3.136   5.450
 5085SOL    HW116154   1.115   3.122   5.447
 5085SOL    HW216155   0.974   3.066   5.508
 5086SOL     OW16156   0.438   4.621   2.281
 5086SOL    HW116157   0.480   4.616   2.372
 5086SOL    HW216158   0.508   4.611   2.211
 5087SOL     OW16159   6.750   5.921   2.441
 5087SOL    HW116160   6.804   5.958   2.517
 5087SOL    HW216161   6.653   5.929   2.463
 5088SOL     OW16162   4.513   6.803   3.634
 5088SOL    HW116163   4.538   6.855   3.716
 5088SOL    HW216164   4.429   6.840   3.595
 5089SOL     OW16165   5.850   4.361   4.606
 5089SOL    HW116166   5.929   4.329   4.657
 5089SOL    HW216167   5.870   4.450   4.566
 5090SOL     OW16168   2.409   1.339   2.526
 5090SOL    HW116169   2.343   1.294   2.587
 5090SOL    HW216170   2.381   1.325   2.431
 5091SOL     OW16171   6.111   7.016   1.199
 5091SOL    HW116172   6.104   6.961   1.282
 5091SOL    HW216173   6.095   6.958   1.119
 5092SOL     OW16174   3.464   3.004   3.703
 5092SOL    HW116175   3.472   2.954   3.789
 5092SOL    HW216176   3.544   2.988   3.647
 5093SOL     OW16177   3.147   1.568   1.260
 5093SOL    HW116178   3.177   1.620   1.180
 5093SOL    HW216179   3.203   1.592   1.339
 5094SOL     OW16180   1.971   5.792   6.567
 5094SOL    HW116181   1.878   5.807   6.533
 5094SOL    HW216182   2.032   5.859   6.525
 5095SOL     OW16183   0.791   2.193   2.994
 5095SOL    HW116184   0.745   2.195   2.905
 5095SOL    HW216185   0.730   2.153   3.062
 5096SOL     OW16186   4.846   4.642   6.405
 5096SOL    HW116187   4.892   4.559   6.436
 5096SOL    HW216188   4.885   4.722   6.451
 5097SOL     OW16189   6.942   7.012   6.924
 5097SOL    HW116190   6.938   6.946   6.998
 5097SOL    HW216191   6.918   0.083   6.959
 5098SOL     OW16192   3.766   1.810   1.452
 5098SOL    HW116193   3.835   1.766   1.394
 5098SOL    HW216194   3.712   1.874   1.397
 5099SOL     OW16195   0.038   6.429   2.097
 5099SOL    HW116196   0.037   6.398   2.002
 5099SOL    HW216197   0.109   6.499   2.108
 5100SOL     OW16198   2.869   5.209   3.763
 5100SOL    HW116199   2.898   5.156   3.842
 5100SOL    HW216200   2.904   5.302   3.770
 5101SOL     OW16201   4.689   0.214   5.532
 5101SOL    HW116202   4.764   0.151   5.510
 5101SOL    HW216203   4.652   0.253   5.448
 5102SOL     OW16204   5.282   6.679   4.208
 5102SOL    HW116205   5.223   6.657   4.286
 5102SOL    HW216206   5.342   6.755   4.232
 5103SOL     OW16207   1.063   1.881   4.283
 5103SOL    HW116208   1.024   1.791   4.263
 5103SOL    HW216209   1.005   1.929   4.348
 5104SOL     OW16210   2.615   6.085   1.602
 5104SOL    HW116211   2.590   5.999   1.645
 5104SOL    HW216212   2.546   6.110   1.533
 5105SOL     OW16213   2.991   2.591   6.589
 5105SOL    HW116214   3.088   2.584   6.612
 5105SOL    HW216215   2.972   2.681   6.549
 5106SOL     OW16216   3.779   1.313   1.088
 5106SOL    HW116217   3.830   1.262   1.158
 5106SOL    HW216218   3.831   1.312   1.002
 5107SOL     OW16219   4.861   2.688   1.325
 5107SOL    HW116220   4.839   2.628   1.402
 5107SOL    HW216221   4.867   2.783   1.357
 5108SOL     OW16222   4.030   3.872   4.778
 5108SOL    HW116223   4.125   3.900   4.788
 5108SOL    HW216224   4.019   3.823   4.691
 5109SOL     OW16225   1.510   2.451   0.506
 5109SOL    HW116226   1.443   2.518   0.473
 5109SOL    HW216227   1.527   2.384   0.434
 5110SOL     OW16228   0.405   0.770   6.223
 5110SOL    HW116229   0.414   0.674   6.249
 5110SOL    HW216230   0.313   0.802   6.248
 5111SOL     OW16231   0.935   6.860   4.191
 5111SOL    HW116232   0.839   6.868   4.221
 5111SOL    HW216233   0.940   6.803   4.109
 5112SOL     OW16234   1.262   0.337   2.582
 5112SOL    HW116235   1.271   0.427   2.540
 5112SOL    HW216236   1.186   0.339   2.647
 5113SOL     OW16237   1.528   5.776   1.413
 5113SOL    HW116238   1.454   5.799   1.350
 5113SOL    HW216239   1.502   5.697   1.469
 5114SOL     OW16240   3.512   6.494   6.865
 5114SOL    HW116241   3.475   6.571   6.813
 5114SOL    HW216242   3.482   6.501   6.960
 5115SOL     OW16243   1.517   4.615   2.342
 5115SOL    HW116244   1.557   4.704   2.363
 5115SOL    HW216245   1.453   4.589   2.415
 5116SOL     OW16246   1.472   6.856   0.287
 5116SOL    HW116247   1.400   6.921   0.314
 5116SOL    HW216248   1.504   6.806   0.367
 5117SOL     OW16249   0.580   3.802   3.668
 5117SOL    HW116250   0.672   3.802   3.707
 5117SOL    HW216251   0.542   3.709   3.673
 5118SOL     OW16252   5.471   0.897   6.978
 5118SOL    HW116253   5.550   0.919   6.920
 5118SOL    HW216254   5.463   0.798   6.986
 5119SOL     OW16255   4.740   1.094   1.854
 5119SOL    HW116256   4.713   1.120   1.947
 5119SOL    HW216257   4.790   1.169   1.812
 5120SOL     OW16258   4.546   6.629   5.209
 5120SOL    HW116259   4.543   6.656   5.305
 5120SOL    HW216260   4.548   6.711   5.151
 5121SOL     OW16261   3.295   3.049   6.563
 5121SOL    HW116262   3.240   3.118   6.610
 5121SOL    HW216263   3.384   3.041   6.609
 5122SOL     OW16264   3.346   5.768   3.212
 5122SOL    HW116265   3.420   5.754   3.277
 5122SOL    HW216266   3.380   5.754   3.119
 5123SOL     OW16267   5.742   2.242   4.317
 5123SOL    HW116268   5.819   2.259   4.256
 5123SOL    HW216269   5.765   2.272   4.410
 5124SOL     OW16270   2.650   5.896   4.280
 5124SOL    HW116271   2.649   5.932   4.187
 5124SOL    HW216272   2.648   5.972   4.345
 5125SOL     OW16273   6.558   2.104   3.685
 5125SOL    HW116274   6.587   2.049   3.606
 5125SOL    HW216275   6.615   2.082   3.764
 5126SOL     OW16276   0.521   5.963   0.011
 5126SOL    HW116277   0.472   6.024   0.073
 5126SOL    HW216278   0.480   5.872   0.016
 5127SOL     OW16279   0.495   4.789   0.024
 5127SOL    HW116280   0.572   4.829   0.072
 5127SOL    HW216281   0.523   4.760   6.951
 5128SOL     OW16282   0.411   6.409   0.651
 5128SOL    HW116283   0.382   6.469   0.725
 5128SOL    HW216284   0.466   6.461   0.586
 5129SOL     OW16285   5.425   6.562   2.785
 5129SOL    HW116286   5.473   6.644   2.815
 5129SOL    HW216287   5.340   6.588   2.739
 5130SOL     OW16288   6.982   5.655   2.784
 5130SOL    HW116289   6.982   5.657   2.684
 5130SOL    HW216290   6.968   5.748   2.819
 5131SOL     OW16291   1.877   3.847   4.334
 5131SOL    HW116292   1.976   3.858   4.339
 5131SOL    HW216293   1.843   3.812   4.421
 5132SOL     OW16294   4.419   2.867   5.978
 5132SOL    HW116295   4.383   2.791   6.031
 5132SOL    HW216296   4.425   2.949   6.036
 5133SOL     OW16297   2.418   5.080   0.103
 5133SOL    HW116298   2.433   5.073   0.202
 5133SOL    HW216299   2.496   5.124   0.061
 5134SOL     OW16300   6.491   2.703   2.023
 5134SOL    HW116301   6.511   2.644   2.102
 5134SOL    HW216302   6.573   2.713   1.967
 5135SOL     OW16303   6.375   2.610   5.036
 5135SOL    HW116304   6.462   2.561   5.042
 5135SOL    HW216305   6.354   2.629   4.940
 5136SOL     OW16306   4.827   0.293   5.934
 5136SOL    HW116307   4.776   0.266   6.016
 5136SOL    HW216308   4.915   0.245   5.933
 5137SOL     OW16309   5.658   3.464   6.459
 5137SOL    HW116310   5.576   3.471   6.515
 5137SOL    HW216311   5.696   3.555   6.444
 5138SOL     OW16312   2.963   2.435   5.879
 5138SOL    HW116313   2.972   2.480   5.790
 5138SOL    HW216314   3.007   2.490   5.949
 5139SOL     OW16315   1.464   6.898   3.491
 5139SOL    HW116316   1.468   6.818   3.551
 5139SOL    HW216317   1.518   6.881   3.409
 5140SOL     OW16318   3.526   1.762   6.677
 5140SOL    HW116319   3.609   1.792   6.629
 5140SOL    HW216320   3.548   1.685   6.736
 5141SOL     OW16321   6.662   4.252   1.078
 5141SOL    HW116322   6.596   4.244   1.003
 5141SOL    HW216323   6.704   4.163   1.095
 5142SOL     OW16324   5.984   1.108   4.174
 5142SOL    HW116325   6.029   1.098   4.085
 5142SOL    HW216326   5.970   1.205   4.193
 5143SOL     OW16327   0.507   4.665   3.794
 5143SOL    HW116328   0.605   4.660   3.776
 5143SOL    HW216329   0.490   4.720   3.876
 5144SOL     OW16330   0.915   5.348   6.816
 5144SOL    HW116331   0.912   5.437   6.861
 5144SOL    HW216332   0.841   5.290   6.850
 5145SOL     OW16333   2.225   4.562   6.232
 5145SOL    HW116334   2.186   4.470   6.223
 5145SOL    HW216335   2.323   4.556   6.251
 5146SOL     OW16336   3.828   3.888   5.453
 5146SOL    HW116337   3.777   3.882   5.367
 5146SOL    HW216338   3.764   3.881   5.530
 5147SOL     OW16339   6.962   4.698   2.497
 5147SOL    HW116340   6.924   4.741   2.415
 5147SOL    HW216341   6.904   4.621   2.524
 5148SOL     OW16342   0.930   6.556   1.425
 5148SOL    HW116343   0.876   6.478   1.457
 5148SOL    HW216344   1.019   6.556   1.470
 5149SOL     OW16345   6.253   6.155   4.364
 5149SOL    HW116346   6.269   6.059   4.384
 5149SOL    HW216347   6.193   6.163   4.285
 5150SOL     OW16348   2.272   5.246   2.700
 5150SOL    HW116349   2.215   5.166   2.716
 5150SOL    HW216350   2.240   5.294   2.618
 5151SOL     OW16351   5.197   1.627   0.575
 5151SOL    HW116352   5.232   1.571   0.650
 5151SOL    HW216353   5.171   1.717   0.610
 5152SOL     OW16354   2.538   4.275   6.946
 5152SOL    HW116355   2.622   4.269   7.001
 5152SOL    HW216356   2.562   4.301   6.852
 5153SOL     OW16357   2.337   0.801   6.668
 5153SOL    HW116358   2.291   0.880   6.707
 5153SOL    HW216359   2.287   0.768   6.588
 5154SOL     OW16360   1.878   2.995   6.733
 5154SOL    HW116361   1.939   2.929   6.689
 5154SOL    HW216362   1.829   2.950   6.808
 5155SOL     OW16363   3.475   0.180   2.559
 5155SOL    HW116364   3.556   0.205   2.506
 5155SOL    HW216365   3.477   0.082   2.579
 5156SOL     OW16366   0.050   3.244   5.811
 5156SOL    HW116367   0.062   3.159   5.761
 5156SOL    HW216368   0.108   3.244   5.893
 5157SOL     OW16369   4.257   2.309   3.950
 5157SOL    HW116370   4.177   2.287   3.894
 5157SOL    HW216371   4.236   2.296   4.046
 5158SOL     OW16372   3.435   1.262   1.268
 5158SOL    HW116373   3.445   1.290   1.173
 5158SOL    HW216374   3.483   1.327   1.328
 5159SOL     OW16375   0.351   2.874   3.959
 5159SOL    HW116376   0.431   2.935   3.958
 5159SOL    HW216377   0.351   2.820   3.875
 5160SOL     OW16378   0.662   4.419   3.007
 5160SOL    HW116379   0.662   4.374   3.096
 5160SOL    HW216380   0.595   4.492   3.007
 5161SOL     OW16381   1.521   3.330   4.386
 5161SOL    HW116382   1.573   3.261   4.336
 5161SOL    HW216383   1.549   3.330   4.482
 5162SOL     OW16384   1.228   4.871   4.153
 5162SOL    HW116385   1.276   4.957   4.136
 5162SOL    HW216386   1.293   4.803   4.188
 5163SOL     OW16387   3.945   5.321   1.337
 5163SOL    HW116388   3.904   5.339   1.426
 5163SOL    HW216389   3.993   5.233   1.339
 5164SOL     OW16390   4.962   2.543   6.525
 5164SOL    HW116391   5.037   2.608   6.539
 5164SOL    HW216392   4.992   2.470   6.463
 5165SOL     OW16393   6.302   3.950   5.270
 5165SOL    HW116394   6.266   3.871   5.220
 5165SOL    HW216395   6.233   4.022   5.273
 5166SOL     OW16396   0.571   6.057   2.194
 5166SOL    HW116397   0.476   6.086   2.180
 5166SOL    HW216398   0.611   6.032   2.106
 5167SOL     OW16399   6.237   6.397   5.490
 5167SOL    HW116400   6.206   6.478   5.440
 5167SOL    HW216401   6.328   6.370   5.457
 5168SOL     OW16402   5.141   3.215   3.202
 5168SOL    HW116403   5.119   3.276   3.278
 5168SOL    HW216404   5.081   3.134   3.206
 5169SOL     OW16405   3.824   1.981   5.036
 5169SOL    HW116406   3.727   1.979   5.060
 5169SOL    HW216407   3.862   2.072   5.053
 5170SOL     OW16408   6.929   3.738   5.739
 5170SOL    HW116409   6.946   3.697   5.829
 5170SOL    HW216410   6.982   3.689   5.670
 5171SOL     OW16411   2.107   5.193   4.057
 5171SOL    HW116412   2.140   5.099   4.067
 5171SOL    HW216413   2.180   5.257   4.080
 5172SOL     OW16414   6.381   2.867   2.259
 5172SOL    HW116415   6.422   2.843   2.171
 5172SOL    HW216416   6.315   2.941   2.246
 5173SOL     OW16417   5.702   4.773   5.848
 5173SOL    HW116418   5.641   4.778   5.927
 5173SOL    HW216419   5.682   4.849   5.786
 5174SOL     OW16420   2.385   5.023   3.851
 5174SOL    HW116421   2.371   5.111   3.896
 5174SOL    HW216422   2.478   5.018   3.815
 5175SOL     OW16423   2.501   3.972   6.983
 5175SOL    HW116424   2.441   3.961   0.042
 5175SOL    HW216425   2.499   4.067   6.952
 5176SOL     OW16426   4.060   3.090   6.966
 5176SOL    HW116427   3.967   3.094   7.004
 5176SOL    HW216428   4.092   3.182   6.947
 5177SOL     OW16429   5.099   0.289   6.132
 5177SOL    HW116430   5.055   0.365   6.180
 5177SOL    HW216431   5.069   0.203   6.172
 5178SOL     OW16432   1.616   2.915   1.121
 5178SOL    HW116433   1.539   2.860   1.088
 5178SOL    HW216434   1.587   2.968   1.201
 5179SOL     OW16435   3.924   6.358   4.976
 5179SOL    HW116436   3.850   6.300   5.011
 5179SOL    HW216437   3.987   6.303   4.923
 5180SOL     OW16438   2.950   2.837   6.478
 5180SOL    HW116439   2.886   2.913   6.487
 5180SOL    HW216440   3.035   2.870   6.439
 5181SOL     OW16441   5.017   1.877   2.119
 5181SOL    HW116442   5.096   1.932   2.091
 5181SOL    HW216443   4.935   1.912   2.073
 5182SOL     OW16444   4.136   4.857   1.428
 5182SOL    HW116445   4.108   4.762   1.437
 5182SOL    HW216446   4.166   4.892   1.517
 5183SOL     OW16447   3.932   0.701   2.814
 5183SOL    HW116448   3.949   0.706   2.715
 5183SOL    HW216449   3.896   0.788   2.846
 5184SOL     OW16450   0.687   2.422   4.148
 5184SOL    HW116451   0.760   2.365   4.110
 5184SOL    HW216452   0.710   2.519   4.135
 5185SOL     OW16453   5.227   0.404   2.884
 5185SOL    HW116454   5.277   0.456   2.815
 5185SOL    HW216455   5.245   0.306   2.871
 5186SOL     OW16456   5.391   3.664   1.043
 5186SOL    HW116457   5.367   3.685   1.138
 5186SOL    HW216458   5.489   3.680   1.029
 5187SOL     OW16459   6.889   0.979   3.933
 5187SOL    HW116460   6.802   0.929   3.939
 5187SOL    HW216461   6.965   0.913   3.934
 5188SOL     OW16462   0.825   5.041   0.517
 5188SOL    HW116463   0.786   5.080   0.434
 5188SOL    HW216464   0.836   4.943   0.507
 5189SOL     OW16465   5.309   5.093   1.220
 5189SOL    HW116466   5.269   5.116   1.131
 5189SOL    HW216467   5.277   5.004   1.249
 5190SOL     OW16468   0.368   2.617   4.170
 5190SOL    HW116469   0.437   2.670   4.218
 5190SOL    HW216470   0.361   2.648   4.075
 5191SOL     OW16471   4.155   0.171   1.996
 5191SOL    HW116472   4.056   0.173   1.985
 5191SOL    HW216473   4.184   0.253   2.045
 5192SOL     OW16474   2.959   5.835   2.848
 5192SOL    HW116475   2.863   5.847   2.823
 5192SOL    HW216476   2.991   5.747   2.814
 5193SOL     OW16477   4.941   5.319   3.861
 5193SOL    HW116478   4.982   5.246   3.806
 5193SOL    HW216479   4.975   5.312   3.955
 5194SOL     OW16480   4.448   1.009   6.852
 5194SOL    HW116481   4.498   1.014   6.766
 5194SOL    HW216482   4.385   1.086   6.859
 5195SOL     OW16483   6.970   5.936   3.878
 5195SOL    HW116484   6.968   5.900   3.971
 5195SOL    HW216485   0.041   5.922   3.838
 5196SOL     OW16486   1.220   3.285   0.970
 5196SOL    HW116487   1.206   3.186   0.968
 5196SOL    HW216488   1.146   3.328   1.022
 5197SOL     OW16489   1.368   5.572   5.172
 5197SOL    HW116490   1.328   5.485   5.200
 5197SOL    HW216491   1.295   5.637   5.152
 5198SOL     OW16492   3.853   0.358   3.662
 5198SOL    HW116493   3.930   0.357   3.727
 5198SOL    HW216494   3.884   0.323   3.574
 5199SOL     OW16495   1.426   5.937   0.069
 5199SOL    HW116496   1.470   5.883   0.140
 5199SOL    HW216497   1.496   5.977   0.010
 5200SOL     OW16498   1.180   1.991   5.212
 5200SOL    HW116499   1.170   1.910   5.271
 5200SOL    HW216500   1.100   1.998   5.152
 5201SOL     OW16501   5.309   5.951   4.400
 5201SOL    HW116502   5.236   5.996   4.349
 5201SOL    HW216503   5.397   5.991   4.374
 5202SOL     OW16504   6.162   3.701   6.070
 5202SOL    HW116505   6.162   3.690   5.971
 5202SOL    HW216506   6.192   3.794   6.093
 5203SOL     OW16507   2.033   0.939   6.860
 5203SOL    HW116508   1.998   0.848   6.837
 5203SOL    HW216509   2.130   0.932   6.885
 5204SOL     OW16510   3.284   6.326   0.320
 5204SOL    HW116511   3.307   6.401   0.382
 5204SOL    HW216512   3.328   6.242   0.351
 5205SOL     OW16513   6.874   5.738   0.154
 5205SOL    HW116514   6.795   5.703   0.104
 5205SOL    HW216515   6.943   5.665   0.164
 5206SOL     OW16516   0.917   4.841   6.031
 5206SOL    HW116517   0.926   4.769   5.962
 5206SOL    HW216518   0.978   4.917   6.008
 5207SOL     OW16519   0.851   0.516   3.514
 5207SOL    HW116520   0.874   0.445   3.581
 5207SOL    HW216521   0.791   0.583   3.556
 5208SOL     OW16522   4.120   2.687   6.985
 5208SOL    HW116523   4.192   2.624   6.954
 5208SOL    HW216524   4.099   2.752   6.912
 5209SOL     OW16525   5.567   1.025   1.485
 5209SOL    HW116526   5.563   0.927   1.505
 5209SOL    HW216527   5.481   1.068   1.512
 5210SOL     OW16528   4.814   4.006   1.096
 5210SOL    HW116529   4.732   3.979   1.047
 5210SOL    HW216530   4.791   4.028   1.191
 5211SOL     OW16531   4.884   1.520   4.613
 5211SOL    HW116532   4.806   1.494   4.556
 5211SOL    HW216533   4.853   1.539   4.706
 5212SOL     OW16534   1.212   2.351   1.130
 5212SOL    HW116535   1.154   2.330   1.051
 5212SOL    HW216536   1.305   2.320   1.113
 5213SOL     OW16537   4.340   3.303   0.717
 5213SOL    HW116538   4.321   3.211   0.752
 5213SOL    HW216539   4.308   3.371   0.783
 5214SOL     OW16540   5.389   2.907   5.890
 5214SOL    HW116541   5.399   2.952   5.801
 5214SOL    HW216542   5.315   2.951   5.941
 5215SOL     OW16543   0.539   4.463   4.332
 5215SOL    HW116544   0.486   4.530   4.385
 5215SOL    HW216545   0.553   4.498   4.239
 5216SOL     OW16546   4.908   5.590   1.227
 5216SOL    HW116547   4.954   5.543   1.152
 5216SOL    HW216548   4.929   5.688   1.222
 5217SOL     OW16549   4.005   5.642   5.170
 5217SOL    HW116550   4.009   5.729   5.120
 5217SOL    HW216551   3.930   5.587   5.135
 5218SOL     OW16552   0.208   1.021   1.459
 5218SOL    HW116553   0.294   1.064   1.486
 5218SOL    HW216554   0.205   0.928   1.493
 5219SOL     OW16555   3.672   1.714   4.024
 5219SOL    HW116556   3.626   1.644   4.079
 5219SOL    HW216557   3.717   1.779   4.084
 5220SOL     OW16558   1.677   4.853   2.415
 5220SOL    HW116559   1.672   4.870   2.514
 5220SOL    HW216560   1.773   4.843   2.388
 5221SOL     OW16561   6.477   0.250   2.339
 5221SOL    HW116562   6.537   0.179   2.377
 5221SOL    HW216563   6.518   0.287   2.256
 5222SOL     OW16564   3.703   5.746   2.101
 5222SOL    HW116565   3.722   5.697   2.186
 5222SOL    HW216566   3.617   5.712   2.062
 5223SOL     OW16567   0.294   2.632   0.553
 5223SOL    HW116568   0.379   2.580   0.545
 5223SOL    HW216569   0.253   2.616   0.643
 5224SOL     OW16570   6.821   2.339   3.894
 5224SOL    HW116571   6.902   2.381   3.934
 5224SOL    HW216572   6.801   2.254   3.942
 5225SOL     OW16573   6.695   0.877   3.483
 5225SOL    HW116574   6.777   0.881   3.540
 5225SOL    HW216575   6.624   0.825   3.531
 5226SOL     OW16576   0.495   6.125   3.582
 5226SOL    HW116577   0.485   6.079   3.670
 5226SOL    HW216578   0.488   6.224   3.596
 5227SOL     OW16579   6.755   4.198   5.634
 5227SOL    HW116580   6.656   4.203   5.622
 5227SOL    HW216581   6.801   4.227   5.550
 5228SOL     OW16582   0.721   2.399   0.243
 5228SOL    HW116583   0.718   2.318   0.185
 5228SOL    HW216584   0.807   2.400   0.294
 5229SOL     OW16585   3.184   6.299   6.988
 5229SOL    HW116586   3.133   6.213   6.984
 5229SOL    HW216587   3.175   6.338   0.060
 5230SOL     OW16588   6.227   6.591   2.741
 5230SOL    HW116589   6.231   6.524   2.667
 5230SOL    HW216590   6.233   6.544   2.829
 5231SOL     OW16591   4.440   2.437   3.729
 5231SOL    HW116592   4.410   2.435   3.824
 5231SOL    HW216593   4.377   2.384   3.672
 5232SOL     OW16594   0.981   3.722   5.989
 5232SOL    HW116595   1.071   3.765   5.979
 5232SOL    HW216596   0.937   3.717   5.900
 5233SOL     OW16597   3.302   0.697   2.225
 5233SOL    HW116598   3.298   0.730   2.131
 5233SOL    HW216599   3.298   0.597   2.225
 5234SOL     OW16600   2.644   2.919   6.743
 5234SOL    HW116601   2.716   2.887   6.804
 5234SOL    HW216602   2.683   2.950   6.657
 5235SOL     OW16603   2.236   2.341   1.096
 5235SOL    HW116604   2.330   2.320   1.122
 5235SOL    HW216605   2.235   2.414   1.028
 5236SOL     OW16606   3.754   5.179   2.315
 5236SOL    HW116607   3.715   5.106   2.259
 5236SOL    HW216608   3.853   5.183   2.300
 5237SOL     OW16609   1.818   1.184   4.673
 5237SOL    HW116610   1.854   1.272   4.642
 5237SOL    HW216611   1.877   1.148   4.745
 5238SOL     OW16612   0.622   5.956   0.719
 5238SOL    HW116613   0.689   5.973   0.791
 5238SOL    HW216614   0.639   5.867   0.678
 5239SOL     OW16615   3.688   2.901   0.512
 5239SOL    HW116616   3.730   2.902   0.422
 5239SOL    HW216617   3.588   2.897   0.502
 5240SOL     OW16618   2.954   2.279   5.288
 5240SOL    HW116619   2.878   2.341   5.271
 5240SOL    HW216620   3.036   2.313   5.243
 5241SOL     OW16621   0.641   5.751   3.269
 5241SOL    HW116622   0.627   5.847   3.245
 5241SOL    HW216623   0.716   5.713   3.215
 5242SOL     OW16624   4.946   7.004   2.175
 5242SOL    HW116625   4.966   0.081   2.157
 5242SOL    HW216626   4.943   6.988   2.273
 5243SOL     OW16627   2.283   5.990   1.410
 5243SOL    HW116628   2.315   5.923   1.344
 5243SOL    HW216629   2.335   6.075   1.398
 5244SOL     OW16630   4.351   3.971   0.236
 5244SOL    HW116631   4.417   4.036   0.199
 5244SOL    HW216632   4.258   4.002   0.216
 5245SOL     OW16633   3.439   5.104   0.561
 5245SOL    HW116634   3.362   5.101   0.497
 5245SOL    HW216635   3.404   5.105   0.654
 5246SOL     OW16636   6.311   2.314   2.189
 5246SOL    HW116637   6.283   2.244   2.255
 5246SOL    HW216638   6.397   2.356   2.219
 5247SOL     OW16639   3.232   0.574   6.304
 5247SOL    HW116640   3.166   0.634   6.259
 5247SOL    HW216641   3.188   0.527   6.380
 5248SOL     OW16642   6.870   2.391   2.994
 5248SOL    HW116643   6.873   2.486   3.026
 5248SOL    HW216644   6.861   2.329   3.073
 5249SOL     OW16645   1.394   5.578   6.539
 5249SOL    HW116646   1.482   5.536   6.519
 5249SOL    HW216647   1.359   5.623   6.456
 5250SOL     OW16648   0.723   5.649   0.660
 5250SOL    HW116649   0.779   5.688   0.587
 5250SOL    HW216650   0.776   5.581   0.711
 5251SOL     OW16651   0.663   3.825   0.527
 5251SOL    HW116652   0.636   3.876   0.446
 5251SOL    HW216653   0.722   3.882   0.584
 5252SOL     OW16654   2.502   6.627   1.127
 5252SOL    HW116655   2.554   6.681   1.060
 5252SOL    HW216656   2.546   6.634   1.217
 5253SOL     OW16657   6.944   3.509   4.416
 5253SOL    HW116658   6.982   3.469   4.332
 5253SOL    HW216659   6.844   3.505   4.414
 5254SOL     OW16660   5.509   0.950   3.583
 5254SOL    HW116661   5.549   0.889   3.515
 5254SOL    HW216662   5.446   1.014   3.537
 5255SOL     OW16663   5.241   2.407   4.680
 5255SOL    HW116664   5.215   2.363   4.766
 5255SOL    HW216665   5.165   2.402   4.616
 5256SOL     OW16666   4.760   2.081   4.085
 5256SOL    HW116667   4.763   2.128   3.997
 5256SOL    HW216668   4.669   2.091   4.125
 5257SOL     OW16669   4.502   0.208   1.631
 5257SOL    HW116670   4.414   0.183   1.591
 5257SOL    HW216671   4.575   0.190   1.565
 5258SOL     OW16672   5.654   2.487   2.269
 5258SOL    HW116673   5.577   2.507   2.208
 5258SOL    HW216674   5.630   2.516   2.362
 5259SOL     OW16675   4.948   5.832   3.352
 5259SOL    HW116676   4.888   5.829   3.432
 5259SOL    HW216677   5.013   5.907   3.362
 5260SOL     OW16678   4.222   4.471   0.642
 5260SOL    HW116679   4.166   4.438   0.718
 5260SOL    HW216680   4.309   4.423   0.641
 5261SOL     OW16681   6.459   3.995   6.296
 5261SOL    HW116682   6.422   4.030   6.210
 5261SOL    HW216683   6.390   3.941   6.344
 5262SOL     OW16684   3.200   1.326   3.459
 5262SOL    HW116685   3.278   1.385   3.439
 5262SOL    HW216686   3.127   1.344   3.394
 5263SOL     OW16687   1.755   1.659   3.312
 5263SOL    HW116688   1.827   1.723   3.339
 5263SOL    HW216689   1.790   1.598   3.240
 5264SOL     OW16690   6.310   2.572   1.855
 5264SOL    HW116691   6.225   2.624   1.857
 5264SOL    HW216692   6.384   2.626   1.896
 5265SOL     OW16693   6.227   3.133   4.408
 5265SOL    HW116694   6.293   3.151   4.335
 5265SOL    HW216695   6.242   3.041   4.445
 5266SOL     OW16696   2.658   5.942   6.785
 5266SOL    HW116697   2.741   5.967   6.736
 5266SOL    HW216698   2.676   5.938   6.883
 5267SOL     OW16699   5.004   2.421   4.534
 5267SOL    HW116700   4.911   2.410   4.569
 5267SOL    HW216701   5.016   2.514   4.498
 5268SOL     OW16702   5.094   1.133   0.464
 5268SOL    HW116703   4.997   1.150   0.481
 5268SOL    HW216704   5.106   1.037   0.437
 5269SOL     OW16705   0.601   6.579   2.482
 5269SOL    HW116706   0.683   6.581   2.538
 5269SOL    HW216707   0.626   6.566   2.386
 5270SOL     OW16708   5.684   1.583   2.106
 5270SOL    HW116709   5.735   1.618   2.027
 5270SOL    HW216710   5.593   1.623   2.107
 5271SOL     OW16711   5.896   4.647   5.004
 5271SOL    HW116712   5.853   4.726   4.961
 5271SOL    HW216713   5.903   4.661   5.102
 5272SOL     OW16714   3.053   5.786   1.217
 5272SOL    HW116715   3.147   5.793   1.250
 5272SOL    HW216716   3.054   5.746   1.125
 5273SOL     OW16717   0.417   3.353   3.079
 5273SOL    HW116718   0.439   3.307   3.165
 5273SOL    HW216719   0.388   3.285   3.012
 5274SOL     OW16720   5.670   0.038   2.920
 5274SOL    HW116721   5.721   0.006   3.000
 5274SOL    HW216722   5.723   0.021   2.838
 5275SOL     OW16723   4.250   1.456   0.512
 5275SOL    HW116724   4.328   1.405   0.549
 5275SOL    HW216725   4.258   1.462   0.413
 5276SOL     OW16726   2.098   0.215   1.135
 5276SOL    HW116727   2.068   0.122   1.113
 5276SOL    HW216728   2.022   0.279   1.120
 5277SOL     OW16729   2.578   1.539   2.774
 5277SOL    HW116730   2.532   1.536   2.686
 5277SOL    HW216731   2.656   1.476   2.773
 5278SOL     OW16732   5.155   5.752   4.176
 5278SOL    HW116733   5.106   5.765   4.262
 5278SOL    HW216734   5.228   5.821   4.169
 5279SOL     OW16735   2.478   5.357   0.176
 5279SOL    HW116736   2.388   5.322   0.151
 5279SOL    HW216737   2.515   5.305   0.253
 5280SOL     OW16738   3.170   6.333   5.229
 5280SOL    HW116739   3.240   6.300   5.293
 5280SOL    HW216740   3.205   6.325   5.136
 5281SOL     OW16741   6.502   1.872   2.373
 5281SOL    HW116742   6.520   1.792   2.431
 5281SOL    HW216743   6.577   1.937   2.381
 5282SOL     OW16744   3.947   1.496   3.439
 5282SOL    HW116745   3.923   1.588   3.470
 5282SOL    HW216746   4.015   1.501   3.367
 5283SOL     OW16747   4.682   6.341   1.961
 5283SOL    HW116748   4.755   6.357   2.027
 5283SOL    HW216749   4.642   6.428   1.933
 5284SOL     OW16750   5.122   4.375   3.254
 5284SOL    HW116751   5.057   4.302   3.272
 5284SOL    HW216752   5.079   4.464   3.270
 5285SOL     OW16753   3.045   4.831   4.464
 5285SOL    HW116754   3.016   4.865   4.554
 5285SOL    HW216755   2.965   4.803   4.412
 5286SOL     OW16756   2.330   4.618   1.164
 5286SOL    HW116757   2.316   4.600   1.067
 5286SOL    HW216758   2.396   4.692   1.176
 5287SOL     OW16759   3.532   1.016   0.336
 5287SOL    HW116760   3.594   0.938   0.323
 5287SOL    HW216761   3.566   1.095   0.286
 5288SOL     OW16762   3.193   0.487   1.505
 5288SOL    HW116763   3.256   0.504   1.429
 5288SOL    HW216764   3.107   0.534   1.487
 5289SOL     OW16765   1.919   4.848   6.485
 5289SOL    HW116766   1.822   4.841   6.507
 5289SOL    HW216767   1.959   4.926   6.535
 5290SOL     OW16768   2.446   5.242   5.892
 5290SOL    HW116769   2.349   5.239   5.915
 5290SOL    HW216770   2.496   5.175   5.947
 5291SOL     OW16771   2.844   5.691   5.347
 5291SOL    HW116772   2.799   5.605   5.370
 5291SOL    HW216773   2.863   5.742   5.430
 5292SOL     OW16774   5.825   2.626   0.349
 5292SOL    HW116775   5.727   2.644   0.341
 5292SOL    HW216776   5.860   2.672   0.431
 5293SOL     OW16777   0.960   1.087   4.608
 5293SOL    HW116778   0.898   1.157   4.644
 5293SOL    HW216779   0.929   1.058   4.518
 5294SOL     OW16780   5.132   3.624   6.214
 5294SOL    HW116781   5.131   3.623   6.114
 5294SOL    HW216782   5.224   3.605   6.247
 5295SOL     OW16783   5.457   0.962   2.710
 5295SOL    HW116784   5.433   1.025   2.636
 5295SOL    HW216785   5.456   1.012   2.797
 5296SOL     OW16786   1.683   5.386   0.013
 5296SOL    HW116787   1.709   5.469   0.061
 5296SOL    HW216788   1.764   5.340   6.997
 5297SOL     OW16789   1.707   2.540   1.125
 5297SOL    HW116790   1.663   2.574   1.042
 5297SOL    HW216791   1.798   2.580   1.134
 5298SOL     OW16792   6.222   5.884   2.353
 5298SOL    HW116793   6.303   5.939   2.330
 5298SOL    HW216794   6.227   5.796   2.304
 5299SOL     OW16795   3.066   0.946   1.373
 5299SOL    HW116796   3.021   0.921   1.287
 5299SOL    HW216797   3.065   0.867   1.435
 5300SOL     OW16798   0.674   5.321   2.972
 5300SOL    HW116799   0.609   5.247   2.990
 5300SOL    HW216800   0.747   5.318   3.040
 5301SOL     OW16801   4.326   1.458   6.867
 5301SOL    HW116802   4.266   1.538   6.868
 5301SOL    HW216803   4.418   1.486   6.895
 5302SOL     OW16804   6.337   4.270   2.417
 5302SOL    HW116805   6.332   4.171   2.407
 5302SOL    HW216806   6.271   4.313   2.355
 5303SOL     OW16807   6.525   6.445   4.063
 5303SOL    HW116808   6.547   6.466   4.158
 5303SOL    HW216809   6.605   6.462   4.006
 5304SOL     OW16810   5.304   1.954   6.147
 5304SOL    HW116811   5.355   1.999   6.221
 5304SOL    HW216812   5.335   1.990   6.059
 5305SOL     OW16813   1.422   0.508   4.323
 5305SOL    HW116814   1.412   0.442   4.249
 5305SOL    HW216815   1.409   0.601   4.286
 5306SOL     OW16816   2.225   7.002   5.284
 5306SOL    HW116817   2.271   0.014   5.201
 5306SOL    HW216818   2.291   6.950   5.340
 5307SOL     OW16819   4.193   6.040   6.450
 5307SOL    HW116820   4.109   6.076   6.408
 5307SOL    HW216821   4.268   6.046   6.384
 5308SOL     OW16822   0.336   0.933   3.877
 5308SOL    HW116823   0.418   0.879   3.861
 5308SOL    HW216824   0.341   0.975   3.968
 5309SOL     OW16825   4.041   3.817   3.323
 5309SOL    HW116826   4.114   3.812   3.254
 5309SOL    HW216827   3.961   3.862   3.284
 5310SOL     OW16828   4.984   2.938   1.518
 5310SOL    HW116829   4.915   2.988   1.571
 5310SOL    HW216830   5.017   2.996   1.444
 5311SOL     OW16831   0.895   5.717   6.518
 5311SOL    HW116832   0.942   5.638   6.557
 5311SOL    HW216833   0.817   5.742   6.574
 5312SOL     OW16834   0.571   4.976   1.847
 5312SOL    HW116835   0.557   5.052   1.910
 5312SOL    HW216836   0.507   4.902   1.870
 5313SOL     OW16837   0.471   5.186   6.870
 5313SOL    HW116838   0.487   5.212   6.965
 5313SOL    HW216839   0.493   5.090   6.857
 5314SOL     OW16840   4.765   5.363   0.487
 5314SOL    HW116841   4.824   5.282   0.494
 5314SOL    HW216842   4.679   5.345   0.534
 5315SOL     OW16843   4.631   4.310   2.236
 5315SOL    HW116844   4.727   4.294   2.212
 5315SOL    HW216845   4.572   4.260   2.172
 5316SOL     OW16846   0.624   5.226   4.892
 5316SOL    HW116847   0.635   5.177   4.979
 5316SOL    HW216848   0.594   5.161   4.822
 5317SOL     OW16849   5.569   1.596   3.905
 5317SOL    HW116850   5.477   1.589   3.864
 5317SOL    HW216851   5.619   1.670   3.860
 5318SOL     OW16852   6.802   2.214   4.586
 5318SOL    HW116853   6.832   2.260   4.669
 5318SOL    HW216854   6.735   2.143   4.610
 5319SOL     OW16855   5.731   6.960   6.583
 5319SOL    HW116856   5.799   0.006   6.618
 5319SOL    HW216857   5.703   6.988   6.491
 5320SOL     OW16858   5.861   4.789   0.065
 5320SOL    HW116859   5.886   4.885   0.075
 5320SOL    HW216860   5.763   4.782   0.044
 5321SOL     OW16861   1.418   5.100   3.719
 5321SOL    HW116862   1.442   5.061   3.808
 5321SOL    HW216863   1.319   5.111   3.713
 5322SOL     OW16864   4.015   6.672   6.816
 5322SOL    HW116865   3.973   6.721   6.893
 5322SOL    HW216866   3.949   6.662   6.742
 5323SOL     OW16867   4.408   2.620   1.361
 5323SOL    HW116868   4.375   2.569   1.281
 5323SOL    HW216869   4.438   2.556   1.431
 5324SOL     OW16870   3.743   2.064   1.769
 5324SOL    HW116871   3.686   1.988   1.800
 5324SOL    HW216872   3.741   2.138   1.836
 5325SOL     OW16873   4.953   6.969   2.857
 5325SOL    HW116874   4.926   6.983   2.952
 5325SOL    HW216875   5.005   6.883   2.850
 5326SOL     OW16876   6.569   5.132   1.896
 5326SOL    HW116877   6.597   5.223   1.864
 5326SOL    HW216878   6.469   5.130   1.903
 5327SOL     OW16879   0.094   6.731   4.908
 5327SOL    HW116880   0.033   6.752   4.832
 5327SOL    HW216881   0.043   6.681   4.979
 5328SOL     OW16882   3.524   2.571   5.631
 5328SOL    HW116883   3.516   2.539   5.536
 5328SOL    HW216884   3.484   2.503   5.692
 5329SOL     OW16885   0.151   4.516   0.314
 5329SOL    HW116886   0.224   4.550   0.254
 5329SOL    HW216887   0.192   4.479   0.397
 5330SOL     OW16888   3.826   3.638   0.197
 5330SOL    HW116889   3.886   3.650   0.276
 5330SOL    HW216890   3.841   3.711   0.131
 5331SOL     OW16891   4.320   2.366   0.708
 5331SOL    HW116892   4.348   2.338   0.617
 5331SOL    HW216893   4.224   2.392   0.707
 5332SOL     OW16894   6.055   5.254   0.761
 5332SOL    HW116895   5.975   5.313   0.759
 5332SOL    HW216896   6.026   5.159   0.771
 5333SOL     OW16897   2.093   0.836   3.754
 5333SOL    HW116898   2.162   0.817   3.685
 5333SOL    HW216899   2.041   0.918   3.729
 5334SOL     OW16900   4.703   4.850   4.201
 5334SOL    HW116901   4.722   4.916   4.274
 5334SOL    HW216902   4.756   4.875   4.120
 5335SOL     OW16903   6.513   3.837   2.561
 5335SOL    HW116904   6.429   3.783   2.566
 5335SOL    HW216905   6.549   3.849   2.654
 5336SOL     OW16906   2.244   1.774   4.122
 5336SOL    HW116907   2.288   1.840   4.061
 5336SOL    HW216908   2.281   1.682   4.103
 5337SOL     OW16909   6.114   4.631   1.379
 5337SOL    HW116910   6.047   4.637   1.453
 5337SOL    HW216911   6.144   4.723   1.352
 5338SOL     OW16912   5.584   3.060   0.095
 5338SOL    HW116913   5.647   3.137   0.110
 5338SOL    HW216914   5.542   3.034   0.181
 5339SOL     OW16915   5.781   1.887   2.112
 5339SOL    HW116916   5.770   1.983   2.136
 5339SOL    HW216917   5.719   1.831   2.167
 5340SOL     OW16918   5.353   3.148   1.977
 5340SOL    HW116919   5.321   3.223   2.034
 5340SOL    HW216920   5.443   3.119   2.010
 5341SOL     OW16921   4.712   4.772   3.623
 5341SOL    HW116922   4.792   4.717   3.646
 5341SOL    HW216923   4.631   4.713   3.622
 5342SOL     OW16924   5.525   6.720   5.662
 5342SOL    HW116925   5.465   6.777   5.718
 5342SOL    HW216926   5.601   6.774   5.627
 5343SOL     OW16927   3.648   3.605   4.720
 5343SOL    HW116928   3.723   3.566   4.666
 5343SOL    HW216929   3.561   3.571   4.685
 5344SOL     OW16930   0.714   1.392   0.525
 5344SOL    HW116931   0.660   1.459   0.473
 5344SOL    HW216932   0.745   1.320   0.463
 5345SOL     OW16933   4.762   1.279   6.906
 5345SOL    HW116934   4.700   1.304   6.832
 5345SOL    HW216935   4.852   1.256   6.868
 5346SOL     OW16936   2.446   5.174   4.248
 5346SOL    HW116937   2.465   5.077   4.236
 5346SOL    HW216938   2.369   5.186   4.311
 5347SOL     OW16939   0.374   2.206   3.571
 5347SOL    HW116940   0.283   2.228   3.606
 5347SOL    HW216941   0.368   2.126   3.512
 5348SOL     OW16942   6.417   1.409   4.957
 5348SOL    HW116943   6.415   1.406   4.857
 5348SOL    HW216944   6.356   1.481   4.989
 5349SOL     OW16945   0.936   2.749   1.764
 5349SOL    HW116946   0.997   2.717   1.692
 5349SOL    HW216947   0.949   2.694   1.846
 5350SOL     OW16948   1.650   6.855   5.327
 5350SOL    HW116949   1.604   6.903   5.253
 5350SOL    HW216950   1.731   6.906   5.355
 5351SOL     OW16951   0.029   5.518   1.538
 5351SOL    HW116952   0.044   5.424   1.570
 5351SOL    HW216953   6.950   5.537   1.535
 5352SOL     OW16954   1.973   4.329   3.029
 5352SOL    HW116955   2.073   4.327   3.024
 5352SOL    HW216956   1.935   4.295   2.943
 5353SOL     OW16957   3.452   5.458   3.799
 5353SOL    HW116958   3.451   5.394   3.876
 5353SOL    HW216959   3.529   5.436   3.739
 5354SOL     OW16960   3.521   4.575   0.294
 5354SOL    HW116961   3.429   4.557   0.258
 5354SOL    HW216962   3.539   4.673   0.295
 5355SOL     OW16963   4.893   5.310   5.414
 5355SOL    HW116964   4.903   5.259   5.329
 5355SOL    HW216965   4.983   5.325   5.454
 5356SOL     OW16966   6.326   3.509   1.674
 5356SOL    HW116967   6.307   3.606   1.658
 5356SOL    HW216968   6.409   3.483   1.623
 5357SOL     OW16969   4.279   4.665   1.877
 5357SOL    HW116970   4.277   4.746   1.936
 5357SOL    HW216971   4.308   4.691   1.785
 5358SOL     OW16972   4.355   1.719   0.296
 5358SOL    HW116973   4.313   1.792   0.243
 5358SOL    HW216974   4.332   1.730   0.393
 5359SOL     OW16975   2.156   2.327   0.407
 5359SOL    HW116976   2.197   2.409   0.368
 5359SOL    HW216977   2.074   2.302   0.355
 5360SOL     OW16978   5.802   5.678   3.881
 5360SOL    HW116979   5.759   5.769   3.877
 5360SOL    HW216980   5.840   5.656   3.792
 5361SOL     OW16981   3.214   6.315   2.723
 5361SOL    HW116982   3.192   6.220   2.745
 5361SOL    HW216983   3.237   6.322   2.626
 5362SOL     OW16984   5.542   6.821   2.793
 5362SOL    HW116985   5.586   6.892   2.849
 5362SOL    HW216986   5.585   6.818   2.703
 5363SOL     OW16987   5.256   6.684   4.982
 5363SOL    HW116988   5.242   6.704   4.885
 5363SOL    HW216989   5.318   6.606   4.991
 5364SOL     OW16990   5.411   0.912   2.023
 5364SOL    HW116991   5.467   0.853   1.965
 5364SOL    HW216992   5.418   1.006   1.991
 5365SOL     OW16993   2.978   3.740   3.103
 5365SOL    HW116994   2.951   3.709   3.011
 5365SOL    HW216995   3.059   3.690   3.132
 5366SOL     OW16996   6.772   0.506   1.800
 5366SOL    HW116997   6.718   0.470   1.724
 5366SOL    HW216998   6.811   0.430   1.852
 5367SOL     OW16999   5.828   0.119   0.448
 5367SOL    HW117000   5.838   0.034   0.395
 5367SOL    HW217001   5.792   0.191   0.388
 5368SOL     OW17002   6.518   5.942   2.319
 5368SOL    HW117003   6.594   5.879   2.305
 5368SOL    HW217004   6.530   6.023   2.262
 5369SOL     OW17005   2.783   5.451   1.354
 5369SOL    HW117006   2.744   5.393   1.425
 5369SOL    HW217007   2.722   5.455   1.275
 5370SOL     OW17008   4.033   3.744   1.945
 5370SOL    HW117009   3.993   3.826   1.985
 5370SOL    HW217010   4.084   3.769   1.863
 5371SOL     OW17011   6.990   5.102   4.967
 5371SOL    HW117012   0.029   5.102   4.886
 5371SOL    HW217013   6.899   5.134   4.941
 5372SOL     OW17014   1.917   0.056   2.933
 5372SOL    HW117015   1.835   0.024   2.885
 5372SOL    HW217016   1.925   0.155   2.922
 5373SOL     OW17017   4.087   6.339   6.405
 5373SOL    HW117018   4.086   6.438   6.416
 5373SOL    HW217019   4.114   6.296   6.491
 5374SOL     OW17020   2.535   4.517   1.365
 5374SOL    HW117021   2.529   4.418   1.359
 5374SOL    HW217022   2.501   4.558   1.281
 5375SOL     OW17023   1.000   6.491   5.510
 5375SOL    HW117024   1.014   6.584   5.542
 5375SOL    HW217025   0.903   6.470   5.508
 5376SOL     OW17026   1.194   2.023   2.011
 5376SOL    HW117027   1.241   2.017   1.923
 5376SOL    HW217028   1.097   2.044   1.995
 5377SOL     OW17029   2.232   0.966   2.869
 5377SOL    HW117030   2.271   1.025   2.798
 5377SOL    HW217031   2.282   0.879   2.872
 5378SOL     OW17032   5.942   0.295   0.855
 5378SOL    HW117033   5.969   0.386   0.823
 5378SOL    HW217034   5.983   0.278   0.945
 5379SOL     OW17035   1.560   2.606   5.981
 5379SOL    HW117036   1.518   2.539   6.043
 5379SOL    HW217037   1.532   2.698   6.009
 5380SOL     OW17038   3.368   6.971   1.117
 5380SOL    HW117039   3.331   6.920   1.195
 5380SOL    HW217040   3.332   6.933   1.032
 5381SOL     OW17041   5.744   6.427   2.632
 5381SOL    HW117042   5.805   6.347   2.640
 5381SOL    HW217043   5.797   6.510   2.648
 5382SOL     OW17044   3.853   2.108   2.717
 5382SOL    HW117045   3.839   2.066   2.627
 5382SOL    HW217046   3.943   2.151   2.720
 5383SOL     OW17047   1.015   2.739   4.709
 5383SOL    HW117048   1.051   2.669   4.769
 5383SOL    HW217049   0.981   2.697   4.625
 5384SOL     OW17050   4.355   5.445   5.511
 5384SOL    HW117051   4.256   5.440   5.505
 5384SOL    HW217052   4.394   5.463   5.420
 5385SOL     OW17053   6.644   3.176   6.193
 5385SOL    HW117054   6.701   3.107   6.238
 5385SOL    HW217055   6.703   3.240   6.143
 5386SOL     OW17056   5.873   3.205   4.001
 5386SOL    HW117057   5.864   3.250   4.090
 5386SOL    HW217058   5.788   3.215   3.949
 5387SOL     OW17059   2.568   0.151   3.154
 5387SOL    HW117060   2.653   0.115   3.194
 5387SOL    HW217061   2.492   0.136   3.218
 5388SOL     OW17062   1.169   6.446   3.019
 5388SOL    HW117063   1.204   6.353   3.026
 5388SOL    HW217064   1.149   6.467   2.924
 5389SOL     OW17065   4.554   2.127   4.466
 5389SOL    HW117066   4.617   2.145   4.541
 5389SOL    HW217067   4.476   2.074   4.499
 5390SOL     OW17068   6.168   3.505   4.034
 5390SOL    HW117069   6.162   3.438   3.960
 5390SOL    HW217070   6.092   3.570   4.027
 5391SOL     OW17071   2.512   2.484   0.390
 5391SOL    HW117072   2.475   2.484   0.297
 5391SOL    HW217073   2.459   2.547   0.447
 5392SOL     OW17074   5.026   2.604   3.112
 5392SOL    HW117075   4.961   2.671   3.149
 5392SOL    HW217076   5.118   2.629   3.140
 5393SOL     OW17077   4.260   0.041   5.205
 5393SOL    HW117078   4.222   6.971   5.181
 5393SOL    HW217079   4.256   0.053   5.304
 5394SOL     OW17080   1.060   6.806   1.125
 5394SOL    HW117081   0.979   6.779   1.073
 5394SOL    HW217082   1.037   6.883   1.185
 5395SOL     OW17083   4.735   1.682   1.011
 5395SOL    HW117084   4.687   1.721   0.933
 5395SOL    HW217085   4.675   1.616   1.057
 5396SOL     OW17086   5.195   5.492   2.576
 5396SOL    HW117087   5.139   5.481   2.494
 5396SOL    HW217088   5.291   5.502   2.550
 5397SOL     OW17089   6.561   1.610   2.495
 5397SOL    HW117090   6.488   1.631   2.561
 5397SOL    HW217091   6.640   1.574   2.544
 5398SOL     OW17092   4.532   1.880   3.833
 5398SOL    HW117093   4.465   1.840   3.895
 5398SOL    HW217094   4.533   1.980   3.845
 5399SOL     OW17095   1.595   6.591   5.511
 5399SOL    HW117096   1.560   6.544   5.430
 5399SOL    HW217097   1.674   6.646   5.486
 5400SOL     OW17098   3.545   3.346   0.964
 5400SOL    HW117099   3.554   3.249   0.988
 5400SOL    HW217100   3.451   3.376   0.984
 5401SOL     OW17101   4.994   5.109   3.707
 5401SOL    HW117102   5.022   5.073   3.618
 5401SOL    HW217103   4.896   5.095   3.720
 5402SOL     OW17104   2.898   6.811   0.813
 5402SOL    HW117105   2.974   6.748   0.798
 5402SOL    HW217106   2.924   6.903   0.784
 5403SOL     OW17107   5.326   3.149   0.015
 5403SOL    HW117108   5.420   3.120   0.029
 5403SOL    HW217109   5.270   3.070   7.010
 5404SOL     OW17110   0.811   0.958   0.993
 5404SOL    HW117111   0.757   0.928   1.071
 5404SOL    HW217112   0.872   1.033   1.020
 5405SOL     OW17113   5.285   5.499   6.957
 5405SOL    HW117114   5.330   5.524   0.024
 5405SOL    HW217115   5.347   5.517   6.881
 5406SOL     OW17116   2.575   0.970   5.122
 5406SOL    HW117117   2.539   1.046   5.068
 5406SOL    HW217118   2.519   0.959   5.205
 5407SOL     OW17119   2.866   0.816   1.202
 5407SOL    HW117120   2.891   0.846   1.111
 5407SOL    HW217121   2.848   0.717   1.201
 5408SOL     OW17122   3.389   1.796   4.347
 5408SOL    HW117123   3.427   1.710   4.312
 5408SOL    HW217124   3.355   1.782   4.440
 5409SOL     OW17125   6.190   2.765   1.575
 5409SOL    HW117126   6.132   2.736   1.652
 5409SOL    HW217127   6.275   2.803   1.610
 5410SOL     OW17128   6.749   3.222   0.966
 5410SOL    HW117129   6.767   3.291   1.037
 5410SOL    HW217130   6.836   3.190   0.928
 5411SOL     OW17131   5.105   4.751   0.060
 5411SOL    HW117132   5.184   4.732   0.118
 5411SOL    HW217133   5.073   4.667   0.017
 5412SOL     OW17134   1.591   1.453   5.951
 5412SOL    HW117135   1.606   1.551   5.938
 5412SOL    HW217136   1.518   1.422   5.890
 5413SOL     OW17137   6.170   6.916   5.525
 5413SOL    HW117138   6.191   6.994   5.584
 5413SOL    HW217139   6.216   6.834   5.560
 5414SOL     OW17140   0.249   4.172   5.045
 5414SOL    HW117141   0.314   4.133   5.110
 5414SOL    HW217142   0.269   4.269   5.032
 5415SOL     OW17143   2.722   5.902   0.389
 5415SOL    HW117144   2.637   5.955   0.394
 5415SOL    HW217145   2.797   5.963   0.364
 5416SOL     OW17146   2.815   5.169   4.885
 5416SOL    HW117147   2.758   5.163   4.803
 5416SOL    HW217148   2.772   5.119   4.959
 5417SOL     OW17149   5.181   6.120   3.681
 5417SOL    HW117150   5.186   6.021   3.689
 5417SOL    HW217151   5.273   6.158   3.673
 5418SOL     OW17152   5.807   4.605   4.480
 5418SOL    HW117153   5.724   4.586   4.428
 5418SOL    HW217154   5.840   4.697   4.459
 5419SOL     OW17155   4.160   0.013   0.135
 5419SOL    HW117156   4.245   0.047   0.176
 5419SOL    HW217157   4.162   0.030   0.036
 5420SOL     OW17158   1.310   1.679   1.979
 5420SOL    HW117159   1.339   1.587   1.951
 5420SOL    HW217160   1.389   1.740   1.977
 5421SOL     OW17161   3.558   5.401   2.269
 5421SOL    HW117162   3.550   5.394   2.169
 5421SOL    HW217163   3.610   5.322   2.303
 5422SOL     OW17164   2.165   6.226   3.990
 5422SOL    HW117165   2.147   6.155   3.922
 5422SOL    HW217166   2.201   6.308   3.944
 5423SOL     OW17167   6.726   5.779   2.206
 5423SOL    HW117168   6.780   5.797   2.123
 5423SOL    HW217169   6.770   5.824   2.284
 5424SOL     OW17170   5.002   4.331   4.983
 5424SOL    HW117171   5.062   4.382   5.045
 5424SOL    HW217172   4.992   4.237   5.017
 5425SOL     OW17173   6.809   3.188   4.888
 5425SOL    HW117174   6.844   3.159   4.799
 5425SOL    HW217175   6.854   3.273   4.915
 5426SOL     OW17176   5.152   5.184   2.035
 5426SOL    HW117177   5.182   5.251   2.103
 5426SOL    HW217178   5.129   5.098   2.080
 5427SOL     OW17179   4.497   2.764   6.463
 5427SOL    HW117180   4.519   2.722   6.375
 5427SOL    HW217181   4.558   2.727   6.533
 5428SOL     OW17182   6.007   5.556   3.009
 5428SOL    HW117183   5.935   5.491   2.982
 5428SOL    HW217184   5.969   5.625   3.071
 5429SOL     OW17185   2.926   0.481   4.212
 5429SOL    HW117186   2.877   0.406   4.255
 5429SOL    HW217187   2.954   0.455   4.120
 5430SOL     OW17188   2.085   3.521   6.041
 5430SOL    HW117189   2.119   3.556   5.953
 5430SOL    HW217190   2.144   3.447   6.072
 5431SOL     OW17191   3.552   5.131   6.325
 5431SOL    HW117192   3.602   5.107   6.408
 5431SOL    HW217193   3.518   5.225   6.333
 5432SOL     OW17194   5.240   5.915   1.065
 5432SOL    HW117195   5.192   5.844   1.116
 5432SOL    HW217196   5.174   5.982   1.031
 5433SOL     OW17197   1.049   0.865   0.822
 5433SOL    HW117198   1.149   0.868   0.819
 5433SOL    HW217199   1.012   0.907   0.740
 5434SOL     OW17200   4.961   0.916   5.044
 5434SOL    HW117201   5.054   0.890   5.071
 5434SOL    HW217202   4.951   1.015   5.048
 5435SOL     OW17203   6.266   4.256   0.658
 5435SOL    HW117204   6.241   4.347   0.626
 5435SOL    HW217205   6.345   4.223   0.607
 5436SOL     OW17206   0.860   5.890   2.512
 5436SOL    HW117207   0.889   5.914   2.419
 5436SOL    HW217208   0.781   5.945   2.537
 5437SOL     OW17209   2.650   4.978   6.420
 5437SOL    HW117210   2.569   4.991   6.477
 5437SOL    HW217211   2.707   5.060   6.425
 5438SOL     OW17212   4.906   4.263   2.155
 5438SOL    HW117213   4.978   4.299   2.214
 5438SOL    HW217214   4.924   4.166   2.137
 5439SOL     OW17215   0.773   4.524   0.339
 5439SOL    HW117216   0.682   4.542   0.373
 5439SOL    HW217217   0.792   4.582   0.260
 5440SOL     OW17218   5.868   6.888   3.497
 5440SOL    HW117219   5.949   6.832   3.515
 5440SOL    HW217220   5.896   6.978   3.463
 5441SOL     OW17221   4.913   3.248   4.018
 5441SOL    HW117222   4.878   3.155   4.026
 5441SOL    HW217223   4.840   3.309   3.988
 5442SOL     OW17224   5.608   0.136   3.926
 5442SOL    HW117225   5.666   0.064   3.965
 5442SOL    HW217226   5.620   0.221   3.978
 5443SOL     OW17227   5.037   6.689   5.133
 5443SOL    HW117228   5.124   6.687   5.084
 5443SOL    HW217229   5.044   6.751   5.211
 5444SOL     OW17230   0.300   1.923   3.873
 5444SOL    HW117231   0.248   2.005   3.901
 5444SOL    HW217232   0.319   1.928   3.775
 5445SOL     OW17233   5.039   5.049   5.260
 5445SOL    HW117234   5.047   5.019   5.355
 5445SOL    HW217235   4.957   5.008   5.219
 5446SOL     OW17236   6.958   4.683   4.926
 5446SOL    HW117237   0.002   4.721   4.859
 5446SOL    HW217238   6.909   4.757   4.971
 5447SOL     OW17239   1.852   1.819   1.481
 5447SOL    HW117240   1.844   1.785   1.388
 5447SOL    HW217241   1.939   1.868   1.492
 5448SOL     OW17242   4.633   5.901   4.144
 5448SOL    HW117243   4.630   5.940   4.236
 5448SOL    HW217244   4.612   5.803   4.148
 5449SOL     OW17245   3.247   1.752   2.138
 5449SOL    HW117246   3.275   1.733   2.232
 5449SOL    HW217247   3.150   1.776   2.136
 5450SOL     OW17248   3.896   5.893   2.002
 5450SOL    HW117249   3.854   5.941   1.925
 5450SOL    HW217250   3.833   5.823   2.037
 5451SOL     OW17251   1.337   0.007   2.953
 5451SOL    HW117252   1.370   0.075   3.018
 5451SOL    HW217253   1.364   6.935   2.985
 5452SOL     OW17254   1.741   5.002   0.830
 5452SOL    HW117255   1.781   4.931   0.772
 5452SOL    HW217256   1.737   4.970   0.925
 5453SOL     OW17257   5.555   4.457   2.696
 5453SOL    HW117258   5.586   4.410   2.778
 5453SOL    HW217259   5.459   4.435   2.679
 5454SOL     OW17260   5.566   5.558   2.793
 5454SOL    HW117261   5.654   5.565   2.747
 5454SOL    HW217262   5.578   5.578   2.891
 5455SOL     OW17263   0.828   1.514   2.672
 5455SOL    HW117264   0.783   1.427   2.694
 5455SOL    HW217265   0.843   1.520   2.573
 5456SOL     OW17266   4.937   1.107   6.748
 5456SOL    HW117267   4.853   1.054   6.738
 5456SOL    HW217268   5.015   1.050   6.725
 5457SOL     OW17269   6.373   2.447   0.142
 5457SOL    HW117270   6.438   2.512   0.182
 5457SOL    HW217271   6.301   2.427   0.210
 5458SOL     OW17272   6.282   4.742   0.629
 5458SOL    HW117273   6.250   4.816   0.569
 5458SOL    HW217274   6.370   4.767   0.668
 5459SOL     OW17275   1.521   4.596   5.452
 5459SOL    HW117276   1.485   4.553   5.535
 5459SOL    HW217277   1.621   4.596   5.455
 5460SOL     OW17278   2.030   1.601   1.241
 5460SOL    HW117279   2.008   1.697   1.253
 5460SOL    HW217280   1.984   1.566   1.159
 5461SOL     OW17281   0.738   1.430   5.907
 5461SOL    HW117282   0.655   1.388   5.869
 5461SOL    HW217283   0.719   1.526   5.929
 5462SOL     OW17284   5.609   6.182   6.558
 5462SOL    HW117285   5.621   6.172   6.657
 5462SOL    HW217286   5.673   6.121   6.511
 5463SOL     OW17287   6.508   2.214   6.541
 5463SOL    HW117288   6.477   2.270   6.617
 5463SOL    HW217289   6.597   2.246   6.509
 5464SOL     OW17290   6.335   5.886   5.537
 5464SOL    HW117291   6.293   5.912   5.450
 5464SOL    HW217292   6.393   5.805   5.523
 5465SOL     OW17293   6.255   6.484   3.021
 5465SOL    HW117294   6.274   6.475   3.118
 5465SOL    HW217295   6.156   6.478   3.005
 5466SOL     OW17296   5.775   2.633   5.101
 5466SOL    HW117297   5.790   2.684   5.185
 5466SOL    HW217298   5.809   2.686   5.023
 5467SOL     OW17299   5.791   3.814   3.748
 5467SOL    HW117300   5.782   3.723   3.788
 5467SOL    HW217301   5.811   3.880   3.819
 5468SOL     OW17302   6.690   2.016   3.077
 5468SOL    HW117303   6.666   1.928   3.117
 5468SOL    HW217304   6.708   2.004   2.979
 5469SOL     OW17305   2.088   0.841   5.919
 5469SOL    HW117306   2.167   0.795   5.877
 5469SOL    HW217307   2.023   0.865   5.847
 5470SOL     OW17308   4.019   5.326   4.275
 5470SOL    HW117309   4.017   5.325   4.375
 5470SOL    HW217310   4.062   5.411   4.244
 5471SOL     OW17311   5.563   0.278   2.955
 5471SOL    HW117312   5.543   0.316   2.864
 5471SOL    HW217313   5.602   0.186   2.945
 5472SOL     OW17314   3.299   2.269   6.033
 5472SOL    HW117315   3.265   2.347   6.086
 5472SOL    HW217316   3.244   2.188   6.055
 5473SOL     OW17317   1.800   4.206   0.377
 5473SOL    HW117318   1.786   4.150   0.459
 5473SOL    HW217319   1.716   4.258   0.357
 5474SOL     OW17320   1.273   5.485   3.153
 5474SOL    HW117321   1.338   5.411   3.171
 5474SOL    HW217322   1.298   5.531   3.068
 5475SOL     OW17323   1.450   2.060   0.561
 5475SOL    HW117324   1.440   1.982   0.623
 5475SOL    HW217325   1.417   2.143   0.606
 5476SOL     OW17326   2.116   4.537   5.675
 5476SOL    HW117327   2.185   4.466   5.662
 5476SOL    HW217328   2.081   4.532   5.769
 5477SOL     OW17329   1.651   4.277   2.707
 5477SOL    HW117330   1.701   4.320   2.632
 5477SOL    HW217331   1.701   4.196   2.739
 5478SOL     OW17332   5.376   5.688   6.472
 5478SOL    HW117333   5.354   5.728   6.383
 5478SOL    HW217334   5.387   5.589   6.463
 5479SOL     OW17335   4.576   1.064   4.137
 5479SOL    HW117336   4.558   1.010   4.055
 5479SOL    HW217337   4.559   1.009   4.218
 5480SOL     OW17338   6.039   4.437   4.958
 5480SOL    HW117339   6.004   4.361   4.904
 5480SOL    HW217340   5.978   4.516   4.950
 5481SOL     OW17341   4.534   0.712   5.542
 5481SOL    HW117342   4.511   0.695   5.446
 5481SOL    HW217343   4.467   0.666   5.601
 5482SOL     OW17344   3.341   3.828   2.174
 5482SOL    HW117345   3.264   3.831   2.238
 5482SOL    HW217346   3.427   3.820   2.225
 5483SOL     OW17347   6.456   2.461   5.589
 5483SOL    HW117348   6.426   2.488   5.497
 5483SOL    HW217349   6.450   2.539   5.651
 5484SOL     OW17350   6.211   6.870   3.801
 5484SOL    HW117351   6.155   6.796   3.837
 5484SOL    HW217352   6.301   6.867   3.844
 5485SOL     OW17353   2.881   0.184   4.397
 5485SOL    HW117354   2.836   0.097   4.414
 5485SOL    HW217355   2.818   0.259   4.417
 5486SOL     OW17356   1.863   0.273   4.166
 5486SOL    HW117357   1.803   0.351   4.150
 5486SOL    HW217358   1.924   0.260   4.088
 5487SOL     OW17359   5.826   3.967   6.565
 5487SOL    HW117360   5.811   3.946   6.661
 5487SOL    HW217361   5.829   4.066   6.551
 5488SOL     OW17362   4.494   1.507   0.106
 5488SOL    HW117363   4.496   1.584   0.042
 5488SOL    HW217364   4.515   1.539   0.198
 5489SOL     OW17365   1.683   3.990   1.696
 5489SOL    HW117366   1.632   4.072   1.672
 5489SOL    HW217367   1.644   3.912   1.646
 5490SOL     OW17368   3.412   6.765   0.410
 5490SOL    HW117369   3.417   6.852   0.459
 5490SOL    HW217370   3.347   6.774   0.334
 5491SOL     OW17371   1.575   4.358   6.754
 5491SOL    HW117372   1.657   4.394   6.709
 5491SOL    HW217373   1.507   4.430   6.762
 5492SOL     OW17374   0.930   0.946   6.145
 5492SOL    HW117375   0.939   1.037   6.105
 5492SOL    HW217376   0.833   0.921   6.149
 5493SOL     OW17377   3.571   2.924   5.125
 5493SOL    HW117378   3.556   2.860   5.200
 5493SOL    HW217379   3.536   2.884   5.040
 5494SOL     OW17380   6.329   3.036   0.408
 5494SOL    HW117381   6.385   2.983   0.343
 5494SOL    HW217382   6.314   3.128   0.371
 5495SOL     OW17383   2.989   3.274   1.460
 5495SOL    HW117384   2.959   3.246   1.552
 5495SOL    HW217385   2.947   3.215   1.392
 5496SOL     OW17386   3.475   6.185   1.724
 5496SOL    HW117387   3.377   6.197   1.707
 5496SOL    HW217388   3.495   6.088   1.732
 5497SOL     OW17389   0.425   2.003   3.371
 5497SOL    HW117390   0.447   2.066   3.297
 5497SOL    HW217391   0.444   1.909   3.342
 5498SOL     OW17392   4.836   0.657   0.563
 5498SOL    HW117393   4.775   0.579   0.553
 5498SOL    HW217394   4.887   0.648   0.649
 5499SOL     OW17395   0.722   1.620   3.805
 5499SOL    HW117396   0.729   1.716   3.778
 5499SOL    HW217397   0.663   1.612   3.886
 5500SOL     OW17398   1.879   6.193   6.929
 5500SOL    HW117399   1.907   6.289   6.931
 5500SOL    HW217400   1.902   6.152   6.841
 5501SOL     OW17401   3.015   6.634   1.351
 5501SOL    HW117402   2.971   6.652   1.263
 5501SOL    HW217403   3.052   6.541   1.351
 5502SOL     OW17404   5.877   4.431   6.089
 5502SOL    HW117405   5.804   4.415   6.156
 5502SOL    HW217406   5.849   4.395   6.000
 5503SOL     OW17407   0.649   4.765   2.697
 5503SOL    HW117408   0.594   4.682   2.694
 5503SOL    HW217409   0.592   4.844   2.675
 5504SOL     OW17410   2.789   1.178   5.410
 5504SOL    HW117411   2.860   1.181   5.340
 5504SOL    HW217412   2.788   1.263   5.461
 5505SOL     OW17413   2.570   5.754   4.843
 5505SOL    HW117414   2.478   5.716   4.836
 5505SOL    HW217415   2.636   5.689   4.804
 5506SOL     OW17416   6.482   6.870   5.385
 5506SOL    HW117417   6.572   6.879   5.342
 5506SOL    HW217418   6.415   6.920   5.331
 5507SOL     OW17419   2.742   6.780   2.956
 5507SOL    HW117420   2.757   6.872   2.992
 5507SOL    HW217421   2.648   6.751   2.977
 5508SOL     OW17422   2.562   0.971   0.280
 5508SOL    HW117423   2.606   0.890   0.319
 5508SOL    HW217424   2.552   0.960   0.181
 5509SOL     OW17425   0.852   6.516   0.307
 5509SOL    HW117426   0.834   6.469   0.393
 5509SOL    HW217427   0.907   6.598   0.324
 5510SOL     OW17428   5.429   6.481   0.547
 5510SOL    HW117429   5.471   6.500   0.458
 5510SOL    HW217430   5.395   6.566   0.587
 5511SOL     OW17431   2.208   0.398   3.822
 5511SOL    HW117432   2.273   0.469   3.850
 5511SOL    HW217433   2.254   0.310   3.820
 5512SOL     OW17434   6.321   2.377   0.476
 5512SOL    HW117435   6.298   2.474   0.471
 5512SOL    HW217436   6.257   2.331   0.538
 5513SOL     OW17437   4.701   4.308   5.611
 5513SOL    HW117438   4.643   4.386   5.635
 5513SOL    HW217439   4.760   4.285   5.688
 5514SOL     OW17440   5.011   5.252   2.740
 5514SOL    HW117441   5.073   5.326   2.712
 5514SOL    HW217442   5.065   5.173   2.770
 5515SOL     OW17443   6.797   3.996   1.095
 5515SOL    HW117444   6.740   3.919   1.123
 5515SOL    HW217445   6.825   3.984   0.999
 5516SOL     OW17446   1.205   3.235   0.489
 5516SOL    HW117447   1.205   3.176   0.569
 5516SOL    HW217448   1.125   3.215   0.433
 5517SOL     OW17449   2.489   2.553   2.207
 5517SOL    HW117450   2.536   2.464   2.206
 5517SOL    HW217451   2.474   2.584   2.113
 5518SOL     OW17452   6.411   5.728   6.069
 5518SOL    HW117453   6.418   5.770   6.160
 5518SOL    HW217454   6.502   5.704   6.036
 5519SOL     OW17455   4.893   3.413   2.886
 5519SOL    HW117456   4.901   3.487   2.819
 5519SOL    HW217457   4.983   3.391   2.924
 5520SOL     OW17458   1.099   4.609   2.914
 5520SOL    HW117459   1.035   4.677   2.876
 5520SOL    HW217460   1.047   4.535   2.956
 5521SOL     OW17461   3.924   5.725   2.695
 5521SOL    HW117462   4.007   5.748   2.746
 5521SOL    HW217463   3.846   5.772   2.736
 5522SOL     OW17464   1.331   4.177   1.139
 5522SOL    HW117465   1.276   4.147   1.061
 5522SOL    HW217466   1.295   4.137   1.223
 5523SOL     OW17467   3.110   6.805   2.820
 5523SOL    HW117468   3.093   6.883   2.759
 5523SOL    HW217469   3.160   6.734   2.770
 5524SOL     OW17470   0.044   5.527   4.739
 5524SOL    HW117471   0.050   5.465   4.818
 5524SOL    HW217472   0.125   5.515   4.682
 5525SOL     OW17473   6.753   4.540   0.674
 5525SOL    HW117474   6.743   4.511   0.770
 5525SOL    HW217475   6.850   4.537   0.649
 5526SOL     OW17476   5.866   3.518   4.869
 5526SOL    HW117477   5.793   3.530   4.937
 5526SOL    HW217478   5.845   3.439   4.812
 5527SOL     OW17479   1.138   3.756   3.005
 5527SOL    HW117480   1.042   3.734   3.022
 5527SOL    HW217481   1.158   3.847   3.039
 5528SOL     OW17482   1.068   2.215   5.939
 5528SOL    HW117483   1.085   2.116   5.933
 5528SOL    HW217484   1.127   2.262   5.874
 5529SOL     OW17485   2.556   0.150   4.304
 5529SOL    HW117486   2.607   0.076   4.348
 5529SOL    HW217487   2.558   0.231   4.361
 5530SOL     OW17488   0.256   2.388   2.096
 5530SOL    HW117489   0.159   2.408   2.081
 5530SOL    HW217490   0.285   2.430   2.182
 5531SOL     OW17491   3.803   4.091   3.677
 5531SOL    HW117492   3.813   4.190   3.668
 5531SOL    HW217493   3.799   4.066   3.774
 5532SOL     OW17494   1.337   1.487   1.307
 5532SOL    HW117495   1.317   1.395   1.273
 5532SOL    HW217496   1.435   1.496   1.325
 5533SOL     OW17497   2.754   0.898   2.190
 5533SOL    HW117498   2.662   0.869   2.216
 5533SOL    HW217499   2.753   0.938   2.098
 5534SOL     OW17500   0.971   3.299   6.225
 5534SOL    HW117501   0.885   3.343   6.199
 5534SOL    HW217502   1.024   3.362   6.283
 5535SOL     OW17503   0.267   2.914   3.408
 5535SOL    HW117504   0.225   2.993   3.451
 5535SOL    HW217505   0.360   2.937   3.380
 5536SOL     OW17506   3.317   1.169   4.171
 5536SOL    HW117507   3.402   1.138   4.129
 5536SOL    HW217508   3.294   1.260   4.136
 5537SOL     OW17509   3.581   0.569   4.163
 5537SOL    HW117510   3.572   0.619   4.249
 5537SOL    HW217511   3.630   0.625   4.096
 5538SOL     OW17512   3.603   0.034   5.007
 5538SOL    HW117513   3.529   0.077   4.956
 5538SOL    HW217514   3.669   7.013   4.943
 5539SOL     OW17515   0.863   2.207   1.070
 5539SOL    HW117516   0.777   2.180   1.027
 5539SOL    HW217517   0.899   2.131   1.124
 5540SOL     OW17518   5.110   3.767   2.512
 5540SOL    HW117519   5.172   3.821   2.455
 5540SOL    HW217520   5.038   3.727   2.454
 5541SOL     OW17521   5.436   2.450   6.278
 5541SOL    HW117522   5.489   2.384   6.225
 5541SOL    HW217523   5.497   2.522   6.312
 5542SOL     OW17524   5.908   6.003   5.614
 5542SOL    HW117525   5.950   5.984   5.703
 5542SOL    HW217526   5.951   6.084   5.574
 5543SOL     OW17527   2.030   5.250   6.289
 5543SOL    HW117528   2.070   5.294   6.369
 5543SOL    HW217529   2.060   5.297   6.206
 5544SOL     OW17530   5.009   5.767   6.045
 5544SOL    HW117531   5.037   5.795   5.953
 5544SOL    HW217532   4.911   5.745   6.045
 5545SOL     OW17533   4.805   1.131   2.780
 5545SOL    HW117534   4.870   1.147   2.706
 5545SOL    HW217535   4.854   1.135   2.868
 5546SOL     OW17536   0.947   6.675   4.511
 5546SOL    HW117537   0.935   6.648   4.606
 5546SOL    HW217538   0.963   6.593   4.455
 5547SOL     OW17539   4.151   0.438   4.787
 5547SOL    HW117540   4.184   0.511   4.727
 5547SOL    HW217541   4.178   0.458   4.881
 5548SOL     OW17542   6.452   3.255   5.172
 5548SOL    HW117543   6.543   3.221   5.149
 5548SOL    HW217544   6.460   3.340   5.224
 5549SOL     OW17545   3.748   4.626   1.114
 5549SOL    HW117546   3.777   4.590   1.025
 5549SOL    HW217547   3.724   4.551   1.175
 5550SOL     OW17548   2.483   4.491   2.330
 5550SOL    HW117549   2.553   4.545   2.283
 5550SOL    HW217550   2.446   4.423   2.267
 5551SOL     OW17551   1.241   6.166   3.028
 5551SOL    HW117552   1.148   6.145   2.997
 5551SOL    HW217553   1.255   6.126   3.118
 5552SOL     OW17554   6.650   0.879   6.617
 5552SOL    HW117555   6.644   0.798   6.676
 5552SOL    HW217556   6.558   0.913   6.598
 5553SOL     OW17557   5.077   6.255   6.414
 5553SOL    HW117558   5.162   6.202   6.413
 5553SOL    HW217559   5.023   6.230   6.494
 5554SOL     OW17560   4.640   2.291   6.722
 5554SOL    HW117561   4.623   2.223   6.651
 5554SOL    HW217562   4.738   2.297   6.739
 5555SOL     OW17563   0.831   3.907   2.382
 5555SOL    HW117564   0.740   3.913   2.343
 5555SOL    HW217565   0.834   3.834   2.450
 5556SOL     OW17566   6.239   1.973   3.416
 5556SOL    HW117567   6.150   1.946   3.453
 5556SOL    HW217568   6.235   2.067   3.383
 5557SOL     OW17569   3.964   6.529   2.437
 5557SOL    HW117570   3.977   6.611   2.492
 5557SOL    HW217571   3.928   6.455   2.494
 5558SOL     OW17572   2.902   3.452   6.463
 5558SOL    HW117573   2.819   3.399   6.442
 5558SOL    HW217574   2.974   3.428   6.398
 5559SOL     OW17575   1.962   6.971   1.335
 5559SOL    HW117576   1.991   6.944   1.243
 5559SOL    HW217577   1.899   0.029   1.330
 5560SOL     OW17578   0.292   5.571   1.502
 5560SOL    HW117579   0.345   5.490   1.479
 5560SOL    HW217580   0.197   5.545   1.520
 5561SOL     OW17581   1.890   0.977   4.119
 5561SOL    HW117582   1.824   0.942   4.185
 5561SOL    HW217583   1.843   1.010   4.037
 5562SOL     OW17584   4.118   2.773   6.270
 5562SOL    HW117585   4.129   2.761   6.369
 5562SOL    HW217586   4.195   2.729   6.223
 5563SOL     OW17587   3.268   4.937   2.770
 5563SOL    HW117588   3.184   4.932   2.715
 5563SOL    HW217589   3.347   4.923   2.711
 5564SOL     OW17590   4.639   0.231   0.987
 5564SOL    HW117591   4.545   0.232   1.022
 5564SOL    HW217592   4.659   0.319   0.944
 5565SOL     OW17593   4.314   2.532   5.859
 5565SOL    HW117594   4.250   2.465   5.821
 5565SOL    HW217595   4.265   2.616   5.880
 5566SOL     OW17596   1.209   4.276   6.524
 5566SOL    HW117597   1.241   4.332   6.600
 5566SOL    HW217598   1.131   4.321   6.481
 5567SOL     OW17599   6.680   3.513   1.206
 5567SOL    HW117600   6.766   3.478   1.243
 5567SOL    HW217601   6.614   3.439   1.197
 5568SOL     OW17602   4.946   1.089   3.593
 5568SOL    HW117603   4.877   1.161   3.592
 5568SOL    HW217604   4.952   1.048   3.501
 5569SOL     OW17605   1.851   1.575   2.453
 5569SOL    HW117606   1.836   1.614   2.544
 5569SOL    HW217607   1.948   1.551   2.443
 5570SOL     OW17608   6.822   3.816   4.431
 5570SOL    HW117609   6.745   3.843   4.488
 5570SOL    HW217610   6.809   3.722   4.399
 5571SOL     OW17611   6.191   6.163   1.252
 5571SOL    HW117612   6.127   6.093   1.221
 5571SOL    HW217613   6.198   6.235   1.184
 5572SOL     OW17614   1.514   3.631   4.482
 5572SOL    HW117615   1.481   3.624   4.388
 5572SOL    HW217616   1.548   3.541   4.511
 5573SOL     OW17617   1.687   5.288   5.199
 5573SOL    HW117618   1.683   5.348   5.119
 5573SOL    HW217619   1.641   5.202   5.178
 5574SOL     OW17620   0.259   1.823   2.434
 5574SOL    HW117621   0.203   1.884   2.378
 5574SOL    HW217622   0.275   1.737   2.386
 5575SOL     OW17623   7.018   1.330   1.077
 5575SOL    HW117624   0.026   1.255   1.017
 5575SOL    HW217625   0.039   1.316   1.168
 5576SOL     OW17626   0.845   4.827   1.534
 5576SOL    HW117627   0.777   4.791   1.470
 5576SOL    HW217628   0.839   4.778   1.621
 5577SOL     OW17629   2.799   2.997   6.099
 5577SOL    HW117630   2.740   3.075   6.082
 5577SOL    HW217631   2.800   2.937   6.019
 5578SOL     OW17632   3.354   3.619   1.392
 5578SOL    HW117633   3.413   3.666   1.327
 5578SOL    HW217634   3.265   3.601   1.351
 5579SOL     OW17635   0.284   3.519   0.725
 5579SOL    HW117636   0.281   3.509   0.825
 5579SOL    HW217637   0.326   3.607   0.702
 5580SOL     OW17638   5.211   2.391   5.244
 5580SOL    HW117639   5.244   2.481   5.216
 5580SOL    HW217640   5.273   2.353   5.313
 5581SOL     OW17641   1.784   0.264   1.786
 5581SOL    HW117642   1.773   0.285   1.884
 5581SOL    HW217643   1.861   0.316   1.750
 5582SOL     OW17644   3.132   3.656   5.850
 5582SOL    HW117645   3.221   3.683   5.812
 5582SOL    HW217646   3.146   3.601   5.932
 5583SOL     OW17647   5.389   0.899   3.137
 5583SOL    HW117648   5.330   0.862   3.208
 5583SOL    HW217649   5.369   0.996   3.123
 5584SOL     OW17650   6.186   5.141   3.938
 5584SOL    HW117651   6.280   5.116   3.915
 5584SOL    HW217652   6.174   5.139   4.037
 5585SOL     OW17653   5.225   5.478   3.294
 5585SOL    HW117654   5.245   5.394   3.344
 5585SOL    HW217655   5.269   5.556   3.340
 5586SOL     OW17656   0.543   2.649   6.253
 5586SOL    HW117657   0.570   2.744   6.269
 5586SOL    HW217658   0.623   2.596   6.226
 5587SOL     OW17659   4.501   6.640   1.531
 5587SOL    HW117660   4.598   6.618   1.533
 5587SOL    HW217661   4.453   6.574   1.472
 5588SOL     OW17662   2.735   5.092   2.931
 5588SOL    HW117663   2.832   5.110   2.949
 5588SOL    HW217664   2.703   5.017   2.989
 5589SOL     OW17665   6.547   2.931   5.755
 5589SOL    HW117666   6.614   2.922   5.682
 5589SOL    HW217667   6.542   3.026   5.785
 5590SOL     OW17668   0.100   6.668   3.670
 5590SOL    HW117669   0.165   6.627   3.607
 5590SOL    HW217670   0.007   6.649   3.639
 5591SOL     OW17671   5.252   1.463   1.123
 5591SOL    HW117672   5.344   1.496   1.102
 5591SOL    HW217673   5.234   1.380   1.071
 5592SOL     OW17674   0.566   5.770   2.310
 5592SOL    HW117675   0.660   5.756   2.344
 5592SOL    HW217676   0.548   5.868   2.302
 5593SOL     OW17677   0.943   3.200   0.803
 5593SOL    HW117678   0.972   3.138   0.730
 5593SOL    HW217679   0.987   3.173   0.889
 5594SOL     OW17680   4.655   0.960   6.331
 5594SOL    HW117681   4.583   0.986   6.396
 5594SOL    HW217682   4.616   0.953   6.239
 5595SOL     OW17683   0.095   0.884   4.615
 5595SOL    HW117684   0.170   0.939   4.580
 5595SOL    HW217685   0.059   0.825   4.542
 5596SOL     OW17686   4.948   0.788   2.628
 5596SOL    HW117687   5.008   0.820   2.702
 5596SOL    HW217688   4.901   0.705   2.657
 5597SOL     OW17689   5.028   2.956   5.105
 5597SOL    HW117690   5.088   3.025   5.146
 5597SOL    HW217691   4.932   2.980   5.122
 5598SOL     OW17692   5.584   4.063   3.751
 5598SOL    HW117693   5.569   4.158   3.776
 5598SOL    HW217694   5.536   4.004   3.816
 5599SOL     OW17695   0.825   2.240   2.121
 5599SOL    HW117696   0.827   2.140   2.115
 5599SOL    HW217697   0.834   2.279   2.030
 5600SOL     OW17698   1.617   1.347   1.789
 5600SOL    HW117699   1.604   1.289   1.708
 5600SOL    HW217700   1.676   1.424   1.765
 5601SOL     OW17701   2.180   0.942   6.421
 5601SOL    HW117702   2.136   0.954   6.332
 5601SOL    HW217703   2.124   0.984   6.492
 5602SOL     OW17704   0.160   1.848   1.602
 5602SOL    HW117705   0.091   1.855   1.530
 5602SOL    HW217706   0.116   1.854   1.691
 5603SOL     OW17707   6.280   3.107   0.671
 5603SOL    HW117708   6.290   3.101   0.572
 5603SOL    HW217709   6.333   3.034   0.714
 5604SOL     OW17710   6.138   2.422   4.646
 5604SOL    HW117711   6.226   2.377   4.634
 5604SOL    HW217712   6.091   2.426   4.557
 5605SOL     OW17713   0.079   1.060   5.037
 5605SOL    HW117714   0.169   1.033   5.071
 5605SOL    HW217715   0.061   1.155   5.060
 5606SOL     OW17716   5.319   6.807   0.333
 5606SOL    HW117717   5.261   6.856   0.399
 5606SOL    HW217718   5.413   6.806   0.366
 5607SOL     OW17719   5.430   1.200   2.870
 5607SOL    HW117720   5.332   1.201   2.888
 5607SOL    HW217721   5.479   1.203   2.957
 5608SOL     OW17722   5.469   0.513   3.804
 5608SOL    HW117723   5.462   0.613   3.800
 5608SOL    HW217724   5.469   0.484   3.899
 5609SOL     OW17725   3.116   5.755   1.568
 5609SOL    HW117726   3.174   5.782   1.645
 5609SOL    HW217727   3.103   5.834   1.507
 5610SOL     OW17728   4.687   6.031   0.297
 5610SOL    HW117729   4.603   5.999   0.341
 5610SOL    HW217730   4.671   6.040   0.199
 5611SOL     OW17731   0.977   5.851   2.894
 5611SOL    HW117732   1.035   5.894   2.824
 5611SOL    HW217733   0.936   5.922   2.951
 5612SOL     OW17734   3.741   2.237   5.870
 5612SOL    HW117735   3.651   2.209   5.839
 5612SOL    HW217736   3.791   2.157   5.905
 5613SOL     OW17737   6.613   4.694   3.639
 5613SOL    HW117738   6.558   4.756   3.582
 5613SOL    HW217739   6.705   4.686   3.601
 5614SOL     OW17740   4.529   2.223   4.205
 5614SOL    HW117741   4.430   2.226   4.190
 5614SOL    HW217742   4.548   2.187   4.296
 5615SOL     OW17743   0.105   1.795   3.704
 5615SOL    HW117744   0.138   1.829   3.615
 5615SOL    HW217745   0.153   1.711   3.728
 5616SOL     OW17746   2.736   2.300   4.306
 5616SOL    HW117747   2.792   2.254   4.236
 5616SOL    HW217748   2.664   2.353   4.262
 5617SOL     OW17749   3.033   6.062   6.103
 5617SOL    HW117750   3.075   6.137   6.154
 5617SOL    HW217751   3.071   6.060   6.010
 5618SOL     OW17752   0.330   4.467   3.378
 5618SOL    HW117753   0.362   4.376   3.405
 5618SOL    HW217754   0.340   4.531   3.454
 5619SOL     OW17755   3.321   3.885   4.747
 5619SOL    HW117756   3.309   3.833   4.663
 5619SOL    HW217757   3.310   3.983   4.728
 5620SOL     OW17758   4.350   3.308   0.427
 5620SOL    HW117759   4.332   3.303   0.526
 5620SOL    HW217760   4.269   3.278   0.377
 5621SOL     OW17761   2.411   2.843   0.223
 5621SOL    HW117762   2.383   2.848   0.319
 5621SOL    HW217763   2.497   2.893   0.211
 5622SOL     OW17764   4.668   0.866   5.709
 5622SOL    HW117765   4.731   0.803   5.754
 5622SOL    HW217766   4.635   0.826   5.624
 5623SOL     OW17767   3.653   5.314   5.642
 5623SOL    HW117768   3.693   5.403   5.618
 5623SOL    HW217769   3.688   5.244   5.580
 5624SOL     OW17770   1.057   4.671   3.500
 5624SOL    HW117771   1.140   4.615   3.505
 5624SOL    HW217772   0.977   4.612   3.506
 5625SOL     OW17773   5.505   0.716   5.287
 5625SOL    HW117774   5.418   0.668   5.299
 5625SOL    HW217775   5.527   0.721   5.189
 5626SOL     OW17776   2.307   6.152   4.530
 5626SOL    HW117777   2.230   6.205   4.494
 5626SOL    HW217778   2.317   6.171   4.628
 5627SOL     OW17779   0.274   5.932   6.116
 5627SOL    HW117780   0.281   5.908   6.212
 5627SOL    HW217781   0.209   6.007   6.105
 5628SOL     OW17782   1.286   2.004   1.768
 5628SOL    HW117783   1.319   1.951   1.689
 5628SOL    HW217784   1.266   2.098   1.739
 5629SOL     OW17785   3.769   3.704   2.483
 5629SOL    HW117786   3.672   3.691   2.464
 5629SOL    HW217787   3.783   3.710   2.581
 5630SOL     OW17788   1.108   3.574   6.709
 5630SOL    HW117789   1.113   3.641   6.634
 5630SOL    HW217790   1.014   3.543   6.720
 5631SOL     OW17791   4.497   2.102   1.081
 5631SOL    HW117792   4.460   2.191   1.055
 5631SOL    HW217793   4.441   2.029   1.042
 5632SOL     OW17794   3.193   2.463   6.203
 5632SOL    HW117795   3.146   2.417   6.279
 5632SOL    HW217796   3.155   2.554   6.190
 5633SOL     OW17797   6.213   3.909   4.488
 5633SOL    HW117798   6.205   3.855   4.404
 5633SOL    HW217799   6.227   4.005   4.465
 5634SOL     OW17800   2.255   4.824   4.573
 5634SOL    HW117801   2.225   4.906   4.524
 5634SOL    HW217802   2.182   4.756   4.570
 5635SOL     OW17803   1.648   4.468   5.148
 5635SOL    HW117804   1.741   4.472   5.112
 5635SOL    HW217805   1.648   4.420   5.236
 5636SOL     OW17806   4.779   6.695   4.255
 5636SOL    HW117807   4.700   6.649   4.215
 5636SOL    HW217808   4.753   6.788   4.283
 5637SOL     OW17809   5.217   0.650   3.396
 5637SOL    HW117810   5.256   0.577   3.340
 5637SOL    HW217811   5.221   0.624   3.492
 5638SOL     OW17812   6.071   3.831   0.966
 5638SOL    HW117813   6.149   3.843   0.905
 5638SOL    HW217814   5.987   3.856   0.919
 5639SOL     OW17815   0.899   0.693   2.336
 5639SOL    HW117816   0.899   0.788   2.303
 5639SOL    HW217817   0.888   0.631   2.259
 5640SOL     OW17818   3.649   0.009   3.530
 5640SOL    HW117819   3.688   0.019   3.621
 5640SOL    HW217820   3.723   7.011   3.464
 5641SOL     OW17821   1.074   4.857   5.331
 5641SOL    HW117822   1.019   4.913   5.393
 5641SOL    HW217823   1.165   4.844   5.369
 5642SOL     OW17824   1.549   6.476   5.268
 5642SOL    HW117825   1.478   6.474   5.198
 5642SOL    HW217826   1.547   6.391   5.321
 5643SOL     OW17827   3.981   0.804   5.385
 5643SOL    HW117828   3.946   0.717   5.420
 5643SOL    HW217829   3.923   0.879   5.415
 5644SOL     OW17830   2.877   0.356   5.345
 5644SOL    HW117831   2.852   0.384   5.437
 5644SOL    HW217832   2.798   0.364   5.285
 5645SOL     OW17833   6.447   5.048   3.889
 5645SOL    HW117834   6.514   5.107   3.934
 5645SOL    HW217835   6.469   4.952   3.907
 5646SOL     OW17836   1.627   5.038   3.268
 5646SOL    HW117837   1.679   5.093   3.333
 5646SOL    HW217838   1.535   5.022   3.304
 5647SOL     OW17839   4.528   5.526   1.503
 5647SOL    HW117840   4.439   5.538   1.459
 5647SOL    HW217841   4.539   5.431   1.532
 5648SOL     OW17842   2.026   6.166   2.369
 5648SOL    HW117843   2.074   6.091   2.415
 5648SOL    HW217844   2.070   6.253   2.391
 5649SOL     OW17845   0.615   6.692   4.069
 5649SOL    HW117846   0.678   6.738   4.006
 5649SOL    HW217847   0.667   6.633   4.131
 5650SOL     OW17848   0.274   5.564   0.903
 5650SOL    HW117849   0.181   5.528   0.903
 5650SOL    HW217850   0.274   5.658   0.938
 5651SOL     OW17851   1.513   0.520   1.177
 5651SOL    HW117852   1.560   0.569   1.103
 5651SOL    HW217853   1.475   0.586   1.242
 5652SOL     OW17854   6.175   6.846   1.510
 5652SOL    HW117855   6.086   6.871   1.550
 5652SOL    HW217856   6.246   6.905   1.548
 5653SOL     OW17857   6.255   6.332   6.358
 5653SOL    HW117858   6.292   6.405   6.415
 5653SOL    HW217859   6.198   6.272   6.414
 5654SOL     OW17860   0.753   6.773   4.835
 5654SOL    HW117861   0.757   6.819   4.746
 5654SOL    HW217862   0.673   6.804   4.885
 5655SOL     OW17863   1.039   3.312   3.689
 5655SOL    HW117864   0.941   3.296   3.678
 5655SOL    HW217865   1.090   3.252   3.627
 5656SOL     OW17866   6.918   4.110   6.502
 5656SOL    HW117867   6.977   4.034   6.530
 5656SOL    HW217868   6.914   4.178   6.575
 5657SOL     OW17869   6.033   2.870   6.417
 5657SOL    HW117870   5.950   2.875   6.361
 5657SOL    HW217871   6.048   2.957   6.464
 5658SOL     OW17872   3.187   2.912   6.338
 5658SOL    HW117873   3.132   2.980   6.289
 5658SOL    HW217874   3.230   2.955   6.417
 5659SOL     OW17875   3.236   3.304   5.440
 5659SOL    HW117876   3.286   3.342   5.518
 5659SOL    HW217877   3.188   3.378   5.392
 5660SOL     OW17878   4.308   6.559   6.291
 5660SOL    HW117879   4.232   6.618   6.318
 5660SOL    HW217880   4.339   6.506   6.369
 5661SOL     OW17881   1.587   5.728   5.019
 5661SOL    HW117882   1.565   5.675   5.101
 5661SOL    HW217883   1.597   5.825   5.043
 5662SOL     OW17884   2.939   6.778   3.300
 5662SOL    HW117885   2.931   6.843   3.375
 5662SOL    HW217886   2.989   6.820   3.224
 5663SOL     OW17887   2.510   2.278   0.728
 5663SOL    HW117888   2.495   2.219   0.807
 5663SOL    HW217889   2.528   2.222   0.647
 5664SOL     OW17890   6.753   3.337   4.204
 5664SOL    HW117891   6.725   3.256   4.152
 5664SOL    HW217892   6.832   3.379   4.159
 5665SOL     OW17893   1.971   0.530   0.240
 5665SOL    HW117894   1.938   0.437   0.232
 5665SOL    HW217895   2.033   0.551   0.165
 5666SOL     OW17896   6.512   0.067   3.549
 5666SOL    HW117897   6.452   0.051   3.471
 5666SOL    HW217898   6.598   0.106   3.517
 5667SOL     OW17899   1.561   4.745   4.744
 5667SOL    HW117900   1.587   4.649   4.750
 5667SOL    HW217901   1.643   4.802   4.733
 5668SOL     OW17902   5.595   3.181   2.926
 5668SOL    HW117903   5.605   3.281   2.932
 5668SOL    HW217904   5.527   3.151   2.993
 5669SOL     OW17905   6.651   3.771   1.131
 5669SOL    HW117906   6.682   3.705   1.200
 5669SOL    HW217907   6.556   3.753   1.108
 5670SOL     OW17908   1.349   3.918   4.001
 5670SOL    HW117909   1.308   3.973   4.074
 5670SOL    HW217910   1.427   3.867   4.038
 5671SOL     OW17911   5.888   5.796   5.455
 5671SOL    HW117912   5.963   5.732   5.468
 5671SOL    HW217913   5.905   5.879   5.507
 5672SOL     OW17914   4.655   3.757   6.752
 5672SOL    HW117915   4.617   3.821   6.819
 5672SOL    HW217916   4.625   3.783   6.661
 5673SOL     OW17917   1.635   6.949   0.727
 5673SOL    HW117918   1.571   0.001   0.700
 5673SOL    HW217919   1.670   6.967   0.819
 5674SOL     OW17920   1.217   4.511   5.255
 5674SOL    HW117921   1.302   4.516   5.201
 5674SOL    HW217922   1.139   4.507   5.193
 5675SOL     OW17923   4.727   3.126   6.220
 5675SOL    HW117924   4.805   3.083   6.176
 5675SOL    HW217925   4.749   3.147   6.316
 5676SOL     OW17926   2.101   1.810   2.672
 5676SOL    HW117927   2.085   1.808   2.771
 5676SOL    HW217928   2.107   1.905   2.641
 5677SOL     OW17929   0.840   0.982   0.701
 5677SOL    HW117930   0.844   0.953   0.797
 5677SOL    HW217931   0.905   1.057   0.686
 5678SOL     OW17932   4.076   0.015   2.879
 5678SOL    HW117933   3.998   0.076   2.862
 5678SOL    HW217934   4.041   6.945   2.907
 5679SOL     OW17935   6.153   1.548   3.763
 5679SOL    HW117936   6.099   1.626   3.792
 5679SOL    HW217937   6.143   1.474   3.829
 5680SOL     OW17938   1.443   5.352   6.720
 5680SOL    HW117939   1.386   5.409   6.661
 5680SOL    HW217940   1.523   5.404   6.750
 5681SOL     OW17941   0.623   3.891   2.121
 5681SOL    HW117942   0.694   3.955   2.090
 5681SOL    HW217943   0.616   3.816   2.056
 5682SOL     OW17944   1.858   5.439   4.733
 5682SOL    HW117945   1.791   5.512   4.747
 5682SOL    HW217946   1.934   5.473   4.678
 5683SOL     OW17947   3.955   1.265   5.722
 5683SOL    HW117948   3.894   1.214   5.782
 5683SOL    HW217949   4.044   1.278   5.767
 5684SOL     OW17950   2.343   3.879   6.261
 5684SOL    HW117951   2.269   3.812   6.268
 5684SOL    HW217952   2.377   3.880   6.167
 5685SOL     OW17953   2.747   1.279   3.448
 5685SOL    HW117954   2.829   1.253   3.397
 5685SOL    HW217955   2.759   1.371   3.486
 5686SOL     OW17956   2.933   1.925   6.057
 5686SOL    HW117957   2.853   1.950   6.002
 5686SOL    HW217958   2.963   1.833   6.032
 5687SOL     OW17959   0.405   5.262   6.208
 5687SOL    HW117960   0.474   5.304   6.267
 5687SOL    HW217961   0.314   5.297   6.234
 5688SOL     OW17962   1.606   2.350   2.631
 5688SOL    HW117963   1.534   2.322   2.567
 5688SOL    HW217964   1.657   2.427   2.592
 5689SOL     OW17965   2.896   1.220   1.743
 5689SOL    HW117966   2.939   1.210   1.653
 5689SOL    HW217967   2.966   1.218   1.814
 5690SOL     OW17968   1.632   6.053   6.947
 5690SOL    HW117969   1.717   6.105   6.939
 5690SOL    HW217970   1.575   6.071   6.867
 5691SOL     OW17971   3.869   0.450   1.745
 5691SOL    HW117972   3.833   0.537   1.712
 5691SOL    HW217973   3.938   0.417   1.680
 5692SOL     OW17974   5.579   4.218   0.571
 5692SOL    HW117975   5.523   4.150   0.525
 5692SOL    HW217976   5.525   4.265   0.641
 5693SOL     OW17977   4.246   1.335   2.427
 5693SOL    HW117978   4.209   1.267   2.363
 5693SOL    HW217979   4.341   1.353   2.405
 5694SOL     OW17980   1.190   0.850   2.698
 5694SOL    HW117981   1.135   0.768   2.681
 5694SOL    HW217982   1.265   0.854   2.632
 5695SOL     OW17983   1.492   1.803   3.943
 5695SOL    HW117984   1.591   1.792   3.945
 5695SOL    HW217985   1.462   1.819   3.849
 5696SOL     OW17986   0.952   0.131   4.098
 5696SOL    HW117987   0.894   0.160   4.175
 5696SOL    HW217988   1.048   0.141   4.123
 5697SOL     OW17989   5.725   2.154   1.933
 5697SOL    HW117990   5.655   2.179   2.000
 5697SOL    HW217991   5.815   2.156   1.978
 5698SOL     OW17992   0.788   4.550   3.444
 5698SOL    HW117993   0.762   4.533   3.539
 5698SOL    HW217994   0.724   4.615   3.403
 5699SOL     OW17995   1.111   2.767   2.810
 5699SOL    HW117996   1.139   2.718   2.892
 5699SOL    HW217997   1.180   2.835   2.787
 5700SOL     OW17998   6.641   0.049   4.068
 5700SOL    HW117999   6.658   6.983   4.020
 5700SOL    HW218000   6.711   0.116   4.044
 5701SOL     OW18001   0.856   0.447   1.071
 5701SOL    HW118002   0.835   0.354   1.042
 5701SOL    HW218003   0.953   0.454   1.095
 5702SOL     OW18004   2.521   5.431   4.726
 5702SOL    HW118005   2.611   5.473   4.724
 5702SOL    HW218006   2.512   5.374   4.808
 5703SOL     OW18007   6.415   4.539   0.322
 5703SOL    HW118008   6.396   4.457   0.268
 5703SOL    HW218009   6.342   4.554   0.388
 5704SOL     OW18010   4.950   4.176   3.286
 5704SOL    HW118011   4.930   4.098   3.226
 5704SOL    HW218012   4.949   4.145   3.381
 5705SOL     OW18013   5.234   6.429   6.823
 5705SOL    HW118014   5.155   6.478   6.787
 5705SOL    HW218015   5.242   6.340   6.778
 5706SOL     OW18016   6.197   2.569   2.126
 5706SOL    HW118017   6.265   2.611   2.066
 5706SOL    HW218018   6.228   2.478   2.153
 5707SOL     OW18019   6.348   0.020   0.964
 5707SOL    HW118020   6.287   0.036   1.041
 5707SOL    HW218021   6.369   6.942   0.957
 5708SOL     OW18022   4.932   5.348   2.319
 5708SOL    HW118023   4.914   5.290   2.399
 5708SOL    HW218024   5.030   5.355   2.304
 5709SOL     OW18025   0.816   1.209   2.360
 5709SOL    HW118026   0.856   1.237   2.448
 5709SOL    HW218027   0.884   1.219   2.288
 5710SOL     OW18028   3.471   2.629   0.639
 5710SOL    HW118029   3.389   2.671   0.680
 5710SOL    HW218030   3.548   2.640   0.702
 5711SOL     OW18031   4.926   1.245   2.183
 5711SOL    HW118032   4.831   1.243   2.151
 5711SOL    HW218033   4.948   1.336   2.216
 5712SOL     OW18034   6.203   6.691   6.995
 5712SOL    HW118035   6.261   6.715   0.053
 5712SOL    HW218036   6.107   6.703   0.003
 5713SOL     OW18037   2.686   3.933   1.575
 5713SOL    HW118038   2.746   3.983   1.512
 5713SOL    HW218039   2.603   3.987   1.591
 5714SOL     OW18040   0.015   6.216   1.114
 5714SOL    HW118041   7.013   6.130   1.160
 5714SOL    HW218042   6.955   6.277   1.119
 5715SOL     OW18043   0.711   0.606   2.534
 5715SOL    HW118044   0.785   0.621   2.467
 5715SOL    HW218045   0.623   0.609   2.487
 5716SOL     OW18046   1.433   5.026   5.867
 5716SOL    HW118047   1.407   5.066   5.779
 5716SOL    HW218048   1.519   5.066   5.898
 5717SOL     OW18049   1.855   4.826   0.643
 5717SOL    HW118050   1.818   4.852   0.553
 5717SOL    HW218051   1.887   4.731   0.639
 5718SOL     OW18052   0.796   3.594   0.522
 5718SOL    HW118053   0.886   3.600   0.479
 5718SOL    HW218054   0.758   3.686   0.533
 5719SOL     OW18055   2.119   3.121   0.364
 5719SOL    HW118056   2.164   3.130   0.276
 5719SOL    HW218057   2.124   3.026   0.396
 5720SOL     OW18058   1.886   6.535   4.853
 5720SOL    HW118059   1.817   6.477   4.811
 5720SOL    HW218060   1.844   6.591   4.925
 5721SOL     OW18061   5.624   4.038   0.837
 5721SOL    HW118062   5.542   4.078   0.796
 5721SOL    HW218063   5.687   4.111   0.864
 5722SOL     OW18064   6.839   2.285   5.229
 5722SOL    HW118065   6.772   2.359   5.233
 5722SOL    HW218066   6.809   2.217   5.162
 5723SOL     OW18067   3.860   3.107   0.138
 5723SOL    HW118068   3.906   3.195   0.131
 5723SOL    HW218069   3.789   3.111   0.208
 5724SOL     OW18070   5.735   2.682   4.299
 5724SOL    HW118071   5.731   2.637   4.210
 5724SOL    HW218072   5.817   2.739   4.304
 5725SOL     OW18073   6.092   5.157   3.641
 5725SOL    HW118074   6.029   5.187   3.713
 5725SOL    HW218075   6.152   5.233   3.615
 5726SOL     OW18076   6.905   5.799   4.099
 5726SOL    HW118077   6.838   5.729   4.076
 5726SOL    HW218078   6.963   5.768   4.175
 5727SOL     OW18079   6.007   2.475   4.395
 5727SOL    HW118080   5.994   2.566   4.354
 5727SOL    HW218081   6.006   2.406   4.322
 5728SOL     OW18082   4.658   6.462   5.736
 5728SOL    HW118083   4.684   6.369   5.710
 5728SOL    HW218084   4.561   6.463   5.763
 5729SOL     OW18085   2.143   0.623   0.018
 5729SOL    HW118086   2.065   0.628   6.976
 5729SOL    HW218087   2.228   0.624   6.985
 5730SOL     OW18088   5.177   4.936   5.992
 5730SOL    HW118089   5.275   4.935   6.009
 5730SOL    HW218090   5.129   4.967   6.074
 5731SOL     OW18091   0.274   0.210   2.989
 5731SOL    HW118092   0.238   0.145   2.922
 5731SOL    HW218093   0.371   0.192   3.005
 5732SOL     OW18094   0.771   5.491   3.800
 5732SOL    HW118095   0.855   5.454   3.838
 5732SOL    HW218096   0.769   5.476   3.701
 5733SOL     OW18097   3.041   6.570   5.305
 5733SOL    HW118098   3.026   6.615   5.217
 5733SOL    HW218099   3.058   6.472   5.291
 5734SOL     OW18100   1.352   0.282   5.425
 5734SOL    HW118101   1.310   0.372   5.436
 5734SOL    HW218102   1.285   0.217   5.390
 5735SOL     OW18103   4.013   1.743   1.246
 5735SOL    HW118104   4.064   1.680   1.304
 5735SOL    HW218105   3.967   1.692   1.174
 5736SOL     OW18106   6.045   4.404   0.244
 5736SOL    HW118107   6.123   4.419   0.182
 5736SOL    HW218108   6.063   4.324   0.301
 5737SOL     OW18109   6.166   6.246   6.962
 5737SOL    HW118110   6.070   6.217   6.970
 5737SOL    HW218111   6.170   6.330   6.907
 5738SOL     OW18112   2.244   2.745   6.252
 5738SOL    HW118113   2.151   2.779   6.262
 5738SOL    HW218114   2.246   2.674   6.182
 5739SOL     OW18115   1.871   1.124   5.886
 5739SOL    HW118116   1.893   1.151   5.980
 5739SOL    HW218117   1.774   1.142   5.868
 5740SOL     OW18118   4.316   4.693   0.868
 5740SOL    HW118119   4.250   4.741   0.809
 5740SOL    HW218120   4.340   4.751   0.945
 5741SOL     OW18121   0.549   5.615   4.424
 5741SOL    HW118122   0.467   5.625   4.368
 5741SOL    HW218123   0.603   5.538   4.390
 5742SOL     OW18124   5.388   6.022   2.751
 5742SOL    HW118125   5.308   6.002   2.807
 5742SOL    HW218126   5.406   6.121   2.752
 5743SOL     OW18127   2.530   6.647   4.923
 5743SOL    HW118128   2.595   6.651   4.846
 5743SOL    HW218129   2.514   6.552   4.948
 5744SOL     OW18130   4.506   6.882   1.882
 5744SOL    HW118131   4.605   6.894   1.893
 5744SOL    HW218132   4.463   6.972   1.867
 5745SOL     OW18133   3.847   0.635   4.241
 5745SOL    HW118134   3.891   0.635   4.331
 5745SOL    HW218135   3.752   0.604   4.250
 5746SOL     OW18136   4.965   0.521   1.022
 5746SOL    HW118137   5.064   0.506   1.025
 5746SOL    HW218138   4.929   0.519   1.116
 5747SOL     OW18139   0.499   5.221   2.441
 5747SOL    HW118140   0.485   5.126   2.412
 5747SOL    HW218141   0.527   5.223   2.537
 5748SOL     OW18142   1.541   5.168   0.693
 5748SOL    HW118143   1.469   5.100   0.676
 5748SOL    HW218144   1.613   5.126   0.749
 5749SOL     OW18145   3.094   1.026   4.754
 5749SOL    HW118146   3.175   1.013   4.697
 5749SOL    HW218147   3.055   0.937   4.777
 5750SOL     OW18148   6.310   5.109   5.041
 5750SOL    HW118149   6.320   5.010   5.048
 5750SOL    HW218150   6.213   5.133   5.045
 5751SOL     OW18151   2.315   2.844   4.530
 5751SOL    HW118152   2.358   2.755   4.514
 5751SOL    HW218153   2.318   2.865   4.628
 5752SOL     OW18154   6.547   0.569   6.432
 5752SOL    HW118155   6.588   0.596   6.519
 5752SOL    HW218156   6.529   0.650   6.376
 5753SOL     OW18157   2.715   3.595   6.201
 5753SOL    HW118158   2.811   3.612   6.224
 5753SOL    HW218159   2.684   3.664   6.135
 5754SOL     OW18160   5.634   5.456   1.256
 5754SOL    HW118161   5.658   5.546   1.292
 5754SOL    HW218162   5.535   5.444   1.261
 5755SOL     OW18163   2.557   3.628   5.733
 5755SOL    HW118164   2.526   3.673   5.649
 5755SOL    HW218165   2.630   3.563   5.710
 5756SOL     OW18166   6.250   5.349   3.554
 5756SOL    HW118167   6.334   5.313   3.513
 5756SOL    HW218168   6.272   5.394   3.641
 5757SOL     OW18169   6.609   6.351   2.856
 5757SOL    HW118170   6.651   6.315   2.940
 5757SOL    HW218171   6.572   6.442   2.874
 5758SOL     OW18172   3.136   1.690   3.721
 5758SOL    HW118173   3.072   1.732   3.786
 5758SOL    HW218174   3.197   1.627   3.769
 5759SOL     OW18175   4.935   1.631   6.125
 5759SOL    HW118176   4.969   1.718   6.161
 5759SOL    HW218177   4.840   1.618   6.155
 5760SOL     OW18178   1.649   5.490   1.812
 5760SOL    HW118179   1.707   5.566   1.842
 5760SOL    HW218180   1.643   5.423   1.887
 5761SOL     OW18181   5.109   0.810   6.094
 5761SOL    HW118182   5.205   0.797   6.119
 5761SOL    HW218183   5.055   0.825   6.177
 5762SOL     OW18184   5.033   6.742   6.983
 5762SOL    HW118185   4.971   6.683   0.014
 5762SOL    HW218186   5.127   6.725   7.011
 5763SOL     OW18187   0.463   0.181   0.618
 5763SOL    HW118188   0.456   0.193   0.717
 5763SOL    HW218189   0.386   0.227   0.573
 5764SOL     OW18190   5.554   4.628   6.438
 5764SOL    HW118191   5.539   4.530   6.444
 5764SOL    HW218192   5.602   4.660   6.520
 5765SOL     OW18193   6.630   4.123   6.487
 5765SOL    HW118194   6.591   4.086   6.403
 5765SOL    HW218195   6.716   4.076   6.507
 5766SOL     OW18196   2.928   1.645   0.775
 5766SOL    HW118197   2.845   1.630   0.720
 5766SOL    HW218198   2.904   1.691   0.860
 5767SOL     OW18199   2.541   6.997   0.108
 5767SOL    HW118200   2.585   0.066   0.128
 5767SOL    HW218201   2.518   6.993   0.011
 5768SOL     OW18202   7.000   6.870   3.206
 5768SOL    HW118203   0.008   6.820   3.124
 5768SOL    HW218204   0.027   6.958   3.208
 5769SOL     OW18205   2.785   7.014   3.490
 5769SOL    HW118206   2.872   0.011   3.537
 5769SOL    HW218207   2.723   0.071   3.507
 5770SOL     OW18208   0.082   6.548   1.027
 5770SOL    HW118209   0.006   6.553   1.092
 5770SOL    HW218210   0.124   6.457   1.031
 5771SOL     OW18211   1.201   5.866   1.503
 5771SOL    HW118212   1.242   5.885   1.414
 5771SOL    HW218213   1.169   5.951   1.544
 5772SOL     OW18214   5.952   2.768   0.607
 5772SOL    HW118215   5.999   2.841   0.556
 5772SOL    HW218216   5.977   2.774   0.704
 5773SOL     OW18217   5.546   0.487   4.084
 5773SOL    HW118218   5.642   0.505   4.063
 5773SOL    HW218219   5.539   0.445   4.175
 5774SOL     OW18220   2.371   5.479   4.167
 5774SOL    HW118221   2.426   5.554   4.205
 5774SOL    HW218222   2.425   5.431   4.099
 5775SOL     OW18223   1.431   0.208   1.355
 5775SOL    HW118224   1.377   0.162   1.284
 5775SOL    HW218225   1.394   0.185   1.445
 5776SOL     OW18226   0.059   0.650   6.133
 5776SOL    HW118227   0.103   0.692   6.213
 5776SOL    HW218228   6.985   0.622   6.157
 5777SOL     OW18229   5.936   0.782   4.165
 5777SOL    HW118230   5.979   0.730   4.238
 5777SOL    HW218231   5.950   0.880   4.181
 5778SOL     OW18232   2.043   0.049   1.934
 5778SOL    HW118233   2.074   0.141   1.957
 5778SOL    HW218234   2.112   0.005   1.876
 5779SOL     OW18235   4.051   0.461   1.252
 5779SOL    HW118236   4.145   0.426   1.250
 5779SOL    HW218237   4.052   0.561   1.249
 5780SOL     OW18238   6.168   5.195   2.341
 5780SOL    HW118239   6.110   5.130   2.292
 5780SOL    HW218240   6.261   5.189   2.306
 5781SOL     OW18241   2.006   4.288   4.865
 5781SOL    HW118242   2.087   4.338   4.833
 5781SOL    HW218243   1.932   4.298   4.799
 5782SOL     OW18244   1.697   1.183   1.985
 5782SOL    HW118245   1.724   1.233   2.067
 5782SOL    HW218246   1.654   1.246   1.920
 5783SOL     OW18247   1.585   1.530   1.053
 5783SOL    HW118248   1.623   1.453   1.001
 5783SOL    HW218249   1.597   1.513   1.151
 5784SOL     OW18250   0.442   6.594   0.099
 5784SOL    HW118251   0.467   6.665   0.166
 5784SOL    HW218252   0.505   6.517   0.108
 5785SOL     OW18253   1.261   1.934   1.087
 5785SOL    HW118254   1.320   1.977   1.156
 5785SOL    HW218255   1.314   1.868   1.035
 5786SOL     OW18256   1.376   3.723   1.197
 5786SOL    HW118257   1.313   3.650   1.221
 5786SOL    HW218258   1.416   3.705   1.107
 5787SOL     OW18259   5.109   2.534   4.274
 5787SOL    HW118260   5.064   2.447   4.252
 5787SOL    HW218261   5.159   2.567   4.194
 5788SOL     OW18262   2.721   0.090   1.060
 5788SOL    HW118263   2.640   0.132   1.102
 5788SOL    HW218264   2.691   0.024   0.991
 5789SOL     OW18265   3.962   3.006   6.160
 5789SOL    HW118266   3.915   3.006   6.072
 5789SOL    HW218267   3.996   2.914   6.179
 5790SOL     OW18268   6.762   5.810   5.198
 5790SOL    HW118269   6.738   5.817   5.101
 5790SOL    HW218270   6.760   5.714   5.226
 5791SOL     OW18271   3.543   1.180   2.399
 5791SOL    HW118272   3.472   1.124   2.357
 5791SOL    HW218273   3.524   1.276   2.382
 5792SOL     OW18274   4.869   3.655   3.033
 5792SOL    HW118275   4.856   3.730   2.968
 5792SOL    HW218276   4.878   3.569   2.983
 5793SOL     OW18277   6.018   2.126   5.641
 5793SOL    HW118278   5.974   2.215   5.627
 5793SOL    HW218279   6.106   2.124   5.594
 5794SOL     OW18280   3.334   0.018   6.369
 5794SOL    HW118281   3.417   0.063   6.336
 5794SOL    HW218282   3.318   0.044   6.465
 5795SOL     OW18283   0.978   6.047   1.894
 5795SOL    HW118284   1.063   6.033   1.944
 5795SOL    HW218285   0.924   6.119   1.939
 5796SOL     OW18286   4.744   0.928   6.698
 5796SOL    HW118287   4.687   0.955   6.620
 5796SOL    HW218288   4.742   0.828   6.707
 5797SOL     OW18289   5.705   1.357   0.169
 5797SOL    HW118290   5.717   1.454   0.145
 5797SOL    HW218291   5.787   1.324   0.216
 5798SOL     OW18292   1.059   4.207   4.421
 5798SOL    HW118293   1.154   4.195   4.391
 5798SOL    HW218294   1.020   4.288   4.376
 5799SOL     OW18295   0.717   6.716   2.774
 5799SOL    HW118296   0.723   6.782   2.849
 5799SOL    HW218297   0.624   6.681   2.767
 5800SOL     OW18298   0.874   0.081   0.874
 5800SOL    HW118299   0.819   0.015   0.925
 5800SOL    HW218300   0.827   0.169   0.871
 5801SOL     OW18301   2.605   2.453   3.294
 5801SOL    HW118302   2.615   2.453   3.194
 5801SOL    HW218303   2.537   2.521   3.320
 5802SOL     OW18304   5.966   3.280   2.853
 5802SOL    HW118305   6.049   3.284   2.797
 5802SOL    HW218306   5.928   3.188   2.849
 5803SOL     OW18307   0.956   4.671   3.920
 5803SOL    HW118308   1.005   4.758   3.917
 5803SOL    HW218309   0.924   4.654   4.013
 5804SOL     OW18310   6.890   6.877   3.808
 5804SOL    HW118311   6.878   6.831   3.720
 5804SOL    HW218312   6.977   6.926   3.809
 5805SOL     OW18313   1.193   3.003   0.915
 5805SOL    HW118314   1.104   2.971   0.947
 5805SOL    HW218315   1.265   2.945   0.952
 5806SOL     OW18316   0.045   4.093   4.209
 5806SOL    HW118317   7.005   4.031   4.158
 5806SOL    HW218318   0.042   4.069   4.306
 5807SOL     OW18319   1.003   6.189   0.986
 5807SOL    HW118320   0.955   6.249   1.051
 5807SOL    HW218321   1.101   6.192   1.005
 5808SOL     OW18322   6.923   6.856   4.205
 5808SOL    HW118323   7.009   6.889   4.166
 5808SOL    HW218324   6.872   6.933   4.242
 5809SOL     OW18325   0.296   2.193   5.879
 5809SOL    HW118326   0.261   2.104   5.910
 5809SOL    HW218327   0.250   2.266   5.929
 5810SOL     OW18328   4.296   6.820   4.792
 5810SOL    HW118329   4.308   6.757   4.869
 5810SOL    HW218330   4.376   6.880   4.785
 5811SOL     OW18331   2.903   2.599   5.652
 5811SOL    HW118332   2.814   2.553   5.654
 5811SOL    HW218333   2.930   2.617   5.558
 5812SOL     OW18334   6.287   3.449   0.088
 5812SOL    HW118335   6.204   3.397   0.066
 5812SOL    HW218336   6.366   3.404   0.047
 5813SOL     OW18337   3.507   6.156   1.205
 5813SOL    HW118338   3.524   6.108   1.119
 5813SOL    HW218339   3.580   6.134   1.270
 5814SOL     OW18340   6.850   2.034   2.150
 5814SOL    HW118341   6.890   2.025   2.242
 5814SOL    HW218342   6.814   1.946   2.121
 5815SOL     OW18343   6.014   2.301   4.179
 5815SOL    HW118344   6.027   2.202   4.184
 5815SOL    HW218345   5.955   2.324   4.101
 5816SOL     OW18346   6.990   4.927   1.996
 5816SOL    HW118347   0.011   4.844   2.035
 5816SOL    HW218348   6.892   4.912   1.979
 5817SOL     OW18349   5.378   3.949   5.228
 5817SOL    HW118350   5.286   3.970   5.194
 5817SOL    HW218351   5.426   3.894   5.160
 5818SOL     OW18352   1.109   5.783   5.399
 5818SOL    HW118353   1.017   5.751   5.422
 5818SOL    HW218354   1.106   5.878   5.370
 5819SOL     OW18355   2.805   5.312   0.009
 5819SOL    HW118356   2.869   5.384   0.034
 5819SOL    HW218357   2.724   5.353   6.985
 5820SOL     OW18358   5.042   4.766   2.598
 5820SOL    HW118359   5.056   4.861   2.627
 5820SOL    HW218360   4.950   4.736   2.625
 5821SOL     OW18361   6.543   1.151   1.508
 5821SOL    HW118362   6.457   1.104   1.488
 5821SOL    HW218363   6.619   1.104   1.464
 5822SOL     OW18364   1.393   2.242   2.791
 5822SOL    HW118365   1.473   2.269   2.737
 5822SOL    HW218366   1.368   2.317   2.853
 5823SOL     OW18367   2.349   6.315   4.173
 5823SOL    HW118368   2.264   6.289   4.127
 5823SOL    HW218369   2.327   6.351   4.264
 5824SOL     OW18370   1.067   6.892   2.353
 5824SOL    HW118371   1.100   6.897   2.448
 5824SOL    HW218372   1.103   6.969   2.301
 5825SOL     OW18373   0.214   6.097   4.876
 5825SOL    HW118374   0.116   6.114   4.887
 5825SOL    HW218375   0.229   6.001   4.854
 5826SOL     OW18376   6.767   0.103   5.300
 5826SOL    HW118377   6.677   0.137   5.276
 5826SOL    HW218378   6.769   0.003   5.292
 5827SOL     OW18379   1.184   3.766   4.752
 5827SOL    HW118380   1.263   3.825   4.767
 5827SOL    HW218381   1.210   3.671   4.768
 5828SOL     OW18382   5.276   0.185   4.184
 5828SOL    HW118383   5.301   0.097   4.145
 5828SOL    HW218384   5.282   0.256   4.114
 5829SOL     OW18385   1.595   0.749   4.813
 5829SOL    HW118386   1.503   0.786   4.799
 5829SOL    HW218387   1.592   0.674   4.878
 5830SOL     OW18388   4.054   5.303   5.845
 5830SOL    HW118389   4.098   5.213   5.839
 5830SOL    HW218390   3.958   5.295   5.816
 5831SOL     OW18391   0.741   1.394   5.500
 5831SOL    HW118392   0.781   1.392   5.409
 5831SOL    HW218393   0.645   1.423   5.494
 5832SOL     OW18394   3.372   4.496   1.301
 5832SOL    HW118395   3.465   4.512   1.336
 5832SOL    HW218396   3.347   4.400   1.317
 5833SOL     OW18397   4.156   3.772   5.125
 5833SOL    HW118398   4.108   3.860   5.128
 5833SOL    HW218399   4.205   3.757   5.211
 5834SOL     OW18400   6.783   3.796   6.496
 5834SOL    HW118401   6.737   3.810   6.409
 5834SOL    HW218402   6.840   3.713   6.492
 5835SOL     OW18403   5.920   1.059   2.803
 5835SOL    HW118404   5.843   1.012   2.760
 5835SOL    HW218405   5.964   0.998   2.869
 5836SOL     OW18406   3.261   6.614   2.418
 5836SOL    HW118407   3.179   6.633   2.365
 5836SOL    HW218408   3.334   6.677   2.392
 5837SOL     OW18409   3.585   4.284   0.026
 5837SOL    HW118410   3.636   4.352   6.993
 5837SOL    HW218411   3.492   4.317   0.041
 5838SOL     OW18412   2.789   1.822   1.488
 5838SOL    HW118413   2.863   1.755   1.496
 5838SOL    HW218414   2.819   1.909   1.527
 5839SOL     OW18415   0.475   2.911   1.242
 5839SOL    HW118416   0.375   2.912   1.250
 5839SOL    HW218417   0.510   2.823   1.275
 5840SOL     OW18418   6.902   3.597   1.969
 5840SOL    HW118419   6.899   3.670   2.036
 5840SOL    HW218420   6.839   3.617   1.894
 5841SOL     OW18421   4.745   0.606   1.626
 5841SOL    HW118422   4.770   0.593   1.530
 5841SOL    HW218423   4.822   0.647   1.675
 5842SOL     OW18424   3.727   2.210   0.051
 5842SOL    HW118425   3.713   2.306   0.030
 5842SOL    HW218426   3.747   2.200   0.149
 5843SOL     OW18427   2.110   3.409   1.296
 5843SOL    HW118428   2.207   3.388   1.289
 5843SOL    HW218429   2.056   3.325   1.287
 5844SOL     OW18430   0.247   6.666   5.170
 5844SOL    HW118431   0.222   6.726   5.094
 5844SOL    HW218432   0.321   6.708   5.223
 5845SOL     OW18433   6.991   6.959   1.847
 5845SOL    HW118434   7.019   6.864   1.828
 5845SOL    HW218435   6.894   6.970   1.825
 5846SOL     OW18436   6.562   4.027   5.249
 5846SOL    HW118437   6.467   4.003   5.269
 5846SOL    HW218438   6.585   4.001   5.155
 5847SOL     OW18439   2.551   2.834   1.773
 5847SOL    HW118440   2.644   2.798   1.774
 5847SOL    HW218441   2.486   2.758   1.766
 5848SOL     OW18442   2.486   6.066   4.070
 5848SOL    HW118443   2.477   6.164   4.085
 5848SOL    HW218444   2.395   6.025   4.071
 5849SOL     OW18445   2.250   6.704   5.361
 5849SOL    HW118446   2.231   6.667   5.453
 5849SOL    HW218447   2.171   6.688   5.302
 5850SOL     OW18448   1.324   2.704   1.783
 5850SOL    HW118449   1.307   2.714   1.881
 5850SOL    HW218450   1.408   2.753   1.758
 5851SOL     OW18451   5.273   3.597   4.043
 5851SOL    HW118452   5.229   3.669   4.096
 5851SOL    HW218453   5.370   3.593   4.064
 5852SOL     OW18454   4.532   5.769   3.386
 5852SOL    HW118455   4.580   5.760   3.299
 5852SOL    HW218456   4.498   5.679   3.415
 5853SOL     OW18457   4.027   4.976   4.917
 5853SOL    HW118458   4.013   4.913   4.994
 5853SOL    HW218459   4.114   4.955   4.873
 5854SOL     OW18460   3.728   4.256   5.276
 5854SOL    HW118461   3.762   4.344   5.310
 5854SOL    HW218462   3.776   4.233   5.191
 5855SOL     OW18463   2.288   2.615   3.857
 5855SOL    HW118464   2.307   2.671   3.938
 5855SOL    HW218465   2.250   2.672   3.784
 5856SOL     OW18466   1.518   6.698   2.463
 5856SOL    HW118467   1.539   6.654   2.376
 5856SOL    HW218468   1.488   6.792   2.446
 5857SOL     OW18469   0.108   2.980   5.706
 5857SOL    HW118470   0.015   2.961   5.738
 5857SOL    HW218471   0.130   2.918   5.630
 5858SOL     OW18472   2.524   2.085   2.492
 5858SOL    HW118473   2.558   2.024   2.564
 5858SOL    HW218474   2.534   2.180   2.522
 5859SOL     OW18475   5.473   6.268   2.025
 5859SOL    HW118476   5.504   6.353   1.982
 5859SOL    HW218477   5.382   6.281   2.062
 5860SOL     OW18478   0.366   4.353   3.109
 5860SOL    HW118479   0.356   4.383   3.204
 5860SOL    HW218480   0.358   4.254   3.104
 5861SOL     OW18481   5.744   0.436   5.041
 5861SOL    HW118482   5.763   0.406   5.135
 5861SOL    HW218483   5.678   0.511   5.043
 5862SOL     OW18484   6.091   5.667   2.537
 5862SOL    HW118485   6.007   5.681   2.484
 5862SOL    HW218486   6.151   5.746   2.525
 5863SOL     OW18487   3.094   0.836   4.419
 5863SOL    HW118488   3.192   0.854   4.427
 5863SOL    HW218489   3.076   0.782   4.337
 5864SOL     OW18490   3.336   3.818   3.074
 5864SOL    HW118491   3.412   3.784   3.018
 5864SOL    HW218492   3.323   3.759   3.153
 5865SOL     OW18493   5.438   1.233   5.571
 5865SOL    HW118494   5.452   1.137   5.549
 5865SOL    HW218495   5.508   1.288   5.525
 5866SOL     OW18496   3.467   2.834   0.930
 5866SOL    HW118497   3.448   2.864   1.023
 5866SOL    HW218498   3.524   2.752   0.933
 5867SOL     OW18499   2.049   2.151   1.557
 5867SOL    HW118500   2.109   2.171   1.480
 5867SOL    HW218501   1.954   2.160   1.529
 5868SOL     OW18502   1.084   1.937   5.898
 5868SOL    HW118503   1.166   1.882   5.914
 5868SOL    HW218504   1.006   1.876   5.883
 5869SOL     OW18505   1.634   4.425   3.416
 5869SOL    HW118506   1.717   4.407   3.363
 5869SOL    HW218507   1.592   4.510   3.384
 5870SOL     OW18508   3.904   4.996   5.797
 5870SOL    HW118509   3.840   4.993   5.874
 5870SOL    HW218510   3.889   4.916   5.738
 5871SOL     OW18511   4.009   3.879   2.951
 5871SOL    HW118512   4.015   3.950   2.881
 5871SOL    HW218513   3.936   3.903   3.016
 5872SOL     OW18514   4.143   6.046   1.402
 5872SOL    HW118515   4.209   5.970   1.403
 5872SOL    HW218516   4.080   6.034   1.325
 5873SOL     OW18517   2.779   5.335   2.178
 5873SOL    HW118518   2.779   5.239   2.207
 5873SOL    HW218519   2.860   5.381   2.215
 5874SOL     OW18520   2.143   4.059   5.255
 5874SOL    HW118521   2.209   4.037   5.184
 5874SOL    HW218522   2.183   4.043   5.346
 5875SOL     OW18523   3.375   2.201   0.428
 5875SOL    HW118524   3.276   2.189   0.421
 5875SOL    HW218525   3.417   2.180   0.340
 5876SOL     OW18526   4.023   3.527   2.450
 5876SOL    HW118527   4.018   3.546   2.548
 5876SOL    HW218528   4.004   3.430   2.434
 5877SOL     OW18529   5.951   6.232   0.832
 5877SOL    HW118530   5.952   6.134   0.848
 5877SOL    HW218531   5.949   6.250   0.734
 5878SOL     OW18532   1.338   6.389   3.732
 5878SOL    HW118533   1.394   6.363   3.811
 5878SOL    HW218534   1.284   6.311   3.702
 5879SOL     OW18535   6.919   3.662   0.576
 5879SOL    HW118536   6.854   3.712   0.519
 5879SOL    HW218537   6.969   3.726   0.635
 5880SOL     OW18538   2.948   5.493   0.793
 5880SOL    HW118539   3.034   5.462   0.834
 5880SOL    HW218540   2.922   5.432   0.719
 5881SOL     OW18541   0.363   4.937   3.452
 5881SOL    HW118542   0.440   4.978   3.404
 5881SOL    HW218543   0.315   4.874   3.391
 5882SOL     OW18544   6.297   6.488   1.210
 5882SOL    HW118545   6.393   6.503   1.188
 5882SOL    HW218546   6.278   6.524   1.302
 5883SOL     OW18547   0.637   2.333   6.683
 5883SOL    HW118548   0.595   2.248   6.715
 5883SOL    HW218549   0.733   2.336   6.712
 5884SOL     OW18550   2.501   1.161   3.432
 5884SOL    HW118551   2.596   1.189   3.447
 5884SOL    HW218552   2.495   1.110   3.347
 5885SOL     OW18553   6.568   6.863   1.669
 5885SOL    HW118554   6.546   6.770   1.697
 5885SOL    HW218555   6.615   6.862   1.581
 5886SOL     OW18556   0.391   1.947   5.033
 5886SOL    HW118557   0.434   1.961   4.943
 5886SOL    HW218558   0.432   2.010   5.099
 5887SOL     OW18559   3.861   0.958   3.533
 5887SOL    HW118560   3.908   1.024   3.473
 5887SOL    HW218561   3.774   0.932   3.493
 5888SOL     OW18562   2.711   0.075   2.742
 5888SOL    HW118563   2.781   0.124   2.795
 5888SOL    HW218564   2.627   0.071   2.795
 5889SOL     OW18565   1.576   6.959   1.164
 5889SOL    HW118566   1.543   0.034   1.159
 5889SOL    HW218567   1.499   6.896   1.156
 5890SOL     OW18568   1.203   0.199   5.701
 5890SOL    HW118569   1.191   0.158   5.611
 5890SOL    HW218570   1.300   0.211   5.719
 5891SOL     OW18571   3.487   3.162   5.988
 5891SOL    HW118572   3.434   3.077   5.987
 5891SOL    HW218573   3.543   3.168   5.906
 5892SOL     OW18574   0.596   6.376   1.072
 5892SOL    HW118575   0.597   6.346   0.977
 5892SOL    HW218576   0.638   6.466   1.080
 5893SOL     OW18577   1.849   3.975   3.726
 5893SOL    HW118578   1.857   3.999   3.823
 5893SOL    HW218579   1.754   3.981   3.698
 5894SOL     OW18580   1.013   5.468   3.081
 5894SOL    HW118581   0.979   5.379   3.110
 5894SOL    HW218582   1.106   5.481   3.115
 5895SOL     OW18583   5.230   3.085   3.807
 5895SOL    HW118584   5.255   3.055   3.899
 5895SOL    HW218585   5.284   3.034   3.740
 5896SOL     OW18586   3.994   1.563   0.182
 5896SOL    HW118587   3.936   1.506   0.123
 5896SOL    HW218588   4.089   1.536   0.171
 5897SOL     OW18589   3.247   0.413   1.759
 5897SOL    HW118590   3.197   0.341   1.809
 5897SOL    HW218591   3.227   0.405   1.661
 5898SOL     OW18592   1.639   0.243   3.330
 5898SOL    HW118593   1.730   0.231   3.369
 5898SOL    HW218594   1.589   0.157   3.336
 5899SOL     OW18595   5.160   6.717   5.571
 5899SOL    HW118596   5.164   6.762   5.660
 5899SOL    HW218597   5.065   6.707   5.543
 5900SOL     OW18598   4.687   5.372   3.918
 5900SOL    HW118599   4.668   5.290   3.974
 5900SOL    HW218600   4.783   5.372   3.891
 5901SOL     OW18601   3.059   0.441   6.654
 5901SOL    HW118602   3.070   0.516   6.589
 5901SOL    HW218603   3.048   0.479   6.746
 5902SOL     OW18604   6.943   2.603   0.382
 5902SOL    HW118605   6.940   2.562   0.290
 5902SOL    HW218606   6.952   2.530   0.450
 5903SOL     OW18607   4.204   4.107   0.818
 5903SOL    HW118608   4.225   4.089   0.914
 5903SOL    HW218609   4.124   4.052   0.791
 5904SOL     OW18610   0.565   3.739   1.912
 5904SOL    HW118611   0.517   3.808   1.858
 5904SOL    HW218612   0.505   3.661   1.928
 5905SOL     OW18613   6.631   5.781   3.027
 5905SOL    HW118614   6.651   5.689   3.060
 5905SOL    HW218615   6.542   5.810   3.061
 5906SOL     OW18616   4.809   1.192   4.328
 5906SOL    HW118617   4.896   1.184   4.377
 5906SOL    HW218618   4.826   1.196   4.230
 5907SOL     OW18619   2.044   5.708   2.461
 5907SOL    HW118620   1.989   5.653   2.523
 5907SOL    HW218621   2.043   5.666   2.370
 5908SOL     OW18622   0.896   2.176   5.596
 5908SOL    HW118623   0.856   2.088   5.623
 5908SOL    HW218624   0.889   2.241   5.672
 5909SOL     OW18625   7.014   5.210   0.885
 5909SOL    HW118626   0.028   5.151   0.959
 5909SOL    HW218627   6.987   5.154   0.807
 5910SOL     OW18628   0.710   3.041   3.217
 5910SOL    HW118629   0.720   3.141   3.222
 5910SOL    HW218630   0.690   3.015   3.123
 5911SOL     OW18631   6.518   5.777   6.790
 5911SOL    HW118632   6.550   5.691   6.831
 5911SOL    HW218633   6.592   5.844   6.793
 5912SOL     OW18634   6.421   1.044   5.270
 5912SOL    HW118635   6.443   1.141   5.262
 5912SOL    HW218636   6.355   1.031   5.343
 5913SOL     OW18637   4.544   3.026   6.583
 5913SOL    HW118638   4.572   3.001   6.676
 5913SOL    HW218639   4.536   2.944   6.528
 5914SOL     OW18640   0.772   6.445   6.650
 5914SOL    HW118641   0.790   6.402   6.739
 5914SOL    HW218642   0.789   6.378   6.578
 5915SOL     OW18643   4.058   6.102   0.561
 5915SOL    HW118644   4.134   6.164   0.541
 5915SOL    HW218645   4.024   6.121   0.653
 5916SOL     OW18646   6.723   6.694   2.656
 5916SOL    HW118647   6.632   6.728   2.679
 5916SOL    HW218648   6.715   6.611   2.601
 5917SOL     OW18649   3.245   3.741   4.962
 5917SOL    HW118650   3.167   3.685   4.934
 5917SOL    HW218651   3.288   3.783   4.881
 5918SOL     OW18652   1.817   4.986   5.992
 5918SOL    HW118653   1.903   5.014   5.950
 5918SOL    HW218654   1.812   4.886   5.997
 5919SOL     OW18655   2.969   3.688   2.832
 5919SOL    HW118656   3.036   3.753   2.794
 5919SOL    HW218657   2.905   3.661   2.760
 5920SOL     OW18658   5.310   0.993   6.396
 5920SOL    HW118659   5.294   0.900   6.365
 5920SOL    HW218660   5.402   1.000   6.435
 5921SOL     OW18661   3.954   5.156   6.161
 5921SOL    HW118662   3.982   5.085   6.226
 5921SOL    HW218663   3.854   5.156   6.153
 5922SOL     OW18664   6.240   3.771   4.231
 5922SOL    HW118665   6.155   3.825   4.230
 5922SOL    HW218666   6.289   3.784   4.145
 5923SOL     OW18667   6.820   0.784   1.733
 5923SOL    HW118668   6.839   0.784   1.635
 5923SOL    HW218669   6.801   0.691   1.764
 5924SOL     OW18670   5.680   6.824   2.504
 5924SOL    HW118671   5.765   6.818   2.451
 5924SOL    HW218672   5.632   6.736   2.499
 5925SOL     OW18673   3.454   5.992   2.025
 5925SOL    HW118674   3.536   6.013   2.079
 5925SOL    HW218675   3.470   5.909   1.971
 5926SOL     OW18676   4.922   4.487   2.714
 5926SOL    HW118677   4.959   4.395   2.725
 5926SOL    HW218678   4.884   4.519   2.801
 5927SOL     OW18679   1.243   4.134   1.651
 5927SOL    HW118680   1.333   4.154   1.688
 5927SOL    HW218681   1.182   4.212   1.666
 5928SOL     OW18682   3.727   6.530   1.886
 5928SOL    HW118683   3.791   6.607   1.884
 5928SOL    HW218684   3.734   6.479   1.800
 5929SOL     OW18685   5.688   0.757   5.774
 5929SOL    HW118686   5.659   0.778   5.680
 5929SOL    HW218687   5.653   0.826   5.836
 5930SOL     OW18688   0.839   2.685   3.062
 5930SOL    HW118689   0.769   2.711   2.996
 5930SOL    HW218690   0.853   2.586   3.060
 5931SOL     OW18691   6.131   6.109   2.735
 5931SOL    HW118692   6.214   6.131   2.786
 5931SOL    HW218693   6.082   6.036   2.782
 5932SOL     OW18694   3.234   0.264   0.271
 5932SOL    HW118695   3.224   0.254   0.370
 5932SOL    HW218696   3.160   0.320   0.235
 5933SOL     OW18697   6.953   4.807   4.125
 5933SOL    HW118698   6.964   4.839   4.031
 5933SOL    HW218699   0.022   4.776   4.160
 5934SOL     OW18700   3.548   2.779   5.369
 5934SOL    HW118701   3.463   2.793   5.421
 5934SOL    HW218702   3.624   2.822   5.417
 5935SOL     OW18703   0.209   5.577   6.001
 5935SOL    HW118704   0.190   5.484   5.969
 5935SOL    HW218705   0.213   5.639   5.922
 5936SOL     OW18706   3.048   3.895   2.204
 5936SOL    HW118707   3.000   3.961   2.145
 5936SOL    HW218708   3.063   3.811   2.152
 5937SOL     OW18709   5.724   3.212   1.909
 5937SOL    HW118710   5.689   3.157   1.985
 5937SOL    HW218711   5.676   3.186   1.825
 5938SOL     OW18712   6.557   6.302   4.653
 5938SOL    HW118713   6.592   6.396   4.650
 5938SOL    HW218714   6.524   6.276   4.562
 5939SOL     OW18715   3.249   6.120   4.334
 5939SOL    HW118716   3.321   6.150   4.272
 5939SOL    HW218717   3.183   6.064   4.283
 5940SOL     OW18718   3.942   5.186   3.889
 5940SOL    HW118719   3.968   5.102   3.840
 5940SOL    HW218720   3.952   5.171   3.987
 5941SOL     OW18721   5.635   2.935   2.819
 5941SOL    HW118722   5.542   2.897   2.817
 5941SOL    HW218723   5.632   3.026   2.861
 5942SOL     OW18724   5.099   3.637   6.674
 5942SOL    HW118725   5.103   3.552   6.726
 5942SOL    HW218726   5.164   3.702   6.711
 5943SOL     OW18727   3.122   3.205   5.948
 5943SOL    HW118728   3.050   3.203   5.879
 5943SOL    HW218729   3.195   3.143   5.922
 5944SOL     OW18730   1.242   2.581   0.457
 5944SOL    HW118731   1.170   2.597   0.389
 5944SOL    HW218732   1.234   2.648   0.530
 5945SOL     OW18733   0.463   5.545   5.284
 5945SOL    HW118734   0.487   5.473   5.349
 5945SOL    HW218735   0.546   5.581   5.241
 5946SOL     OW18736   3.368   4.842   0.166
 5946SOL    HW118737   3.314   4.799   0.238
 5946SOL    HW218738   3.359   4.941   0.171
 5947SOL     OW18739   3.269   3.371   3.514
 5947SOL    HW118740   3.230   3.463   3.523
 5947SOL    HW218741   3.369   3.377   3.512
 5948SOL     OW18742   4.524   4.729   2.556
 5948SOL    HW118743   4.612   4.687   2.533
 5948SOL    HW218744   4.527   4.827   2.536
 5949SOL     OW18745   5.030   5.286   1.003
 5949SOL    HW118746   5.089   5.212   1.035
 5949SOL    HW218747   5.016   5.278   0.904
 5950SOL     OW18748   5.171   2.114   5.161
 5950SOL    HW118749   5.138   2.207   5.143
 5950SOL    HW218750   5.208   2.109   5.254
 5951SOL     OW18751   0.895   5.681   5.621
 5951SOL    HW118752   0.837   5.756   5.592
 5951SOL    HW218753   0.843   5.619   5.679
 5952SOL     OW18754   5.093   5.602   3.688
 5952SOL    HW118755   5.003   5.608   3.643
 5952SOL    HW218756   5.082   5.613   3.787
 5953SOL     OW18757   6.363   4.204   4.964
 5953SOL    HW118758   6.411   4.250   4.889
 5953SOL    HW218759   6.429   4.154   5.020
 5954SOL     OW18760   0.220   5.561   5.152
 5954SOL    HW118761   0.301   5.571   5.211
 5954SOL    HW218762   0.212   5.641   5.093
 5955SOL     OW18763   4.264   5.030   2.327
 5955SOL    HW118764   4.244   4.958   2.261
 5955SOL    HW218765   4.251   5.119   2.285
 5956SOL     OW18766   5.743   2.120   3.827
 5956SOL    HW118767   5.648   2.102   3.853
 5956SOL    HW218768   5.782   2.187   3.890
 5957SOL     OW18769   2.631   1.824   4.084
 5957SOL    HW118770   2.611   1.922   4.081
 5957SOL    HW218771   2.626   1.787   3.991
 5958SOL     OW18772   3.847   0.439   2.585
 5958SOL    HW118773   3.845   0.537   2.562
 5958SOL    HW218774   3.887   0.389   2.508
 5959SOL     OW18775   4.559   2.783   5.566
 5959SOL    HW118776   4.510   2.815   5.485
 5959SOL    HW218777   4.657   2.801   5.554
 5960SOL     OW18778   3.485   6.215   4.177
 5960SOL    HW118779   3.536   6.275   4.115
 5960SOL    HW218780   3.463   6.129   4.130
 5961SOL     OW18781   4.369   1.585   2.618
 5961SOL    HW118782   4.410   1.676   2.612
 5961SOL    HW218783   4.417   1.522   2.557
 5962SOL     OW18784   5.334   5.830   5.938
 5962SOL    HW118785   5.260   5.793   5.882
 5962SOL    HW218786   5.330   5.930   5.937
 5963SOL     OW18787   3.177   3.643   6.543
 5963SOL    HW118788   3.135   3.638   6.633
 5963SOL    HW218789   3.233   3.561   6.528
 5964SOL     OW18790   2.363   6.680   4.461
 5964SOL    HW118791   2.377   6.728   4.547
 5964SOL    HW218792   2.329   6.743   4.391
 5965SOL     OW18793   2.295   0.884   6.956
 5965SOL    HW118794   2.231   0.889   0.013
 5965SOL    HW218795   2.318   0.789   6.938
 5966SOL     OW18796   1.045   6.836   6.416
 5966SOL    HW118797   1.029   6.771   6.341
 5966SOL    HW218798   1.066   6.785   6.499
 5967SOL     OW18799   2.003   0.499   5.918
 5967SOL    HW118800   1.984   0.406   5.886
 5967SOL    HW218801   2.088   0.531   5.877
 5968SOL     OW18802   5.645   2.162   0.105
 5968SOL    HW118803   5.664   2.231   0.175
 5968SOL    HW218804   5.565   2.190   0.052
 5969SOL     OW18805   5.240   1.345   6.873
 5969SOL    HW118806   5.253   1.246   6.880
 5969SOL    HW218807   5.217   1.369   6.779
 5970SOL     OW18808   0.594   4.869   0.958
 5970SOL    HW118809   0.658   4.824   0.895
 5970SOL    HW218810   0.619   4.964   0.969
 5971SOL     OW18811   6.811   0.185   1.014
 5971SOL    HW118812   6.792   0.116   0.943
 5971SOL    HW218813   6.736   0.250   1.018
 5972SOL     OW18814   4.729   5.815   6.641
 5972SOL    HW118815   4.652   5.751   6.647
 5972SOL    HW218816   4.770   5.810   6.550
 5973SOL     OW18817   1.573   3.004   2.846
 5973SOL    HW118818   1.653   2.947   2.866
 5973SOL    HW218819   1.586   3.050   2.758
 5974SOL     OW18820   4.915   7.015   0.009
 5974SOL    HW118821   4.953   6.929   6.993
 5974SOL    HW218822   4.898   7.006   0.107
 5975SOL     OW18823   4.077   6.265   1.048
 5975SOL    HW118824   4.008   6.331   1.079
 5975SOL    HW218825   4.079   6.263   0.948
 5976SOL     OW18826   3.295   2.843   5.488
 5976SOL    HW118827   3.348   2.926   5.506
 5976SOL    HW218828   3.233   2.826   5.565
 5977SOL     OW18829   1.064   5.893   0.125
 5977SOL    HW118830   0.979   5.863   0.167
 5977SOL    HW218831   1.132   5.819   0.132
 5978SOL     OW18832   3.466   5.602   1.695
 5978SOL    HW118833   3.424   5.677   1.644
 5978SOL    HW218834   3.564   5.599   1.674
 5979SOL     OW18835   6.994   0.931   1.851
 5979SOL    HW118836   6.923   0.864   1.827
 5979SOL    HW218837   6.998   1.002   1.780
 5980SOL     OW18838   4.099   3.568   1.652
 5980SOL    HW118839   4.035   3.511   1.703
 5980SOL    HW218840   4.061   3.659   1.638
 5981SOL     OW18841   4.779   1.655   6.940
 5981SOL    HW118842   4.752   1.736   6.992
 5981SOL    HW218843   4.876   1.635   6.956
 5982SOL     OW18844   6.278   1.671   2.637
 5982SOL    HW118845   6.213   1.745   2.654
 5982SOL    HW218846   6.231   1.583   2.647
 5983SOL     OW18847   1.372   1.276   4.185
 5983SOL    HW118848   1.372   1.349   4.117
 5983SOL    HW218849   1.310   1.300   4.259
 5984SOL     OW18850   5.366   6.693   3.135
 5984SOL    HW118851   5.274   6.672   3.102
 5984SOL    HW218852   5.397   6.619   3.195
 5985SOL     OW18853   6.759   2.906   3.638
 5985SOL    HW118854   6.665   2.921   3.608
 5985SOL    HW218855   6.795   2.823   3.595
 5986SOL     OW18856   3.533   3.925   5.348
 5986SOL    HW118857   3.459   3.983   5.314
 5986SOL    HW218858   3.605   3.919   5.279
 5987SOL     OW18859   5.366   0.280   4.913
 5987SOL    HW118860   5.366   0.329   4.826
 5987SOL    HW218861   5.309   0.198   4.906
 5988SOL     OW18862   3.863   0.597   6.718
 5988SOL    HW118863   3.950   0.552   6.703
 5988SOL    HW218864   3.868   0.692   6.688
 5989SOL     OW18865   1.649   5.188   5.926
 5989SOL    HW118866   1.720   5.127   5.961
 5989SOL    HW218867   1.661   5.280   5.965
 5990SOL     OW18868   3.603   3.594   7.012
 5990SOL    HW118869   3.653   3.586   0.079
 5990SOL    HW218870   3.559   3.683   7.007
 5991SOL     OW18871   4.110   6.242   6.686
 5991SOL    HW118872   4.185   6.221   6.748
 5991SOL    HW218873   4.023   6.216   6.729
 5992SOL     OW18874   3.508   6.942   1.984
 5992SOL    HW118875   3.596   6.897   1.998
 5992SOL    HW218876   3.524   0.015   1.949
 5993SOL     OW18877   5.006   3.895   6.377
 5993SOL    HW118878   5.054   3.828   6.320
 5993SOL    HW218879   4.942   3.847   6.437
 5994SOL     OW18880   6.604   2.536   0.290
 5994SOL    HW118881   6.632   2.456   0.343
 5994SOL    HW218882   6.577   2.610   0.353
 5995SOL     OW18883   5.192   2.962   2.112
 5995SOL    HW118884   5.105   2.990   2.152
 5995SOL    HW218885   5.199   2.999   2.019
 5996SOL     OW18886   0.788   5.792   1.067
 5996SOL    HW118887   0.808   5.697   1.090
 5996SOL    HW218888   0.689   5.806   1.062
 5997SOL     OW18889   1.347   6.568   3.155
 5997SOL    HW118890   1.260   6.520   3.139
 5997SOL    HW218891   1.419   6.500   3.172
 5998SOL     OW18892   6.302   1.073   2.187
 5998SOL    HW118893   6.226   1.065   2.252
 5998SOL    HW218894   6.387   1.048   2.233
 5999SOL     OW18895   3.022   2.951   1.356
 5999SOL    HW118896   2.999   2.980   1.263
 5999SOL    HW218897   2.939   2.925   1.405
 6000SOL     OW18898   1.125   6.657   0.354
 6000SOL    HW118899   1.208   6.643   0.300
 6000SOL    HW218900   1.142   6.630   0.449
 6001SOL     OW18901   6.388   5.207   7.009
 6001SOL    HW118902   6.417   5.302   7.002
 6001SOL    HW218903   6.299   5.202   0.034
 6002SOL     OW18904   6.458   0.127   5.713
 6002SOL    HW118905   6.511   0.065   5.771
 6002SOL    HW218906   6.361   0.105   5.721
 6003SOL     OW18907   5.724   2.215   4.871
 6003SOL    HW118908   5.638   2.191   4.824
 6003SOL    HW218909   5.718   2.308   4.906
 6004SOL     OW18910   6.113   2.728   3.861
 6004SOL    HW118911   6.208   2.744   3.834
 6004SOL    HW218912   6.091   2.631   3.851
 6005SOL     OW18913   6.151   4.869   4.885
 6005SOL    HW118914   6.075   4.935   4.880
 6005SOL    HW218915   6.152   4.826   4.975
 6006SOL     OW18916   2.978   0.585   4.992
 6006SOL    HW118917   3.074   0.577   4.964
 6006SOL    HW218918   2.971   0.577   5.091
 6007SOL     OW18919   0.127   3.213   6.094
 6007SOL    HW118920   0.108   3.310   6.111
 6007SOL    HW218921   0.222   3.193   6.115
 6008SOL     OW18922   2.644   4.819   5.430
 6008SOL    HW118923   2.637   4.781   5.338
 6008SOL    HW218924   2.740   4.832   5.454
 6009SOL     OW18925   3.939   6.615   3.475
 6009SOL    HW118926   3.851   6.589   3.435
 6009SOL    HW218927   3.924   6.678   3.550
 6010SOL     OW18928   0.910   4.349   3.297
 6010SOL    HW118929   0.877   4.431   3.344
 6010SOL    HW218930   0.841   4.277   3.303
 6011SOL     OW18931   4.890   3.157   3.027
 6011SOL    HW118932   4.867   3.249   2.996
 6011SOL    HW218933   4.843   3.139   3.114
 6012SOL     OW18934   6.233   0.403   0.468
 6012SOL    HW118935   6.320   0.370   0.503
 6012SOL    HW218936   6.199   0.340   0.398
 6013SOL     OW18937   5.052   0.960   2.974
 6013SOL    HW118938   5.005   0.872   2.984
 6013SOL    HW218939   5.116   0.955   2.897
 6014SOL     OW18940   3.120   4.033   3.594
 6014SOL    HW118941   3.162   4.042   3.503
 6014SOL    HW218942   3.035   4.086   3.597
 6015SOL     OW18943   6.032   3.732   4.784
 6015SOL    HW118944   5.991   3.644   4.807
 6015SOL    HW218945   6.010   3.755   4.689
 6016SOL     OW18946   6.012   1.498   5.857
 6016SOL    HW118947   5.962   1.531   5.778
 6016SOL    HW218948   6.082   1.565   5.883
 6017SOL     OW18949   0.079   4.828   4.379
 6017SOL    HW118950   0.011   4.768   4.422
 6017SOL    HW218951   0.035   4.914   4.353
 6018SOL     OW18952   3.447   1.253   5.295
 6018SOL    HW118953   3.432   1.200   5.211
 6018SOL    HW218954   3.359   1.280   5.333
 6019SOL     OW18955   0.585   3.005   5.461
 6019SOL    HW118956   0.607   3.042   5.552
 6019SOL    HW218957   0.592   3.079   5.393
 6020SOL     OW18958   1.224   5.584   0.254
 6020SOL    HW118959   1.186   5.595   0.346
 6020SOL    HW218960   1.165   5.524   0.200
 6021SOL     OW18961   4.706   0.204   2.964
 6021SOL    HW118962   4.669   0.179   2.874
 6021SOL    HW218963   4.651   0.278   3.002
 6022SOL     OW18964   0.337   1.575   3.471
 6022SOL    HW118965   0.416   1.517   3.489
 6022SOL    HW218966   0.254   1.528   3.502
 6023SOL     OW18967   4.991   0.488   2.028
 6023SOL    HW118968   4.892   0.481   2.030
 6023SOL    HW218969   5.023   0.530   2.113
 6024SOL     OW18970   0.857   4.644   1.098
 6024SOL    HW118971   0.939   4.588   1.113
 6024SOL    HW218972   0.876   4.738   1.125
 6025SOL     OW18973   3.203   1.601   3.166
 6025SOL    HW118974   3.163   1.692   3.182
 6025SOL    HW218975   3.248   1.600   3.077
 6026SOL     OW18976   0.403   5.643   4.671
 6026SOL    HW118977   0.472   5.632   4.599
 6026SOL    HW218978   0.396   5.559   4.724
 6027SOL     OW18979   0.176   3.592   6.336
 6027SOL    HW118980   0.194   3.690   6.326
 6027SOL    HW218981   0.151   3.553   6.248
 6028SOL     OW18982   5.201   4.859   1.253
 6028SOL    HW118983   5.194   4.876   1.154
 6028SOL    HW218984   5.182   4.763   1.272
 6029SOL     OW18985   2.974   0.030   3.675
 6029SOL    HW118986   3.057   0.051   3.727
 6029SOL    HW218987   2.904   7.015   3.738
 6030SOL     OW18988   5.272   4.198   4.257
 6030SOL    HW118989   5.223   4.185   4.343
 6030SOL    HW218990   5.208   4.222   4.185
 6031SOL     OW18991   2.512   5.665   4.340
 6031SOL    HW118992   2.521   5.764   4.340
 6031SOL    HW218993   2.601   5.623   4.320
 6032SOL     OW18994   2.704   4.950   2.615
 6032SOL    HW118995   2.716   4.855   2.643
 6032SOL    HW218996   2.718   5.010   2.694
 6033SOL     OW18997   2.028   3.165   2.695
 6033SOL    HW118998   2.037   3.182   2.597
 6033SOL    HW218999   1.968   3.087   2.710
 6034SOL     OW19000   0.994   0.683   6.157
 6034SOL    HW119001   0.984   0.781   6.139
 6034SOL    HW219002   0.969   0.664   6.252
 6035SOL     OW19003   1.492   0.715   2.355
 6035SOL    HW119004   1.479   0.812   2.378
 6035SOL    HW219005   1.559   0.707   2.281
 6036SOL     OW19006   5.461   4.566   1.808
 6036SOL    HW119007   5.406   4.641   1.770
 6036SOL    HW219008   5.497   4.510   1.734
 6037SOL     OW19009   3.908   0.020   0.487
 6037SOL    HW119010   3.918   7.006   0.580
 6037SOL    HW219011   3.954   6.977   0.424
 6038SOL     OW19012   1.046   2.429   6.564
 6038SOL    HW119013   1.050   2.373   6.482
 6038SOL    HW219014   1.118   2.498   6.561
 6039SOL     OW19015   3.527   2.983   3.419
 6039SOL    HW119016   3.604   2.919   3.413
 6039SOL    HW219017   3.456   2.945   3.478
 6040SOL     OW19018   1.758   1.213   0.585
 6040SOL    HW119019   1.790   1.283   0.521
 6040SOL    HW219020   1.837   1.165   0.623
 6041SOL     OW19021   2.995   2.065   5.140
 6041SOL    HW119022   2.967   2.132   5.209
 6041SOL    HW219023   3.069   2.103   5.085
 6042SOL     OW19024   3.629   6.461   2.723
 6042SOL    HW119025   3.633   6.377   2.669
 6042SOL    HW219026   3.710   6.465   2.783
 6043SOL     OW19027   0.894   0.469   4.751
 6043SOL    HW119028   0.896   0.397   4.819
 6043SOL    HW219029   0.912   0.430   4.660
 6044SOL     OW19030   2.749   2.454   1.694
 6044SOL    HW119031   2.813   2.413   1.758
 6044SOL    HW219032   2.747   2.553   1.706
 6045SOL     OW19033   5.569   3.206   3.716
 6045SOL    HW119034   5.530   3.250   3.796
 6045SOL    HW219035   5.634   3.268   3.672
 6046SOL     OW19036   3.695   2.691   0.801
 6046SOL    HW119037   3.685   2.790   0.810
 6046SOL    HW219038   3.792   2.667   0.805
 6047SOL     OW19039   5.105   2.269   1.600
 6047SOL    HW119040   5.090   2.271   1.501
 6047SOL    HW219041   5.115   2.363   1.633
 6048SOL     OW19042   5.095   5.263   5.061
 6048SOL    HW119043   5.164   5.332   5.038
 6048SOL    HW219044   5.128   5.209   5.138
 6049SOL     OW19045   4.728   4.314   6.474
 6049SOL    HW119046   4.779   4.258   6.408
 6049SOL    HW219047   4.677   4.385   6.426
 6050SOL     OW19048   1.840   5.305   0.273
 6050SOL    HW119049   1.932   5.312   0.311
 6050SOL    HW219050   1.788   5.387   0.298
 6051SOL     OW19051   2.125   6.340   2.686
 6051SOL    HW119052   2.191   6.305   2.619
 6051SOL    HW219053   2.081   6.263   2.733
 6052SOL     OW19054   4.932   1.665   1.747
 6052SOL    HW119055   5.021   1.708   1.766
 6052SOL    HW219056   4.911   1.599   1.819
 6053SOL     OW19057   4.087   0.518   5.717
 6053SOL    HW119058   4.130   0.506   5.806
 6053SOL    HW219059   4.128   0.596   5.670
 6054SOL     OW19060   2.415   4.105   0.635
 6054SOL    HW119061   2.493   4.050   0.665
 6054SOL    HW219062   2.413   4.192   0.684
 6055SOL     OW19063   3.934   5.586   5.787
 6055SOL    HW119064   3.992   5.646   5.730
 6055SOL    HW219065   3.924   5.627   5.878
 6056SOL     OW19066   4.765   3.329   5.209
 6056SOL    HW119067   4.753   3.425   5.185
 6056SOL    HW219068   4.838   3.290   5.153
 6057SOL     OW19069   6.266   0.570   2.654
 6057SOL    HW119070   6.201   0.503   2.690
 6057SOL    HW219071   6.344   0.523   2.614
 6058SOL     OW19072   5.014   4.265   0.448
 6058SOL    HW119073   4.960   4.200   0.394
 6058SOL    HW219074   5.060   4.216   0.522
 6059SOL     OW19075   4.704   4.523   6.002
 6059SOL    HW119076   4.751   4.525   6.090
 6059SOL    HW219077   4.659   4.434   5.990
 6060SOL     OW19078   2.276   3.410   6.715
 6060SOL    HW119079   2.251   3.474   6.642
 6060SOL    HW219080   2.193   3.380   6.762
 6061SOL     OW19081   4.571   4.194   0.466
 6061SOL    HW119082   4.534   4.267   0.407
 6061SOL    HW219083   4.659   4.164   0.430
 6062SOL     OW19084   2.701   2.006   6.623
 6062SOL    HW119085   2.740   1.942   6.689
 6062SOL    HW219086   2.609   2.032   6.652
 6063SOL     OW19087   3.782   2.829   5.494
 6063SOL    HW119088   3.836   2.903   5.534
 6063SOL    HW219089   3.775   2.753   5.560
 6064SOL     OW19090   1.330   1.154   0.736
 6064SOL    HW119091   1.425   1.186   0.740
 6064SOL    HW219092   1.328   1.055   0.724
 6065SOL     OW19093   0.724   5.996   1.986
 6065SOL    HW119094   0.671   5.922   1.943
 6065SOL    HW219095   0.820   5.989   1.958
 6066SOL     OW19096   5.646   1.268   5.901
 6066SOL    HW119097   5.654   1.317   5.987
 6066SOL    HW219098   5.579   1.314   5.843
 6067SOL     OW19099   4.853   0.693   5.483
 6067SOL    HW119100   4.893   0.664   5.570
 6067SOL    HW219101   4.784   0.627   5.455
 6068SOL     OW19102   5.053   2.860   4.632
 6068SOL    HW119103   5.041   2.833   4.728
 6068SOL    HW219104   4.972   2.911   4.602
 6069SOL     OW19105   6.636   3.472   4.966
 6069SOL    HW119106   6.536   3.472   4.957
 6069SOL    HW219107   6.660   3.452   5.061
 6070SOL     OW19108   2.752   2.853   1.477
 6070SOL    HW119109   2.776   2.773   1.422
 6070SOL    HW219110   2.679   2.904   1.432
 6071SOL     OW19111   0.832   6.138   4.611
 6071SOL    HW119112   0.790   6.116   4.523
 6071SOL    HW219113   0.779   6.211   4.656
 6072SOL     OW19114   0.258   0.736   1.546
 6072SOL    HW119115   0.337   0.680   1.574
 6072SOL    HW219116   0.188   0.677   1.506
 6073SOL     OW19117   5.104   3.130   0.854
 6073SOL    HW119118   5.010   3.100   0.836
 6073SOL    HW219119   5.107   3.182   0.939
 6074SOL     OW19120   1.892   5.971   1.989
 6074SOL    HW119121   1.794   5.974   2.010
 6074SOL    HW219122   1.904   5.949   1.892
 6075SOL     OW19123   4.856   0.173   5.081
 6075SOL    HW119124   4.928   0.142   5.142
 6075SOL    HW219125   4.860   0.121   4.996
 6076SOL     OW19126   3.003   5.192   3.027
 6076SOL    HW119127   2.939   5.132   3.077
 6076SOL    HW219128   2.989   5.286   3.056
 6077SOL     OW19129   6.361   5.346   0.941
 6077SOL    HW119130   6.389   5.287   1.016
 6077SOL    HW219131   6.295   5.298   0.883
 6078SOL     OW19132   4.749   5.273   0.079
 6078SOL    HW119133   4.778   5.357   0.035
 6078SOL    HW219134   4.829   5.219   0.105
 6079SOL     OW19135   5.235   4.343   6.711
 6079SOL    HW119136   5.135   4.343   6.713
 6079SOL    HW219137   5.270   4.255   6.745
 6080SOL     OW19138   0.231   5.663   0.514
 6080SOL    HW119139   0.213   5.759   0.535
 6080SOL    HW219140   0.318   5.636   0.555
 6081SOL     OW19141   0.227   2.538   5.791
 6081SOL    HW119142   0.302   2.580   5.842
 6081SOL    HW219143   0.140   2.560   5.835
 6082SOL     OW19144   2.990   7.018   2.623
 6082SOL    HW119145   2.910   6.958   2.624
 6082SOL    HW219146   2.997   0.045   2.535
 6083SOL     OW19147   5.911   5.948   0.906
 6083SOL    HW119148   5.938   5.901   0.822
 6083SOL    HW219149   5.813   5.936   0.921
 6084SOL     OW19150   0.793   6.769   2.294
 6084SOL    HW119151   0.888   6.789   2.271
 6084SOL    HW219152   0.776   6.792   2.389
 6085SOL     OW19153   6.888   6.166   6.776
 6085SOL    HW119154   6.957   6.224   6.821
 6085SOL    HW219155   6.909   6.160   6.679
 6086SOL     OW19156   2.304   2.255   5.832
 6086SOL    HW119157   2.391   2.304   5.844
 6086SOL    HW219158   2.304   2.206   5.745
 6087SOL     OW19159   3.513   5.841   1.458
 6087SOL    HW119160   3.456   5.814   1.381
 6087SOL    HW219161   3.598   5.882   1.425
 6088SOL     OW19162   5.794   6.946   4.321
 6088SOL    HW119163   5.720   6.976   4.381
 6088SOL    HW219164   5.845   6.872   4.366
 6089SOL     OW19165   6.112   2.621   3.049
 6089SOL    HW119166   6.063   2.635   3.135
 6089SOL    HW219167   6.048   2.594   2.978
 6090SOL     OW19168   2.180   4.983   4.838
 6090SOL    HW119169   2.224   4.945   4.757
 6090SOL    HW219170   2.133   4.910   4.888
 6091SOL     OW19171   2.439   1.434   6.971
 6091SOL    HW119172   2.508   1.506   6.975
 6091SOL    HW219173   2.452   1.371   0.028
 6092SOL     OW19174   4.455   1.113   2.205
 6092SOL    HW119175   4.402   1.065   2.136
 6092SOL    HW219176   4.460   1.058   2.288
 6093SOL     OW19177   2.239   2.355   1.629
 6093SOL    HW119178   2.214   2.268   1.585
 6093SOL    HW219179   2.225   2.430   1.565
 6094SOL     OW19180   1.467   5.835   3.286
 6094SOL    HW119181   1.505   5.843   3.378
 6094SOL    HW219182   1.479   5.922   3.238
 6095SOL     OW19183   4.630   4.993   6.901
 6095SOL    HW119184   4.708   5.039   6.859
 6095SOL    HW219185   4.568   5.061   6.938
 6096SOL     OW19186   6.243   6.900   2.218
 6096SOL    HW119187   6.145   6.906   2.198
 6096SOL    HW219188   6.293   6.875   2.135
 6097SOL     OW19189   2.246   5.444   2.478
 6097SOL    HW119190   2.237   5.363   2.420
 6097SOL    HW219191   2.156   5.488   2.487
 6098SOL     OW19192   0.299   1.540   5.809
 6098SOL    HW119193   0.233   1.559   5.737
 6098SOL    HW219194   0.296   1.443   5.833
 6099SOL     OW19195   5.042   5.927   5.404
 6099SOL    HW119196   5.049   6.026   5.412
 6099SOL    HW219197   5.133   5.887   5.396
 6100SOL     OW19198   5.995   6.149   2.057
 6100SOL    HW119199   5.992   6.107   1.966
 6100SOL    HW219200   5.915   6.208   2.068
 6101SOL     OW19201   6.897   2.867   3.040
 6101SOL    HW119202   6.835   2.942   3.062
 6101SOL    HW219203   6.967   2.899   2.977
 6102SOL     OW19204   4.251   5.759   3.077
 6102SOL    HW119205   4.327   5.808   3.118
 6102SOL    HW219206   4.176   5.751   3.142
 6103SOL     OW19207   6.022   1.027   1.263
 6103SOL    HW119208   6.072   1.097   1.313
 6103SOL    HW219209   5.924   1.049   1.265
 6104SOL     OW19210   5.716   6.769   5.219
 6104SOL    HW119211   5.773   6.830   5.274
 6104SOL    HW219212   5.775   6.712   5.161
 6105SOL     OW19213   1.912   5.520   5.923
 6105SOL    HW119214   1.895   5.524   5.825
 6105SOL    HW219215   1.864   5.595   5.969
 6106SOL     OW19216   1.596   4.931   6.229
 6106SOL    HW119217   1.643   4.904   6.313
 6106SOL    HW219218   1.663   4.962   6.161
 6107SOL     OW19219   4.997   5.601   5.307
 6107SOL    HW119220   4.930   5.568   5.373
 6107SOL    HW219221   5.085   5.556   5.322
 6108SOL     OW19222   2.376   2.542   3.415
 6108SOL    HW119223   2.297   2.602   3.403
 6108SOL    HW219224   2.349   2.447   3.403
 6109SOL     OW19225   5.607   1.432   5.362
 6109SOL    HW119226   5.565   1.520   5.385
 6109SOL    HW219227   5.582   1.407   5.269
 6110SOL     OW19228   2.397   3.069   1.068
 6110SOL    HW119229   2.314   3.082   1.014
 6110SOL    HW219230   2.477   3.082   1.009
 6111SOL     OW19231   1.328   3.251   2.229
 6111SOL    HW119232   1.376   3.223   2.312
 6111SOL    HW219233   1.270   3.177   2.197
 6112SOL     OW19234   3.981   0.726   2.504
 6112SOL    HW119235   3.909   0.727   2.434
 6112SOL    HW219236   4.059   0.780   2.472
 6113SOL     OW19237   2.524   2.502   6.527
 6113SOL    HW119238   2.503   2.477   6.433
 6113SOL    HW219239   2.488   2.594   6.546
 6114SOL     OW19240   4.853   4.155   2.972
 6114SOL    HW119241   4.862   4.080   3.038
 6114SOL    HW219242   4.818   4.119   2.886
 6115SOL     OW19243   5.986   0.689   4.448
 6115SOL    HW119244   6.005   0.675   4.545
 6115SOL    HW219245   6.073   0.698   4.398
 6116SOL     OW19246   3.685   1.404   6.251
 6116SOL    HW119247   3.595   1.429   6.289
 6116SOL    HW219248   3.699   1.306   6.260
 6117SOL     OW19249   2.320   1.800   3.645
 6117SOL    HW119250   2.374   1.850   3.577
 6117SOL    HW219251   2.227   1.788   3.611
 6118SOL     OW19252   5.700   1.322   1.147
 6118SOL    HW119253   5.781   1.323   1.087
 6118SOL    HW219254   5.648   1.406   1.134
 6119SOL     OW19255   0.987   3.823   0.313
 6119SOL    HW119256   0.991   3.904   0.372
 6119SOL    HW219257   1.001   3.741   0.369
 6120SOL     OW19258   2.207   6.592   5.611
 6120SOL    HW119259   2.223   6.501   5.573
 6120SOL    HW219260   2.114   6.597   5.648
 6121SOL     OW19261   1.490   3.333   5.312
 6121SOL    HW119262   1.559   3.275   5.269
 6121SOL    HW219263   1.517   3.429   5.305
 6122SOL     OW19264   4.354   5.528   6.843
 6122SOL    HW119265   4.430   5.527   6.777
 6122SOL    HW219266   4.270   5.555   6.797
 6123SOL     OW19267   5.161   6.874   6.121
 6123SOL    HW119268   5.088   6.811   6.144
 6123SOL    HW219269   5.141   6.965   6.159
 6124SOL     OW19270   0.932   0.050   6.252
 6124SOL    HW119271   0.930   7.012   6.334
 6124SOL    HW219272   0.889   0.001   6.176
 6125SOL     OW19273   2.343   3.986   0.214
 6125SOL    HW119274   2.399   4.019   0.290
 6125SOL    HW219275   2.254   4.033   0.216
 6126SOL     OW19276   0.202   0.693   4.765
 6126SOL    HW119277   0.184   0.695   4.863
 6126SOL    HW219278   0.151   0.767   4.720
 6127SOL     OW19279   3.646   6.820   1.382
 6127SOL    HW119280   3.566   6.872   1.411
 6127SOL    HW219281   3.683   6.769   1.459
 6128SOL     OW19282   5.579   5.699   0.989
 6128SOL    HW119283   5.594   5.790   0.952
 6128SOL    HW219284   5.533   5.706   1.078
 6129SOL     OW19285   0.601   3.281   2.530
 6129SOL    HW119286   0.550   3.362   2.502
 6129SOL    HW219287   0.537   3.205   2.543
 6130SOL     OW19288   5.012   2.711   2.523
 6130SOL    HW119289   4.993   2.624   2.478
 6130SOL    HW219290   5.039   2.779   2.455
 6131SOL     OW19291   0.733   1.575   3.419
 6131SOL    HW119292   0.661   1.627   3.464
 6131SOL    HW219293   0.822   1.607   3.449
 6132SOL     OW19294   3.749   1.847   6.539
 6132SOL    HW119295   3.791   1.927   6.497
 6132SOL    HW219296   3.752   1.770   6.475
 6133SOL     OW19297   2.207   3.257   3.290
 6133SOL    HW119298   2.127   3.220   3.242
 6133SOL    HW219299   2.290   3.226   3.244
 6134SOL     OW19300   4.477   6.564   6.850
 6134SOL    HW119301   4.455   6.630   6.778
 6134SOL    HW219302   4.437   6.596   6.937
 6135SOL     OW19303   0.403   5.834   0.939
 6135SOL    HW119304   0.444   5.865   0.853
 6135SOL    HW219305   0.381   5.913   0.995
 6136SOL     OW19306   1.063   2.384   1.818
 6136SOL    HW119307   1.084   2.462   1.759
 6136SOL    HW219308   1.102   2.301   1.779
 6137SOL     OW19309   6.594   4.088   2.487
 6137SOL    HW119310   6.588   3.989   2.494
 6137SOL    HW219311   6.534   4.120   2.413
 6138SOL     OW19312   3.107   6.919   3.135
 6138SOL    HW119313   3.124   6.897   3.039
 6138SOL    HW219314   3.075   7.014   3.142
 6139SOL     OW19315   1.074   6.986   5.779
 6139SOL    HW119316   1.097   0.061   5.757
 6139SOL    HW219317   1.047   6.937   5.696
 6140SOL     OW19318   0.868   0.561   2.041
 6140SOL    HW119319   0.896   0.617   1.963
 6140SOL    HW219320   0.934   0.487   2.053
 6141SOL     OW19321   0.210   0.089   6.304
 6141SOL    HW119322   0.157   0.046   6.377
 6141SOL    HW219323   0.209   0.188   6.316
 6142SOL     OW19324   6.984   5.519   6.379
 6142SOL    HW119325   0.012   5.594   6.332
 6142SOL    HW219326   6.893   5.508   6.340
 6143SOL     OW19327   6.676   4.498   0.943
 6143SOL    HW119328   6.696   4.422   1.006
 6143SOL    HW219329   6.585   4.534   0.963
 6144SOL     OW19330   5.317   4.821   4.122
 6144SOL    HW119331   5.234   4.861   4.162
 6144SOL    HW219332   5.392   4.828   4.188
 6145SOL     OW19333   5.424   4.859   4.377
 6145SOL    HW119334   5.508   4.876   4.428
 6145SOL    HW219335   5.345   4.884   4.433
 6146SOL     OW19336   3.127   5.490   3.999
 6146SOL    HW119337   3.106   5.504   4.096
 6146SOL    HW219338   3.051   5.522   3.943
 6147SOL     OW19339   2.400   2.325   5.010
 6147SOL    HW119340   2.398   2.229   4.984
 6147SOL    HW219341   2.495   2.355   5.016
 6148SOL     OW19342   4.405   6.122   5.202
 6148SOL    HW119343   4.437   6.207   5.244
 6148SOL    HW219344   4.411   6.130   5.103
 6149SOL     OW19345   2.763   6.946   1.696
 6149SOL    HW119346   2.808   7.011   1.756
 6149SOL    HW219347   2.667   6.973   1.684
 6150SOL     OW19348   5.940   4.287   6.907
 6150SOL    HW119349   5.932   4.244   6.818
 6150SOL    HW219350   6.024   4.341   6.912
 6151SOL     OW19351   6.304   4.852   5.703
 6151SOL    HW119352   6.329   4.907   5.623
 6151SOL    HW219353   6.208   4.824   5.696
 6152SOL     OW19354   0.663   6.346   4.684
 6152SOL    HW119355   0.631   6.438   4.664
 6152SOL    HW219356   0.585   6.288   4.709
 6153SOL     OW19357   5.780   4.952   1.031
 6153SOL    HW119358   5.778   4.944   1.131
 6153SOL    HW219359   5.827   5.036   1.005
 6154SOL     OW19360   5.941   2.700   2.121
 6154SOL    HW119361   6.030   2.656   2.112
 6154SOL    HW219362   5.886   2.680   2.039
 6155SOL     OW19363   2.962   1.414   2.846
 6155SOL    HW119364   2.912   1.407   2.760
 6155SOL    HW219365   2.898   1.407   2.923
 6156SOL     OW19366   4.631   4.727   1.745
 6156SOL    HW119367   4.576   4.783   1.807
 6156SOL    HW219368   4.625   4.631   1.771
 6157SOL     OW19369   0.140   2.374   3.354
 6157SOL    HW119370   0.115   2.427   3.273
 6157SOL    HW219371   0.072   2.302   3.370
 6158SOL     OW19372   3.838   2.338   6.339
 6158SOL    HW119373   3.928   2.376   6.315
 6158SOL    HW219374   3.772   2.412   6.348
 6159SOL     OW19375   4.065   2.016   6.991
 6159SOL    HW119376   3.972   1.998   6.960
 6159SOL    HW219377   4.092   2.109   6.965
 6160SOL     OW19378   5.834   0.344   6.340
 6160SOL    HW119379   5.870   0.352   6.433
 6160SOL    HW219380   5.909   0.350   6.274
 6161SOL     OW19381   5.586   1.291   6.928
 6161SOL    HW119382   5.552   1.383   6.950
 6161SOL    HW219383   5.653   1.262   6.996
 6162SOL     OW19384   6.329   6.841   4.432
 6162SOL    HW119385   6.363   6.912   4.493
 6162SOL    HW219386   6.380   6.756   4.448
 6163SOL     OW19387   5.153   5.853   1.730
 6163SOL    HW119388   5.115   5.769   1.768
 6163SOL    HW219389   5.251   5.858   1.750
 6164SOL     OW19390   3.253   4.091   4.427
 6164SOL    HW119391   3.162   4.048   4.425
 6164SOL    HW219392   3.285   4.096   4.522
 6165SOL     OW19393   4.701   1.410   6.122
 6165SOL    HW119394   4.746   1.390   6.209
 6165SOL    HW219395   4.678   1.325   6.075
 6166SOL     OW19396   5.599   1.851   0.264
 6166SOL    HW119397   5.627   1.812   0.352
 6166SOL    HW219398   5.676   1.899   0.223
 6167SOL     OW19399   1.336   4.767   2.862
 6167SOL    HW119400   1.376   4.798   2.949
 6167SOL    HW219401   1.253   4.715   2.880
 6168SOL     OW19402   0.953   3.595   3.362
 6168SOL    HW119403   0.893   3.674   3.352
 6168SOL    HW219404   0.913   3.516   3.315
 6169SOL     OW19405   1.347   1.936   0.329
 6169SOL    HW119406   1.406   1.986   0.393
 6169SOL    HW219407   1.281   1.882   0.380
 6170SOL     OW19408   2.917   3.796   5.942
 6170SOL    HW119409   2.958   3.705   5.955
 6170SOL    HW219410   2.957   3.860   6.008
 6171SOL     OW19411   1.805   3.585   1.423
 6171SOL    HW119412   1.881   3.607   1.485
 6171SOL    HW219413   1.816   3.635   1.337
 6172SOL     OW19414   1.274   1.118   3.737
 6172SOL    HW119415   1.318   1.081   3.819
 6172SOL    HW219416   1.180   1.145   3.759
 6173SOL     OW19417   6.645   5.219   2.568
 6173SOL    HW119418   6.569   5.153   2.565
 6173SOL    HW219419   6.613   5.308   2.537
 6174SOL     OW19420   6.394   5.311   3.164
 6174SOL    HW119421   6.391   5.284   3.260
 6174SOL    HW219422   6.431   5.236   3.109
 6175SOL     OW19423   5.299   0.931   4.002
 6175SOL    HW119424   5.349   0.865   3.946
 6175SOL    HW219425   5.231   0.883   4.058
 6176SOL     OW19426   6.472   3.007   0.026
 6176SOL    HW119427   6.571   3.005   0.042
 6176SOL    HW219428   6.442   3.102   0.015
 6177SOL     OW19429   5.748   1.672   1.742
 6177SOL    HW119430   5.835   1.701   1.701
 6177SOL    HW219431   5.750   1.573   1.754
 6178SOL     OW19432   4.703   5.074   2.829
 6178SOL    HW119433   4.764   5.091   2.906
 6178SOL    HW219434   4.730   4.989   2.784
 6179SOL     OW19435   6.297   4.454   4.560
 6179SOL    HW119436   6.361   4.489   4.491
 6179SOL    HW219437   6.238   4.528   4.590
 6180SOL     OW19438   3.188   6.221   6.626
 6180SOL    HW119439   3.244   6.239   6.706
 6180SOL    HW219440   3.237   6.161   6.563
 6181SOL     OW19441   4.188   6.708   1.371
 6181SOL    HW119442   4.256   6.706   1.298
 6181SOL    HW219443   4.101   6.673   1.336
 6182SOL     OW19444   5.769   3.594   5.695
 6182SOL    HW119445   5.842   3.547   5.646
 6182SOL    HW219446   5.685   3.539   5.689
 6183SOL     OW19447   2.219   0.176   2.913
 6183SOL    HW119448   2.221   0.083   2.949
 6183SOL    HW219449   2.164   0.234   2.974
 6184SOL     OW19450   1.240   0.015   6.807
 6184SOL    HW119451   1.233   0.062   6.895
 6184SOL    HW219452   1.334   7.007   6.791
 6185SOL     OW19453   0.372   4.651   6.350
 6185SOL    HW119454   0.464   4.634   6.314
 6185SOL    HW219455   0.319   4.566   6.349
 6186SOL     OW19456   5.862   6.561   5.572
 6186SOL    HW119457   5.888   6.504   5.495
 6186SOL    HW219458   5.853   6.504   5.654
 6187SOL     OW19459   4.298   4.694   4.283
 6187SOL    HW119460   4.366   4.642   4.233
 6187SOL    HW219461   4.300   4.668   4.380
 6188SOL     OW19462   2.464   0.302   0.667
 6188SOL    HW119463   2.398   0.363   0.711
 6188SOL    HW219464   2.557   0.335   0.686
 6189SOL     OW19465   4.696   4.265   4.148
 6189SOL    HW119466   4.735   4.185   4.192
 6189SOL    HW219467   4.764   4.338   4.145
 6190SOL     OW19468   6.681   3.830   5.909
 6190SOL    HW119469   6.773   3.791   5.901
 6190SOL    HW219470   6.633   3.823   5.822
 6191SOL     OW19471   4.150   2.995   6.578
 6191SOL    HW119472   4.187   2.911   6.539
 6191SOL    HW219473   4.075   2.972   6.641
 6192SOL     OW19474   2.658   3.284   6.479
 6192SOL    HW119475   2.599   3.294   6.398
 6192SOL    HW219476   2.611   3.323   6.558
 6193SOL     OW19477   5.199   0.897   2.754
 6193SOL    HW119478   5.296   0.881   2.771
 6193SOL    HW219479   5.189   0.961   2.678
 6194SOL     OW19480   1.145   0.159   0.621
 6194SOL    HW119481   1.107   0.133   0.709
 6194SOL    HW219482   1.072   0.168   0.554
 6195SOL     OW19483   3.866   6.143   5.538
 6195SOL    HW119484   3.890   6.047   5.546
 6195SOL    HW219485   3.778   6.151   5.490
 6196SOL     OW19486   5.805   1.977   1.290
 6196SOL    HW119487   5.826   1.954   1.195
 6196SOL    HW219488   5.747   2.059   1.292
 6197SOL     OW19489   3.992   4.801   0.426
 6197SOL    HW119490   3.992   4.712   0.380
 6197SOL    HW219491   4.044   4.796   0.511
 6198SOL     OW19492   3.043   5.432   2.231
 6198SOL    HW119493   3.123   5.446   2.290
 6198SOL    HW219494   3.056   5.480   2.145
 6199SOL     OW19495   1.196   0.441   0.873
 6199SOL    HW119496   1.162   0.464   0.965
 6199SOL    HW219497   1.289   0.477   0.862
 6200SOL     OW19498   2.165   1.006   4.950
 6200SOL    HW119499   2.174   0.916   4.991
 6200SOL    HW219500   2.225   1.071   4.997
 6201SOL     OW19501   1.654   4.091   5.025
 6201SOL    HW119502   1.753   4.107   5.031
 6201SOL    HW219503   1.612   4.164   4.970
 6202SOL     OW19504   4.039   1.486   1.708
 6202SOL    HW119505   4.095   1.403   1.702
 6202SOL    HW219506   4.043   1.523   1.800
 6203SOL     OW19507   6.008   6.576   2.962
 6203SOL    HW119508   5.939   6.525   3.015
 6203SOL    HW219509   5.967   6.658   2.924
 6204SOL     OW19510   1.057   5.371   4.702
 6204SOL    HW119511   1.014   5.281   4.698
 6204SOL    HW219512   1.047   5.409   4.794
 6205SOL     OW19513   6.330   6.314   0.343
 6205SOL    HW119514   6.287   6.404   0.349
 6205SOL    HW219515   6.373   6.292   0.430
 6206SOL     OW19516   0.167   0.422   2.694
 6206SOL    HW119517   0.085   0.476   2.675
 6206SOL    HW219518   0.144   0.326   2.702
 6207SOL     OW19519   1.525   4.967   3.934
 6207SOL    HW119520   1.496   4.883   3.980
 6207SOL    HW219521   1.615   4.995   3.967
 6208SOL     OW19522   6.133   1.693   6.377
 6208SOL    HW119523   6.089   1.673   6.464
 6208SOL    HW219524   6.104   1.784   6.346
 6209SOL     OW19525   4.481   5.786   6.908
 6209SOL    HW119526   4.454   5.690   6.900
 6209SOL    HW219527   4.443   5.838   6.832
 6210SOL     OW19528   5.820   4.248   4.064
 6210SOL    HW119529   5.883   4.268   4.140
 6210SOL    HW219530   5.827   4.319   3.995
 6211SOL     OW19531   2.956   6.199   5.315
 6211SOL    HW119532   3.032   6.253   5.277
 6211SOL    HW219533   2.990   6.137   5.386
 6212SOL     OW19534   2.316   4.920   2.653
 6212SOL    HW119535   2.235   4.979   2.663
 6212SOL    HW219536   2.342   4.884   2.742
 6213SOL     OW19537   5.123   0.433   0.084
 6213SOL    HW119538   5.037   0.393   0.053
 6213SOL    HW219539   5.190   0.431   0.010
 6214SOL     OW19540   4.460   4.877   3.952
 6214SOL    HW119541   4.456   4.777   3.954
 6214SOL    HW219542   4.501   4.910   4.037
 6215SOL     OW19543   4.417   1.972   0.656
 6215SOL    HW119544   4.442   2.023   0.573
 6215SOL    HW219545   4.375   1.885   0.630
 6216SOL     OW19546   6.020   1.982   2.332
 6216SOL    HW119547   6.067   1.895   2.316
 6216SOL    HW219548   5.959   2.002   2.255
 6217SOL     OW19549   0.456   3.057   2.604
 6217SOL    HW119550   0.510   2.973   2.613
 6217SOL    HW219551   0.378   3.040   2.543
 6218SOL     OW19552   3.551   4.956   5.708
 6218SOL    HW119553   3.528   4.964   5.611
 6218SOL    HW219554   3.520   5.038   5.756
 6219SOL     OW19555   1.073   2.181   4.458
 6219SOL    HW119556   1.168   2.153   4.443
 6219SOL    HW219557   1.071   2.261   4.518
 6220SOL     OW19558   1.603   2.923   5.082
 6220SOL    HW119559   1.591   2.915   4.983
 6220SOL    HW219560   1.534   2.867   5.128
 6221SOL     OW19561   6.085   5.718   6.972
 6221SOL    HW119562   6.171   5.731   6.922
 6221SOL    HW219563   6.010   5.704   6.908
 6222SOL     OW19564   0.804   6.008   0.916
 6222SOL    HW119565   0.838   5.916   0.936
 6222SOL    HW219566   0.854   6.075   0.971
 6223SOL     OW19567   0.627   4.697   4.554
 6223SOL    HW119568   0.676   4.651   4.628
 6223SOL    HW219569   0.532   4.666   4.553
 6224SOL     OW19570   2.620   1.854   6.177
 6224SOL    HW119571   2.679   1.934   6.180
 6224SOL    HW219572   2.541   1.869   6.238
 6225SOL     OW19573   3.342   3.740   0.813
 6225SOL    HW119574   3.440   3.746   0.828
 6225SOL    HW219575   3.319   3.781   0.725
 6226SOL     OW19576   5.907   1.538   5.320
 6226SOL    HW119577   5.843   1.487   5.378
 6226SOL    HW219578   5.872   1.631   5.307
 6227SOL     OW19579   3.664   5.355   5.903
 6227SOL    HW119580   3.687   5.271   5.951
 6227SOL    HW219581   3.667   5.339   5.804
 6228SOL     OW19582   1.479   2.689   2.960
 6228SOL    HW119583   1.396   2.728   3.002
 6228SOL    HW219584   1.560   2.726   3.006
 6229SOL     OW19585   0.458   2.477   2.571
 6229SOL    HW119586   0.530   2.495   2.638
 6229SOL    HW219587   0.425   2.383   2.581
 6230SOL     OW19588   1.400   1.375   3.727
 6230SOL    HW119589   1.385   1.412   3.819
 6230SOL    HW219590   1.375   1.278   3.727
 6231SOL     OW19591   6.393   5.182   1.162
 6231SOL    HW119592   6.349   5.105   1.116
 6231SOL    HW219593   6.439   5.150   1.244
 6232SOL     OW19594   6.702   1.416   0.793
 6232SOL    HW119595   6.714   1.318   0.809
 6232SOL    HW219596   6.757   1.443   0.714
 6233SOL     OW19597   6.109   0.603   0.304
 6233SOL    HW119598   6.142   0.519   0.347
 6233SOL    HW219599   6.047   0.579   0.229
 6234SOL     OW19600   6.038   1.561   5.568
 6234SOL    HW119601   6.124   1.606   5.589
 6234SOL    HW219602   6.050   1.462   5.573
 6235SOL     OW19603   1.422   0.757   1.418
 6235SOL    HW119604   1.376   0.724   1.500
 6235SOL    HW219605   1.517   0.779   1.440
 6236SOL     OW19606   0.183   3.647   0.410
 6236SOL    HW119607   0.155   3.702   0.331
 6236SOL    HW219608   0.104   3.635   0.471
 6237SOL     OW19609   3.415   6.256   6.844
 6237SOL    HW119610   3.444   6.351   6.831
 6237SOL    HW219611   3.338   6.253   6.907
 6238SOL     OW19612   4.052   4.895   2.961
 6238SOL    HW119613   4.083   4.800   2.956
 6238SOL    HW219614   4.110   4.953   2.906
 6239SOL     OW19615   3.576   5.908   1.709
 6239SOL    HW119616   3.546   5.904   1.614
 6239SOL    HW219617   3.676   5.900   1.713
 6240SOL     OW19618   2.718   3.017   6.488
 6240SOL    HW119619   2.692   2.990   6.395
 6240SOL    HW219620   2.714   3.117   6.496
 6241SOL     OW19621   3.465   0.224   1.900
 6241SOL    HW119622   3.371   0.214   1.868
 6241SOL    HW219623   3.527   0.222   1.821
 6242SOL     OW19624   5.352   1.427   3.442
 6242SOL    HW119625   5.373   1.472   3.354
 6242SOL    HW219626   5.322   1.333   3.425
 6243SOL     OW19627   6.362   0.121   4.044
 6243SOL    HW119628   6.461   0.102   4.044
 6243SOL    HW219629   6.315   0.052   4.099
 6244SOL     OW19630   1.078   2.470   2.452
 6244SOL    HW119631   1.065   2.385   2.502
 6244SOL    HW219632   1.176   2.489   2.442
 6245SOL     OW19633   1.863   3.851   0.068
 6245SOL    HW119634   1.791   3.810   0.012
 6245SOL    HW219635   1.855   3.950   0.064
 6246SOL     OW19636   1.895   2.617   5.712
 6246SOL    HW119637   1.861   2.609   5.806
 6246SOL    HW219638   1.828   2.665   5.657
 6247SOL     OW19639   1.505   6.377   4.337
 6247SOL    HW119640   1.542   6.466   4.363
 6247SOL    HW219641   1.580   6.318   4.306
 6248SOL     OW19642   3.433   3.629   0.348
 6248SOL    HW119643   3.421   3.614   0.446
 6248SOL    HW219644   3.498   3.704   0.334
 6249SOL     OW19645   0.432   4.126   0.567
 6249SOL    HW119646   0.484   4.070   0.502
 6249SOL    HW219647   0.337   4.096   0.568
 6250SOL     OW19648   0.236   5.938   0.506
 6250SOL    HW119649   0.171   5.932   0.430
 6250SOL    HW219650   0.223   6.024   0.554
 6251SOL     OW19651   3.633   5.351   6.802
 6251SOL    HW119652   3.721   5.395   6.814
 6251SOL    HW219653   3.646   5.253   6.787
 6252SOL     OW19654   1.266   6.968   6.000
 6252SOL    HW119655   1.183   6.945   5.950
 6252SOL    HW219656   1.308   0.031   5.961
 6253SOL     OW19657   2.265   4.330   3.026
 6253SOL    HW119658   2.326   4.403   3.054
 6253SOL    HW219659   2.289   4.300   2.933
 6254SOL     OW19660   4.942   1.505   0.569
 6254SOL    HW119661   4.946   1.450   0.485
 6254SOL    HW219662   5.025   1.560   0.578
 6255SOL     OW19663   2.842   0.538   1.119
 6255SOL    HW119664   2.880   0.445   1.118
 6255SOL    HW219665   2.832   0.571   1.026
 6256SOL     OW19666   3.273   5.265   2.622
 6256SOL    HW119667   3.229   5.206   2.555
 6256SOL    HW219668   3.337   5.210   2.677
 6257SOL     OW19669   4.653   2.181   0.789
 6257SOL    HW119670   4.565   2.210   0.827
 6257SOL    HW219671   4.702   2.127   0.858
 6258SOL     OW19672   4.055   0.004   3.639
 6258SOL    HW119673   4.050   0.099   3.607
 6258SOL    HW219674   4.143   6.983   3.611
 6259SOL     OW19675   2.550   2.558   0.771
 6259SOL    HW119676   2.570   2.460   0.773
 6259SOL    HW219677   2.635   2.608   0.759
 6260SOL     OW19678   3.454   5.623   0.339
 6260SOL    HW119679   3.470   5.529   0.310
 6260SOL    HW219680   3.367   5.628   0.389
 6261SOL     OW19681   4.010   0.266   6.100
 6261SOL    HW119682   4.070   0.280   6.022
 6261SOL    HW219683   3.968   0.175   6.094
 6262SOL     OW19684   1.830   5.608   0.863
 6262SOL    HW119685   1.754   5.578   0.804
 6262SOL    HW219686   1.874   5.529   0.905
 6263SOL     OW19687   6.544   0.292   5.503
 6263SOL    HW119688   6.539   0.238   5.587
 6263SOL    HW219689   6.579   0.383   5.525
 6264SOL     OW19690   1.156   6.368   1.829
 6264SOL    HW119691   1.074   6.366   1.886
 6264SOL    HW219692   1.233   6.401   1.883
 6265SOL     OW19693   3.212   3.843   0.572
 6265SOL    HW119694   3.128   3.840   0.627
 6265SOL    HW219695   3.189   3.864   0.477
 6266SOL     OW19696   4.083   6.830   4.621
 6266SOL    HW119697   4.150   6.811   4.693
 6266SOL    HW219698   4.079   6.753   4.557
 6267SOL     OW19699   2.612   0.865   6.671
 6267SOL    HW119700   2.600   0.964   6.669
 6267SOL    HW219701   2.524   0.820   6.661
 6268SOL     OW19702   3.540   6.730   3.481
 6268SOL    HW119703   3.584   6.819   3.494
 6268SOL    HW219704   3.474   6.715   3.555
 6269SOL     OW19705   6.233   5.728   2.123
 6269SOL    HW119706   6.307   5.744   2.058
 6269SOL    HW219707   6.244   5.638   2.165
 6270SOL     OW19708   1.805   0.620   4.678
 6270SOL    HW119709   1.890   0.668   4.700
 6270SOL    HW219710   1.727   0.677   4.704
 6271SOL     OW19711   6.037   2.265   6.248
 6271SOL    HW119712   5.981   2.245   6.168
 6271SOL    HW219713   6.108   2.195   6.258
 6272SOL     OW19714   0.281   2.154   0.238
 6272SOL    HW119715   0.370   2.124   0.205
 6272SOL    HW219716   0.284   2.166   0.337
 6273SOL     OW19717   1.691   6.078   2.828
 6273SOL    HW119718   1.735   5.989   2.813
 6273SOL    HW219719   1.723   6.143   2.759
 6274SOL     OW19720   2.295   5.619   6.003
 6274SOL    HW119721   2.315   5.708   6.044
 6274SOL    HW219722   2.309   5.547   6.070
 6275SOL     OW19723   2.153   6.134   5.256
 6275SOL    HW119724   2.232   6.074   5.242
 6275SOL    HW219725   2.173   6.225   5.218
 6276SOL     OW19726   1.933   4.604   2.979
 6276SOL    HW119727   1.951   4.507   2.995
 6276SOL    HW219728   2.002   4.658   3.027
 6277SOL     OW19729   5.491   3.473   1.793
 6277SOL    HW119730   5.469   3.386   1.748
 6277SOL    HW219731   5.589   3.489   1.789
 6278SOL     OW19732   5.179   6.685   4.481
 6278SOL    HW119733   5.204   6.722   4.570
 6278SOL    HW219734   5.080   6.674   4.475
 6279SOL     OW19735   3.926   0.061   6.579
 6279SOL    HW119736   3.871   0.022   6.505
 6279SOL    HW219737   4.006   0.003   6.596
 6280SOL     OW19738   0.932   1.988   5.091
 6280SOL    HW119739   0.932   1.917   5.021
 6280SOL    HW219740   0.919   2.078   5.049
 6281SOL     OW19741   1.387   4.992   3.385
 6281SOL    HW119742   1.301   5.001   3.335
 6281SOL    HW219743   1.380   4.918   3.452
 6282SOL     OW19744   1.187   6.737   4.754
 6282SOL    HW119745   1.117   6.748   4.825
 6282SOL    HW219746   1.148   6.761   4.665
 6283SOL     OW19747   0.129   2.941   6.018
 6283SOL    HW119748   0.113   3.035   6.048
 6283SOL    HW219749   0.047   2.886   6.034
 6284SOL     OW19750   1.666   5.440   4.987
 6284SOL    HW119751   1.703   5.523   4.946
 6284SOL    HW219752   1.581   5.414   4.941
 6285SOL     OW19753   0.655   3.564   4.202
 6285SOL    HW119754   0.699   3.643   4.243
 6285SOL    HW219755   0.595   3.594   4.128
 6286SOL     OW19756   6.313   1.839   3.662
 6286SOL    HW119757   6.297   1.742   3.643
 6286SOL    HW219758   6.294   1.892   3.580
 6287SOL     OW19759   3.443   5.230   4.007
 6287SOL    HW119760   3.405   5.254   4.096
 6287SOL    HW219761   3.542   5.245   4.008
 6288SOL     OW19762   5.342   4.741   2.687
 6288SOL    HW119763   5.360   4.680   2.609
 6288SOL    HW219764   5.244   4.748   2.702
 6289SOL     OW19765   1.670   4.732   1.742
 6289SOL    HW119766   1.659   4.788   1.661
 6289SOL    HW219767   1.631   4.779   1.821
 6290SOL     OW19768   6.454   4.063   4.203
 6290SOL    HW119769   6.484   4.092   4.294
 6290SOL    HW219770   6.502   3.979   4.178
 6291SOL     OW19771   3.479   2.864   4.847
 6291SOL    HW119772   3.552   2.891   4.784
 6291SOL    HW219773   3.422   2.794   4.805
 6292SOL     OW19774   1.742   2.184   3.906
 6292SOL    HW119775   1.764   2.160   4.000
 6292SOL    HW219776   1.661   2.133   3.876
 6293SOL     OW19777   4.167   0.364   0.053
 6293SOL    HW119778   4.143   0.461   0.058
 6293SOL    HW219779   4.148   0.321   0.141
 6294SOL     OW19780   3.754   4.909   4.542
 6294SOL    HW119781   3.784   4.813   4.545
 6294SOL    HW219782   3.739   4.936   4.447
 6295SOL     OW19783   5.701   5.071   5.798
 6295SOL    HW119784   5.609   5.034   5.790
 6295SOL    HW219785   5.700   5.169   5.775
 6296SOL     OW19786   0.130   6.764   5.873
 6296SOL    HW119787   0.090   6.780   5.963
 6296SOL    HW219788   0.118   6.845   5.816
 6297SOL     OW19789   5.139   6.389   4.428
 6297SOL    HW119790   5.084   6.459   4.473
 6297SOL    HW219791   5.101   6.370   4.337
 6298SOL     OW19792   1.549   2.730   6.735
 6298SOL    HW119793   1.559   2.795   6.810
 6298SOL    HW219794   1.485   2.767   6.668
 6299SOL     OW19795   5.112   1.558   0.038
 6299SOL    HW119796   5.156   1.485   7.005
 6299SOL    HW219797   5.161   1.572   0.124
 6300SOL     OW19798   5.720   0.283   0.275
 6300SOL    HW119799   5.724   0.379   0.304
 6300SOL    HW219800   5.759   0.274   0.183
 6301SOL     OW19801   3.820   0.915   0.391
 6301SOL    HW119802   3.802   0.820   0.418
 6301SOL    HW219803   3.831   0.972   0.473
 6302SOL     OW19804   1.678   0.052   3.601
 6302SOL    HW119805   1.636   0.140   3.627
 6302SOL    HW219806   1.608   7.013   3.561
 6303SOL     OW19807   1.763   1.610   4.327
 6303SOL    HW119808   1.731   1.697   4.289
 6303SOL    HW219809   1.684   1.550   4.341
 6304SOL     OW19810   2.516   1.601   1.069
 6304SOL    HW119811   2.512   1.699   1.050
 6304SOL    HW219812   2.516   1.551   0.983
 6305SOL     OW19813   5.358   6.745   1.607
 6305SOL    HW119814   5.451   6.742   1.571
 6305SOL    HW219815   5.298   6.687   1.552
 6306SOL     OW19816   1.019   3.721   3.831
 6306SOL    HW119817   1.002   3.782   3.908
 6306SOL    HW219818   0.932   3.697   3.787
 6307SOL     OW19819   4.049   4.443   5.521
 6307SOL    HW119820   4.056   4.469   5.617
 6307SOL    HW219821   3.963   4.478   5.483
 6308SOL     OW19822   2.145   2.329   4.821
 6308SOL    HW119823   2.236   2.359   4.850
 6308SOL    HW219824   2.130   2.356   4.726
 6309SOL     OW19825   5.501   4.298   4.803
 6309SOL    HW119826   5.520   4.200   4.794
 6309SOL    HW219827   5.536   4.330   4.891
 6310SOL     OW19828   1.961   5.966   3.320
 6310SOL    HW119829   1.959   5.937   3.416
 6310SOL    HW219830   2.043   6.020   3.303
 6311SOL     OW19831   4.952   0.593   5.697
 6311SOL    HW119832   4.952   0.494   5.685
 6311SOL    HW219833   5.014   0.617   5.773
 6312SOL     OW19834   5.501   5.309   5.321
 6312SOL    HW119835   5.579   5.286   5.379
 6312SOL    HW219836   5.500   5.249   5.241
 6313SOL     OW19837   1.280   6.404   4.194
 6313SOL    HW119838   1.293   6.343   4.116
 6313SOL    HW219839   1.352   6.388   4.261
 6314SOL     OW19840   3.941   6.282   1.782
 6314SOL    HW119841   3.951   6.343   1.860
 6314SOL    HW219842   3.847   6.287   1.747
 6315SOL     OW19843   2.410   2.668   5.795
 6315SOL    HW119844   2.358   2.623   5.868
 6315SOL    HW219845   2.385   2.765   5.792
 6316SOL     OW19846   4.613   1.661   6.671
 6316SOL    HW119847   4.610   1.561   6.676
 6316SOL    HW219848   4.689   1.694   6.728
 6317SOL     OW19849   4.593   5.380   2.986
 6317SOL    HW119850   4.554   5.416   2.901
 6317SOL    HW219851   4.693   5.376   2.977
 6318SOL     OW19852   3.641   1.594   4.500
 6318SOL    HW119853   3.616   1.622   4.592
 6318SOL    HW219854   3.666   1.675   4.446
 6319SOL     OW19855   0.047   1.773   3.997
 6319SOL    HW119856   0.010   1.795   3.907
 6319SOL    HW219857   0.147   1.773   3.993
 6320SOL     OW19858   6.031   5.618   4.930
 6320SOL    HW119859   6.016   5.668   5.015
 6320SOL    HW219860   5.943   5.599   4.886
 6321SOL     OW19861   3.097   3.539   0.837
 6321SOL    HW119862   3.048   3.544   0.923
 6321SOL    HW219863   3.192   3.567   0.851
 6322SOL     OW19864   1.898   2.286   0.301
 6322SOL    HW119865   1.839   2.262   0.378
 6322SOL    HW219866   1.846   2.342   0.236
 6323SOL     OW19867   3.118   2.504   1.372
 6323SOL    HW119868   3.129   2.417   1.324
 6323SOL    HW219869   3.032   2.547   1.343
 6324SOL     OW19870   5.117   0.154   6.520
 6324SOL    HW119871   5.181   0.229   6.506
 6324SOL    HW219872   5.116   0.128   6.617
 6325SOL     OW19873   2.221   1.697   2.445
 6325SOL    HW119874   2.188   1.714   2.537
 6325SOL    HW219875   2.168   1.750   2.379
 6326SOL     OW19876   4.571   5.327   1.835
 6326SOL    HW119877   4.589   5.254   1.769
 6326SOL    HW219878   4.583   5.293   1.928
 6327SOL     OW19879   0.066   0.211   4.761
 6327SOL    HW119880   0.023   0.199   4.850
 6327SOL    HW219881   0.012   0.274   4.706
 6328SOL     OW19882   2.657   3.964   0.734
 6328SOL    HW119883   2.650   3.914   0.648
 6328SOL    HW219884   2.662   3.900   0.810
 6329SOL     OW19885   2.622   2.029   3.696
 6329SOL    HW119886   2.684   2.069   3.628
 6329SOL    HW219887   2.537   2.083   3.698
 6330SOL     OW19888   4.566   1.468   1.101
 6330SOL    HW119889   4.599   1.401   1.168
 6330SOL    HW219890   4.478   1.437   1.065
 6331SOL     OW19891   6.795   2.286   6.821
 6331SOL    HW119892   6.889   2.319   6.832
 6331SOL    HW219893   6.792   2.187   6.839
 6332SOL     OW19894   5.784   3.583   1.746
 6332SOL    HW119895   5.788   3.669   1.797
 6332SOL    HW219896   5.855   3.521   1.779
 6333SOL     OW19897   4.511   5.771   5.023
 6333SOL    HW119898   4.546   5.844   4.963
 6333SOL    HW219899   4.483   5.810   5.110
 6334SOL     OW19900   3.059   0.124   1.645
 6334SOL    HW119901   2.985   0.186   1.618
 6334SOL    HW219902   3.097   0.081   1.563
 6335SOL     OW19903   4.306   1.044   0.364
 6335SOL    HW119904   4.246   0.966   0.346
 6335SOL    HW219905   4.390   1.034   0.311
 6336SOL     OW19906   0.780   1.891   6.043
 6336SOL    HW119907   0.812   1.804   6.008
 6336SOL    HW219908   0.819   1.907   6.134
 6337SOL     OW19909   4.530   4.108   6.460
 6337SOL    HW119910   4.601   4.178   6.463
 6337SOL    HW219911   4.573   4.017   6.457
 6338SOL     OW19912   3.552   1.567   3.705
 6338SOL    HW119913   3.607   1.493   3.744
 6338SOL    HW219914   3.522   1.543   3.613
 6339SOL     OW19915   1.511   3.486   2.570
 6339SOL    HW119916   1.544   3.554   2.635
 6339SOL    HW219917   1.431   3.440   2.607
 6340SOL     OW19918   1.895   4.678   2.317
 6340SOL    HW119919   1.800   4.699   2.291
 6340SOL    HW219920   1.956   4.746   2.276
 6341SOL     OW19921   0.923   4.607   4.222
 6341SOL    HW119922   0.923   4.507   4.220
 6341SOL    HW219923   1.017   4.640   4.237
 6342SOL     OW19924   2.762   1.882   2.115
 6342SOL    HW119925   2.711   1.948   2.171
 6342SOL    HW219926   2.784   1.802   2.169
 6343SOL     OW19927   4.792   2.003   6.142
 6343SOL    HW119928   4.723   1.933   6.159
 6343SOL    HW219929   4.753   2.074   6.083
 6344SOL     OW19930   6.053   3.010   5.317
 6344SOL    HW119931   6.021   2.957   5.395
 6344SOL    HW219932   6.091   2.949   5.248
 6345SOL     OW19933   5.157   2.295   2.211
 6345SOL    HW119934   5.183   2.360   2.282
 6345SOL    HW219935   5.162   2.202   2.247
 6346SOL     OW19936   6.714   4.902   3.995
 6346SOL    HW119937   6.780   4.883   4.068
 6346SOL    HW219938   6.660   4.820   3.977
 6347SOL     OW19939   2.342   0.288   1.033
 6347SOL    HW119940   2.348   0.222   0.958
 6347SOL    HW219941   2.251   0.284   1.074
 6348SOL     OW19942   1.528   4.178   4.762
 6348SOL    HW119943   1.485   4.158   4.673
 6348SOL    HW219944   1.618   4.219   4.747
 6349SOL     OW19945   2.955   0.249   1.114
 6349SOL    HW119946   2.880   0.194   1.076
 6349SOL    HW219947   2.998   0.200   1.189
 6350SOL     OW19948   2.528   4.919   4.190
 6350SOL    HW119949   2.626   4.901   4.176
 6350SOL    HW219950   2.476   4.838   4.164
 6351SOL     OW19951   6.682   3.617   3.218
 6351SOL    HW119952   6.624   3.669   3.156
 6351SOL    HW219953   6.676   3.520   3.195
 6352SOL     OW19954   3.253   5.203   5.183
 6352SOL    HW119955   3.353   5.194   5.175
 6352SOL    HW219956   3.228   5.299   5.178
 6353SOL     OW19957   0.504   0.387   5.600
 6353SOL    HW119958   0.468   0.307   5.648
 6353SOL    HW219959   0.445   0.465   5.617
 6354SOL     OW19960   1.786   5.601   3.489
 6354SOL    HW119961   1.715   5.596   3.560
 6354SOL    HW219962   1.844   5.680   3.506
 6355SOL     OW19963   0.871   5.706   6.253
 6355SOL    HW119964   0.877   5.717   6.352
 6355SOL    HW219965   0.842   5.613   6.231
 6356SOL     OW19966   3.771   5.121   2.583
 6356SOL    HW119967   3.779   5.022   2.576
 6356SOL    HW219968   3.754   5.160   2.492
 6357SOL     OW19969   5.032   3.350   2.318
 6357SOL    HW119970   5.033   3.251   2.309
 6357SOL    HW219971   5.004   3.375   2.410
 6358SOL     OW19972   0.831   2.172   6.457
 6358SOL    HW119973   0.812   2.197   6.552
 6358SOL    HW219974   0.774   2.227   6.396
 6359SOL     OW19975   6.413   6.418   6.154
 6359SOL    HW119976   6.451   6.490   6.212
 6359SOL    HW219977   6.342   6.369   6.204
 6360SOL     OW19978   1.571   3.982   3.701
 6360SOL    HW119979   1.573   4.054   3.632
 6360SOL    HW219980   1.484   3.985   3.751
 6361SOL     OW19981   6.175   6.987   0.528
 6361SOL    HW119982   6.153   6.995   0.431
 6361SOL    HW219983   6.101   0.007   0.582
 6362SOL     OW19984   0.786   6.331   0.499
 6362SOL    HW119985   0.692   6.302   0.516
 6362SOL    HW219986   0.848   6.283   0.561
 6363SOL     OW19987   2.240   4.635   3.387
 6363SOL    HW119988   2.290   4.549   3.389
 6363SOL    HW219989   2.305   4.711   3.383
 6364SOL     OW19990   2.854   1.225   6.036
 6364SOL    HW119991   2.813   1.255   5.950
 6364SOL    HW219992   2.831   1.129   6.052
 6365SOL     OW19993   5.496   0.430   4.363
 6365SOL    HW119994   5.546   0.359   4.413
 6365SOL    HW219995   5.501   0.516   4.414
 6366SOL     OW19996   1.018   6.072   6.218
 6366SOL    HW119997   1.042   6.076   6.121
 6366SOL    HW219998   0.920   6.054   6.227
 6367SOL     OW19999   4.093   0.006   4.867
 6367SOL    HW120000   4.129   6.936   4.842
 6367SOL    HW220001   4.138   0.076   4.813
 6368SOL     OW20002   3.406   5.069   3.703
 6368SOL    HW120003   3.476   5.121   3.751
 6368SOL    HW220004   3.374   5.121   3.624
 6369SOL     OW20005   1.546   4.684   3.979
 6369SOL    HW120006   1.534   4.632   4.064
 6369SOL    HW220007   1.596   4.629   3.913
 6370SOL     OW20008   0.342   3.196   2.857
 6370SOL    HW120009   0.408   3.236   2.792
 6370SOL    HW220010   0.251   3.199   2.817
 6371SOL     OW20011   5.255   3.781   4.397
 6371SOL    HW120012   5.206   3.696   4.416
 6371SOL    HW220013   5.353   3.761   4.388
 6372SOL     OW20014   2.950   0.410   1.819
 6372SOL    HW120015   3.039   0.434   1.779
 6372SOL    HW220016   2.884   0.395   1.746
 6373SOL     OW20017   5.567   4.152   3.290
 6373SOL    HW120018   5.492   4.215   3.268
 6373SOL    HW220019   5.546   4.102   3.373
 6374SOL     OW20020   3.050   3.925   4.441
 6374SOL    HW120021   3.016   3.918   4.535
 6374SOL    HW220022   2.981   3.891   4.378
 6375SOL     OW20023   6.464   1.877   3.942
 6375SOL    HW120024   6.533   1.950   3.942
 6375SOL    HW220025   6.392   1.899   3.877
 6376SOL     OW20026   6.254   2.808   5.217
 6376SOL    HW120027   6.326   2.877   5.218
 6376SOL    HW220028   6.258   2.759   5.130
 6377SOL     OW20029   6.096   1.767   5.382
 6377SOL    HW120030   6.079   1.684   5.436
 6377SOL    HW220031   6.009   1.802   5.347
 6378SOL     OW20032   5.283   5.506   4.249
 6378SOL    HW120033   5.339   5.463   4.178
 6378SOL    HW220034   5.228   5.579   4.208
 6379SOL     OW20035   2.200   4.129   4.253
 6379SOL    HW120036   2.194   4.059   4.182
 6379SOL    HW220037   2.228   4.216   4.211
 6380SOL     OW20038   0.500   1.921   6.154
 6380SOL    HW120039   0.590   1.887   6.126
 6380SOL    HW220040   0.505   2.019   6.171
 6381SOL     OW20041   3.889   3.027   2.101
 6381SOL    HW120042   3.865   3.028   2.004
 6381SOL    HW220043   3.977   3.072   2.115
 6382SOL     OW20044   1.124   2.034   0.578
 6382SOL    HW120045   1.142   2.128   0.547
 6382SOL    HW220046   1.138   2.029   0.677
 6383SOL     OW20047   1.698   2.214   3.102
 6383SOL    HW120048   1.755   2.292   3.073
 6383SOL    HW220049   1.723   2.133   3.049
 6384SOL     OW20050   5.404   4.151   1.566
 6384SOL    HW120051   5.482   4.101   1.527
 6384SOL    HW220052   5.386   4.232   1.510
 6385SOL     OW20053   6.790   5.001   3.687
 6385SOL    HW120054   6.873   4.956   3.655
 6385SOL    HW220055   6.771   4.974   3.781
 6386SOL     OW20056   2.781   4.172   6.285
 6386SOL    HW120057   2.751   4.225   6.364
 6386SOL    HW220058   2.713   4.180   6.212
 6387SOL     OW20059   0.621   1.852   6.708
 6387SOL    HW120060   0.702   1.854   6.649
 6387SOL    HW220061   0.591   1.946   6.726
 6388SOL     OW20062   4.266   4.680   1.208
 6388SOL    HW120063   4.202   4.613   1.169
 6388SOL    HW220064   4.214   4.752   1.255
 6389SOL     OW20065   0.949   6.198   2.779
 6389SOL    HW120066   1.043   6.216   2.751
 6389SOL    HW220067   0.930   6.100   2.774
 6390SOL     OW20068   0.708   2.013   5.263
 6390SOL    HW120069   0.788   2.006   5.204
 6390SOL    HW220070   0.648   1.935   5.247
 6391SOL     OW20071   2.499   6.542   5.673
 6391SOL    HW120072   2.403   6.566   5.660
 6391SOL    HW220073   2.543   6.609   5.732
 6392SOL     OW20074   2.140   6.751   3.226
 6392SOL    HW120075   2.151   6.691   3.306
 6392SOL    HW220076   2.197   6.832   3.238
 6393SOL     OW20077   6.486   0.260   1.347
 6393SOL    HW120078   6.561   0.274   1.282
 6393SOL    HW220079   6.512   0.297   1.437
 6394SOL     OW20080   2.364   4.450   0.703
 6394SOL    HW120081   2.313   4.481   0.783
 6394SOL    HW220082   2.408   4.528   0.658
 6395SOL     OW20083   6.061   2.696   1.812
 6395SOL    HW120084   6.013   2.774   1.853
 6395SOL    HW220085   6.024   2.611   1.849
 6396SOL     OW20086   5.731   3.438   6.142
 6396SOL    HW120087   5.757   3.358   6.196
 6396SOL    HW220088   5.723   3.518   6.201
 6397SOL     OW20089   5.641   2.800   6.606
 6397SOL    HW120090   5.677   2.872   6.666
 6397SOL    HW220091   5.648   2.712   6.651
 6398SOL     OW20092   3.262   0.924   0.383
 6398SOL    HW120093   3.223   0.937   0.474
 6398SOL    HW220094   3.330   0.994   0.365
 6399SOL     OW20095   1.412   5.705   6.894
 6399SOL    HW120096   1.508   5.731   6.884
 6399SOL    HW220097   1.361   5.778   6.939
 6400SOL     OW20098   2.320   6.461   2.220
 6400SOL    HW120099   2.288   6.431   2.130
 6400SOL    HW220100   2.419   6.475   2.217
 6401SOL     OW20101   0.341   4.652   3.568
 6401SOL    HW120102   0.393   4.637   3.652
 6401SOL    HW220103   0.340   4.750   3.547
 6402SOL     OW20104   4.118   1.639   2.714
 6402SOL    HW120105   4.145   1.716   2.772
 6402SOL    HW220106   4.199   1.597   2.674
 6403SOL     OW20107   6.813   6.321   6.142
 6403SOL    HW120108   6.762   6.388   6.089
 6403SOL    HW220109   6.753   6.246   6.169
 6404SOL     OW20110   3.821   1.322   2.680
 6404SOL    HW120111   3.770   1.239   2.658
 6404SOL    HW220112   3.914   1.298   2.708
 6405SOL     OW20113   2.502   0.235   3.762
 6405SOL    HW120114   2.573   0.286   3.811
 6405SOL    HW220115   2.534   0.214   3.670
 6406SOL     OW20116   1.203   2.493   3.307
 6406SOL    HW120117   1.177   2.467   3.215
 6406SOL    HW220118   1.203   2.411   3.366
 6407SOL     OW20119   3.089   6.517   3.810
 6407SOL    HW120120   3.172   6.500   3.757
 6407SOL    HW220121   3.077   6.616   3.823
 6408SOL     OW20122   5.842   2.016   0.250
 6408SOL    HW120123   5.822   2.045   0.344
 6408SOL    HW220124   5.798   2.078   0.186
 6409SOL     OW20125   0.416   4.571   2.975
 6409SOL    HW120126   0.371   4.493   3.020
 6409SOL    HW220127   0.421   4.648   3.040
 6410SOL     OW20128   2.013   1.822   0.690
 6410SOL    HW120129   1.930   1.871   0.718
 6410SOL    HW220130   2.040   1.853   0.599
 6411SOL     OW20131   0.424   2.758   3.161
 6411SOL    HW120132   0.367   2.730   3.239
 6411SOL    HW220133   0.408   2.855   3.142
 6412SOL     OW20134   0.207   2.182   5.373
 6412SOL    HW120135   0.205   2.223   5.464
 6412SOL    HW220136   0.301   2.183   5.338
 6413SOL     OW20137   4.360   4.959   3.719
 6413SOL    HW120138   4.323   4.884   3.664
 6413SOL    HW220139   4.398   4.922   3.804
 6414SOL     OW20140   5.928   0.955   0.743
 6414SOL    HW120141   5.854   1.022   0.750
 6414SOL    HW220142   5.909   0.877   0.803
 6415SOL     OW20143   2.004   2.444   3.300
 6415SOL    HW120144   1.915   2.472   3.336
 6415SOL    HW220145   1.992   2.371   3.234
 6416SOL     OW20146   1.045   0.940   6.401
 6416SOL    HW120147   1.019   0.858   6.451
 6416SOL    HW220148   1.017   0.931   6.305
 6417SOL     OW20149   6.863   4.890   2.311
 6417SOL    HW120150   6.800   4.945   2.257
 6417SOL    HW220151   6.940   4.947   2.341
 6418SOL     OW20152   4.673   4.690   2.144
 6418SOL    HW120153   4.742   4.636   2.095
 6418SOL    HW220154   4.585   4.643   2.142
 6419SOL     OW20155   2.737   4.673   2.648
 6419SOL    HW120156   2.766   4.586   2.610
 6419SOL    HW220157   2.641   4.690   2.622
 6420SOL     OW20158   3.191   3.762   5.394
 6420SOL    HW120159   3.166   3.668   5.369
 6420SOL    HW220160   3.205   3.815   5.310
 6421SOL     OW20161   5.727   0.923   2.635
 6421SOL    HW120162   5.638   0.898   2.673
 6421SOL    HW220163   5.758   0.852   2.572
 6422SOL     OW20164   0.238   0.615   3.711
 6422SOL    HW120165   0.263   0.536   3.655
 6422SOL    HW220166   0.320   0.670   3.728
 6423SOL     OW20167   5.101   4.988   2.775
 6423SOL    HW120168   5.181   5.014   2.830
 6423SOL    HW220169   5.035   4.941   2.833
 6424SOL     OW20170   6.693   5.855   5.645
 6424SOL    HW120171   6.739   5.807   5.719
 6424SOL    HW220172   6.634   5.792   5.595
 6425SOL     OW20173   6.216   5.531   3.189
 6425SOL    HW120174   6.142   5.529   3.121
 6425SOL    HW220175   6.285   5.463   3.164
 6426SOL     OW20176   0.553   4.890   2.953
 6426SOL    HW120177   0.530   4.838   3.035
 6426SOL    HW220178   0.529   4.836   2.872
 6427SOL     OW20179   2.670   2.854   5.807
 6427SOL    HW120180   2.702   2.766   5.773
 6427SOL    HW220181   2.672   2.921   5.732
 6428SOL     OW20182   6.065   3.116   6.550
 6428SOL    HW120183   5.974   3.156   6.554
 6428SOL    HW220184   6.089   3.078   6.639
 6429SOL     OW20185   1.407   1.553   5.745
 6429SOL    HW120186   1.376   1.609   5.669
 6429SOL    HW220187   1.357   1.466   5.745
 6430SOL     OW20188   5.645   1.132   1.748
 6430SOL    HW120189   5.609   1.082   1.670
 6430SOL    HW220190   5.691   1.069   1.811
 6431SOL     OW20191   5.040   6.490   3.484
 6431SOL    HW120192   5.076   6.570   3.533
 6431SOL    HW220193   5.054   6.408   3.540
 6432SOL     OW20194   3.834   3.632   6.459
 6432SOL    HW120195   3.849   3.704   6.528
 6432SOL    HW220196   3.844   3.671   6.368
 6433SOL     OW20197   3.492   4.375   0.648
 6433SOL    HW120198   3.536   4.418   0.727
 6433SOL    HW220199   3.551   4.385   0.568
 6434SOL     OW20200   1.679   3.760   6.903
 6434SOL    HW120201   1.587   3.798   6.919
 6434SOL    HW220202   1.672   3.677   6.848
 6435SOL     OW20203   4.141   6.641   0.069
 6435SOL    HW120204   4.222   6.697   0.088
 6435SOL    HW220205   4.149   6.602   6.997
 6436SOL     OW20206   2.082   3.276   3.542
 6436SOL    HW120207   1.998   3.223   3.534
 6436SOL    HW220208   2.136   3.267   3.458
 6437SOL     OW20209   2.699   1.180   1.056
 6437SOL    HW120210   2.740   1.271   1.048
 6437SOL    HW220211   2.771   1.111   1.053
 6438SOL     OW20212   0.543   4.272   6.313
 6438SOL    HW120213   0.605   4.215   6.258
 6438SOL    HW220214   0.476   4.213   6.358
 6439SOL     OW20215   5.726   1.081   1.263
 6439SOL    HW120216   5.675   1.054   1.345
 6439SOL    HW220217   5.707   1.177   1.243
 6440SOL     OW20218   2.209   1.746   0.274
 6440SOL    HW120219   2.283   1.740   0.207
 6440SOL    HW220220   2.239   1.706   0.361
 6441SOL     OW20221   1.227   6.290   2.509
 6441SOL    HW120222   1.257   6.196   2.525
 6441SOL    HW220223   1.174   6.294   2.424
 6442SOL     OW20224   2.778   1.028   4.120
 6442SOL    HW120225   2.725   1.009   4.203
 6442SOL    HW220226   2.873   1.049   4.145
 6443SOL     OW20227   3.974   2.498   5.974
 6443SOL    HW120228   3.937   2.480   5.883
 6443SOL    HW220229   4.036   2.577   5.969
 6444SOL     OW20230   6.876   2.325   3.630
 6444SOL    HW120231   6.933   2.406   3.612
 6444SOL    HW220232   6.841   2.330   3.723
 6445SOL     OW20233   4.976   3.181   5.790
 6445SOL    HW120234   5.014   3.181   5.883
 6445SOL    HW220235   4.879   3.206   5.793
 6446SOL     OW20236   1.240   0.799   5.898
 6446SOL    HW120237   1.199   0.795   5.807
 6446SOL    HW220238   1.265   0.707   5.928
 6447SOL     OW20239   0.623   5.247   2.698
 6447SOL    HW120240   0.711   5.208   2.723
 6447SOL    HW220241   0.632   5.347   2.690
 6448SOL     OW20242   4.845   5.395   2.926
 6448SOL    HW120243   4.909   5.330   2.886
 6448SOL    HW220244   4.886   5.438   3.007
 6449SOL     OW20245   2.878   4.865   0.505
 6449SOL    HW120246   2.816   4.942   0.490
 6449SOL    HW220247   2.841   4.806   0.577
 6450SOL     OW20248   0.202   3.655   1.445
 6450SOL    HW120249   0.194   3.695   1.536
 6450SOL    HW220250   0.298   3.634   1.426
 6451SOL     OW20251   2.501   6.925   4.921
 6451SOL    HW120252   2.462   6.967   5.003
 6451SOL    HW220253   2.530   6.832   4.941
 6452SOL     OW20254   3.368   6.862   4.482
 6452SOL    HW120255   3.433   6.789   4.461
 6452SOL    HW220256   3.299   6.868   4.409
 6453SOL     OW20257   1.320   6.560   0.557
 6453SOL    HW120258   1.369   6.473   0.566
 6453SOL    HW220259   1.385   6.633   0.536
 6454SOL     OW20260   2.664   1.786   3.420
 6454SOL    HW120261   2.738   1.851   3.437
 6454SOL    HW220262   2.685   1.699   3.465
 6455SOL     OW20263   0.494   2.253   4.031
 6455SOL    HW120264   0.484   2.158   4.059
 6455SOL    HW220265   0.572   2.294   4.078
 6456SOL     OW20266   1.744   0.637   3.471
 6456SOL    HW120267   1.783   0.703   3.407
 6456SOL    HW220268   1.808   0.561   3.485
 6457SOL     OW20269   4.616   1.904   0.423
 6457SOL    HW120270   4.685   1.974   0.442
 6457SOL    HW220271   4.634   1.823   0.479
 6458SOL     OW20272   0.882   6.986   3.459
 6458SOL    HW120273   0.946   0.010   3.522
 6458SOL    HW220274   0.871   6.889   3.483
 6459SOL     OW20275   5.563   5.405   0.609
 6459SOL    HW120276   5.513   5.327   0.646
 6459SOL    HW220277   5.500   5.464   0.558
 6460SOL     OW20278   4.879   5.428   6.024
 6460SOL    HW120279   4.827   5.513   6.020
 6460SOL    HW220280   4.874   5.381   5.936
 6461SOL     OW20281   2.816   4.566   5.426
 6461SOL    HW120282   2.848   4.661   5.427
 6461SOL    HW220283   2.870   4.513   5.360
 6462SOL     OW20284   2.249   2.861   4.792
 6462SOL    HW120285   2.283   2.935   4.850
 6462SOL    HW220286   2.273   2.773   4.833
 6463SOL     OW20287   0.095   3.928   6.718
 6463SOL    HW120288   0.149   3.873   6.782
 6463SOL    HW220289   0.020   3.972   6.767
 6464SOL     OW20290   1.454   5.161   4.704
 6464SOL    HW120291   1.466   5.100   4.781
 6464SOL    HW220292   1.459   5.256   4.735
 6465SOL     OW20293   6.573   2.452   3.198
 6465SOL    HW120294   6.627   2.421   3.276
 6465SOL    HW220295   6.631   2.504   3.135
 6466SOL     OW20296   0.873   1.527   6.548
 6466SOL    HW120297   0.944   1.593   6.524
 6466SOL    HW220298   0.914   1.450   6.597
 6467SOL     OW20299   3.171   0.730   6.763
 6467SOL    HW120300   3.127   0.819   6.764
 6467SOL    HW220301   3.177   0.694   6.857
 6468SOL     OW20302   4.076   6.997   1.600
 6468SOL    HW120303   4.036   0.003   1.688
 6468SOL    HW220304   4.121   6.908   1.608
 6469SOL     OW20305   4.197   0.719   5.543
 6469SOL    HW120306   4.270   0.709   5.475
 6469SOL    HW220307   4.114   0.753   5.498
 6470SOL     OW20308   6.270   4.834   6.616
 6470SOL    HW120309   6.298   4.878   6.701
 6470SOL    HW220310   6.350   4.794   6.572
 6471SOL     OW20311   6.146   5.912   5.742
 6471SOL    HW120312   6.139   6.012   5.737
 6471SOL    HW220313   6.219   5.880   5.683
 6472SOL     OW20314   0.454   4.735   1.130
 6472SOL    HW120315   0.443   4.641   1.097
 6472SOL    HW220316   0.492   4.792   1.058
 6473SOL     OW20317   2.839   1.768   4.247
 6473SOL    HW120318   2.913   1.730   4.191
 6473SOL    HW220319   2.767   1.802   4.187
 6474SOL     OW20320   1.519   4.000   5.961
 6474SOL    HW120321   1.606   4.014   6.009
 6474SOL    HW220322   1.455   3.954   6.022
 6475SOL     OW20323   6.912   5.064   4.322
 6475SOL    HW120324   6.896   5.096   4.229
 6475SOL    HW220325   6.841   4.999   4.348
 6476SOL     OW20326   4.298   3.001   1.167
 6476SOL    HW120327   4.395   3.022   1.182
 6476SOL    HW220328   4.242   3.078   1.197
 6477SOL     OW20329   6.253   4.951   0.987
 6477SOL    HW120330   6.328   4.904   1.032
 6477SOL    HW220331   6.185   4.885   0.954
 6478SOL     OW20332   3.434   6.353   2.171
 6478SOL    HW120333   3.523   6.316   2.146
 6478SOL    HW220334   3.445   6.446   2.205
 6479SOL     OW20335   4.011   6.289   4.014
 6479SOL    HW120336   4.109   6.275   4.001
 6479SOL    HW220337   3.967   6.201   4.033
 6480SOL     OW20338   3.064   2.186   5.753
 6480SOL    HW120339   3.039   2.239   5.834
 6480SOL    HW220340   3.119   2.243   5.691
 6481SOL     OW20341   3.601   2.090   2.264
 6481SOL    HW120342   3.603   2.150   2.344
 6481SOL    HW220343   3.633   2.141   2.184
 6482SOL     OW20344   0.599   0.236   5.872
 6482SOL    HW120345   0.677   0.251   5.932
 6482SOL    HW220346   0.531   0.309   5.887
 6483SOL     OW20347   1.310   6.076   1.290
 6483SOL    HW120348   1.300   6.154   1.352
 6483SOL    HW220349   1.372   6.101   1.215
 6484SOL     OW20350   3.379   0.167   1.576
 6484SOL    HW120351   3.467   0.188   1.618
 6484SOL    HW220352   3.364   0.229   1.498
 6485SOL     OW20353   1.909   4.324   3.334
 6485SOL    HW120354   1.870   4.233   3.349
 6485SOL    HW220355   1.918   4.340   3.236
 6486SOL     OW20356   2.039   4.658   4.589
 6486SOL    HW120357   2.003   4.632   4.678
 6486SOL    HW220358   2.105   4.590   4.558
 6487SOL     OW20359   0.111   6.001   5.440
 6487SOL    HW120360   0.013   5.987   5.452
 6487SOL    HW220361   0.150   5.920   5.397
 6488SOL     OW20362   3.430   5.987   5.731
 6488SOL    HW120363   3.360   6.050   5.767
 6488SOL    HW220364   3.406   5.961   5.638
 6489SOL     OW20365   2.444   3.091   6.824
 6489SOL    HW120366   2.351   3.059   6.808
 6489SOL    HW220367   2.509   3.024   6.788
 6490SOL     OW20368   4.437   1.542   6.074
 6490SOL    HW120369   4.414   1.537   5.977
 6490SOL    HW220370   4.525   1.496   6.090
 6491SOL     OW20371   4.084   1.022   6.766
 6491SOL    HW120372   4.116   1.033   6.673
 6491SOL    HW220373   4.100   1.106   6.818
 6492SOL     OW20374   5.284   6.053   6.924
 6492SOL    HW120375   5.232   6.055   6.839
 6492SOL    HW220376   5.243   6.118   6.989
 6493SOL     OW20377   0.958   5.764   4.503
 6493SOL    HW120378   0.961   5.731   4.597
 6493SOL    HW220379   0.864   5.767   4.471
 6494SOL     OW20380   0.650   0.901   3.215
 6494SOL    HW120381   0.625   0.973   3.279
 6494SOL    HW220382   0.648   0.813   3.261
 6495SOL     OW20383   4.683   5.987   4.413
 6495SOL    HW120384   4.637   6.006   4.499
 6495SOL    HW220385   4.770   6.036   4.409
 6496SOL     OW20386   6.838   6.988   2.285
 6496SOL    HW120387   6.926   0.011   2.266
 6496SOL    HW220388   6.852   6.896   2.322
 6497SOL     OW20389   2.554   3.021   0.443
 6497SOL    HW120390   2.592   3.026   0.351
 6497SOL    HW220391   2.539   3.113   0.479
 6498SOL     OW20392   2.197   4.041   4.009
 6498SOL    HW120393   2.252   4.102   3.951
 6498SOL    HW220394   2.237   3.950   4.008
 6499SOL     OW20395   5.115   1.841   4.511
 6499SOL    HW120396   5.053   1.918   4.497
 6499SOL    HW220397   5.071   1.772   4.569
 6500SOL     OW20398   0.044   4.757   3.661
 6500SOL    HW120399   0.131   4.781   3.618
 6500SOL    HW220400   0.045   4.660   3.687
 6501SOL     OW20401   6.369   2.852   6.690
 6501SOL    HW120402   6.443   2.911   6.657
 6501SOL    HW220403   6.303   2.838   6.616
 6502SOL     OW20404   6.002   3.915   1.538
 6502SOL    HW120405   6.022   3.914   1.636
 6502SOL    HW220406   5.990   4.009   1.507
 6503SOL     OW20407   4.884   0.786   3.557
 6503SOL    HW120408   4.821   0.831   3.494
 6503SOL    HW220409   4.873   0.687   3.550
 6504SOL     OW20410   5.039   6.336   6.160
 6504SOL    HW120411   5.051   6.312   6.256
 6504SOL    HW220412   5.060   6.433   6.146
 6505SOL     OW20413   4.970   5.340   1.612
 6505SOL    HW120414   5.052   5.344   1.554
 6505SOL    HW220415   4.915   5.422   1.598
 6506SOL     OW20416   5.965   3.287   1.447
 6506SOL    HW120417   6.026   3.299   1.525
 6506SOL    HW220418   6.016   3.302   1.362
 6507SOL     OW20419   2.080   5.165   5.632
 6507SOL    HW120420   1.981   5.150   5.641
 6507SOL    HW220421   2.101   5.198   5.540
 6508SOL     OW20422   2.353   0.470   3.115
 6508SOL    HW120423   2.349   0.390   3.055
 6508SOL    HW220424   2.429   0.528   3.088
 6509SOL     OW20425   3.190   1.844   4.575
 6509SOL    HW120426   3.144   1.923   4.616
 6509SOL    HW220427   3.124   1.791   4.523
 6510SOL     OW20428   6.222   4.163   6.959
 6510SOL    HW120429   6.150   4.118   7.012
 6510SOL    HW220430   6.204   4.152   6.861
 6511SOL     OW20431   4.942   0.823   4.804
 6511SOL    HW120432   4.952   0.851   4.900
 6511SOL    HW220433   4.851   0.847   4.772
 6512SOL     OW20434   5.167   6.793   2.054
 6512SOL    HW120435   5.100   6.859   2.087
 6512SOL    HW220436   5.206   6.825   1.968
 6513SOL     OW20437   3.459   4.911   3.047
 6513SOL    HW120438   3.368   4.904   3.006
 6513SOL    HW220439   3.527   4.874   2.983
 6514SOL     OW20440   5.522   0.793   3.803
 6514SOL    HW120441   5.588   0.832   3.867
 6514SOL    HW220442   5.529   0.841   3.716
 6515SOL     OW20443   0.637   4.948   4.161
 6515SOL    HW120444   0.670   5.005   4.086
 6515SOL    HW220445   0.713   4.897   4.201
 6516SOL     OW20446   0.090   3.395   1.563
 6516SOL    HW120447   0.117   3.477   1.612
 6516SOL    HW220448   0.171   3.342   1.538
 6517SOL     OW20449   6.820   0.823   0.298
 6517SOL    HW120450   6.849   0.785   0.210
 6517SOL    HW220451   6.899   0.857   0.348
 6518SOL     OW20452   6.749   0.551   0.075
 6518SOL    HW120453   6.737   0.550   0.174
 6518SOL    HW220454   6.743   0.645   0.041
 6519SOL     OW20455   2.687   1.802   3.821
 6519SOL    HW120456   2.634   1.728   3.780
 6519SOL    HW220457   2.675   1.886   3.767
 6520SOL     OW20458   5.445   5.388   2.094
 6520SOL    HW120459   5.525   5.446   2.081
 6520SOL    HW220460   5.407   5.363   2.004
 6521SOL     OW20461   1.542   2.349   4.249
 6521SOL    HW120462   1.519   2.401   4.166
 6521SOL    HW220463   1.462   2.296   4.278
 6522SOL     OW20464   3.705   4.460   6.873
 6522SOL    HW120465   3.632   4.495   6.816
 6522SOL    HW220466   3.728   4.366   6.845
 6523SOL     OW20467   3.444   0.757   6.682
 6523SOL    HW120468   3.473   0.839   6.634
 6523SOL    HW220469   3.346   0.742   6.666
 6524SOL     OW20470   2.894   3.606   1.982
 6524SOL    HW120471   2.983   3.576   1.950
 6524SOL    HW220472   2.827   3.596   1.908
 6525SOL     OW20473   1.508   3.791   3.397
 6525SOL    HW120474   1.605   3.776   3.414
 6525SOL    HW220475   1.454   3.749   3.470
 6526SOL     OW20476   2.136   0.532   6.140
 6526SOL    HW120477   2.067   0.523   6.068
 6526SOL    HW220478   2.225   0.549   6.099
 6527SOL     OW20479   1.128   2.426   4.616
 6527SOL    HW120480   1.202   2.391   4.673
 6527SOL    HW220481   1.166   2.474   4.537
 6528SOL     OW20482   0.138   1.103   3.738
 6528SOL    HW120483   0.179   1.032   3.795
 6528SOL    HW220484   0.184   1.106   3.650
 6529SOL     OW20485   0.231   1.559   3.063
 6529SOL    HW120486   0.249   1.657   3.056
 6529SOL    HW220487   0.164   1.532   2.994
 6530SOL     OW20488   6.244   3.576   1.936
 6530SOL    HW120489   6.285   3.543   1.851
 6530SOL    HW220490   6.317   3.599   2.001
 6531SOL     OW20491   5.500   3.676   4.739
 6531SOL    HW120492   5.509   3.576   4.742
 6531SOL    HW220493   5.571   3.717   4.796
 6532SOL     OW20494   6.262   0.198   6.772
 6532SOL    HW120495   6.354   0.173   6.801
 6532SOL    HW220496   6.199   0.123   6.794
 6533SOL     OW20497   4.793   6.122   0.822
 6533SOL    HW120498   4.850   6.071   0.758
 6533SOL    HW220499   4.778   6.068   0.904
 6534SOL     OW20500   3.353   4.235   1.357
 6534SOL    HW120501   3.406   4.214   1.439
 6534SOL    HW220502   3.314   4.151   1.318
 6535SOL     OW20503   6.463   2.932   4.122
 6535SOL    HW120504   6.469   2.865   4.047
 6535SOL    HW220505   6.384   2.992   4.107
 6536SOL     OW20506   0.633   2.212   5.948
 6536SOL    HW120507   0.558   2.232   5.885
 6536SOL    HW220508   0.701   2.155   5.902
 6537SOL     OW20509   5.709   5.702   6.984
 6537SOL    HW120510   5.709   5.605   7.007
 6537SOL    HW220511   5.616   5.732   6.961
 6538SOL     OW20512   3.321   4.377   6.922
 6538SOL    HW120513   3.305   4.279   6.918
 6538SOL    HW220514   3.379   4.405   6.846
 6539SOL     OW20515   3.470   0.568   5.953
 6539SOL    HW120516   3.554   0.623   5.961
 6539SOL    HW220517   3.494   0.475   5.925
 6540SOL     OW20518   5.028   1.456   5.136
 6540SOL    HW120519   5.063   1.498   5.052
 6540SOL    HW220520   4.955   1.513   5.174
 6541SOL     OW20521   3.578   1.328   4.991
 6541SOL    HW120522   3.516   1.251   5.006
 6541SOL    HW220523   3.527   1.404   4.950
 6542SOL     OW20524   0.041   4.526   3.787
 6542SOL    HW120525   7.014   4.448   3.746
 6542SOL    HW220526   0.124   4.494   3.834
 6543SOL     OW20527   6.242   3.901   6.556
 6543SOL    HW120528   6.143   3.886   6.562
 6543SOL    HW220529   6.261   3.998   6.568
 6544SOL     OW20530   0.092   6.419   2.819
 6544SOL    HW120531   0.166   6.476   2.853
 6544SOL    HW220532   0.039   6.384   2.897
 6545SOL     OW20533   5.676   2.209   6.462
 6545SOL    HW120534   5.630   2.243   6.544
 6545SOL    HW220535   5.736   2.280   6.426
 6546SOL     OW20536   3.891   3.885   0.019
 6546SOL    HW120537   3.967   3.945   0.042
 6546SOL    HW220538   3.805   3.929   0.044
 6547SOL     OW20539   4.657   1.366   5.681
 6547SOL    HW120540   4.637   1.455   5.721
 6547SOL    HW220541   4.718   1.378   5.602
 6548SOL     OW20542   0.954   3.217   0.350
 6548SOL    HW120543   0.950   3.120   0.375
 6548SOL    HW220544   0.869   3.262   0.379
 6549SOL     OW20545   4.224   1.567   1.011
 6549SOL    HW120546   4.174   1.613   0.937
 6549SOL    HW220547   4.281   1.494   0.972
 6550SOL     OW20548   0.452   6.418   3.670
 6550SOL    HW120549   0.447   6.459   3.761
 6550SOL    HW220550   0.362   6.420   3.627
 6551SOL     OW20551   1.925   4.541   2.033
 6551SOL    HW120552   1.828   4.538   2.058
 6551SOL    HW220553   1.934   4.555   1.934
 6552SOL     OW20554   2.213   0.166   5.485
 6552SOL    HW120555   2.221   0.126   5.393
 6552SOL    HW220556   2.123   0.209   5.494
 6553SOL     OW20557   0.862   1.619   2.905
 6553SOL    HW120558   0.926   1.696   2.910
 6553SOL    HW220559   0.863   1.580   2.812
 6554SOL     OW20560   6.387   1.460   5.847
 6554SOL    HW120561   6.486   1.444   5.842
 6554SOL    HW220562   6.343   1.383   5.893
 6555SOL     OW20563   0.445   2.477   1.883
 6555SOL    HW120564   0.370   2.476   1.949
 6555SOL    HW220565   0.407   2.485   1.791
 6556SOL     OW20566   4.503   4.761   5.205
 6556SOL    HW120567   4.530   4.792   5.113
 6556SOL    HW220568   4.477   4.840   5.260
 6557SOL     OW20569   3.732   5.559   1.681
 6557SOL    HW120570   3.792   5.563   1.760
 6557SOL    HW220571   3.770   5.616   1.608
 6558SOL     OW20572   6.153   5.249   0.125
 6558SOL    HW120573   6.166   5.220   0.220
 6558SOL    HW220574   6.117   5.342   0.124
 6559SOL     OW20575   6.102   4.188   6.699
 6559SOL    HW120576   6.032   4.202   6.629
 6559SOL    HW220577   6.161   4.269   6.702
 6560SOL     OW20578   4.075   3.948   1.327
 6560SOL    HW120579   4.167   3.977   1.353
 6560SOL    HW220580   4.039   4.011   1.258
 6561SOL     OW20581   3.726   4.016   2.426
 6561SOL    HW120582   3.699   3.926   2.462
 6561SOL    HW220583   3.644   4.069   2.405
 6562SOL     OW20584   5.557   4.787   0.062
 6562SOL    HW120585   5.555   4.756   0.157
 6562SOL    HW220586   5.546   4.709   0.001
 6563SOL     OW20587   0.177   6.034   0.190
 6563SOL    HW120588   0.256   6.051   0.132
 6563SOL    HW220589   0.132   6.121   0.212
 6564SOL     OW20590   6.921   4.028   2.528
 6564SOL    HW120591   6.921   4.108   2.588
 6564SOL    HW220592   6.886   3.948   2.577
 6565SOL     OW20593   6.595   2.421   4.163
 6565SOL    HW120594   6.582   2.521   4.161
 6565SOL    HW220595   6.507   2.376   4.175
 6566SOL     OW20596   2.699   6.288   1.854
 6566SOL    HW120597   2.657   6.224   1.790
 6566SOL    HW220598   2.673   6.264   1.947
 6567SOL     OW20599   3.980   2.693   1.327
 6567SOL    HW120600   4.052   2.679   1.394
 6567SOL    HW220601   3.966   2.791   1.312
 6568SOL     OW20602   4.942   6.659   3.302
 6568SOL    HW120603   4.973   6.579   3.352
 6568SOL    HW220604   4.845   6.649   3.279
 6569SOL     OW20605   2.941   4.293   0.501
 6569SOL    HW120606   2.997   4.273   0.581
 6569SOL    HW220607   2.888   4.212   0.476
 6570SOL     OW20608   4.376   6.392   2.229
 6570SOL    HW120609   4.314   6.346   2.292
 6570SOL    HW220610   4.360   6.358   2.136
 6571SOL     OW20611   2.714   5.977   1.979
 6571SOL    HW120612   2.636   5.968   1.916
 6571SOL    HW220613   2.770   5.894   1.973
 6572SOL     OW20614   7.004   5.684   5.545
 6572SOL    HW120615   6.923   5.626   5.554
 6572SOL    HW220616   6.979   5.769   5.499
 6573SOL     OW20617   2.594   1.548   2.117
 6573SOL    HW120618   2.629   1.476   2.057
 6573SOL    HW220619   2.524   1.601   2.068
 6574SOL     OW20620   2.950   6.035   2.236
 6574SOL    HW120621   2.892   5.957   2.214
 6574SOL    HW220622   2.974   6.085   2.153
 6575SOL     OW20623   0.681   0.929   2.422
 6575SOL    HW120624   0.724   1.014   2.393
 6575SOL    HW220625   0.655   0.875   2.342
 6576SOL     OW20626   1.530   6.466   6.429
 6576SOL    HW120627   1.513   6.384   6.373
 6576SOL    HW220628   1.625   6.466   6.460
 6577SOL     OW20629   0.906   2.341   3.829
 6577SOL    HW120630   0.925   2.301   3.739
 6577SOL    HW220631   0.852   2.424   3.818
 6578SOL     OW20632   0.723   4.314   2.359
 6578SOL    HW120633   0.784   4.291   2.283
 6578SOL    HW220634   0.766   4.287   2.445
 6579SOL     OW20635   0.234   3.473   4.574
 6579SOL    HW120636   0.272   3.381   4.569
 6579SOL    HW220637   0.182   3.483   4.659
 6580SOL     OW20638   6.699   1.437   1.347
 6580SOL    HW120639   6.649   1.369   1.400
 6580SOL    HW220640   6.674   1.430   1.251
 6581SOL     OW20641   3.120   1.462   6.504
 6581SOL    HW120642   3.075   1.527   6.442
 6581SOL    HW220643   3.170   1.512   6.574
 6582SOL     OW20644   1.800   1.334   2.197
 6582SOL    HW120645   1.720   1.390   2.214
 6582SOL    HW220646   1.850   1.318   2.282
 6583SOL     OW20647   4.424   0.213   5.087
 6583SOL    HW120648   4.359   0.153   5.134
 6583SOL    HW220649   4.476   0.159   5.021
 6584SOL     OW20650   4.943   2.067   6.696
 6584SOL    HW120651   4.913   2.029   6.608
 6584SOL    HW220652   5.030   2.025   6.722
 6585SOL     OW20653   6.639   0.612   6.703
 6585SOL    HW120654   6.711   0.544   6.718
 6585SOL    HW220655   6.589   0.627   6.788
 6586SOL     OW20656   6.176   2.257   5.962
 6586SOL    HW120657   6.257   2.267   5.904
 6586SOL    HW220658   6.161   2.342   6.013
 6587SOL     OW20659   2.707   6.165   4.802
 6587SOL    HW120660   2.775   6.129   4.738
 6587SOL    HW220661   2.617   6.128   4.779
 6588SOL     OW20662   1.634   3.640   1.655
 6588SOL    HW120663   1.704   3.582   1.612
 6588SOL    HW220664   1.570   3.672   1.586
 6589SOL     OW20665   4.708   0.361   6.832
 6589SOL    HW120666   4.787   0.321   6.878
 6589SOL    HW220667   4.664   0.428   6.892
 6590SOL     OW20668   0.877   1.097   5.745
 6590SOL    HW120669   0.875   1.004   5.782
 6590SOL    HW220670   0.852   1.094   5.648
 6591SOL     OW20671   4.747   6.186   2.776
 6591SOL    HW120672   4.713   6.280   2.787
 6591SOL    HW220673   4.821   6.186   2.708
 6592SOL     OW20674   5.873   6.821   3.872
 6592SOL    HW120675   5.833   6.772   3.795
 6592SOL    HW220676   5.864   6.920   3.857
 6593SOL     OW20677   2.360   1.416   3.998
 6593SOL    HW120678   2.394   1.491   4.056
 6593SOL    HW220679   2.265   1.434   3.974
 6594SOL     OW20680   3.803   1.432   0.012
 6594SOL    HW120681   3.797   1.490   6.950
 6594SOL    HW220682   3.858   1.351   7.010
 6595SOL     OW20683   0.702   3.265   0.966
 6595SOL    HW120684   0.669   3.326   0.894
 6595SOL    HW220685   0.778   3.210   0.931
 6596SOL     OW20686   3.082   6.671   4.640
 6596SOL    HW120687   3.002   6.682   4.581
 6596SOL    HW220688   3.119   6.761   4.663
 6597SOL     OW20689   1.874   6.275   3.339
 6597SOL    HW120690   1.840   6.361   3.375
 6597SOL    HW220691   1.812   6.201   3.364
 6598SOL     OW20692   0.807   0.196   4.324
 6598SOL    HW120693   0.722   0.237   4.356
 6598SOL    HW220694   0.884   0.254   4.351
 6599SOL     OW20695   3.603   5.975   5.377
 6599SOL    HW120696   3.503   5.981   5.382
 6599SOL    HW220697   3.641   6.067   5.367
 6600SOL     OW20698   4.846   4.999   5.995
 6600SOL    HW120699   4.784   5.071   5.964
 6600SOL    HW220700   4.805   4.909   5.977
 6601SOL     OW20701   0.734   1.527   6.309
 6601SOL    HW120702   0.784   1.514   6.395
 6601SOL    HW220703   0.732   1.441   6.259
 6602SOL     OW20704   0.100   1.262   2.059
 6602SOL    HW120705   0.060   1.353   2.066
 6602SOL    HW220706   0.046   1.198   2.114
 6603SOL     OW20707   0.594   2.777   4.291
 6603SOL    HW120708   0.657   2.751   4.218
 6603SOL    HW220709   0.647   2.808   4.370
 6604SOL     OW20710   2.531   6.761   0.279
 6604SOL    HW120711   2.552   6.832   0.211
 6604SOL    HW220712   2.521   6.803   0.369
 6605SOL     OW20713   5.556   4.404   1.601
 6605SOL    HW120714   5.587   4.310   1.613
 6605SOL    HW220715   5.548   4.424   1.503
 6606SOL     OW20716   5.367   0.202   2.560
 6606SOL    HW120717   5.348   0.184   2.657
 6606SOL    HW220718   5.426   0.282   2.552
 6607SOL     OW20719   1.800   2.196   1.482
 6607SOL    HW120720   1.786   2.156   1.391
 6607SOL    HW220721   1.713   2.234   1.515
 6608SOL     OW20722   4.862   5.618   2.083
 6608SOL    HW120723   4.929   5.586   2.151
 6608SOL    HW220724   4.784   5.555   2.081
 6609SOL     OW20725   4.862   0.798   6.001
 6609SOL    HW120726   4.849   0.889   5.960
 6609SOL    HW220727   4.952   0.794   6.044
 6610SOL     OW20728   2.862   1.621   6.425
 6610SOL    HW120729   2.862   1.623   6.525
 6610SOL    HW220730   2.854   1.714   6.390
 6611SOL     OW20731   6.204   3.070   4.067
 6611SOL    HW120732   6.111   3.038   4.050
 6611SOL    HW220733   6.201   3.156   4.118
 6612SOL     OW20734   0.094   2.493   6.954
 6612SOL    HW120735   0.173   2.455   7.003
 6612SOL    HW220736   0.077   2.438   6.872
 6613SOL     OW20737   6.293   6.191   4.771
 6613SOL    HW120738   6.392   6.185   4.783
 6613SOL    HW220739   6.250   6.108   4.804
 6614SOL     OW20740   5.918   6.147   0.101
 6614SOL    HW120741   5.942   6.188   0.189
 6614SOL    HW220742   5.898   6.050   0.114
 6615SOL     OW20743   0.694   4.797   3.337
 6615SOL    HW120744   0.740   4.848   3.411
 6615SOL    HW220745   0.759   4.783   3.262
 6616SOL     OW20746   4.206   1.295   5.832
 6616SOL    HW120747   4.292   1.308   5.783
 6616SOL    HW220748   4.226   1.270   5.927
 6617SOL     OW20749   3.406   5.196   3.442
 6617SOL    HW120750   3.497   5.237   3.437
 6617SOL    HW220751   3.343   5.246   3.383
 6618SOL     OW20752   1.324   3.353   2.911
 6618SOL    HW120753   1.260   3.342   2.835
 6618SOL    HW220754   1.284   3.413   2.980
 6619SOL     OW20755   6.778   0.172   4.933
 6619SOL    HW120756   6.822   0.253   4.971
 6619SOL    HW220757   6.697   0.149   4.988
 6620SOL     OW20758   2.427   2.535   5.251
 6620SOL    HW120759   2.339   2.526   5.205
 6620SOL    HW220760   2.465   2.626   5.234
 6621SOL     OW20761   1.981   3.334   6.401
 6621SOL    HW120762   1.911   3.288   6.454
 6621SOL    HW220763   1.938   3.387   6.328
 6622SOL     OW20764   5.644   6.163   1.817
 6622SOL    HW120765   5.612   6.188   1.909
 6622SOL    HW220766   5.742   6.181   1.809
 6623SOL     OW20767   2.607   3.810   0.524
 6623SOL    HW120768   2.519   3.791   0.480
 6623SOL    HW220769   2.671   3.736   0.502
 6624SOL     OW20770   1.838   0.359   4.622
 6624SOL    HW120771   1.812   0.454   4.639
 6624SOL    HW220772   1.934   0.355   4.594
 6625SOL     OW20773   5.781   1.770   5.865
 6625SOL    HW120774   5.742   1.746   5.776
 6625SOL    HW220775   5.878   1.794   5.854
 6626SOL     OW20776   3.993   4.828   5.168
 6626SOL    HW120777   4.068   4.887   5.197
 6626SOL    HW220778   4.022   4.732   5.177
 6627SOL     OW20779   2.570   1.062   5.852
 6627SOL    HW120780   2.488   1.119   5.859
 6627SOL    HW220781   2.649   1.120   5.831
 6628SOL     OW20782   4.624   4.703   4.427
 6628SOL    HW120783   4.646   4.745   4.339
 6628SOL    HW220784   4.629   4.772   4.499
 6629SOL     OW20785   3.103   5.819   6.751
 6629SOL    HW120786   3.070   5.731   6.787
 6629SOL    HW220787   3.106   5.815   6.652
 6630SOL     OW20788   3.103   1.437   1.536
 6630SOL    HW120789   3.130   1.360   1.479
 6630SOL    HW220790   3.174   1.454   1.605
 6631SOL     OW20791   3.546   0.490   2.499
 6631SOL    HW120792   3.535   0.450   2.590
 6631SOL    HW220793   3.587   0.422   2.438
 6632SOL     OW20794   0.804   6.481   1.811
 6632SOL    HW120795   0.842   6.438   1.893
 6632SOL    HW220796   0.817   6.580   1.817
 6633SOL     OW20797   0.887   3.903   5.463
 6633SOL    HW120798   0.911   3.973   5.530
 6633SOL    HW220799   0.958   3.832   5.461
 6634SOL     OW20800   6.201   2.862   4.527
 6634SOL    HW120801   6.156   2.803   4.593
 6634SOL    HW220802   6.222   2.811   4.444
 6635SOL     OW20803   3.998   5.166   3.504
 6635SOL    HW120804   3.915   5.113   3.490
 6635SOL    HW220805   4.053   5.165   3.420
 6636SOL     OW20806   3.977   1.532   5.619
 6636SOL    HW120807   3.977   1.442   5.664
 6636SOL    HW220808   4.070   1.555   5.592
 6637SOL     OW20809   1.615   0.601   5.877
 6637SOL    HW120810   1.705   0.625   5.841
 6637SOL    HW220811   1.583   0.674   5.937
 6638SOL     OW20812   3.298   4.158   4.715
 6638SOL    HW120813   3.235   4.133   4.789
 6638SOL    HW220814   3.317   4.256   4.719
 6639SOL     OW20815   5.632   5.410   6.621
 6639SOL    HW120816   5.722   5.401   6.579
 6639SOL    HW220817   5.635   5.479   6.693
 6640SOL     OW20818   0.597   1.316   4.971
 6640SOL    HW120819   0.611   1.411   4.998
 6640SOL    HW220820   0.510   1.308   4.922
 6641SOL     OW20821   2.369   2.508   0.149
 6641SOL    HW120822   2.407   2.434   0.094
 6641SOL    HW220823   2.269   2.505   0.144
 6642SOL     OW20824   2.478   5.727   6.975
 6642SOL    HW120825   2.487   5.776   0.043
 6642SOL    HW220826   2.511   5.785   6.901
 6643SOL     OW20827   6.488   5.060   6.564
 6643SOL    HW120828   6.408   5.002   6.575
 6643SOL    HW220829   6.477   5.143   6.618
 6644SOL     OW20830   3.045   4.770   2.029
 6644SOL    HW120831   3.106   4.755   1.950
 6644SOL    HW220832   2.952   4.741   2.005
 6645SOL     OW20833   6.853   5.259   0.212
 6645SOL    HW120834   6.936   5.205   0.227
 6645SOL    HW220835   6.796   5.213   0.143
 6646SOL     OW20836   4.182   0.078   4.412
 6646SOL    HW120837   4.135   0.082   4.323
 6646SOL    HW220838   4.180   7.003   4.446
 6647SOL     OW20839   4.147   0.396   2.190
 6647SOL    HW120840   4.116   0.460   2.119
 6647SOL    HW220841   4.230   0.433   2.232
 6648SOL     OW20842   3.307   5.732   2.485
 6648SOL    HW120843   3.292   5.643   2.441
 6648SOL    HW220844   3.267   5.804   2.428
 6649SOL     OW20845   4.924   1.362   0.136
 6649SOL    HW120846   4.971   1.443   0.100
 6649SOL    HW220847   4.866   1.322   0.065
 6650SOL     OW20848   3.198   1.235   5.065
 6650SOL    HW120849   3.196   1.291   4.982
 6650SOL    HW220850   3.277   1.175   5.064
 6651SOL     OW20851   1.722   1.712   6.581
 6651SOL    HW120852   1.736   1.807   6.553
 6651SOL    HW220853   1.781   1.691   6.658
 6652SOL     OW20854   6.210   5.080   0.458
 6652SOL    HW120855   6.189   5.156   0.518
 6652SOL    HW220856   6.136   5.013   0.461
 6653SOL     OW20857   3.318   2.866   2.279
 6653SOL    HW120858   3.244   2.800   2.268
 6653SOL    HW220859   3.385   2.853   2.206
 6654SOL     OW20860   1.500   3.070   1.351
 6654SOL    HW120861   1.411   3.046   1.391
 6654SOL    HW220862   1.548   3.132   1.412
 6655SOL     OW20863   2.451   6.680   1.667
 6655SOL    HW120864   2.483   6.710   1.757
 6655SOL    HW220865   2.415   6.758   1.616
 6656SOL     OW20866   6.004   1.752   1.962
 6656SOL    HW120867   6.017   1.771   1.865
 6656SOL    HW220868   5.930   1.809   1.998
 6657SOL     OW20869   5.789   5.891   6.181
 6657SOL    HW120870   5.785   5.854   6.088
 6657SOL    HW220871   5.718   5.962   6.191
 6658SOL     OW20872   6.016   1.648   4.818
 6658SOL    HW120873   6.024   1.718   4.889
 6658SOL    HW220874   5.991   1.692   4.731
 6659SOL     OW20875   2.290   2.389   0.642
 6659SOL    HW120876   2.260   2.322   0.574
 6659SOL    HW220877   2.377   2.361   0.681
 6660SOL     OW20878   0.883   5.938   0.542
 6660SOL    HW120879   0.893   6.023   0.595
 6660SOL    HW220880   0.949   5.870   0.575
 6661SOL     OW20881   0.837   5.933   3.781
 6661SOL    HW120882   0.806   5.978   3.698
 6661SOL    HW220883   0.881   5.846   3.758
 6662SOL     OW20884   1.158   1.147   6.547
 6662SOL    HW120885   1.222   1.112   6.616
 6662SOL    HW220886   1.130   1.072   6.487
 6663SOL     OW20887   6.888   5.228   3.232
 6663SOL    HW120888   6.849   5.166   3.301
 6663SOL    HW220889   6.889   5.321   3.269
 6664SOL     OW20890   1.561   6.753   0.518
 6664SOL    HW120891   1.639   6.700   0.484
 6664SOL    HW220892   1.583   6.793   0.606
 6665SOL     OW20893   1.201   0.311   3.025
 6665SOL    HW120894   1.192   0.267   3.114
 6665SOL    HW220895   1.252   0.396   3.035
 6666SOL     OW20896   5.491   0.371   6.033
 6666SOL    HW120897   5.561   0.401   5.967
 6666SOL    HW220898   5.531   0.304   6.095
 6667SOL     OW20899   7.002   5.188   6.155
 6667SOL    HW120900   6.926   5.196   6.220
 6667SOL    HW220901   6.984   5.114   6.091
 6668SOL     OW20902   5.998   5.748   2.008
 6668SOL    HW120903   5.938   5.815   2.050
 6668SOL    HW220904   6.086   5.748   2.056
 6669SOL     OW20905   2.095   2.847   3.708
 6669SOL    HW120906   2.132   2.877   3.797
 6669SOL    HW220907   2.148   2.889   3.635
 6670SOL     OW20908   3.467   2.117   5.569
 6670SOL    HW120909   3.421   2.130   5.657
 6670SOL    HW220910   3.426   2.178   5.501
 6671SOL     OW20911   5.235   5.522   1.283
 6671SOL    HW120912   5.208   5.511   1.188
 6671SOL    HW220913   5.307   5.591   1.290
 6672SOL     OW20914   0.491   2.185   5.692
 6672SOL    HW120915   0.401   2.177   5.735
 6672SOL    HW220916   0.502   2.112   5.624
 6673SOL     OW20917   5.090   6.273   3.265
 6673SOL    HW120918   5.132   6.355   3.303
 6673SOL    HW220919   5.010   6.298   3.210
 6674SOL     OW20920   0.598   4.414   5.915
 6674SOL    HW120921   0.691   4.381   5.928
 6674SOL    HW220922   0.582   4.433   5.818
 6675SOL     OW20923   4.395   3.975   1.709
 6675SOL    HW120924   4.300   3.946   1.721
 6675SOL    HW220925   4.409   4.064   1.753
 6676SOL     OW20926   0.514   4.052   5.657
 6676SOL    HW120927   0.457   4.057   5.739
 6676SOL    HW220928   0.472   4.107   5.584
 6677SOL     OW20929   0.528   1.811   6.971
 6677SOL    HW120930   0.561   1.727   7.015
 6677SOL    HW220931   0.562   1.814   6.877
 6678SOL     OW20932   2.717   2.602   6.937
 6678SOL    HW120933   2.765   2.516   6.953
 6678SOL    HW220934   2.663   2.626   7.018
 6679SOL     OW20935   2.965   1.824   3.872
 6679SOL    HW120936   2.993   1.775   3.954
 6679SOL    HW220937   2.866   1.818   3.861
 6680SOL     OW20938   4.728   6.597   6.473
 6680SOL    HW120939   4.693   6.538   6.400
 6680SOL    HW220940   4.691   6.689   6.463
 6681SOL     OW20941   4.617   5.561   0.207
 6681SOL    HW120942   4.710   5.562   0.242
 6681SOL    HW220943   4.615   5.515   0.118
 6682SOL     OW20944   1.450   4.623   2.623
 6682SOL    HW120945   1.450   4.544   2.684
 6682SOL    HW220946   1.383   4.690   2.656
 6683SOL     OW20947   5.236   2.792   5.637
 6683SOL    HW120948   5.198   2.795   5.544
 6683SOL    HW220949   5.304   2.720   5.643
 6684SOL     OW20950   2.936   6.624   0.527
 6684SOL    HW120951   3.016   6.628   0.587
 6684SOL    HW220952   2.910   6.528   0.514
 6685SOL     OW20953   5.900   2.725   5.764
 6685SOL    HW120954   5.971   2.681   5.708
 6685SOL    HW220955   5.888   2.672   5.848
 6686SOL     OW20956   5.091   6.097   4.271
 6686SOL    HW120957   4.991   6.102   4.268
 6686SOL    HW220958   5.129   6.164   4.209
 6687SOL     OW20959   6.917   2.323   1.256
 6687SOL    HW120960   6.926   2.223   1.250
 6687SOL    HW220961   7.006   2.364   1.274
 6688SOL     OW20962   6.757   4.524   2.217
 6688SOL    HW120963   6.708   4.534   2.303
 6688SOL    HW220964   6.823   4.449   2.225
 6689SOL     OW20965   4.038   3.292   0.408
 6689SOL    HW120966   4.021   3.205   0.362
 6689SOL    HW220967   4.041   3.278   0.507
 6690SOL     OW20968   2.822   1.423   1.014
 6690SOL    HW120969   2.912   1.450   0.981
 6690SOL    HW220970   2.820   1.427   1.114
 6691SOL     OW20971   2.465   6.192   1.361
 6691SOL    HW120972   2.483   6.289   1.377
 6691SOL    HW220973   2.512   6.163   1.278
 6692SOL     OW20974   3.312   3.862   5.621
 6692SOL    HW120975   3.267   3.817   5.544
 6692SOL    HW220976   3.325   3.959   5.600
 6693SOL     OW20977   4.141   3.122   5.971
 6693SOL    HW120978   4.102   3.111   6.063
 6693SOL    HW220979   4.236   3.153   5.979
 6694SOL     OW20980   5.016   6.306   0.433
 6694SOL    HW120981   4.917   6.312   0.440
 6694SOL    HW220982   5.058   6.376   0.491
 6695SOL     OW20983   2.572   2.315   5.840
 6695SOL    HW120984   2.585   2.228   5.794
 6695SOL    HW220985   2.631   2.321   5.920
 6696SOL     OW20986   1.545   2.794   0.344
 6696SOL    HW120987   1.591   2.753   0.422
 6696SOL    HW220988   1.490   2.873   0.375
 6697SOL     OW20989   5.256   2.854   3.010
 6697SOL    HW120990   5.260   2.764   2.968
 6697SOL    HW220991   5.182   2.907   2.969
 6698SOL     OW20992   2.775   2.693   0.708
 6698SOL    HW120993   2.867   2.669   0.739
 6698SOL    HW220994   2.776   2.707   0.609
 6699SOL     OW20995   2.893   5.263   6.739
 6699SOL    HW120996   2.864   5.358   6.745
 6699SOL    HW220997   2.821   5.208   6.697
 6700SOL     OW20998   6.757   6.181   1.349
 6700SOL    HW120999   6.707   6.095   1.349
 6700SOL    HW221000   6.790   6.200   1.442
 6701SOL     OW21001   5.805   3.095   0.808
 6701SOL    HW121002   5.830   3.143   0.724
 6701SOL    HW221003   5.748   3.016   0.786
 6702SOL     OW21004   2.780   2.643   1.042
 6702SOL    HW121005   2.758   2.559   0.993
 6702SOL    HW221006   2.732   2.720   0.999
 6703SOL     OW21007   6.365   1.148   7.002
 6703SOL    HW121008   6.373   1.081   0.056
 6703SOL    HW221009   6.454   1.157   6.956
 6704SOL     OW21010   4.236   2.261   2.499
 6704SOL    HW121011   4.174   2.228   2.428
 6704SOL    HW221012   4.287   2.341   2.465
 6705SOL     OW21013   6.975   2.521   2.127
 6705SOL    HW121014   6.977   2.571   2.213
 6705SOL    HW221015   6.899   2.456   2.127
 6706SOL     OW21016   1.083   3.843   1.107
 6706SOL    HW121017   1.131   3.826   1.193
 6706SOL    HW221018   1.150   3.857   1.034
 6707SOL     OW21019   0.081   6.131   4.141
 6707SOL    HW121020   0.124   6.041   4.129
 6707SOL    HW221021   0.138   6.201   4.098
 6708SOL     OW21022   1.260   5.381   2.676
 6708SOL    HW121023   1.220   5.311   2.617
 6708SOL    HW221024   1.292   5.458   2.620
 6709SOL     OW21025   3.485   5.684   1.946
 6709SOL    HW121026   3.506   5.656   1.852
 6709SOL    HW221027   3.400   5.640   1.975
 6710SOL     OW21028   2.776   1.631   5.703
 6710SOL    HW121029   2.757   1.729   5.704
 6710SOL    HW221030   2.866   1.616   5.661
 6711SOL     OW21031   5.321   4.988   6.514
 6711SOL    HW121032   5.348   5.083   6.531
 6711SOL    HW221033   5.334   4.935   6.598
 6712SOL     OW21034   4.600   5.983   0.021
 6712SOL    HW121035   4.537   5.915   7.004
 6712SOL    HW221036   4.683   5.985   6.984
 6713SOL     OW21037   2.020   1.794   1.927
 6713SOL    HW121038   2.044   1.878   1.878
 6713SOL    HW221039   2.087   1.723   1.906
 6714SOL     OW21040   5.602   0.474   6.285
 6714SOL    HW121041   5.702   0.462   6.285
 6714SOL    HW221042   5.572   0.499   6.193
 6715SOL     OW21043   0.311   0.572   6.482
 6715SOL    HW121044   0.382   0.538   6.420
 6715SOL    HW221045   0.265   0.494   6.526
 6716SOL     OW21046   0.422   5.976   2.478
 6716SOL    HW121047   0.395   5.885   2.447
 6716SOL    HW221048   0.355   6.043   2.445
 6717SOL     OW21049   4.547   3.139   0.466
 6717SOL    HW121050   4.476   3.200   0.430
 6717SOL    HW221051   4.636   3.183   0.461
 6718SOL     OW21052   4.284   6.075   5.988
 6718SOL    HW121053   4.218   6.000   5.991
 6718SOL    HW221054   4.337   6.075   6.073
 6719SOL     OW21055   0.593   6.992   5.625
 6719SOL    HW121056   0.617   0.008   5.715
 6719SOL    HW221057   0.500   0.002   5.602
 6720SOL     OW21058   1.479   5.928   2.296
 6720SOL    HW121059   1.427   6.013   2.303
 6720SOL    HW221060   1.524   5.910   2.384
 6721SOL     OW21061   6.590   6.798   4.704
 6721SOL    HW121062   6.639   6.886   4.703
 6721SOL    HW221063   6.493   6.814   4.724
 6722SOL     OW21064   5.549   3.540   1.299
 6722SOL    HW121065   5.632   3.590   1.323
 6722SOL    HW221066   5.571   3.443   1.287
 6723SOL     OW21067   2.406   6.468   3.040
 6723SOL    HW121068   2.358   6.516   2.966
 6723SOL    HW221069   2.451   6.386   3.003
 6724SOL     OW21070   1.037   3.077   6.055
 6724SOL    HW121071   1.029   3.164   6.105
 6724SOL    HW221072   0.956   3.065   5.998
 6725SOL     OW21073   0.732   4.243   1.752
 6725SOL    HW121074   0.760   4.147   1.740
 6725SOL    HW221075   0.683   4.253   1.839
 6726SOL     OW21076   0.891   2.400   4.779
 6726SOL    HW121077   0.971   2.438   4.734
 6726SOL    HW221078   0.866   2.457   4.858
 6727SOL     OW21079   6.468   3.525   5.284
 6727SOL    HW121080   6.554   3.569   5.257
 6727SOL    HW221081   6.411   3.590   5.333
 6728SOL     OW21082   5.418   1.448   4.500
 6728SOL    HW121083   5.407   1.520   4.431
 6728SOL    HW221084   5.341   1.452   4.564
 6729SOL     OW21085   6.972   1.189   2.690
 6729SOL    HW121086   7.001   1.169   2.784
 6729SOL    HW221087   6.878   1.224   2.691
 6730SOL     OW21088   1.886   6.965   5.999
 6730SOL    HW121089   1.949   6.888   5.989
 6730SOL    HW221090   1.848   6.965   6.092
 6731SOL     OW21091   1.506   4.413   0.839
 6731SOL    HW121092   1.518   4.512   0.834
 6731SOL    HW221093   1.587   4.368   0.801
 6732SOL     OW21094   4.410   5.722   6.031
 6732SOL    HW121095   4.397   5.626   6.056
 6732SOL    HW221096   4.327   5.757   5.988
 6733SOL     OW21097   4.012   4.992   6.899
 6733SOL    HW121098   3.935   5.042   6.940
 6733SOL    HW221099   4.051   5.047   6.825
 6734SOL     OW21100   0.319   2.891   5.418
 6734SOL    HW121101   0.403   2.938   5.443
 6734SOL    HW221102   0.327   2.854   5.325
 6735SOL     OW21103   0.750   5.593   5.273
 6735SOL    HW121104   0.814   5.618   5.201
 6735SOL    HW221105   0.781   5.510   5.319
 6736SOL     OW21106   1.961   3.625   0.513
 6736SOL    HW121107   2.039   3.591   0.460
 6736SOL    HW221108   1.880   3.632   0.454
 6737SOL     OW21109   1.918   2.700   0.833
 6737SOL    HW121110   1.905   2.754   0.916
 6737SOL    HW221111   1.969   2.753   0.766
 6738SOL     OW21112   2.092   3.297   2.189
 6738SOL    HW121113   2.104   3.326   2.284
 6738SOL    HW221114   2.151   3.352   2.130
 6739SOL     OW21115   3.388   5.363   6.342
 6739SOL    HW121116   3.413   5.437   6.281
 6739SOL    HW221117   3.398   5.393   6.437
 6740SOL     OW21118   2.015   1.595   4.428
 6740SOL    HW121119   1.929   1.608   4.379
 6740SOL    HW221120   2.083   1.556   4.365
 6741SOL     OW21121   4.862   1.412   5.497
 6741SOL    HW121122   4.867   1.331   5.439
 6741SOL    HW221123   4.954   1.450   5.510
 6742SOL     OW21124   0.420   5.694   2.788
 6742SOL    HW121125   0.468   5.684   2.875
 6742SOL    HW221126   0.454   5.626   2.723
 6743SOL     OW21127   4.068   4.064   0.165
 6743SOL    HW121128   4.049   4.122   0.245
 6743SOL    HW221129   4.049   4.116   0.082
 6744SOL     OW21130   4.582   5.520   5.745
 6744SOL    HW121131   4.524   5.587   5.697
 6744SOL    HW221132   4.526   5.471   5.812
 6745SOL     OW21133   0.938   6.398   2.072
 6745SOL    HW121134   1.025   6.418   2.116
 6745SOL    HW221135   0.885   6.334   2.128
 6746SOL     OW21136   1.007   1.182   2.956
 6746SOL    HW121137   1.081   1.192   3.022
 6746SOL    HW221138   0.948   1.106   2.984
 6747SOL     OW21139   5.393   6.916   4.348
 6747SOL    HW121140   5.462   6.958   4.407
 6747SOL    HW221141   5.399   6.957   4.257
 6748SOL     OW21142   1.334   0.620   3.038
 6748SOL    HW121143   1.366   0.659   3.125
 6748SOL    HW221144   1.240   0.651   3.021
 6749SOL     OW21145   2.994   6.672   0.197
 6749SOL    HW121146   2.929   6.737   0.236
 6749SOL    HW221147   3.077   6.721   0.171
 6750SOL     OW21148   4.042   1.078   4.667
 6750SOL    HW121149   4.065   1.068   4.571
 6750SOL    HW221150   4.126   1.087   4.721
 6751SOL     OW21151   3.834   1.612   3.806
 6751SOL    HW121152   3.786   1.556   3.739
 6751SOL    HW221153   3.768   1.659   3.864
 6752SOL     OW21154   6.111   2.754   2.342
 6752SOL    HW121155   6.168   2.692   2.287
 6752SOL    HW221156   6.110   2.844   2.299
 6753SOL     OW21157   4.883   1.113   6.349
 6753SOL    HW121158   4.789   1.079   6.354
 6753SOL    HW221159   4.882   1.213   6.349
 6754SOL     OW21160   6.640   1.778   5.937
 6754SOL    HW121161   6.727   1.734   5.960
 6754SOL    HW221162   6.571   1.753   6.005
 6755SOL     OW21163   4.474   2.084   3.567
 6755SOL    HW121164   4.486   2.131   3.655
 6755SOL    HW221165   4.455   1.987   3.583
 6756SOL     OW21166   4.667   4.345   4.738
 6756SOL    HW121167   4.728   4.267   4.748
 6756SOL    HW221168   4.658   4.369   4.641
 6757SOL     OW21169   4.504   6.608   0.598
 6757SOL    HW121170   4.483   6.536   0.665
 6757SOL    HW221171   4.529   6.565   0.511
 6758SOL     OW21172   5.367   3.946   2.113
 6758SOL    HW121173   5.430   3.895   2.054
 6758SOL    HW221174   5.274   3.940   2.077
 6759SOL     OW21175   1.155   3.544   4.154
 6759SOL    HW121176   1.104   3.630   4.153
 6759SOL    HW221177   1.137   3.493   4.070
 6760SOL     OW21178   6.645   5.686   4.548
 6760SOL    HW121179   6.687   5.773   4.571
 6760SOL    HW221180   6.695   5.612   4.594
 6761SOL     OW21181   5.569   2.276   6.121
 6761SOL    HW121182   5.584   2.327   6.037
 6761SOL    HW221183   5.623   2.192   6.120
 6762SOL     OW21184   0.292   5.539   3.168
 6762SOL    HW121185   0.319   5.456   3.218
 6762SOL    HW221186   0.233   5.513   3.091
 6763SOL     OW21187   6.865   6.251   4.155
 6763SOL    HW121188   6.810   6.229   4.074
 6763SOL    HW221189   6.954   6.206   4.148
 6764SOL     OW21190   2.876   4.834   6.477
 6764SOL    HW121191   2.954   4.881   6.435
 6764SOL    HW221192   2.792   4.861   6.432
 6765SOL     OW21193   5.692   5.372   3.510
 6765SOL    HW121194   5.673   5.463   3.548
 6765SOL    HW221195   5.616   5.311   3.531
 6766SOL     OW21196   3.119   0.010   6.669
 6766SOL    HW121197   3.026   0.016   6.634
 6766SOL    HW221198   3.164   0.099   6.661
 6767SOL     OW21199   0.112   2.562   1.263
 6767SOL    HW121200   0.201   2.516   1.271
 6767SOL    HW221201   0.085   2.596   1.353
 6768SOL     OW21202   1.378   0.387   3.553
 6768SOL    HW121203   1.428   0.451   3.495
 6768SOL    HW221204   1.285   0.421   3.566
 6769SOL     OW21205   3.203   1.311   5.397
 6769SOL    HW121206   3.183   1.409   5.391
 6769SOL    HW221207   3.136   1.260   5.342
 6770SOL     OW21208   0.160   2.153   4.225
 6770SOL    HW121209   0.185   2.247   4.249
 6770SOL    HW221210   0.152   2.099   4.308
 6771SOL     OW21211   4.068   2.213   3.785
 6771SOL    HW121212   4.084   2.116   3.804
 6771SOL    HW221213   3.974   2.225   3.752
 6772SOL     OW21214   5.684   1.826   2.372
 6772SOL    HW121215   5.775   1.784   2.366
 6772SOL    HW221216   5.614   1.755   2.368
 6773SOL     OW21217   6.827   6.480   1.547
 6773SOL    HW121218   6.829   6.408   1.478
 6773SOL    HW221219   6.881   6.558   1.515
 6774SOL     OW21220   1.606   2.180   5.765
 6774SOL    HW121221   1.617   2.169   5.864
 6774SOL    HW221222   1.615   2.276   5.740
 6775SOL     OW21223   0.896   1.963   3.664
 6775SOL    HW121224   0.835   1.954   3.742
 6775SOL    HW221225   0.844   1.949   3.579
 6776SOL     OW21226   3.684   3.468   1.995
 6776SOL    HW121227   3.627   3.423   2.063
 6776SOL    HW221228   3.651   3.446   1.903
 6777SOL     OW21229   4.518   4.998   0.919
 6777SOL    HW121230   4.542   4.935   0.992
 6777SOL    HW221231   4.601   5.033   0.876
 6778SOL     OW21232   5.573   3.566   2.563
 6778SOL    HW121233   5.666   3.535   2.583
 6778SOL    HW221234   5.538   3.618   2.641
 6779SOL     OW21235   5.714   4.069   5.806
 6779SOL    HW121236   5.624   4.086   5.766
 6779SOL    HW221237   5.719   3.974   5.837
 6780SOL     OW21238   1.996   3.127   3.118
 6780SOL    HW121239   2.050   3.049   3.086
 6780SOL    HW221240   2.000   3.201   3.050
 6781SOL     OW21241   6.576   1.128   3.872
 6781SOL    HW121242   6.608   1.208   3.822
 6781SOL    HW221243   6.566   1.150   3.969
 6782SOL     OW21244   0.820   1.361   3.774
 6782SOL    HW121245   0.745   1.306   3.738
 6782SOL    HW221246   0.787   1.453   3.795
 6783SOL     OW21247   1.352   3.971   4.874
 6783SOL    HW121248   1.407   4.031   4.816
 6783SOL    HW221249   1.282   4.024   4.922
 6784SOL     OW21250   2.539   3.456   1.697
 6784SOL    HW121251   2.574   3.541   1.657
 6784SOL    HW221252   2.458   3.476   1.752
 6785SOL     OW21253   5.777   4.829   5.466
 6785SOL    HW121254   5.840   4.901   5.497
 6785SOL    HW221255   5.829   4.759   5.416
 6786SOL     OW21256   6.469   2.682   0.481
 6786SOL    HW121257   6.480   2.758   0.418
 6786SOL    HW221258   6.373   2.677   0.511
 6787SOL     OW21259   3.883   2.292   1.015
 6787SOL    HW121260   3.795   2.333   0.990
 6787SOL    HW221261   3.877   2.193   1.009
 6788SOL     OW21262   0.638   3.669   2.384
 6788SOL    HW121263   0.726   3.642   2.423
 6788SOL    HW221264   0.568   3.601   2.409
 6789SOL     OW21265   6.691   4.356   4.265
 6789SOL    HW121266   6.763   4.311   4.317
 6789SOL    HW221267   6.730   4.433   4.214
 6790SOL     OW21268   0.673   4.953   6.017
 6790SOL    HW121269   0.614   4.904   5.954
 6790SOL    HW221270   0.757   4.900   6.032
 6791SOL     OW21271   4.486   1.589   3.264
 6791SOL    HW121272   4.586   1.585   3.255
 6791SOL    HW221273   4.454   1.509   3.314
 6792SOL     OW21274   4.300   6.645   5.532
 6792SOL    HW121275   4.299   6.675   5.437
 6792SOL    HW221276   4.283   6.547   5.536
 6793SOL     OW21277   2.945   1.940   6.824
 6793SOL    HW121278   2.872   2.003   6.852
 6793SOL    HW221279   2.993   1.978   6.745
 6794SOL     OW21280   4.808   1.145   5.685
 6794SOL    HW121281   4.746   1.223   5.688
 6794SOL    HW221282   4.789   1.083   5.761
 6795SOL     OW21283   1.393   1.210   1.135
 6795SOL    HW121284   1.484   1.186   1.169
 6795SOL    HW221285   1.325   1.155   1.184
 6796SOL     OW21286   5.940   1.110   1.596
 6796SOL    HW121287   6.016   1.139   1.539
 6796SOL    HW221288   5.862   1.171   1.580
 6797SOL     OW21289   6.376   2.985   1.691
 6797SOL    HW121290   6.463   2.939   1.673
 6797SOL    HW221291   6.394   3.076   1.730
 6798SOL     OW21292   5.508   0.252   1.673
 6798SOL    HW121293   5.559   0.252   1.759
 6798SOL    HW221294   5.464   0.163   1.661
 6799SOL     OW21295   5.477   0.159   3.273
 6799SOL    HW121296   5.548   0.124   3.212
 6799SOL    HW221297   5.405   0.202   3.220
 6800SOL     OW21298   1.362   1.711   0.956
 6800SOL    HW121299   1.427   1.648   0.998
 6800SOL    HW221300   1.271   1.695   0.993
 6801SOL     OW21301   1.674   6.439   4.682
 6801SOL    HW121302   1.624   6.523   4.704
 6801SOL    HW221303   1.717   6.449   4.592
 6802SOL     OW21304   3.219   6.174   0.658
 6802SOL    HW121305   3.265   6.156   0.745
 6802SOL    HW221306   3.133   6.122   0.655
 6803SOL     OW21307   4.858   4.638   6.713
 6803SOL    HW121308   4.909   4.574   6.656
 6803SOL    HW221309   4.912   4.721   6.727
 6804SOL     OW21310   2.984   5.194   2.730
 6804SOL    HW121311   3.033   5.219   2.814
 6804SOL    HW221312   2.966   5.276   2.676
 6805SOL     OW21313   0.431   4.556   5.410
 6805SOL    HW121314   0.386   4.599   5.488
 6805SOL    HW221315   0.492   4.623   5.366
 6806SOL     OW21316   6.810   1.155   4.116
 6806SOL    HW121317   6.835   1.103   4.035
 6806SOL    HW221318   6.890   1.166   4.175
 6807SOL     OW21319   3.757   2.940   3.609
 6807SOL    HW121320   3.759   2.938   3.709
 6807SOL    HW221321   3.831   2.999   3.576
 6808SOL     OW21322   5.055   1.187   5.141
 6808SOL    HW121323   5.067   1.286   5.150
 6808SOL    HW221324   5.142   1.141   5.161
 6809SOL     OW21325   6.339   4.593   1.596
 6809SOL    HW121326   6.280   4.580   1.516
 6809SOL    HW221327   6.312   4.676   1.645
 6810SOL     OW21328   3.447   1.031   3.168
 6810SOL    HW121329   3.365   1.031   3.112
 6810SOL    HW221330   3.458   1.120   3.212
 6811SOL     OW21331   6.753   1.905   2.596
 6811SOL    HW121332   6.723   1.851   2.674
 6811SOL    HW221333   6.710   1.996   2.600
 6812SOL     OW21334   3.416   3.533   4.613
 6812SOL    HW121335   3.374   3.454   4.658
 6812SOL    HW221336   3.346   3.587   4.568
 6813SOL     OW21337   4.925   3.452   2.054
 6813SOL    HW121338   4.899   3.379   1.991
 6813SOL    HW221339   4.955   3.413   2.141
 6814SOL     OW21340   4.105   1.614   6.031
 6814SOL    HW121341   4.107   1.688   5.964
 6814SOL    HW221342   4.197   1.578   6.044
 6815SOL     OW21343   1.745   5.184   6.660
 6815SOL    HW121344   1.768   5.099   6.707
 6815SOL    HW221345   1.772   5.262   6.717
 6816SOL     OW21346   6.287   1.622   4.752
 6816SOL    HW121347   6.324   1.532   4.730
 6816SOL    HW221348   6.187   1.617   4.755
 6817SOL     OW21349   3.120   2.153   3.086
 6817SOL    HW121350   3.034   2.200   3.067
 6817SOL    HW221351   3.138   2.154   3.185
 6818SOL     OW21352   2.320   6.802   6.006
 6818SOL    HW121353   2.306   6.777   6.101
 6818SOL    HW221354   2.275   6.890   5.987
 6819SOL     OW21355   4.667   5.887   2.910
 6819SOL    HW121356   4.659   5.877   2.811
 6819SOL    HW221357   4.762   5.906   2.934
 6820SOL     OW21358   1.329   6.327   1.463
 6820SOL    HW121359   1.278   6.399   1.509
 6820SOL    HW221360   1.409   6.367   1.417
 6821SOL     OW21361   4.157   2.420   5.389
 6821SOL    HW121362   4.215   2.341   5.408
 6821SOL    HW221363   4.153   2.436   5.291
 6822SOL     OW21364   6.748   2.568   6.543
 6822SOL    HW121365   6.712   2.577   6.635
 6822SOL    HW221366   6.738   2.473   6.512
 6823SOL     OW21367   5.141   3.430   6.854
 6823SOL    HW121368   5.185   3.456   6.939
 6823SOL    HW221369   5.129   3.330   6.851
 6824SOL     OW21370   1.275   1.939   6.912
 6824SOL    HW121371   1.222   1.869   6.865
 6824SOL    HW221372   1.258   1.934   7.010
 6825SOL     OW21373   6.778   6.326   1.128
 6825SOL    HW121374   6.753   6.273   1.209
 6825SOL    HW221375   6.703   6.325   1.062
 6826SOL     OW21376   0.317   3.501   2.730
 6826SOL    HW121377   0.415   3.515   2.746
 6826SOL    HW221378   0.266   3.532   2.810
 6827SOL     OW21379   4.924   5.341   5.717
 6827SOL    HW121380   4.999   5.319   5.655
 6827SOL    HW221381   4.894   5.435   5.702
 6828SOL     OW21382   3.383   1.753   2.995
 6828SOL    HW121383   3.482   1.770   2.995
 6828SOL    HW221384   3.339   1.810   2.927
 6829SOL     OW21385   5.381   0.083   5.152
 6829SOL    HW121386   5.462   0.141   5.144
 6829SOL    HW221387   5.302   0.138   5.179
 6830SOL     OW21388   5.885   1.192   3.109
 6830SOL    HW121389   5.892   1.093   3.103
 6830SOL    HW221390   5.977   1.232   3.107
 6831SOL     OW21391   1.154   1.290   5.548
 6831SOL    HW121392   1.123   1.298   5.643
 6831SOL    HW221393   1.093   1.340   5.488
 6832SOL     OW21394   2.797   2.507   0.450
 6832SOL    HW121395   2.700   2.509   0.427
 6832SOL    HW221396   2.847   2.570   0.391
 6833SOL     OW21397   3.352   5.650   6.270
 6833SOL    HW121398   3.302   5.679   6.189
 6833SOL    HW221399   3.291   5.652   6.349
 6834SOL     OW21400   5.017   0.066   0.653
 6834SOL    HW121401   5.029   0.164   0.641
 6834SOL    HW221402   4.919   0.045   0.655
 6835SOL     OW21403   3.697   1.385   4.075
 6835SOL    HW121404   3.748   1.402   4.160
 6835SOL    HW221405   3.755   1.407   3.997
 6836SOL     OW21406   2.045   4.367   6.853
 6836SOL    HW121407   2.104   4.348   6.931
 6836SOL    HW221408   1.974   4.433   6.881
 6837SOL     OW21409   1.274   1.293   2.427
 6837SOL    HW121410   1.329   1.347   2.363
 6837SOL    HW221411   1.268   1.341   2.514
 6838SOL     OW21412   2.775   4.233   5.306
 6838SOL    HW121413   2.828   4.218   5.390
 6838SOL    HW221414   2.809   4.315   5.260
 6839SOL     OW21415   4.954   2.124   3.579
 6839SOL    HW121416   4.887   2.059   3.541
 6839SOL    HW221417   4.958   2.205   3.521
 6840SOL     OW21418   2.917   6.684   4.430
 6840SOL    HW121419   2.889   6.599   4.473
 6840SOL    HW221420   2.935   6.668   4.333
 6841SOL     OW21421   3.921   4.860   2.022
 6841SOL    HW121422   3.822   4.846   2.032
 6841SOL    HW221423   3.963   4.775   1.990
 6842SOL     OW21424   0.960   3.104   0.104
 6842SOL    HW121425   0.969   3.162   0.185
 6842SOL    HW221426   1.047   3.059   0.085
 6843SOL     OW21427   4.826   1.478   1.953
 6843SOL    HW121428   4.730   1.499   1.967
 6843SOL    HW221429   4.882   1.546   2.001
 6844SOL     OW21430   4.878   5.479   4.687
 6844SOL    HW121431   4.899   5.397   4.740
 6844SOL    HW221432   4.813   5.536   4.738
 6845SOL     OW21433   4.600   4.283   2.706
 6845SOL    HW121434   4.544   4.301   2.625
 6845SOL    HW221435   4.552   4.312   2.788
 6846SOL     OW21436   3.782   3.293   1.372
 6846SOL    HW121437   3.865   3.238   1.364
 6846SOL    HW221438   3.770   3.347   1.289
 6847SOL     OW21439   4.888   3.807   1.789
 6847SOL    HW121440   4.960   3.746   1.823
 6847SOL    HW221441   4.815   3.752   1.748
 6848SOL     OW21442   1.052   4.909   4.366
 6848SOL    HW121443   1.100   4.905   4.279
 6848SOL    HW221444   0.957   4.879   4.352
 6849SOL     OW21445   3.676   5.610   4.131
 6849SOL    HW121446   3.766   5.618   4.087
 6849SOL    HW221447   3.666   5.682   4.200
 6850SOL     OW21448   5.777   2.643   3.213
 6850SOL    HW121449   5.799   2.570   3.279
 6850SOL    HW221450   5.799   2.732   3.253
 6851SOL     OW21451   0.951   4.972   5.571
 6851SOL    HW121452   0.870   4.918   5.544
 6851SOL    HW221453   0.922   5.061   5.606
 6852SOL     OW21454   0.820   4.130   1.455
 6852SOL    HW121455   0.832   4.199   1.384
 6852SOL    HW221456   0.910   4.105   1.491
 6853SOL     OW21457   6.784   4.850   6.600
 6853SOL    HW121458   6.692   4.878   6.573
 6853SOL    HW221459   6.847   4.861   6.523
 6854SOL     OW21460   6.367   1.138   6.058
 6854SOL    HW121461   6.304   1.208   6.024
 6854SOL    HW221462   6.457   1.180   6.076
 6855SOL     OW21463   3.530   6.925   2.607
 6855SOL    HW121464   3.497   6.877   2.525
 6855SOL    HW221465   3.528   6.862   2.685
 6856SOL     OW21466   5.487   4.075   5.686
 6856SOL    HW121467   5.396   4.078   5.727
 6856SOL    HW221468   5.483   4.113   5.594
 6857SOL     OW21469   3.420   1.069   6.408
 6857SOL    HW121470   3.373   1.015   6.338
 6857SOL    HW221471   3.355   1.131   6.452
 6858SOL     OW21472   3.886   2.952   4.407
 6858SOL    HW121473   3.916   2.864   4.444
 6858SOL    HW221474   3.939   3.026   4.448
 6859SOL     OW21475   1.785   6.961   0.990
 6859SOL    HW121476   1.707   6.962   1.053
 6859SOL    HW221477   1.797   6.869   0.952
 6860SOL     OW21478   6.016   5.053   1.743
 6860SOL    HW121479   5.974   5.003   1.667
 6860SOL    HW221480   5.954   5.124   1.775
 6861SOL     OW21481   5.344   4.557   1.037
 6861SOL    HW121482   5.396   4.624   1.091
 6861SOL    HW221483   5.394   4.471   1.034
 6862SOL     OW21484   2.645   4.923   4.733
 6862SOL    HW121485   2.567   4.930   4.796
 6862SOL    HW221486   2.678   4.829   4.732
 6863SOL     OW21487   5.914   1.284   5.175
 6863SOL    HW121488   6.005   1.247   5.156
 6863SOL    HW221489   5.922   1.377   5.210
 6864SOL     OW21490   3.531   5.845   3.890
 6864SOL    HW121491   3.580   5.758   3.877
 6864SOL    HW221492   3.560   5.910   3.820
 6865SOL     OW21493   6.480   4.746   3.975
 6865SOL    HW121494   6.388   4.751   4.014
 6865SOL    HW221495   6.486   4.669   3.912
 6866SOL     OW21496   6.639   4.239   2.164
 6866SOL    HW121497   6.696   4.268   2.241
 6866SOL    HW221498   6.595   4.319   2.124
 6867SOL     OW21499   1.007   4.160   1.049
 6867SOL    HW121500   1.044   4.175   1.140
 6867SOL    HW221501   1.059   4.088   1.003
 6868SOL     OW21502   1.617   6.019   5.024
 6868SOL    HW121503   1.688   6.021   5.094
 6868SOL    HW221504   1.614   6.107   4.977
 6869SOL     OW21505   5.310   3.081   4.776
 6869SOL    HW121506   5.243   3.106   4.706
 6869SOL    HW221507   5.344   2.989   4.758
 6870SOL     OW21508   6.082   3.582   2.964
 6870SOL    HW121509   6.050   3.533   3.045
 6870SOL    HW221510   6.005   3.599   2.902
 6871SOL     OW21511   6.019   5.056   2.180
 6871SOL    HW121512   5.929   5.014   2.174
 6871SOL    HW221513   6.080   5.016   2.111
 6872SOL     OW21514   1.775   3.587   0.826
 6872SOL    HW121515   1.745   3.589   0.731
 6872SOL    HW221516   1.874   3.586   0.830
 6873SOL     OW21517   6.201   3.374   5.604
 6873SOL    HW121518   6.229   3.333   5.516
 6873SOL    HW221519   6.190   3.302   5.672
 6874SOL     OW21520   0.580   3.865   3.180
 6874SOL    HW121521   0.538   3.815   3.255
 6874SOL    HW221522   0.678   3.876   3.198
 6875SOL     OW21523   1.509   2.073   3.727
 6875SOL    HW121524   1.435   2.122   3.773
 6875SOL    HW221525   1.477   1.982   3.701
 6876SOL     OW21526   3.432   5.475   6.610
 6876SOL    HW121527   3.420   5.573   6.625
 6876SOL    HW221528   3.505   5.441   6.669
 6877SOL     OW21529   2.796   4.245   7.004
 6877SOL    HW121530   2.873   4.202   0.030
 6877SOL    HW221531   2.829   4.301   6.928
 6878SOL     OW21532   1.807   1.833   6.015
 6878SOL    HW121533   1.864   1.872   5.943
 6878SOL    HW221534   1.729   1.785   5.974
 6879SOL     OW21535   0.633   2.280   0.616
 6879SOL    HW121536   0.716   2.236   0.581
 6879SOL    HW221537   0.628   2.269   0.715
 6880SOL     OW21538   1.988   3.402   5.066
 6880SOL    HW121539   2.017   3.319   5.017
 6880SOL    HW221540   1.900   3.432   5.030
 6881SOL     OW21541   6.994   4.639   2.091
 6881SOL    HW121542   6.984   4.614   1.994
 6881SOL    HW221543   6.904   4.643   2.134
 6882SOL     OW21544   1.853   0.686   5.784
 6882SOL    HW121545   1.926   0.627   5.818
 6882SOL    HW221546   1.892   0.756   5.724
 6883SOL     OW21547   3.486   0.548   1.016
 6883SOL    HW121548   3.397   0.534   1.059
 6883SOL    HW221549   3.541   0.465   1.024
 6884SOL     OW21550   2.328   4.251   3.803
 6884SOL    HW121551   2.387   4.302   3.740
 6884SOL    HW221552   2.281   4.179   3.752
 6885SOL     OW21553   2.501   5.379   3.935
 6885SOL    HW121554   2.573   5.324   3.978
 6885SOL    HW221555   2.515   5.382   3.836
 6886SOL     OW21556   6.655   1.193   2.188
 6886SOL    HW121557   6.739   1.163   2.232
 6886SOL    HW221558   6.609   1.260   2.246
 6887SOL     OW21559   5.288   0.532   5.384
 6887SOL    HW121560   5.332   0.488   5.306
 6887SOL    HW221561   5.314   0.485   5.468
 6888SOL     OW21562   5.918   6.817   6.185
 6888SOL    HW121563   5.981   6.784   6.115
 6888SOL    HW221564   5.944   6.780   6.274
 6889SOL     OW21565   1.183   2.610   5.424
 6889SOL    HW121566   1.153   2.522   5.463
 6889SOL    HW221567   1.173   2.607   5.324
 6890SOL     OW21568   2.121   0.075   0.701
 6890SOL    HW121569   2.058   0.152   0.696
 6890SOL    HW221570   2.114   0.020   0.618
 6891SOL     OW21571   2.077   3.675   4.722
 6891SOL    HW121572   2.106   3.724   4.804
 6891SOL    HW221573   2.079   3.576   4.740
 6892SOL     OW21574   4.254   0.209   4.737
 6892SOL    HW121575   4.332   0.204   4.799
 6892SOL    HW221576   4.205   0.295   4.750
 6893SOL     OW21577   5.236   6.317   2.162
 6893SOL    HW121578   5.292   6.310   2.245
 6893SOL    HW221579   5.172   6.393   2.171
 6894SOL     OW21580   6.224   5.754   1.221
 6894SOL    HW121581   6.217   5.687   1.148
 6894SOL    HW221582   6.246   5.707   1.307
 6895SOL     OW21583   3.291   4.948   6.868
 6895SOL    HW121584   3.358   4.884   6.906
 6895SOL    HW221585   3.298   4.947   6.768
 6896SOL     OW21586   3.908   6.787   3.675
 6896SOL    HW121587   3.869   6.766   3.764
 6896SOL    HW221588   3.957   6.874   3.680
 6897SOL     OW21589   2.798   3.363   0.398
 6897SOL    HW121590   2.737   3.381   0.321
 6897SOL    HW221591   2.893   3.366   0.365
 6898SOL     OW21592   4.083   1.537   2.338
 6898SOL    HW121593   4.164   1.478   2.346
 6898SOL    HW221594   4.002   1.485   2.365
 6899SOL     OW21595   4.735   6.869   6.651
 6899SOL    HW121596   4.698   6.958   6.679
 6899SOL    HW221597   4.737   6.807   6.729
 6900SOL     OW21598   6.023   0.578   6.368
 6900SOL    HW121599   6.090   0.651   6.381
 6900SOL    HW221600   6.064   0.504   6.315
 6901SOL     OW21601   0.257   0.331   6.608
 6901SOL    HW121602   0.206   0.288   6.681
 6901SOL    HW221603   0.203   0.330   6.523
 6902SOL     OW21604   0.110   6.537   0.681
 6902SOL    HW121605   0.135   6.633   0.684
 6902SOL    HW221606   0.167   6.486   0.746
 6903SOL     OW21607   3.369   3.559   6.842
 6903SOL    HW121608   3.447   3.534   6.898
 6903SOL    HW221609   3.401   3.605   6.759
 6904SOL     OW21610   6.866   1.484   3.564
 6904SOL    HW121611   6.866   1.389   3.531
 6904SOL    HW221612   6.791   1.495   3.630
 6905SOL     OW21613   6.300   6.117   0.139
 6905SOL    HW121614   6.247   6.166   0.070
 6905SOL    HW221615   6.305   6.172   0.223
 6906SOL     OW21616   4.143   1.071   4.416
 6906SOL    HW121617   4.220   1.016   4.449
 6906SOL    HW221618   4.179   1.151   4.366
 6907SOL     OW21619   3.988   2.060   0.652
 6907SOL    HW121620   4.058   2.027   0.715
 6907SOL    HW221621   3.970   1.991   0.582
 6908SOL     OW21622   1.287   0.032   5.136
 6908SOL    HW121623   1.248   6.981   5.195
 6908SOL    HW221624   1.383   0.046   5.160
 6909SOL     OW21625   4.631   4.542   0.945
 6909SOL    HW121626   4.706   4.476   0.950
 6909SOL    HW221627   4.544   4.493   0.950
 6910SOL     OW21628   6.684   1.779   3.205
 6910SOL    HW121629   6.614   1.708   3.195
 6910SOL    HW221630   6.733   1.764   3.292
 6911SOL     OW21631   3.970   0.535   3.259
 6911SOL    HW121632   3.949   0.632   3.242
 6911SOL    HW221633   3.890   0.480   3.235
 6912SOL     OW21634   4.948   4.574   1.822
 6912SOL    HW121635   5.015   4.580   1.748
 6912SOL    HW221636   4.858   4.551   1.784
 6913SOL     OW21637   5.046   4.197   5.494
 6913SOL    HW121638   5.143   4.174   5.493
 6913SOL    HW221639   4.995   4.125   5.447
 6914SOL     OW21640   6.003   5.803   0.352
 6914SOL    HW121641   5.958   5.821   0.439
 6914SOL    HW221642   6.086   5.857   0.345
 6915SOL     OW21643   0.208   4.793   1.675
 6915SOL    HW121644   0.164   4.880   1.654
 6915SOL    HW221645   0.258   4.801   1.762
 6916SOL     OW21646   6.390   3.845   6.800
 6916SOL    HW121647   6.319   3.804   6.858
 6916SOL    HW221648   6.349   3.873   6.713
 6917SOL     OW21649   4.326   5.138   6.616
 6917SOL    HW121650   4.361   5.045   6.620
 6917SOL    HW221651   4.240   5.144   6.667
 6918SOL     OW21652   0.461   4.185   4.283
 6918SOL    HW121653   0.508   4.273   4.290
 6918SOL    HW221654   0.393   4.178   4.355
 6919SOL     OW21655   1.702   5.540   2.739
 6919SOL    HW121656   1.645   5.459   2.751
 6919SOL    HW221657   1.718   5.555   2.642
 6920SOL     OW21658   5.136   5.081   5.762
 6920SOL    HW121659   5.078   5.157   5.794
 6920SOL    HW221660   5.140   5.011   5.833
 6921SOL     OW21661   5.564   5.947   3.319
 6921SOL    HW121662   5.609   6.025   3.274
 6921SOL    HW221663   5.498   5.906   3.257
 6922SOL     OW21664   1.729   5.790   6.904
 6922SOL    HW121665   1.724   5.879   6.950
 6922SOL    HW221666   1.787   5.728   6.957
 6923SOL     OW21667   5.554   6.704   3.788
 6923SOL    HW121668   5.641   6.673   3.752
 6923SOL    HW221669   5.518   6.779   3.731
 6924SOL     OW21670   0.736   4.015   6.199
 6924SOL    HW121671   0.715   3.951   6.272
 6924SOL    HW221672   0.685   3.991   6.117
 6925SOL     OW21673   4.371   6.170   4.250
 6925SOL    HW121674   4.311   6.177   4.170
 6925SOL    HW221675   4.371   6.076   4.283
 6926SOL     OW21676   3.406   3.440   3.149
 6926SOL    HW121677   3.493   3.425   3.102
 6926SOL    HW221678   3.369   3.351   3.178
 6927SOL     OW21679   5.841   2.863   6.218
 6927SOL    HW121680   5.762   2.827   6.268
 6927SOL    HW221681   5.826   2.852   6.120
 6928SOL     OW21682   5.971   6.818   0.089
 6928SOL    HW121683   5.880   6.779   0.073
 6928SOL    HW221684   5.967   6.917   0.079
 6929SOL     OW21685   4.480   6.229   0.068
 6929SOL    HW121686   4.382   6.244   0.056
 6929SOL    HW221687   4.504   6.136   0.040
 6930SOL     OW21688   0.326   6.941   1.398
 6930SOL    HW121689   0.382   6.914   1.476
 6930SOL    HW221690   0.263   6.867   1.375
 6931SOL     OW21691   1.169   0.889   1.614
 6931SOL    HW121692   1.119   0.961   1.566
 6931SOL    HW221693   1.151   0.801   1.571
 6932SOL     OW21694   3.763   1.086   0.137
 6932SOL    HW121695   3.808   1.037   0.212
 6932SOL    HW221696   3.726   1.172   0.171
 6933SOL     OW21697   3.762   5.974   4.678
 6933SOL    HW121698   3.699   5.904   4.710
 6933SOL    HW221699   3.728   6.014   4.593
 6934SOL     OW21700   5.412   3.654   6.199
 6934SOL    HW121701   5.433   3.600   6.118
 6934SOL    HW221702   5.492   3.708   6.226
 6935SOL     OW21703   3.995   6.778   2.922
 6935SOL    HW121704   4.070   6.716   2.901
 6935SOL    HW221705   3.940   6.740   2.997
 6936SOL     OW21706   6.666   2.161   2.626
 6936SOL    HW121707   6.742   2.146   2.689
 6936SOL    HW221708   6.604   2.230   2.664
 6937SOL     OW21709   5.734   6.692   0.061
 6937SOL    HW121710   5.708   6.637   7.001
 6937SOL    HW221711   5.667   6.765   0.074
 6938SOL     OW21712   5.027   3.748   5.357
 6938SOL    HW121713   5.083   3.817   5.405
 6938SOL    HW221714   5.029   3.662   5.408
 6939SOL     OW21715   0.052   5.068   2.947
 6939SOL    HW121716   7.005   5.110   2.885
 6939SOL    HW221717   0.004   5.033   3.028
 6940SOL     OW21718   4.734   1.688   0.579
 6940SOL    HW121719   4.755   1.745   0.659
 6940SOL    HW221720   4.809   1.624   0.564
 6941SOL     OW21721   4.104   3.125   2.844
 6941SOL    HW121722   4.034   3.057   2.865
 6941SOL    HW221723   4.187   3.105   2.896
 6942SOL     OW21724   0.034   3.011   1.410
 6942SOL    HW121725   0.079   2.977   1.328
 6942SOL    HW221726   6.979   2.949   1.436
 6943SOL     OW21727   5.113   6.544   6.450
 6943SOL    HW121728   5.110   6.445   6.459
 6943SOL    HW221729   5.078   6.586   6.534
 6944SOL     OW21730   1.489   4.689   5.203
 6944SOL    HW121731   1.543   4.622   5.153
 6944SOL    HW221732   1.474   4.657   5.296
 6945SOL     OW21733   5.805   3.199   0.131
 6945SOL    HW121734   5.841   3.290   0.108
 6945SOL    HW221735   5.880   3.132   0.128
 6946SOL     OW21736   6.184   5.499   2.307
 6946SOL    HW121737   6.220   5.408   2.327
 6946SOL    HW221738   6.119   5.526   2.379
 6947SOL     OW21739   4.043   6.878   5.145
 6947SOL    HW121740   3.995   6.965   5.134
 6947SOL    HW221741   4.007   6.812   5.079
 6948SOL     OW21742   5.676   0.523   0.400
 6948SOL    HW121743   5.631   0.487   0.482
 6948SOL    HW221744   5.746   0.589   0.427
 6949SOL     OW21745   5.361   6.457   3.694
 6949SOL    HW121746   5.362   6.359   3.715
 6949SOL    HW221747   5.428   6.505   3.750
 6950SOL     OW21748   2.285   6.950   3.347
 6950SOL    HW121749   2.362   6.887   3.338
 6950SOL    HW221750   2.252   6.949   3.442
 6951SOL     OW21751   6.186   6.027   6.157
 6951SOL    HW121752   6.266   6.027   6.097
 6951SOL    HW221753   6.134   6.112   6.144
 6952SOL     OW21754   0.039   5.396   3.598
 6952SOL    HW121755   0.069   5.303   3.576
 6952SOL    HW221756   6.958   5.400   3.597
 6953SOL     OW21757   5.287   0.526   6.107
 6953SOL    HW121758   5.359   0.468   6.070
 6953SOL    HW221759   5.202   0.473   6.115
 6954SOL     OW21760   1.143   4.394   4.186
 6954SOL    HW121761   1.151   4.473   4.247
 6954SOL    HW221762   1.151   4.424   4.091
 6955SOL     OW21763   0.051   0.302   1.818
 6955SOL    HW121764   0.092   0.324   1.906
 6955SOL    HW221765   6.972   0.291   1.827
 6956SOL     OW21766   4.122   6.328   2.835
 6956SOL    HW121767   4.141   6.242   2.789
 6956SOL    HW221768   4.203   6.358   2.886
 6957SOL     OW21769   0.101   4.441   1.239
 6957SOL    HW121770   0.044   4.513   1.200
 6957SOL    HW221771   0.114   4.459   1.337
 6958SOL     OW21772   3.034   3.507   5.641
 6958SOL    HW121773   3.075   3.417   5.657
 6958SOL    HW221774   3.055   3.568   5.719
 6959SOL     OW21775   2.104   1.284   4.816
 6959SOL    HW121776   2.171   1.356   4.797
 6959SOL    HW221777   2.152   1.197   4.826
 6960SOL     OW21778   0.691   5.184   0.313
 6960SOL    HW121779   0.657   5.257   0.373
 6960SOL    HW221780   0.724   5.224   0.228
 6961SOL     OW21781   0.119   2.556   4.455
 6961SOL    HW121782   0.177   2.491   4.406
 6961SOL    HW221783   0.097   2.634   4.396
 6962SOL     OW21784   5.663   5.158   2.770
 6962SOL    HW121785   5.602   5.092   2.726
 6962SOL    HW221786   5.703   5.217   2.701
 6963SOL     OW21787   0.678   5.991   0.378
 6963SOL    HW121788   0.751   5.950   0.433
 6963SOL    HW221789   0.626   6.055   0.434
 6964SOL     OW21790   5.116   4.666   4.896
 6964SOL    HW121791   5.076   4.618   4.974
 6964SOL    HW221792   5.117   4.605   4.817
 6965SOL     OW21793   0.476   3.672   6.252
 6965SOL    HW121794   0.555   3.676   6.190
 6965SOL    HW221795   0.458   3.577   6.276
 6966SOL     OW21796   6.001   2.917   3.025
 6966SOL    HW121797   5.945   2.920   3.107
 6966SOL    HW221798   6.063   2.838   3.030
 6967SOL     OW21799   1.363   1.727   5.110
 6967SOL    HW121800   1.333   1.756   5.019
 6967SOL    HW221801   1.353   1.628   5.117
 6968SOL     OW21802   3.349   6.356   2.463
 6968SOL    HW121803   3.336   6.455   2.471
 6968SOL    HW221804   3.363   6.332   2.367
 6969SOL     OW21805   3.920   1.776   2.098
 6969SOL    HW121806   3.964   1.731   2.020
 6969SOL    HW221807   3.896   1.870   2.074
 6970SOL     OW21808   4.296   4.206   0.550
 6970SOL    HW121809   4.391   4.220   0.524
 6970SOL    HW221810   4.292   4.166   0.641
 6971SOL     OW21811   6.373   4.026   2.275
 6971SOL    HW121812   6.430   4.023   2.192
 6971SOL    HW221813   6.290   3.973   2.259
 6972SOL     OW21814   6.125   5.086   4.505
 6972SOL    HW121815   6.135   4.987   4.494
 6972SOL    HW221816   6.049   5.105   4.568
 6973SOL     OW21817   1.354   4.048   4.538
 6973SOL    HW121818   1.265   4.002   4.547
 6973SOL    HW221819   1.348   4.118   4.468
 6974SOL     OW21820   3.252   2.923   3.440
 6974SOL    HW121821   3.195   2.951   3.363
 6974SOL    HW221822   3.204   2.943   3.526
 6975SOL     OW21823   3.153   6.382   5.643
 6975SOL    HW121824   3.067   6.352   5.684
 6975SOL    HW221825   3.189   6.460   5.694
 6976SOL     OW21826   4.056   4.024   5.522
 6976SOL    HW121827   4.093   4.099   5.467
 6976SOL    HW221828   3.976   3.985   5.475
 6977SOL     OW21829   5.495   2.141   1.533
 6977SOL    HW121830   5.400   2.118   1.512
 6977SOL    HW221831   5.533   2.073   1.596
 6978SOL     OW21832   6.221   1.806   0.924
 6978SOL    HW121833   6.256   1.757   0.844
 6978SOL    HW221834   6.288   1.800   0.998
 6979SOL     OW21835   1.388   4.600   1.287
 6979SOL    HW121836   1.369   4.546   1.205
 6979SOL    HW221837   1.486   4.623   1.289
 6980SOL     OW21838   1.549   0.440   4.062
 6980SOL    HW121839   1.487   0.453   3.984
 6980SOL    HW221840   1.629   0.498   4.050
 6981SOL     OW21841   2.471   3.235   0.047
 6981SOL    HW121842   2.465   3.188   6.978
 6981SOL    HW221843   2.390   3.213   0.102
 6982SOL     OW21844   1.385   1.459   3.990
 6982SOL    HW121845   1.328   1.540   4.004
 6982SOL    HW221846   1.480   1.482   4.008
 6983SOL     OW21847   5.818   2.344   3.409
 6983SOL    HW121848   5.879   2.417   3.438
 6983SOL    HW221849   5.811   2.275   3.481
 6984SOL     OW21850   2.435   1.746   5.101
 6984SOL    HW121851   2.447   1.843   5.123
 6984SOL    HW221852   2.522   1.708   5.068
 6985SOL     OW21853   3.589   5.227   2.755
 6985SOL    HW121854   3.572   5.324   2.737
 6985SOL    HW221855   3.667   5.196   2.702
 6986SOL     OW21856   1.718   6.304   5.993
 6986SOL    HW121857   1.683   6.390   6.031
 6986SOL    HW221858   1.755   6.321   5.902
 6987SOL     OW21859   0.853   1.901   6.605
 6987SOL    HW121860   0.822   1.874   6.514
 6987SOL    HW221861   0.925   1.971   6.596
 6988SOL     OW21862   5.905   0.690   4.889
 6988SOL    HW121863   5.843   0.620   4.923
 6988SOL    HW221864   5.994   0.649   4.869
 6989SOL     OW21865   0.798   2.878   3.837
 6989SOL    HW121866   0.735   2.821   3.784
 6989SOL    HW221867   0.890   2.840   3.832
 6990SOL     OW21868   5.380   1.768   0.140
 6990SOL    HW121869   5.328   1.704   0.197
 6990SOL    HW221870   5.458   1.803   0.192
 6991SOL     OW21871   2.472   4.738   4.441
 6991SOL    HW121872   2.453   4.794   4.360
 6991SOL    HW221873   2.401   4.752   4.509
 6992SOL     OW21874   6.129   5.855   5.044
 6992SOL    HW121875   6.158   5.820   4.954
 6992SOL    HW221876   6.100   5.950   5.035
 6993SOL     OW21877   6.336   6.917   2.903
 6993SOL    HW121878   6.340   7.009   2.866
 6993SOL    HW221879   6.354   6.850   2.831
 6994SOL     OW21880   0.619   3.052   4.752
 6994SOL    HW121881   0.676   3.000   4.688
 6994SOL    HW221882   0.662   3.052   4.842
 6995SOL     OW21883   6.486   5.202   4.832
 6995SOL    HW121884   6.441   5.268   4.772
 6995SOL    HW221885   6.423   5.173   4.904
 6996SOL     OW21886   1.980   0.952   4.755
 6996SOL    HW121887   2.045   0.990   4.820
 6996SOL    HW221888   1.994   0.853   4.747
 6997SOL     OW21889   5.269   6.064   5.294
 6997SOL    HW121890   5.195   6.125   5.321
 6997SOL    HW221891   5.348   6.078   5.353
 6998SOL     OW21892   1.693   2.516   1.546
 6998SOL    HW121893   1.783   2.495   1.508
 6998SOL    HW221894   1.629   2.535   1.472
 6999SOL     OW21895   2.207   1.861   6.929
 6999SOL    HW121896   2.166   1.930   6.988
 6999SOL    HW221897   2.196   1.887   6.833
 7000SOL     OW21898   6.737   6.290   2.628
 7000SOL    HW121899   6.761   6.193   2.620
 7000SOL    HW221900   6.692   6.306   2.716
 7001SOL     OW21901   2.495   3.134   5.413
 7001SOL    HW121902   2.461   3.103   5.324
 7001SOL    HW221903   2.593   3.119   5.418
 7002SOL     OW21904   2.682   4.750   2.922
 7002SOL    HW121905   2.725   4.704   2.844
 7002SOL    HW221906   2.583   4.744   2.914
 7003SOL     OW21907   3.761   6.445   6.922
 7003SOL    HW121908   3.664   6.469   6.913
 7003SOL    HW221909   3.805   6.509   6.986
 7004SOL     OW21910   2.011   5.035   1.541
 7004SOL    HW121911   1.942   5.043   1.469
 7004SOL    HW221912   2.043   4.941   1.546
 7005SOL     OW21913   0.711   6.468   5.487
 7005SOL    HW121914   0.647   6.404   5.531
 7005SOL    HW221915   0.688   6.561   5.515
 7006SOL     OW21916   5.885   5.058   4.616
 7006SOL    HW121917   5.855   5.150   4.590
 7006SOL    HW221918   5.869   5.043   4.713
 7007SOL     OW21919   5.095   6.612   3.081
 7007SOL    HW121920   5.086   6.625   2.982
 7007SOL    HW221921   5.038   6.679   3.128
 7008SOL     OW21922   2.313   5.739   4.808
 7008SOL    HW121923   2.288   5.813   4.747
 7008SOL    HW221924   2.232   5.684   4.829
 7009SOL     OW21925   5.696   5.338   2.523
 7009SOL    HW121926   5.780   5.324   2.469
 7009SOL    HW221927   5.617   5.320   2.465
 7010SOL     OW21928   4.575   3.849   6.378
 7010SOL    HW121929   4.617   3.760   6.394
 7010SOL    HW221930   4.476   3.839   6.373
 7011SOL     OW21931   1.779   0.961   6.233
 7011SOL    HW121932   1.878   0.975   6.238
 7011SOL    HW221933   1.733   1.023   6.295
 7012SOL     OW21934   2.284   0.881   1.702
 7012SOL    HW121935   2.352   0.854   1.634
 7012SOL    HW221936   2.330   0.929   1.777
 7013SOL     OW21937   6.854   6.579   0.894
 7013SOL    HW121938   6.946   6.548   0.918
 7013SOL    HW221939   6.806   6.608   0.977
 7014SOL     OW21940   4.605   3.222   1.029
 7014SOL    HW121941   4.528   3.183   1.080
 7014SOL    HW221942   4.596   3.196   0.932
 7015SOL     OW21943   5.350   4.452   2.025
 7015SOL    HW121944   5.370   4.494   2.113
 7015SOL    HW221945   5.387   4.510   1.952
 7016SOL     OW21946   3.668   4.927   2.219
 7016SOL    HW121947   3.664   4.859   2.146
 7016SOL    HW221948   3.587   4.918   2.277
 7017SOL     OW21949   2.261   0.234   2.214
 7017SOL    HW121950   2.230   0.252   2.121
 7017SOL    HW221951   2.320   0.154   2.215
 7018SOL     OW21952   6.471   4.288   4.691
 7018SOL    HW121953   6.391   4.342   4.664
 7018SOL    HW221954   6.471   4.201   4.642
 7019SOL     OW21955   3.030   4.466   6.551
 7019SOL    HW121956   3.120   4.485   6.591
 7019SOL    HW221957   3.016   4.524   6.471
 7020SOL     OW21958   6.339   6.535   6.505
 7020SOL    HW121959   6.407   6.607   6.518
 7020SOL    HW221960   6.331   6.481   6.589
 7021SOL     OW21961   2.070   0.942   5.322
 7021SOL    HW121962   2.115   0.972   5.405
 7021SOL    HW221963   2.138   0.923   5.251
 7022SOL     OW21964   4.485   4.389   0.689
 7022SOL    HW121965   4.528   4.299   0.686
 7022SOL    HW221966   4.549   4.459   0.656
 7023SOL     OW21967   0.571   2.364   3.486
 7023SOL    HW121968   0.499   2.296   3.478
 7023SOL    HW221969   0.575   2.398   3.580
 7024SOL     OW21970   1.349   5.302   6.087
 7024SOL    HW121971   1.436   5.347   6.068
 7024SOL    HW221972   1.300   5.287   6.001
 7025SOL     OW21973   3.096   1.615   0.190
 7025SOL    HW121974   3.005   1.605   0.231
 7025SOL    HW221975   3.138   1.525   0.180
 7026SOL     OW21976   3.040   1.249   2.222
 7026SOL    HW121977   2.991   1.202   2.295
 7026SOL    HW221978   3.128   1.281   2.258
 7027SOL     OW21979   3.232   5.453   2.823
 7027SOL    HW121980   3.238   5.383   2.751
 7027SOL    HW221981   3.138   5.483   2.833
 7028SOL     OW21982   6.060   6.618   4.583
 7028SOL    HW121983   6.040   6.672   4.665
 7028SOL    HW221984   6.090   6.526   4.611
 7029SOL     OW21985   3.804   6.879   6.941
 7029SOL    HW121986   3.889   6.929   6.924
 7029SOL    HW221987   3.727   6.928   6.899
 7030SOL     OW21988   6.679   2.464   6.218
 7030SOL    HW121989   6.669   2.490   6.315
 7030SOL    HW221990   6.711   2.370   6.212
 7031SOL     OW21991   2.203   5.932   3.901
 7031SOL    HW121992   2.243   5.886   3.822
 7031SOL    HW221993   2.253   5.907   3.984
 7032SOL     OW21994   3.480   6.765   3.774
 7032SOL    HW121995   3.400   6.798   3.723
 7032SOL    HW221996   3.520   6.841   3.825
 7033SOL     OW21997   0.090   1.744   3.281
 7033SOL    HW121998   7.012   1.733   3.302
 7033SOL    HW221999   0.125   1.658   3.243
 7034SOL     OW22000   6.227   0.618   2.956
 7034SOL    HW122001   6.231   0.573   2.867
 7034SOL    HW222002   6.319   0.645   2.984
 7035SOL     OW22003   1.300   6.864   1.967
 7035SOL    HW122004   1.235   6.789   1.976
 7035SOL    HW222005   1.377   6.849   2.029
 7036SOL     OW22006   6.929   0.381   1.384
 7036SOL    HW122007   6.914   0.312   1.455
 7036SOL    HW222008   6.963   0.337   1.301
 7037SOL     OW22009   0.859   0.025   5.982
 7037SOL    HW122010   0.933   0.036   5.916
 7037SOL    HW222011   0.802   0.108   5.984
 7038SOL     OW22012   1.808   3.784   4.080
 7038SOL    HW122013   1.867   3.789   4.161
 7038SOL    HW222014   1.847   3.841   4.008
 7039SOL     OW22015   2.731   6.199   0.693
 7039SOL    HW122016   2.694   6.108   0.713
 7039SOL    HW222017   2.659   6.267   0.706
 7040SOL     OW22018   4.823   2.340   5.031
 7040SOL    HW122019   4.867   2.350   5.121
 7040SOL    HW222020   4.742   2.399   5.027
 7041SOL     OW22021   0.600   1.786   3.014
 7041SOL    HW122022   0.525   1.842   2.978
 7041SOL    HW222023   0.613   1.706   2.955
 7042SOL     OW22024   5.729   5.417   6.951
 7042SOL    HW122025   5.715   5.338   6.891
 7042SOL    HW222026   5.827   5.424   6.974
 7043SOL     OW22027   2.241   2.886   3.222
 7043SOL    HW122028   2.192   2.815   3.272
 7043SOL    HW222029   2.301   2.843   3.154
 7044SOL     OW22030   5.102   4.704   3.376
 7044SOL    HW122031   5.171   4.684   3.446
 7044SOL    HW222032   5.143   4.760   3.304
 7045SOL     OW22033   4.624   5.985   2.237
 7045SOL    HW122034   4.585   5.923   2.306
 7045SOL    HW222035   4.683   5.933   2.175
 7046SOL     OW22036   3.810   2.130   3.669
 7046SOL    HW122037   3.740   2.128   3.597
 7046SOL    HW222038   3.768   2.108   3.757
 7047SOL     OW22039   1.157   2.384   3.049
 7047SOL    HW122040   1.256   2.397   3.046
 7047SOL    HW222041   1.134   2.294   3.012
 7048SOL     OW22042   0.356   5.805   1.627
 7048SOL    HW122043   0.365   5.719   1.578
 7048SOL    HW222044   0.354   5.881   1.562
 7049SOL     OW22045   2.451   1.344   0.974
 7049SOL    HW122046   2.543   1.308   0.984
 7049SOL    HW222047   2.397   1.321   1.055
 7050SOL     OW22048   3.539   4.044   3.575
 7050SOL    HW122049   3.481   4.030   3.655
 7050SOL    HW222050   3.631   4.070   3.604
 7051SOL     OW22051   0.449   0.956   0.974
 7051SOL    HW122052   0.388   0.989   1.047
 7051SOL    HW222053   0.506   0.882   1.009
 7052SOL     OW22054   6.266   2.670   4.206
 7052SOL    HW122055   6.355   2.709   4.227
 7052SOL    HW222056   6.274   2.570   4.200
 7053SOL     OW22057   1.014   3.156   4.992
 7053SOL    HW122058   1.000   3.200   5.080
 7053SOL    HW222059   1.059   3.068   5.006
 7054SOL     OW22060   0.936   6.392   1.199
 7054SOL    HW122061   0.976   6.329   1.265
 7054SOL    HW222062   0.918   6.480   1.242
 7055SOL     OW22063   3.867   6.612   5.180
 7055SOL    HW122064   3.967   6.615   5.180
 7055SOL    HW222065   3.833   6.645   5.268
 7056SOL     OW22066   5.302   5.739   3.475
 7056SOL    HW122067   5.328   5.830   3.508
 7056SOL    HW222068   5.252   5.748   3.389
 7057SOL     OW22069   1.587   5.149   4.232
 7057SOL    HW122070   1.574   5.177   4.327
 7057SOL    HW222071   1.679   5.110   4.221
 7058SOL     OW22072   6.224   5.436   6.422
 7058SOL    HW122073   6.285   5.514   6.437
 7058SOL    HW222074   6.141   5.467   6.375
 7059SOL     OW22075   0.708   0.622   3.263
 7059SOL    HW122076   0.724   0.528   3.293
 7059SOL    HW222077   0.788   0.653   3.211
 7060SOL     OW22078   2.991   6.822   1.581
 7060SOL    HW122079   2.969   6.755   1.510
 7060SOL    HW222080   2.906   6.864   1.614
 7061SOL     OW22081   0.337   2.711   3.740
 7061SOL    HW122082   0.425   2.727   3.695
 7061SOL    HW222083   0.293   2.632   3.698
 7062SOL     OW22084   5.432   1.523   6.418
 7062SOL    HW122085   5.338   1.520   6.385
 7062SOL    HW222086   5.495   1.505   6.343
 7063SOL     OW22087   0.418   0.351   1.173
 7063SOL    HW122088   0.429   0.322   1.268
 7063SOL    HW222089   0.492   0.415   1.149
 7064SOL     OW22090   4.114   2.180   1.878
 7064SOL    HW122091   4.189   2.136   1.828
 7064SOL    HW222092   4.068   2.246   1.820
 7065SOL     OW22093   4.189   3.821   0.541
 7065SOL    HW122094   4.275   3.871   0.552
 7065SOL    HW222095   4.173   3.763   0.620
 7066SOL     OW22096   4.474   0.977   0.733
 7066SOL    HW122097   4.498   0.911   0.662
 7066SOL    HW222098   4.416   0.934   0.801
 7067SOL     OW22099   1.395   1.613   5.447
 7067SOL    HW122100   1.354   1.573   5.365
 7067SOL    HW222101   1.493   1.593   5.448
 7068SOL     OW22102   0.676   4.216   3.351
 7068SOL    HW122103   0.585   4.200   3.388
 7068SOL    HW222104   0.717   4.129   3.322
 7069SOL     OW22105   6.013   2.760   4.264
 7069SOL    HW122106   5.967   2.803   4.186
 7069SOL    HW222107   6.110   2.747   4.243
 7070SOL     OW22108   0.029   6.164   5.088
 7070SOL    HW122109   0.110   6.221   5.092
 7070SOL    HW222110   0.049   6.073   5.125
 7071SOL     OW22111   1.014   6.548   6.367
 7071SOL    HW122112   1.066   6.495   6.434
 7071SOL    HW222113   1.056   6.539   6.277
 7072SOL     OW22114   0.003   6.421   5.944
 7072SOL    HW122115   0.073   6.479   5.986
 7072SOL    HW222116   6.963   6.383   6.015
 7073SOL     OW22117   5.595   0.016   4.513
 7073SOL    HW122118   5.619   0.113   4.507
 7073SOL    HW222119   5.547   7.018   4.599
 7074SOL     OW22120   4.278   2.824   1.461
 7074SOL    HW122121   4.292   2.745   1.402
 7074SOL    HW222122   4.220   2.798   1.538
 7075SOL     OW22123   1.115   5.900   5.844
 7075SOL    HW122124   1.086   5.811   5.879
 7075SOL    HW222125   1.213   5.912   5.858
 7076SOL     OW22126   3.911   2.488   6.801
 7076SOL    HW122127   3.951   2.528   6.719
 7076SOL    HW222128   3.837   2.547   6.833
 7077SOL     OW22129   2.300   4.724   5.791
 7077SOL    HW122130   2.248   4.681   5.717
 7077SOL    HW222131   2.260   4.699   5.879
 7078SOL     OW22132   6.370   0.606   1.756
 7078SOL    HW122133   6.276   0.614   1.787
 7078SOL    HW222134   6.381   0.657   1.670
 7079SOL     OW22135   6.577   5.993   5.346
 7079SOL    HW122136   6.593   5.982   5.444
 7079SOL    HW222137   6.635   5.929   5.295
 7080SOL     OW22138   3.451   2.057   4.324
 7080SOL    HW122139   3.405   2.112   4.394
 7080SOL    HW222140   3.423   1.961   4.334
 7081SOL     OW22141   2.873   0.439   6.231
 7081SOL    HW122142   2.778   0.439   6.201
 7081SOL    HW222143   2.932   0.413   6.155
 7082SOL     OW22144   6.046   5.347   6.805
 7082SOL    HW122145   6.132   5.297   6.796
 7082SOL    HW222146   6.065   5.440   6.836
 7083SOL     OW22147   3.278   1.163   6.803
 7083SOL    HW122148   3.333   1.095   6.853
 7083SOL    HW222149   3.338   1.235   6.769
 7084SOL     OW22150   0.218   6.727   5.590
 7084SOL    HW122151   0.145   6.677   5.544
 7084SOL    HW222152   0.243   6.678   5.674
 7085SOL     OW22153   2.262   1.157   2.654
 7085SOL    HW122154   2.227   1.148   2.561
 7085SOL    HW222155   2.190   1.192   2.714
 7086SOL     OW22156   5.090   1.107   5.679
 7086SOL    HW122157   4.992   1.128   5.679
 7086SOL    HW222158   5.102   1.008   5.683
 7087SOL     OW22159   6.167   3.912   3.798
 7087SOL    HW122160   6.154   3.845   3.726
 7087SOL    HW222161   6.186   4.002   3.758
 7088SOL     OW22162   5.190   2.789   3.312
 7088SOL    HW122163   5.262   2.844   3.269
 7088SOL    HW222164   5.136   2.846   3.374
 7089SOL     OW22165   3.393   2.113   5.821
 7089SOL    HW122166   3.373   2.175   5.897
 7089SOL    HW222167   3.428   2.026   5.857
 7090SOL     OW22168   2.363   1.426   6.328
 7090SOL    HW122169   2.420   1.483   6.270
 7090SOL    HW222170   2.341   1.341   6.280
 7091SOL     OW22171   0.036   2.218   0.100
 7091SOL    HW122172   0.131   2.238   0.124
 7091SOL    HW222173   6.995   2.270   0.160
 7092SOL     OW22174   4.398   2.670   6.165
 7092SOL    HW122175   4.390   2.591   6.226
 7092SOL    HW222176   4.494   2.692   6.151
 7093SOL     OW22177   3.178   3.612   3.579
 7093SOL    HW122178   3.090   3.644   3.545
 7093SOL    HW222179   3.184   3.629   3.677
 7094SOL     OW22180   0.461   5.546   6.145
 7094SOL    HW122181   0.383   5.587   6.097
 7094SOL    HW222182   0.446   5.448   6.155
 7095SOL     OW22183   3.360   2.722   6.825
 7095SOL    HW122184   3.442   2.778   6.822
 7095SOL    HW222185   3.300   2.753   6.899
 7096SOL     OW22186   6.230   0.705   4.284
 7096SOL    HW122187   6.273   0.777   4.230
 7096SOL    HW222188   6.289   0.624   4.285
 7097SOL     OW22189   6.174   0.898   1.754
 7097SOL    HW122190   6.212   0.952   1.829
 7097SOL    HW222191   6.220   0.922   1.669
 7098SOL     OW22192   0.662   6.979   4.318
 7098SOL    HW122193   0.611   6.993   4.233
 7098SOL    HW222194   0.719   0.040   4.336
 7099SOL     OW22195   2.875   0.434   4.786
 7099SOL    HW122196   2.939   0.475   4.851
 7099SOL    HW222197   2.838   0.505   4.726
 7100SOL     OW22198   5.961   3.424   0.904
 7100SOL    HW122199   5.872   3.410   0.949
 7100SOL    HW222200   5.958   3.509   0.852
 7101SOL     OW22201   2.219   0.492   5.035
 7101SOL    HW122202   2.248   0.486   4.940
 7101SOL    HW222203   2.160   0.414   5.057
 7102SOL     OW22204   4.741   0.855   1.124
 7102SOL    HW122205   4.686   0.782   1.167
 7102SOL    HW222206   4.815   0.881   1.186
 7103SOL     OW22207   4.363   5.261   0.899
 7103SOL    HW122208   4.348   5.284   0.995
 7103SOL    HW222209   4.406   5.171   0.893
 7104SOL     OW22210   1.209   3.471   4.734
 7104SOL    HW122211   1.190   3.452   4.638
 7104SOL    HW222212   1.126   3.454   4.788
 7105SOL     OW22213   2.761   2.860   5.497
 7105SOL    HW122214   2.775   2.766   5.465
 7105SOL    HW222215   2.776   2.923   5.421
 7106SOL     OW22216   3.037   3.095   3.159
 7106SOL    HW122217   2.953   3.103   3.212
 7106SOL    HW222218   3.107   3.155   3.198
 7107SOL     OW22219   3.523   0.650   0.614
 7107SOL    HW122220   3.500   0.725   0.676
 7107SOL    HW222221   3.488   0.670   0.523
 7108SOL     OW22222   4.056   6.241   2.086
 7108SOL    HW122223   4.079   6.154   2.130
 7108SOL    HW222224   4.106   6.249   1.999
 7109SOL     OW22225   4.149   6.760   6.347
 7109SOL    HW122226   4.077   6.771   6.279
 7109SOL    HW222227   4.137   6.828   6.419
 7110SOL     OW22228   4.398   6.029   3.681
 7110SOL    HW122229   4.434   5.987   3.764
 7110SOL    HW222230   4.410   6.128   3.686
 7111SOL     OW22231   2.509   2.233   4.692
 7111SOL    HW122232   2.551   2.163   4.635
 7111SOL    HW222233   2.434   2.192   4.745
 7112SOL     OW22234   2.645   5.898   3.881
 7112SOL    HW122235   2.600   5.964   3.942
 7112SOL    HW222236   2.614   5.806   3.904
 7113SOL     OW22237   3.203   3.932   5.149
 7113SOL    HW122238   3.121   3.948   5.204
 7113SOL    HW222239   3.196   3.844   5.103
 7114SOL     OW22240   3.986   6.635   1.757
 7114SOL    HW122241   4.050   6.689   1.702
 7114SOL    HW222242   4.020   6.629   1.851
 7115SOL     OW22243   5.535   2.752   2.467
 7115SOL    HW122244   5.482   2.814   2.409
 7115SOL    HW222245   5.631   2.753   2.440
 7116SOL     OW22246   5.251   3.339   3.456
 7116SOL    HW122247   5.223   3.243   3.467
 7116SOL    HW222248   5.350   3.343   3.446
 7117SOL     OW22249   0.239   6.644   4.532
 7117SOL    HW122250   0.149   6.637   4.488
 7117SOL    HW222251   0.228   6.679   4.625
 7118SOL     OW22252   3.161   4.344   0.705
 7118SOL    HW122253   3.243   4.354   0.649
 7118SOL    HW222254   3.182   4.291   0.787
 7119SOL     OW22255   5.418   1.906   3.556
 7119SOL    HW122256   5.326   1.922   3.593
 7119SOL    HW222257   5.430   1.961   3.473
 7120SOL     OW22258   4.314   1.979   2.545
 7120SOL    HW122259   4.233   1.925   2.522
 7120SOL    HW222260   4.297   2.075   2.523
 7121SOL     OW22261   2.924   7.017   2.330
 7121SOL    HW122262   2.869   0.057   2.388
 7121SOL    HW222263   2.865   6.951   2.284
 7122SOL     OW22264   6.719   0.690   5.802
 7122SOL    HW122265   6.723   0.788   5.822
 7122SOL    HW222266   6.651   0.646   5.861
 7123SOL     OW22267   2.450   4.826   1.462
 7123SOL    HW122268   2.511   4.761   1.416
 7123SOL    HW222269   2.401   4.780   1.536
 7124SOL     OW22270   0.540   2.979   0.915
 7124SOL    HW122271   0.574   2.973   0.821
 7124SOL    HW222272   0.508   3.072   0.934
 7125SOL     OW22273   6.431   6.776   0.970
 7125SOL    HW122274   6.384   6.702   1.017
 7125SOL    HW222275   6.441   6.753   0.873
 7126SOL     OW22276   3.293   4.958   6.602
 7126SOL    HW122277   3.296   4.949   6.502
 7126SOL    HW222278   3.246   5.042   6.626
 7127SOL     OW22279   2.604   6.126   4.407
 7127SOL    HW122280   2.662   6.206   4.390
 7127SOL    HW222281   2.519   6.156   4.449
 7128SOL     OW22282   2.064   5.870   0.387
 7128SOL    HW122283   2.068   5.772   0.406
 7128SOL    HW222284   1.973   5.894   0.352
 7129SOL     OW22285   3.033   0.440   0.654
 7129SOL    HW122286   2.987   0.371   0.711
 7129SOL    HW222287   2.964   0.489   0.600
 7130SOL     OW22288   3.414   4.535   5.416
 7130SOL    HW122289   3.430   4.437   5.425
 7130SOL    HW222290   3.322   4.552   5.381
 7131SOL     OW22291   2.785   1.276   0.180
 7131SOL    HW122292   2.801   1.370   0.149
 7131SOL    HW222293   2.691   1.266   0.213
 7132SOL     OW22294   3.179   4.141   0.352
 7132SOL    HW122295   3.133   4.055   0.334
 7132SOL    HW222296   3.131   4.191   0.424
 7133SOL     OW22297   4.693   5.806   3.855
 7133SOL    HW122298   4.785   5.842   3.841
 7133SOL    HW222299   4.686   5.769   3.947
 7134SOL     OW22300   5.867   5.955   2.219
 7134SOL    HW122301   5.931   6.027   2.191
 7134SOL    HW222302   5.829   5.976   2.309
 7135SOL     OW22303   2.187   2.112   3.535
 7135SOL    HW122304   2.094   2.146   3.540
 7135SOL    HW222305   2.187   2.012   3.543
 7136SOL     OW22306   1.697   2.922   0.788
 7136SOL    HW122307   1.744   2.836   0.809
 7136SOL    HW222308   1.689   2.977   0.871
 7137SOL     OW22309   4.664   0.682   6.476
 7137SOL    HW122310   4.698   0.759   6.422
 7137SOL    HW222311   4.712   0.679   6.563
 7138SOL     OW22312   1.935   2.791   0.416
 7138SOL    HW122313   1.978   2.841   0.491
 7138SOL    HW222314   1.863   2.847   0.376
 7139SOL     OW22315   4.777   4.054   2.702
 7139SOL    HW122316   4.738   4.142   2.678
 7139SOL    HW222317   4.832   4.020   2.626
 7140SOL     OW22318   5.652   3.369   4.478
 7140SOL    HW122319   5.562   3.412   4.485
 7140SOL    HW222320   5.659   3.296   4.546
 7141SOL     OW22321   2.652   5.932   1.256
 7141SOL    HW122322   2.567   5.895   1.219
 7141SOL    HW222323   2.701   5.861   1.306
 7142SOL     OW22324   4.338   0.197   3.118
 7142SOL    HW122325   4.328   0.296   3.128
 7142SOL    HW222326   4.345   0.174   3.020
 7143SOL     OW22327   1.837   2.814   6.385
 7143SOL    HW122328   1.878   2.864   6.309
 7143SOL    HW222329   1.843   2.715   6.367
 7144SOL     OW22330   1.888   1.522   3.636
 7144SOL    HW122331   1.845   1.458   3.699
 7144SOL    HW222332   1.818   1.584   3.599
 7145SOL     OW22333   4.713   6.662   6.143
 7145SOL    HW122334   4.644   6.593   6.123
 7145SOL    HW222335   4.696   6.744   6.089
 7146SOL     OW22336   2.074   0.595   6.584
 7146SOL    HW122337   2.117   0.516   6.628
 7146SOL    HW222338   2.134   0.630   6.512
 7147SOL     OW22339   6.310   6.092   3.093
 7147SOL    HW122340   6.344   6.169   3.147
 7147SOL    HW222341   6.329   6.109   2.996
 7148SOL     OW22342   6.909   6.543   1.201
 7148SOL    HW122343   6.868   6.453   1.190
 7148SOL    HW222344   6.890   6.578   1.292
 7149SOL     OW22345   6.581   6.699   3.190
 7149SOL    HW122346   6.551   6.646   3.111
 7149SOL    HW222347   6.554   6.794   3.179
 7150SOL     OW22348   4.594   2.115   2.053
 7150SOL    HW122349   4.527   2.140   2.123
 7150SOL    HW222350   4.573   2.165   1.968
 7151SOL     OW22351   1.386   6.300   0.445
 7151SOL    HW122352   1.429   6.365   0.383
 7151SOL    HW222353   1.380   6.210   0.401
 7152SOL     OW22354   0.456   1.660   4.980
 7152SOL    HW122355   0.405   1.640   5.063
 7152SOL    HW222356   0.391   1.674   4.904
 7153SOL     OW22357   3.086   5.913   3.080
 7153SOL    HW122358   3.032   5.883   3.002
 7153SOL    HW222359   3.043   5.880   3.165
 7154SOL     OW22360   4.084   6.479   4.733
 7154SOL    HW122361   4.017   6.511   4.800
 7154SOL    HW222362   4.067   6.522   4.645
 7155SOL     OW22363   2.724   5.006   1.517
 7155SOL    HW122364   2.823   5.020   1.523
 7155SOL    HW222365   2.694   4.946   1.592
 7156SOL     OW22366   0.399   3.798   4.637
 7156SOL    HW122367   0.304   3.803   4.607
 7156SOL    HW222368   0.423   3.882   4.685
 7157SOL     OW22369   6.377   4.389   1.059
 7157SOL    HW122370   6.319   4.460   1.019
 7157SOL    HW222371   6.409   4.328   0.987
 7158SOL     OW22372   1.072   6.881   2.644
 7158SOL    HW122373   1.070   6.920   2.736
 7158SOL    HW222374   1.093   6.783   2.650
 7159SOL     OW22375   0.308   4.236   2.759
 7159SOL    HW122376   0.405   4.261   2.754
 7159SOL    HW222377   0.296   4.143   2.724
 7160SOL     OW22378   6.116   0.382   3.416
 7160SOL    HW122379   6.162   0.407   3.501
 7160SOL    HW222380   6.139   0.449   3.344
 7161SOL     OW22381   3.123   4.109   4.938
 7161SOL    HW122382   3.064   4.178   4.980
 7161SOL    HW222383   3.181   4.068   5.008
 7162SOL     OW22384   2.448   5.537   5.493
 7162SOL    HW122385   2.396   5.538   5.408
 7162SOL    HW222386   2.387   5.525   5.570
 7163SOL     OW22387   2.802   6.184   3.251
 7163SOL    HW122388   2.892   6.196   3.208
 7163SOL    HW222389   2.749   6.268   3.240
 7164SOL     OW22390   1.995   1.277   3.549
 7164SOL    HW122391   2.084   1.271   3.502
 7164SOL    HW222392   1.971   1.373   3.561
 7165SOL     OW22393   7.010   1.835   1.379
 7165SOL    HW122394   0.011   1.771   1.305
 7165SOL    HW222395   6.952   1.909   1.344
 7166SOL     OW22396   5.534   3.004   0.384
 7166SOL    HW122397   5.617   2.974   0.431
 7166SOL    HW222398   5.480   2.923   0.359
 7167SOL     OW22399   5.224   3.675   4.836
 7167SOL    HW122400   5.318   3.660   4.804
 7167SOL    HW222401   5.190   3.592   4.879
 7168SOL     OW22402   1.501   2.568   4.084
 7168SOL    HW122403   1.552   2.621   4.151
 7168SOL    HW222404   1.551   2.567   3.997
 7169SOL     OW22405   0.439   3.525   4.850
 7169SOL    HW122406   0.466   3.482   4.764
 7169SOL    HW222407   0.413   3.455   4.916
 7170SOL     OW22408   4.791   6.136   3.700
 7170SOL    HW122409   4.767   6.041   3.679
 7170SOL    HW222410   4.711   6.184   3.734
 7171SOL     OW22411   5.556   4.274   6.198
 7171SOL    HW122412   5.542   4.335   6.120
 7171SOL    HW222413   5.609   4.195   6.169
 7172SOL     OW22414   1.590   0.777   5.512
 7172SOL    HW122415   1.570   0.812   5.603
 7172SOL    HW222416   1.505   0.775   5.458
 7173SOL     OW22417   0.595   4.720   5.283
 7173SOL    HW122418   0.537   4.737   5.203
 7173SOL    HW222419   0.691   4.718   5.256
 7174SOL     OW22420   0.711   5.130   6.616
 7174SOL    HW122421   0.680   5.039   6.641
 7174SOL    HW222422   0.807   5.126   6.589
 7175SOL     OW22423   5.577   4.034   0.029
 7175SOL    HW122424   5.623   4.067   0.112
 7175SOL    HW222425   5.480   4.021   0.048
 7176SOL     OW22426   1.209   5.682   3.431
 7176SOL    HW122427   1.220   5.631   3.346
 7176SOL    HW222428   1.279   5.753   3.436
 7177SOL     OW22429   2.554   6.539   4.292
 7177SOL    HW122430   2.504   6.581   4.367
 7177SOL    HW222431   2.648   6.520   4.320
 7178SOL     OW22432   2.238   3.627   5.810
 7178SOL    HW122433   2.153   3.618   5.758
 7178SOL    HW222434   2.316   3.601   5.752
 7179SOL     OW22435   1.772   3.552   4.967
 7179SOL    HW122436   1.778   3.569   5.065
 7179SOL    HW222437   1.742   3.636   4.921
 7180SOL     OW22438   1.662   4.771   6.444
 7180SOL    HW122439   1.681   4.702   6.375
 7180SOL    HW222440   1.605   4.732   6.516
 7181SOL     OW22441   2.137   5.732   0.804
 7181SOL    HW122442   2.135   5.637   0.838
 7181SOL    HW222443   2.188   5.735   0.718
 7182SOL     OW22444   1.846   3.126   5.389
 7182SOL    HW122445   1.779   3.134   5.463
 7182SOL    HW222446   1.921   3.067   5.417
 7183SOL     OW22447   1.473   5.624   0.756
 7183SOL    HW122448   1.502   5.711   0.796
 7183SOL    HW222449   1.463   5.556   0.828
 7184SOL     OW22450   1.017   0.507   3.035
 7184SOL    HW122451   0.950   0.491   2.962
 7184SOL    HW222452   1.051   0.419   3.069
 7185SOL     OW22453   5.353   1.437   5.726
 7185SOL    HW122454   5.292   1.404   5.797
 7185SOL    HW222455   5.388   1.359   5.674
 7186SOL     OW22456   0.050   6.954   6.427
 7186SOL    HW122457   6.984   6.913   6.396
 7186SOL    HW222458   0.072   6.920   6.519
 7187SOL     OW22459   3.186   4.547   0.234
 7187SOL    HW122460   3.104   4.544   0.292
 7187SOL    HW222461   3.158   4.552   0.138
 7188SOL     OW22462   5.950   6.903   0.358
 7188SOL    HW122463   5.938   6.869   0.264
 7188SOL    HW222464   5.929   6.830   0.423
 7189SOL     OW22465   6.320   1.091   6.367
 7189SOL    HW122466   6.305   1.182   6.328
 7189SOL    HW222467   6.390   1.043   6.314
 7190SOL     OW22468   6.234   4.042   3.045
 7190SOL    HW122469   6.319   4.095   3.050
 7190SOL    HW222470   6.247   3.966   2.981
 7191SOL     OW22471   0.666   4.008   2.691
 7191SOL    HW122472   0.620   3.960   2.766
 7191SOL    HW222473   0.654   4.107   2.703
 7192SOL     OW22474   3.489   4.937   5.437
 7192SOL    HW122475   3.486   4.961   5.340
 7192SOL    HW222476   3.396   4.934   5.474
 7193SOL     OW22477   2.612   1.747   3.151
 7193SOL    HW122478   2.512   1.757   3.153
 7193SOL    HW222479   2.647   1.738   3.244
 7194SOL     OW22480   2.953   2.047   0.828
 7194SOL    HW122481   3.002   2.125   0.865
 7194SOL    HW222482   3.004   2.008   0.751
 7195SOL     OW22483   0.401   5.054   6.050
 7195SOL    HW122484   0.384   5.137   6.104
 7195SOL    HW222485   0.498   5.030   6.057
 7196SOL     OW22486   3.516   4.057   1.884
 7196SOL    HW122487   3.447   3.987   1.900
 7196SOL    HW222488   3.596   4.040   1.942
 7197SOL     OW22489   6.814   2.198   6.255
 7197SOL    HW122490   6.783   2.103   6.256
 7197SOL    HW222491   6.888   2.208   6.189
 7198SOL     OW22492   0.632   0.962   5.908
 7198SOL    HW122493   0.726   0.946   5.877
 7198SOL    HW222494   0.570   0.903   5.856
 7199SOL     OW22495   2.308   0.613   1.819
 7199SOL    HW122496   2.268   0.682   1.758
 7199SOL    HW222497   2.241   0.589   1.890
 7200SOL     OW22498   2.051   1.923   0.435
 7200SOL    HW122499   1.988   1.926   0.358
 7200SOL    HW222500   2.135   1.877   0.408
 7201SOL     OW22501   1.499   5.409   4.102
 7201SOL    HW122502   1.497   5.490   4.160
 7201SOL    HW222503   1.501   5.327   4.159
 7202SOL     OW22504   4.193   0.295   5.917
 7202SOL    HW122505   4.213   0.236   5.838
 7202SOL    HW222506   4.275   0.348   5.940
 7203SOL     OW22507   0.405   1.706   0.865
 7203SOL    HW122508   0.309   1.705   0.892
 7203SOL    HW222509   0.429   1.797   0.830
 7204SOL     OW22510   6.441   6.586   5.082
 7204SOL    HW122511   6.368   6.554   5.021
 7204SOL    HW222512   6.528   6.546   5.054
 7205SOL     OW22513   1.883   5.831   3.088
 7205SOL    HW122514   1.889   5.899   3.162
 7205SOL    HW222515   1.787   5.811   3.069
 7206SOL     OW22516   2.266   0.312   1.322
 7206SOL    HW122517   2.215   0.275   1.245
 7206SOL    HW222518   2.203   0.333   1.397
 7207SOL     OW22519   4.010   6.368   1.546
 7207SOL    HW122520   3.985   6.465   1.547
 7207SOL    HW222521   4.008   6.332   1.639
 7208SOL     OW22522   4.573   6.320   4.140
 7208SOL    HW122523   4.635   6.267   4.083
 7208SOL    HW222524   4.498   6.261   4.171
 7209SOL     OW22525   3.494   2.855   2.086
 7209SOL    HW122526   3.474   2.800   2.004
 7209SOL    HW222527   3.586   2.833   2.119
 7210SOL     OW22528   4.549   6.982   4.241
 7210SOL    HW122529   4.635   0.013   4.231
 7210SOL    HW222530   4.518   6.951   4.151
 7211SOL     OW22531   2.204   5.613   3.970
 7211SOL    HW122532   2.254   5.540   4.017
 7211SOL    HW222533   2.219   5.606   3.872
 7212SOL     OW22534   0.984   6.133   3.284
 7212SOL    HW122535   0.959   6.225   3.313
 7212SOL    HW222536   1.054   6.097   3.345
 7213SOL     OW22537   6.224   0.464   6.649
 7213SOL    HW122538   6.236   0.373   6.689
 7213SOL    HW222539   6.292   0.477   6.578
 7214SOL     OW22540   1.514   5.764   4.536
 7214SOL    HW122541   1.548   5.837   4.595
 7214SOL    HW222542   1.415   5.771   4.528
 7215SOL     OW22543   0.593   3.062   3.963
 7215SOL    HW122544   0.631   3.056   4.056
 7215SOL    HW222545   0.655   3.016   3.899
 7216SOL     OW22546   2.108   6.044   6.616
 7216SOL    HW122547   2.022   6.095   6.612
 7216SOL    HW222548   2.177   6.091   6.560
 7217SOL     OW22549   2.148   4.580   2.185
 7217SOL    HW122550   2.226   4.517   2.184
 7217SOL    HW222551   2.072   4.541   2.132
 7218SOL     OW22552   4.445   2.805   5.309
 7218SOL    HW122553   4.416   2.901   5.309
 7218SOL    HW222554   4.536   2.798   5.269
 7219SOL     OW22555   5.623   6.404   4.091
 7219SOL    HW122556   5.666   6.447   4.170
 7219SOL    HW222557   5.536   6.449   4.071
 7220SOL     OW22558   0.565   5.702   3.768
 7220SOL    HW122559   0.632   5.629   3.781
 7220SOL    HW222560   0.542   5.710   3.672
 7221SOL     OW22561   5.452   4.823   5.235
 7221SOL    HW122562   5.393   4.900   5.211
 7221SOL    HW222563   5.453   4.757   5.160
 7222SOL     OW22564   6.223   0.463   2.073
 7222SOL    HW122565   6.160   0.540   2.066
 7222SOL    HW222566   6.174   0.382   2.102
 7223SOL     OW22567   2.939   2.130   1.570
 7223SOL    HW122568   2.989   2.148   1.655
 7223SOL    HW222569   2.992   2.068   1.513
 7224SOL     OW22570   5.554   2.021   4.330
 7224SOL    HW122571   5.591   1.930   4.314
 7224SOL    HW222572   5.627   2.089   4.323
 7225SOL     OW22573   1.478   6.284   6.217
 7225SOL    HW122574   1.380   6.289   6.198
 7225SOL    HW222575   1.504   6.188   6.232
 7226SOL     OW22576   0.951   0.538   0.527
 7226SOL    HW122577   0.905   0.516   0.612
 7226SOL    HW222578   0.943   0.636   0.508
 7227SOL     OW22579   0.421   2.694   1.059
 7227SOL    HW122580   0.442   2.787   1.090
 7227SOL    HW222581   0.456   2.681   0.966
 7228SOL     OW22582   0.178   0.904   2.438
 7228SOL    HW122583   0.221   0.897   2.348
 7228SOL    HW222584   0.093   0.851   2.438
 7229SOL     OW22585   1.367   0.783   4.241
 7229SOL    HW122586   1.449   0.804   4.189
 7229SOL    HW222587   1.372   0.827   4.331
 7230SOL     OW22588   5.072   5.579   4.871
 7230SOL    HW122589   5.057   5.643   4.947
 7230SOL    HW222590   4.984   5.560   4.827
 7231SOL     OW22591   4.746   6.728   6.884
 7231SOL    HW122592   4.813   6.699   6.952
 7231SOL    HW222593   4.687   6.651   6.859
 7232SOL     OW22594   4.329   5.195   3.568
 7232SOL    HW122595   4.340   5.106   3.611
 7232SOL    HW222596   4.247   5.240   3.604
 7233SOL     OW22597   0.570   2.507   4.915
 7233SOL    HW122598   0.507   2.585   4.926
 7233SOL    HW222599   0.648   2.535   4.860
 7234SOL     OW22600   5.819   2.919   3.228
 7234SOL    HW122601   5.867   2.981   3.291
 7234SOL    HW222602   5.721   2.941   3.229
 7235SOL     OW22603   6.431   4.495   3.158
 7235SOL    HW122604   6.406   4.540   3.072
 7235SOL    HW222605   6.363   4.517   3.228
 7236SOL     OW22606   3.067   1.231   2.558
 7236SOL    HW122607   2.979   1.256   2.518
 7236SOL    HW222608   3.122   1.313   2.573
 7237SOL     OW22609   6.334   6.691   5.633
 7237SOL    HW122610   6.419   6.708   5.683
 7237SOL    HW222611   6.355   6.641   5.549
 7238SOL     OW22612   2.508   2.325   1.041
 7238SOL    HW122613   2.598   2.355   1.008
 7238SOL    HW222614   2.519   2.242   1.096
 7239SOL     OW22615   2.850   1.124   3.735
 7239SOL    HW122616   2.806   1.110   3.823
 7239SOL    HW222617   2.822   1.213   3.698
 7240SOL     OW22618   2.129   3.869   6.621
 7240SOL    HW122619   2.207   3.920   6.585
 7240SOL    HW222620   2.141   3.856   6.719
 7241SOL     OW22621   3.515   0.733   6.935
 7241SOL    HW122622   3.612   0.755   6.934
 7241SOL    HW222623   3.477   0.745   6.843
 7242SOL     OW22624   6.707   4.907   0.001
 7242SOL    HW122625   6.787   4.852   0.027
 7242SOL    HW222626   6.633   4.847   6.992
 7243SOL     OW22627   0.638   4.550   6.242
 7243SOL    HW122628   0.721   4.552   6.187
 7243SOL    HW222629   0.613   4.455   6.262
 7244SOL     OW22630   5.030   0.893   1.256
 7244SOL    HW122631   5.087   0.830   1.309
 7244SOL    HW222632   4.964   0.936   1.317
 7245SOL     OW22633   0.782   1.763   4.702
 7245SOL    HW122634   0.698   1.790   4.749
 7245SOL    HW222635   0.861   1.785   4.759
 7246SOL     OW22636   5.958   6.886   4.838
 7246SOL    HW122637   6.041   6.925   4.799
 7246SOL    HW222638   5.888   6.877   4.767
 7247SOL     OW22639   2.701   6.680   3.226
 7247SOL    HW122640   2.694   6.697   3.127
 7247SOL    HW222641   2.786   6.719   3.260
 7248SOL     OW22642   4.117   0.746   3.036
 7248SOL    HW122643   4.059   0.785   3.107
 7248SOL    HW222644   4.061   0.705   2.965
 7249SOL     OW22645   5.745   4.787   1.887
 7249SOL    HW122646   5.692   4.736   1.955
 7249SOL    HW222647   5.742   4.739   1.799
 7250SOL     OW22648   3.283   5.362   6.047
 7250SOL    HW122649   3.331   5.327   6.127
 7250SOL    HW222650   3.188   5.382   6.071
 7251SOL     OW22651   0.039   6.345   5.402
 7251SOL    HW122652   6.976   6.290   5.413
 7251SOL    HW222653   0.016   6.433   5.359
 7252SOL     OW22654   3.376   3.254   4.008
 7252SOL    HW122655   3.378   3.170   3.954
 7252SOL    HW222656   3.325   3.237   4.093
 7253SOL     OW22657   1.477   0.353   0.124
 7253SOL    HW122658   1.440   0.433   0.169
 7253SOL    HW222659   1.495   0.281   0.192
 7254SOL     OW22660   4.592   5.094   5.047
 7254SOL    HW122661   4.500   5.086   5.008
 7254SOL    HW222662   4.596   5.173   5.108
 7255SOL     OW22663   3.375   3.580   1.918
 7255SOL    HW122664   3.277   3.561   1.910
 7255SOL    HW222665   3.391   3.679   1.919
 7256SOL     OW22666   5.210   4.920   4.564
 7256SOL    HW122667   5.121   4.912   4.608
 7256SOL    HW222668   5.268   4.982   4.617
 7257SOL     OW22669   6.060   3.082   3.297
 7257SOL    HW122670   6.078   3.164   3.352
 7257SOL    HW222671   6.090   3.099   3.203
 7258SOL     OW22672   4.083   0.346   3.912
 7258SOL    HW122673   4.087   0.294   3.997
 7258SOL    HW222674   4.034   0.432   3.928
 7259SOL     OW22675   3.259   3.982   1.317
 7259SOL    HW122676   3.178   3.958   1.370
 7259SOL    HW222677   3.243   3.960   1.220
 7260SOL     OW22678   3.373   2.091   2.955
 7260SOL    HW122679   3.282   2.100   2.994
 7260SOL    HW222680   3.441   2.118   3.023
 7261SOL     OW22681   3.203   2.746   1.397
 7261SOL    HW122682   3.116   2.792   1.381
 7261SOL    HW222683   3.192   2.648   1.380
 7262SOL     OW22684   5.964   2.909   4.021
 7262SOL    HW122685   5.879   2.919   3.970
 7262SOL    HW222686   6.027   2.850   3.971
 7263SOL     OW22687   0.378   5.624   2.208
 7263SOL    HW122688   0.456   5.670   2.250
 7263SOL    HW222689   0.385   5.525   2.221
 7264SOL     OW22690   6.847   1.536   6.743
 7264SOL    HW122691   6.918   1.556   6.810
 7264SOL    HW222692   6.765   1.503   6.789
 7265SOL     OW22693   5.350   5.259   5.956
 7265SOL    HW122694   5.325   5.325   5.885
 7265SOL    HW222695   5.409   5.188   5.917
 7266SOL     OW22696   4.166   0.709   0.500
 7266SOL    HW122697   4.132   0.763   0.577
 7266SOL    HW222698   4.156   0.763   0.416
 7267SOL     OW22699   6.797   4.682   5.307
 7267SOL    HW122700   6.820   4.738   5.228
 7267SOL    HW222701   6.857   4.603   5.312
 7268SOL     OW22702   4.249   4.906   3.263
 7268SOL    HW122703   4.226   4.893   3.166
 7268SOL    HW222704   4.276   5.001   3.278
 7269SOL     OW22705   6.879   5.961   1.674
 7269SOL    HW122706   6.840   6.053   1.673
 7269SOL    HW222707   6.948   5.955   1.746
 7270SOL     OW22708   1.457   2.610   3.299
 7270SOL    HW122709   1.469   2.556   3.382
 7270SOL    HW222710   1.361   2.606   3.269
 7271SOL     OW22711   0.861   4.710   3.140
 7271SOL    HW122712   0.953   4.743   3.161
 7271SOL    HW222713   0.866   4.617   3.105
 7272SOL     OW22714   5.920   3.232   2.388
 7272SOL    HW122715   5.883   3.192   2.472
 7272SOL    HW222716   6.019   3.243   2.398
 7273SOL     OW22717   5.936   4.587   2.163
 7273SOL    HW122718   5.843   4.579   2.127
 7273SOL    HW222719   6.000   4.600   2.088
 7274SOL     OW22720   6.997   6.339   6.345
 7274SOL    HW122721   6.922   6.322   6.281
 7274SOL    HW222722   6.983   6.426   6.391
 7275SOL     OW22723   6.521   0.572   0.672
 7275SOL    HW122724   6.476   0.587   0.760
 7275SOL    HW222725   6.604   0.628   0.667
 7276SOL     OW22726   3.208   1.123   3.641
 7276SOL    HW122727   3.271   1.062   3.592
 7276SOL    HW222728   3.181   1.198   3.580
 7277SOL     OW22729   5.464   1.139   5.079
 7277SOL    HW122730   5.543   1.194   5.053
 7277SOL    HW222731   5.382   1.177   5.039
 7278SOL     OW22732   3.594   2.098   3.104
 7278SOL    HW122733   3.661   2.163   3.139
 7278SOL    HW222734   3.619   2.071   3.011
 7279SOL     OW22735   4.535   4.211   0.104
 7279SOL    HW122736   4.530   4.277   0.180
 7279SOL    HW222737   4.517   4.258   0.018
 7280SOL     OW22738   5.631   2.491   4.922
 7280SOL    HW122739   5.535   2.466   4.938
 7280SOL    HW222740   5.666   2.540   5.002
 7281SOL     OW22741   3.423   0.239   1.105
 7281SOL    HW122742   3.353   0.234   1.033
 7281SOL    HW222743   3.429   0.150   1.151
 7282SOL     OW22744   6.654   5.443   1.823
 7282SOL    HW122745   6.661   5.521   1.761
 7282SOL    HW222746   6.728   5.447   1.890
 7283SOL     OW22747   3.107   6.577   1.937
 7283SOL    HW122748   3.021   6.546   1.898
 7283SOL    HW222749   3.176   6.506   1.927
 7284SOL     OW22750   6.773   2.686   3.888
 7284SOL    HW122751   6.803   2.781   3.893
 7284SOL    HW222752   6.817   2.641   3.811
 7285SOL     OW22753   4.900   3.292   1.316
 7285SOL    HW122754   4.938   3.281   1.408
 7285SOL    HW222755   4.891   3.202   1.273
 7286SOL     OW22756   0.699   1.331   0.799
 7286SOL    HW122757   0.762   1.393   0.846
 7286SOL    HW222758   0.701   1.349   0.701
 7287SOL     OW22759   0.062   2.605   3.929
 7287SOL    HW122760   0.055   2.680   3.994
 7287SOL    HW222761   0.069   2.518   3.979
 7288SOL     OW22762   1.931   2.891   2.069
 7288SOL    HW122763   1.860   2.828   2.036
 7288SOL    HW222764   2.020   2.844   2.068
 7289SOL     OW22765   5.591   3.039   2.069
 7289SOL    HW122766   5.586   3.072   2.163
 7289SOL    HW222767   5.549   2.948   2.064
 7290SOL     OW22768   3.527   0.950   5.297
 7290SOL    HW122769   3.434   0.932   5.329
 7290SOL    HW222770   3.574   0.864   5.282
 7291SOL     OW22771   3.852   0.290   0.445
 7291SOL    HW122772   3.867   0.194   0.466
 7291SOL    HW222773   3.764   0.319   0.482
 7292SOL     OW22774   1.829   6.481   3.605
 7292SOL    HW122775   1.922   6.447   3.590
 7292SOL    HW222776   1.830   6.554   3.673
 7293SOL     OW22777   1.205   1.223   6.082
 7293SOL    HW122778   1.269   1.228   6.006
 7293SOL    HW222779   1.111   1.233   6.048
 7294SOL     OW22780   3.198   4.641   1.518
 7294SOL    HW122781   3.246   4.557   1.492
 7294SOL    HW222782   3.133   4.665   1.446
 7295SOL     OW22783   6.391   4.403   1.771
 7295SOL    HW122784   6.384   4.483   1.711
 7295SOL    HW222785   6.409   4.322   1.717
 7296SOL     OW22786   3.628   5.117   3.119
 7296SOL    HW122787   3.554   5.061   3.080
 7296SOL    HW222788   3.710   5.061   3.129
 7297SOL     OW22789   3.161   6.060   1.833
 7297SOL    HW122790   3.226   6.095   1.900
 7297SOL    HW222791   3.169   6.113   1.748
 7298SOL     OW22792   4.532   6.330   6.770
 7298SOL    HW122793   4.501   6.415   6.814
 7298SOL    HW222794   4.475   6.254   6.801
 7299SOL     OW22795   1.397   2.289   0.292
 7299SOL    HW122796   1.408   2.364   0.226
 7299SOL    HW222797   1.342   2.216   0.251
 7300SOL     OW22798   0.623   5.021   1.578
 7300SOL    HW122799   0.691   4.959   1.540
 7300SOL    HW222800   0.605   4.997   1.673
 7301SOL     OW22801   0.217   0.304   5.724
 7301SOL    HW122802   0.203   0.214   5.767
 7301SOL    HW222803   0.129   0.340   5.695
 7302SOL     OW22804   6.324   1.928   5.739
 7302SOL    HW122805   6.326   1.965   5.832
 7302SOL    HW222806   6.327   1.829   5.742
 7303SOL     OW22807   3.106   1.313   6.944
 7303SOL    HW122808   3.150   1.238   6.895
 7303SOL    HW222809   3.164   1.340   0.003
 7304SOL     OW22810   2.309   5.056   1.582
 7304SOL    HW122811   2.373   5.001   1.529
 7304SOL    HW222812   2.216   5.038   1.550
 7305SOL     OW22813   5.372   2.450   0.960
 7305SOL    HW122814   5.444   2.519   0.962
 7305SOL    HW222815   5.371   2.405   0.870
 7306SOL     OW22816   3.764   1.444   1.677
 7306SOL    HW122817   3.710   1.471   1.756
 7306SOL    HW222818   3.858   1.478   1.687
 7307SOL     OW22819   3.707   6.342   2.069
 7307SOL    HW122820   3.697   6.408   1.995
 7307SOL    HW222821   3.777   6.373   2.132
 7308SOL     OW22822   6.622   1.042   2.995
 7308SOL    HW122823   6.532   1.085   3.005
 7308SOL    HW222824   6.693   1.113   3.001
 7309SOL     OW22825   2.477   6.270   2.847
 7309SOL    HW122826   2.436   6.191   2.800
 7309SOL    HW222827   2.519   6.331   2.779
 7310SOL     OW22828   1.235   3.215   6.799
 7310SOL    HW122829   1.270   3.280   6.732
 7310SOL    HW222830   1.260   3.122   6.773
 7311SOL     OW22831   0.897   0.431   0.157
 7311SOL    HW122832   0.800   0.439   0.178
 7311SOL    HW222833   0.913   0.455   0.061
 7312SOL     OW22834   0.347   1.374   4.852
 7312SOL    HW122835   0.357   1.448   4.785
 7312SOL    HW222836   0.286   1.304   4.816
 7313SOL     OW22837   2.626   1.119   0.500
 7313SOL    HW122838   2.536   1.119   0.546
 7313SOL    HW222839   2.614   1.093   0.404
 7314SOL     OW22840   0.440   4.200   6.910
 7314SOL    HW122841   0.444   4.100   6.907
 7314SOL    HW222842   0.533   4.237   6.911
 7315SOL     OW22843   6.489   5.302   2.284
 7315SOL    HW122844   6.515   5.364   2.358
 7315SOL    HW222845   6.556   5.309   2.210
 7316SOL     OW22846   3.385   1.875   6.266
 7316SOL    HW122847   3.476   1.916   6.259
 7316SOL    HW222848   3.394   1.778   6.290
 7317SOL     OW22849   3.508   1.846   1.795
 7317SOL    HW122850   3.533   1.784   1.869
 7317SOL    HW222851   3.440   1.912   1.827
 7318SOL     OW22852   3.781   6.822   1.982
 7318SOL    HW122853   3.805   6.836   2.078
 7318SOL    HW222854   3.844   6.874   1.924
 7319SOL     OW22855   0.056   3.170   6.697
 7319SOL    HW122856   0.149   3.205   6.709
 7319SOL    HW222857   0.056   3.103   6.623
 7320SOL     OW22858   6.655   4.413   1.299
 7320SOL    HW122859   6.652   4.350   1.222
 7320SOL    HW222860   6.746   4.411   1.340
 7321SOL     OW22861   1.879   6.575   6.015
 7321SOL    HW122862   1.938   6.498   6.038
 7321SOL    HW222863   1.803   6.579   6.080
 7322SOL     OW22864   0.845   2.550   3.532
 7322SOL    HW122865   0.804   2.620   3.474
 7322SOL    HW222866   0.812   2.460   3.503
 7323SOL     OW22867   2.549   1.605   1.625
 7323SOL    HW122868   2.542   1.664   1.544
 7323SOL    HW222869   2.643   1.574   1.636
 7324SOL     OW22870   6.160   4.406   2.235
 7324SOL    HW122871   6.093   4.479   2.244
 7324SOL    HW222872   6.177   4.389   2.138
 7325SOL     OW22873   3.112   0.697   5.500
 7325SOL    HW122874   3.025   0.731   5.535
 7325SOL    HW222875   3.146   0.624   5.560
 7326SOL     OW22876   4.113   0.502   6.630
 7326SOL    HW122877   4.042   0.436   6.607
 7326SOL    HW222878   4.179   0.508   6.555
 7327SOL     OW22879   6.165   4.133   3.646
 7327SOL    HW122880   6.112   4.102   3.568
 7327SOL    HW222881   6.218   4.214   3.621
 7328SOL     OW22882   4.147   5.362   6.088
 7328SOL    HW122883   4.113   5.363   5.994
 7328SOL    HW222884   4.119   5.276   6.132
 7329SOL     OW22885   0.684   2.887   0.692
 7329SOL    HW122886   0.712   2.822   0.622
 7329SOL    HW222887   0.606   2.940   0.659
 7330SOL     OW22888   3.323   2.883   1.176
 7330SOL    HW122889   3.299   2.881   1.273
 7330SOL    HW222890   3.239   2.896   1.122
 7331SOL     OW22891   4.671   0.129   1.910
 7331SOL    HW122892   4.575   0.152   1.924
 7331SOL    HW222893   4.698   0.058   1.975
 7332SOL     OW22894   4.069   4.220   6.965
 7332SOL    HW122895   4.082   4.316   6.988
 7332SOL    HW222896   4.158   4.177   6.949
 7333SOL     OW22897   5.834   3.274   3.174
 7333SOL    HW122898   5.790   3.314   3.094
 7333SOL    HW222899   5.876   3.187   3.148
 7334SOL     OW22900   2.639   5.910   6.349
 7334SOL    HW122901   2.658   6.006   6.370
 7334SOL    HW222902   2.609   5.863   6.432
 7335SOL     OW22903   6.958   3.299   2.807
 7335SOL    HW122904   7.013   3.308   2.725
 7335SOL    HW222905   6.956   3.387   2.856
 7336SOL     OW22906   1.913   6.288   0.753
 7336SOL    HW122907   1.824   6.243   0.745
 7336SOL    HW222908   1.985   6.223   0.729
 7337SOL     OW22909   3.504   2.704   1.423
 7337SOL    HW122910   3.423   2.685   1.368
 7337SOL    HW222911   3.583   2.658   1.384
 7338SOL     OW22912   5.801   2.716   1.175
 7338SOL    HW122913   5.874   2.713   1.244
 7338SOL    HW222914   5.716   2.745   1.217
 7339SOL     OW22915   0.284   6.403   5.571
 7339SOL    HW122916   0.193   6.371   5.542
 7339SOL    HW222917   0.276   6.455   5.655
 7340SOL     OW22918   3.914   0.880   6.617
 7340SOL    HW122919   3.969   0.929   6.685
 7340SOL    HW222920   3.838   0.938   6.587
 7341SOL     OW22921   1.245   5.098   4.437
 7341SOL    HW122922   1.278   5.098   4.532
 7341SOL    HW222923   1.168   5.035   4.429
 7342SOL     OW22924   6.755   0.336   0.750
 7342SOL    HW122925   6.661   0.329   0.784
 7342SOL    HW222926   6.765   0.420   0.697
 7343SOL     OW22927   5.551   3.809   1.980
 7343SOL    HW122928   5.646   3.789   1.953
 7343SOL    HW222929   5.503   3.851   1.903
 7344SOL     OW22930   1.786   6.856   6.677
 7344SOL    HW122931   1.822   6.794   6.607
 7344SOL    HW222932   1.751   6.939   6.633
 7345SOL     OW22933   4.486   4.878   6.029
 7345SOL    HW122934   4.433   4.950   6.075
 7345SOL    HW222935   4.559   4.847   6.089
 7346SOL     OW22936   4.417   3.986   1.054
 7346SOL    HW122937   4.413   3.915   1.124
 7346SOL    HW222938   4.379   4.071   1.089
 7347SOL     OW22939   6.783   2.308   2.428
 7347SOL    HW122940   6.741   2.289   2.339
 7347SOL    HW222941   6.718   2.288   2.501
 7348SOL     OW22942   1.762   3.820   3.481
 7348SOL    HW122943   1.849   3.776   3.458
 7348SOL    HW222944   1.756   3.907   3.434
 7349SOL     OW22945   3.838   1.604   1.064
 7349SOL    HW122946   3.774   1.641   0.997
 7349SOL    HW222947   3.810   1.511   1.088
 7350SOL     OW22948   0.439   3.161   3.603
 7350SOL    HW122949   0.340   3.160   3.585
 7350SOL    HW222950   0.461   3.239   3.662
 7351SOL     OW22951   3.827   4.344   6.561
 7351SOL    HW122952   3.794   4.436   6.539
 7351SOL    HW222953   3.805   4.282   6.487
 7352SOL     OW22954   1.394   1.840   3.668
 7352SOL    HW122955   1.297   1.823   3.650
 7352SOL    HW222956   1.448   1.802   3.593
 7353SOL     OW22957   0.478   1.386   5.447
 7353SOL    HW122958   0.404   1.333   5.488
 7353SOL    HW222959   0.443   1.442   5.373
 7354SOL     OW22960   0.189   0.779   6.363
 7354SOL    HW122961   0.160   0.855   6.422
 7354SOL    HW222962   0.239   0.712   6.418
 7355SOL     OW22963   1.298   5.817   1.241
 7355SOL    HW122964   1.295   5.916   1.226
 7355SOL    HW222965   1.257   5.770   1.163
 7356SOL     OW22966   5.185   2.344   6.297
 7356SOL    HW122967   5.285   2.353   6.295
 7356SOL    HW222968   5.161   2.258   6.342
 7357SOL     OW22969   4.601   0.875   1.467
 7357SOL    HW122970   4.698   0.852   1.476
 7357SOL    HW222971   4.564   0.830   1.385
 7358SOL     OW22972   2.619   2.074   2.232
 7358SOL    HW122973   2.644   2.171   2.230
 7358SOL    HW222974   2.588   2.050   2.324
 7359SOL     OW22975   3.787   2.868   1.047
 7359SOL    HW122976   3.716   2.798   1.033
 7359SOL    HW222977   3.755   2.955   1.009
 7360SOL     OW22978   2.096   2.280   5.565
 7360SOL    HW122979   2.045   2.363   5.586
 7360SOL    HW222980   2.131   2.285   5.472
 7361SOL     OW22981   4.883   6.661   1.938
 7361SOL    HW122982   4.825   6.638   1.860
 7361SOL    HW222983   4.939   6.581   1.963
 7362SOL     OW22984   0.655   6.905   4.582
 7362SOL    HW122985   0.684   6.996   4.611
 7362SOL    HW222986   0.653   6.901   4.482
 7363SOL     OW22987   4.686   1.852   0.086
 7363SOL    HW122988   4.662   1.828   0.180
 7363SOL    HW222989   4.719   1.946   0.083
 7364SOL     OW22990   4.263   6.317   1.443
 7364SOL    HW122991   4.182   6.360   1.481
 7364SOL    HW222992   4.243   6.222   1.421
 7365SOL     OW22993   2.740   6.415   2.199
 7365SOL    HW122994   2.700   6.324   2.204
 7365SOL    HW222995   2.836   6.408   2.173
 7366SOL     OW22996   1.422   5.193   0.320
 7366SOL    HW122997   1.426   5.229   0.227
 7366SOL    HW222998   1.463   5.259   0.383
 7367SOL     OW22999   4.285   3.501   0.908
 7367SOL    HW123000   4.253   3.473   0.999
 7367SOL    HW223001   4.324   3.593   0.914
 7368SOL     OW23002   3.202   2.992   4.030
 7368SOL    HW123003   3.132   3.058   4.001
 7368SOL    HW223004   3.158   2.915   4.077
 7369SOL     OW23005   5.095   3.513   0.590
 7369SOL    HW123006   5.128   3.451   0.661
 7369SOL    HW223007   5.173   3.553   0.542
 7370SOL     OW23008   2.058   0.976   6.179
 7370SOL    HW123009   2.128   1.035   6.140
 7370SOL    HW223010   2.028   0.910   6.110
 7371SOL     OW23011   3.090   5.420   4.297
 7371SOL    HW123012   3.044   5.357   4.360
 7371SOL    HW223013   3.109   5.506   4.344
 7372SOL     OW23014   3.089   0.230   5.581
 7372SOL    HW123015   3.185   0.256   5.576
 7372SOL    HW223016   3.034   0.296   5.529
 7373SOL     OW23017   4.255   1.214   3.486
 7373SOL    HW123018   4.274   1.117   3.505
 7373SOL    HW223019   4.165   1.238   3.523
 7374SOL     OW23020   2.047   2.936   5.122
 7374SOL    HW123021   2.041   3.026   5.166
 7374SOL    HW223022   1.955   2.900   5.108
 7375SOL     OW23023   1.449   1.992   4.159
 7375SOL    HW123024   1.378   2.048   4.118
 7375SOL    HW223025   1.462   1.909   4.106
 7376SOL     OW23026   3.212   2.512   0.180
 7376SOL    HW123027   3.279   2.512   0.106
 7376SOL    HW223028   3.123   2.544   0.145
 7377SOL     OW23029   4.380   5.167   2.062
 7377SOL    HW123030   4.348   5.221   2.140
 7377SOL    HW223031   4.474   5.137   2.078
 7378SOL     OW23032   7.006   2.033   4.667
 7378SOL    HW123033   6.928   2.095   4.660
 7378SOL    HW223034   6.977   1.941   4.640
 7379SOL     OW23035   4.076   1.470   2.942
 7379SOL    HW123036   4.127   1.385   2.939
 7379SOL    HW223037   4.107   1.531   2.869
 7380SOL     OW23038   0.638   3.120   5.690
 7380SOL    HW123039   0.540   3.140   5.702
 7380SOL    HW223040   0.688   3.206   5.680
 7381SOL     OW23041   4.765   2.949   2.396
 7381SOL    HW123042   4.675   2.984   2.370
 7381SOL    HW223043   4.754   2.865   2.450
 7382SOL     OW23044   6.934   5.202   4.562
 7382SOL    HW123045   6.947   5.156   4.474
 7382SOL    HW223046   6.876   5.282   4.550
 7383SOL     OW23047   6.895   6.882   2.616
 7383SOL    HW123048   6.980   6.855   2.662
 7383SOL    HW223049   6.824   6.814   2.634
 7384SOL     OW23050   5.279   1.281   1.814
 7384SOL    HW123051   5.201   1.299   1.873
 7384SOL    HW223052   5.295   1.359   1.753
 7385SOL     OW23053   3.954   5.791   2.411
 7385SOL    HW123054   3.873   5.748   2.371
 7385SOL    HW223055   3.960   5.767   2.508
 7386SOL     OW23056   0.916   2.671   5.484
 7386SOL    HW123057   0.891   2.604   5.554
 7386SOL    HW223058   1.013   2.661   5.462
 7387SOL     OW23059   4.743   6.333   4.776
 7387SOL    HW123060   4.834   6.368   4.754
 7387SOL    HW223061   4.690   6.404   4.821
 7388SOL     OW23062   0.053   5.722   3.534
 7388SOL    HW123063   0.001   5.751   3.454
 7388SOL    HW223064   7.012   5.721   3.614
 7389SOL     OW23065   1.560   4.673   6.685
 7389SOL    HW123066   1.545   4.739   6.758
 7389SOL    HW223067   1.483   4.609   6.683
 7390SOL     OW23068   1.366   1.999   6.429
 7390SOL    HW123069   1.364   1.925   6.497
 7390SOL    HW223070   1.454   1.998   6.382
 7391SOL     OW23071   4.676   4.049   5.188
 7391SOL    HW123072   4.586   4.074   5.224
 7391SOL    HW223073   4.707   3.965   5.232
 7392SOL     OW23074   2.350   5.910   6.075
 7392SOL    HW123075   2.438   5.872   6.046
 7392SOL    HW223076   2.306   5.955   5.997
 7393SOL     OW23077   5.825   5.253   1.765
 7393SOL    HW123078   5.828   5.264   1.865
 7393SOL    HW223079   5.913   5.280   1.726
 7394SOL     OW23080   3.471   2.609   6.384
 7394SOL    HW123081   3.570   2.621   6.396
 7394SOL    HW223082   3.441   2.655   6.300
 7395SOL     OW23083   1.058   0.986   6.833
 7395SOL    HW123084   1.136   1.027   6.786
 7395SOL    HW223085   1.080   0.974   6.929
 7396SOL     OW23086   1.335   1.085   6.805
 7396SOL    HW123087   1.371   1.035   6.883
 7396SOL    HW223088   1.305   1.176   6.834
 7397SOL     OW23089   6.380   5.160   4.510
 7397SOL    HW123090   6.444   5.085   4.530
 7397SOL    HW223091   6.289   5.124   4.493
 7398SOL     OW23092   3.521   5.028   4.296
 7398SOL    HW123093   3.527   4.958   4.225
 7398SOL    HW223094   3.437   5.081   4.285
 7399SOL     OW23095   0.679   3.785   5.104
 7399SOL    HW123096   0.618   3.713   5.135
 7399SOL    HW223097   0.711   3.838   5.183
 7400SOL     OW23098   3.005   4.136   0.086
 7400SOL    HW123099   3.055   4.070   0.029
 7400SOL    HW223100   3.070   4.183   0.146
 7401SOL     OW23101   0.563   1.124   3.377
 7401SOL    HW123102   0.564   1.217   3.341
 7401SOL    HW223103   0.468   1.097   3.398
 7402SOL     OW23104   2.129   6.953   4.136
 7402SOL    HW123105   2.073   6.933   4.056
 7402SOL    HW223106   2.088   6.909   4.217
 7403SOL     OW23107   2.200   2.986   3.492
 7403SOL    HW123108   2.210   3.080   3.523
 7403SOL    HW223109   2.225   2.980   3.395
 7404SOL     OW23110   2.274   6.768   1.121
 7404SOL    HW123111   2.248   6.785   1.026
 7404SOL    HW223112   2.355   6.709   1.123
 7405SOL     OW23113   0.786   4.994   4.549
 7405SOL    HW123114   0.765   4.934   4.471
 7405SOL    HW223115   0.793   5.088   4.517
 7406SOL     OW23116   1.415   3.675   2.212
 7406SOL    HW123117   1.344   3.605   2.202
 7406SOL    HW223118   1.384   3.744   2.278
 7407SOL     OW23119   0.300   6.930   4.970
 7407SOL    HW123120   0.250   6.853   4.930
 7407SOL    HW223121   0.243   7.012   4.966
 7408SOL     OW23122   1.172   4.199   4.971
 7408SOL    HW123123   1.242   4.267   4.992
 7408SOL    HW223124   1.133   4.218   4.881
 7409SOL     OW23125   0.319   1.011   4.500
 7409SOL    HW123126   0.305   1.074   4.577
 7409SOL    HW223127   0.411   0.972   4.505
 7410SOL     OW23128   6.583   5.131   0.933
 7410SOL    HW123129   6.646   5.207   0.918
 7410SOL    HW223130   6.520   5.125   0.856
 7411SOL     OW23131   2.779   6.964   4.351
 7411SOL    HW123132   2.771   6.913   4.266
 7411SOL    HW223133   2.725   6.919   4.422
 7412SOL     OW23134   3.478   1.389   1.011
 7412SOL    HW123135   3.566   1.396   1.058
 7412SOL    HW223136   3.492   1.350   0.920
 7413SOL     OW23137   0.133   4.866   3.907
 7413SOL    HW123138   0.072   4.818   3.845
 7413SOL    HW223139   0.199   4.920   3.855
 7414SOL     OW23140   0.059   0.192   2.554
 7414SOL    HW123141   0.062   0.148   2.464
 7414SOL    HW223142   6.994   0.246   2.562
 7415SOL     OW23143   0.562   3.830   2.894
 7415SOL    HW123144   0.584   3.828   2.991
 7415SOL    HW223145   0.596   3.747   2.850
 7416SOL     OW23146   3.710   0.577   3.662
 7416SOL    HW123147   3.621   0.566   3.706
 7416SOL    HW223148   3.754   0.487   3.653
 7417SOL     OW23149   1.474   0.006   6.171
 7417SOL    HW123150   1.385   6.997   6.134
 7417SOL    HW223151   1.506   0.087   6.122
 7418SOL     OW23152   3.539   4.912   1.015
 7418SOL    HW123153   3.466   4.856   0.976
 7418SOL    HW223154   3.628   4.871   0.991
 7419SOL     OW23155   6.438   1.963   5.023
 7419SOL    HW123156   6.416   2.012   4.939
 7419SOL    HW223157   6.500   1.887   5.003
 7420SOL     OW23158   6.495   6.582   2.955
 7420SOL    HW123159   6.495   6.646   2.877
 7420SOL    HW223160   6.401   6.561   2.980
 7421SOL     OW23161   3.008   3.127   1.928
 7421SOL    HW123162   2.968   3.149   2.017
 7421SOL    HW223163   3.064   3.044   1.937
 7422SOL     OW23164   0.111   3.327   2.602
 7422SOL    HW123165   0.161   3.401   2.646
 7422SOL    HW223166   0.142   3.317   2.507
 7423SOL     OW23167   0.153   4.067   6.216
 7423SOL    HW123168   0.157   4.009   6.135
 7423SOL    HW223169   0.067   4.118   6.216
 7424SOL     OW23170   6.021   1.375   4.179
 7424SOL    HW123171   6.060   1.467   4.187
 7424SOL    HW223172   6.019   1.348   4.083
 7425SOL     OW23173   4.187   4.809   6.609
 7425SOL    HW123174   4.198   4.824   6.708
 7425SOL    HW223175   4.242   4.731   6.581
 7426SOL     OW23176   0.951   1.863   6.875
 7426SOL    HW123177   0.942   1.939   6.939
 7426SOL    HW223178   0.892   1.880   6.796
 7427SOL     OW23179   3.000   6.034   5.069
 7427SOL    HW123180   2.977   6.062   5.162
 7427SOL    HW223181   3.007   6.114   5.011
 7428SOL     OW23182   3.223   1.117   5.605
 7428SOL    HW123183   3.223   1.189   5.535
 7428SOL    HW223184   3.213   1.159   5.695
 7429SOL     OW23185   6.267   0.275   3.077
 7429SOL    HW123186   6.350   0.225   3.104
 7429SOL    HW223187   6.246   0.345   3.145
 7430SOL     OW23188   0.275   4.679   5.600
 7430SOL    HW123189   0.269   4.776   5.574
 7430SOL    HW223190   0.286   4.671   5.699
 7431SOL     OW23191   0.236   4.212   2.184
 7431SOL    HW123192   0.333   4.197   2.204
 7431SOL    HW223193   0.183   4.136   2.220
 7432SOL     OW23194   0.469   6.959   3.778
 7432SOL    HW123195   0.509   6.939   3.688
 7432SOL    HW223196   0.533   7.015   3.831
 7433SOL     OW23197   6.573   5.325   0.287
 7433SOL    HW123198   6.629   5.262   0.234
 7433SOL    HW223199   6.630   5.400   0.320
 7434SOL     OW23200   3.940   0.881   6.290
 7434SOL    HW123201   3.881   0.844   6.219
 7434SOL    HW223202   3.929   0.827   6.374
 7435SOL     OW23203   3.115   6.743   6.805
 7435SOL    HW123204   3.138   6.835   6.772
 7435SOL    HW223205   3.135   6.677   6.733
 7436SOL     OW23206   6.921   3.108   6.182
 7436SOL    HW123207   7.008   3.154   6.164
 7436SOL    HW223208   6.920   3.019   6.136
 7437SOL     OW23209   0.095   5.625   6.949
 7437SOL    HW123210   0.104   5.560   6.873
 7437SOL    HW223211   0.077   5.575   0.014
 7438SOL     OW23212   0.864   4.222   0.623
 7438SOL    HW123213   0.907   4.259   0.705
 7438SOL    HW223214   0.827   4.131   0.642
 7439SOL     OW23215   2.605   0.020   4.044
 7439SOL    HW123216   2.604   0.053   4.139
 7439SOL    HW223217   2.549   6.957   4.037
 7440SOL     OW23218   0.885   3.076   4.464
 7440SOL    HW123219   0.943   3.135   4.408
 7440SOL    HW223220   0.916   3.077   4.559
 7441SOL     OW23221   5.947   6.729   4.368
 7441SOL    HW123222   6.004   6.733   4.286
 7441SOL    HW223223   5.996   6.682   4.441
 7442SOL     OW23224   0.621   0.643   5.890
 7442SOL    HW123225   0.658   0.602   5.973
 7442SOL    HW223226   0.541   0.699   5.913
 7443SOL     OW23227   0.248   1.338   1.249
 7443SOL    HW123228   0.299   1.423   1.243
 7443SOL    HW223229   0.200   1.334   1.336
 7444SOL     OW23230   0.395   3.399   5.117
 7444SOL    HW123231   0.368   3.310   5.082
 7444SOL    HW223232   0.335   3.425   5.193
 7445SOL     OW23233   3.962   1.002   1.341
 7445SOL    HW123234   3.886   1.065   1.356
 7445SOL    HW223235   3.961   0.931   1.411
 7446SOL     OW23236   5.277   4.665   0.269
 7446SOL    HW123237   5.371   4.682   0.238
 7446SOL    HW223238   5.267   4.568   0.290
 7447SOL     OW23239   2.848   3.841   6.742
 7447SOL    HW123240   2.833   3.780   6.664
 7447SOL    HW223241   2.764   3.847   6.796
 7448SOL     OW23242   5.361   6.095   5.912
 7448SOL    HW123243   5.433   6.164   5.908
 7448SOL    HW223244   5.287   6.127   5.971
 7449SOL     OW23245   5.073   2.674   2.092
 7449SOL    HW123246   5.037   2.757   2.049
 7449SOL    HW223247   4.999   2.608   2.105
 7450SOL     OW23248   5.341   2.851   4.628
 7450SOL    HW123249   5.256   2.803   4.608
 7450SOL    HW223250   5.411   2.785   4.656
 7451SOL     OW23251   1.601   0.292   3.695
 7451SOL    HW123252   1.524   0.348   3.661
 7451SOL    HW223253   1.652   0.344   3.764
 7452SOL     OW23254   0.889   0.056   4.907
 7452SOL    HW123255   0.958   0.108   4.958
 7452SOL    HW223256   0.801   0.061   4.954
 7453SOL     OW23257   5.396   5.712   5.334
 7453SOL    HW123258   5.424   5.721   5.238
 7453SOL    HW223259   5.467   5.749   5.393
 7454SOL     OW23260   1.092   3.160   1.985
 7454SOL    HW123261   1.179   3.129   1.946
 7454SOL    HW223262   1.079   3.117   2.075
 7455SOL     OW23263   6.815   1.561   1.569
 7455SOL    HW123264   6.732   1.608   1.601
 7455SOL    HW223265   6.796   1.514   1.482
 7456SOL     OW23266   1.148   1.940   4.694
 7456SOL    HW123267   1.113   2.022   4.738
 7456SOL    HW223268   1.218   1.965   4.627
 7457SOL     OW23269   3.946   0.616   6.048
 7457SOL    HW123270   4.030   0.659   6.017
 7457SOL    HW223271   3.966   0.524   6.081
 7458SOL     OW23272   1.425   0.238   6.653
 7458SOL    HW123273   1.448   0.216   6.748
 7458SOL    HW223274   1.326   0.247   6.643
 7459SOL     OW23275   4.690   0.134   0.451
 7459SOL    HW123276   4.734   0.055   0.407
 7459SOL    HW223277   4.671   0.112   0.547
 7460SOL     OW23278   1.956   4.266   0.822
 7460SOL    HW123279   2.035   4.244   0.765
 7460SOL    HW223280   1.987   4.295   0.913
 7461SOL     OW23281   4.896   1.757   5.707
 7461SOL    HW123282   4.924   1.827   5.642
 7461SOL    HW223283   4.966   1.685   5.711
 7462SOL     OW23284   1.771   2.685   2.009
 7462SOL    HW123285   1.774   2.627   2.091
 7462SOL    HW223286   1.782   2.627   1.928
 7463SOL     OW23287   3.707   3.759   1.498
 7463SOL    HW123288   3.665   3.714   1.419
 7463SOL    HW223289   3.640   3.772   1.570
 7464SOL     OW23290   3.481   6.500   6.522
 7464SOL    HW123291   3.515   6.567   6.457
 7464SOL    HW223292   3.557   6.456   6.568
 7465SOL     OW23293   1.643   0.677   1.001
 7465SOL    HW123294   1.738   0.684   0.971
 7465SOL    HW223295   1.598   0.766   0.992
 7466SOL     OW23296   0.333   0.829   6.853
 7466SOL    HW123297   0.409   0.887   6.823
 7466SOL    HW223298   0.354   0.734   6.833
 7467SOL     OW23299   6.366   2.242   0.859
 7467SOL    HW123300   6.270   2.213   0.865
 7467SOL    HW223301   6.386   2.305   0.933
 7468SOL     OW23302   5.220   2.447   2.444
 7468SOL    HW123303   5.182   2.440   2.536
 7468SOL    HW223304   5.198   2.536   2.405
 7469SOL     OW23305   0.618   0.294   0.295
 7469SOL    HW123306   0.620   0.212   0.352
 7469SOL    HW223307   0.532   0.296   0.243
 7470SOL     OW23308   0.342   3.512   3.541
 7470SOL    HW123309   0.304   3.432   3.496
 7470SOL    HW223310   0.274   3.553   3.601
 7471SOL     OW23311   6.248   6.917   4.162
 7471SOL    HW123312   6.262   6.899   4.259
 7471SOL    HW223313   6.152   6.907   4.139
 7472SOL     OW23314   6.031   6.708   4.110
 7472SOL    HW123315   5.971   6.708   4.030
 7472SOL    HW223316   6.096   6.632   4.103
 7473SOL     OW23317   0.480   4.759   3.177
 7473SOL    HW123318   0.548   4.781   3.247
 7473SOL    HW223319   0.390   4.749   3.220
 7474SOL     OW23320   2.834   0.853   4.884
 7474SOL    HW123321   2.881   0.765   4.889
 7474SOL    HW223322   2.856   0.907   4.965
 7475SOL     OW23323   3.750   1.573   2.222
 7475SOL    HW123324   3.819   1.623   2.171
 7475SOL    HW223325   3.794   1.509   2.285
 7476SOL     OW23326   4.007   6.414   4.287
 7476SOL    HW123327   3.953   6.495   4.264
 7476SOL    HW223328   3.989   6.342   4.221
 7477SOL     OW23329   5.033   1.517   3.748
 7477SOL    HW123330   5.025   1.435   3.691
 7477SOL    HW223331   5.035   1.491   3.844
 7478SOL     OW23332   4.033   3.924   6.455
 7478SOL    HW123333   3.949   3.922   6.509
 7478SOL    HW223334   4.015   3.888   6.364
 7479SOL     OW23335   4.415   2.596   0.619
 7479SOL    HW123336   4.344   2.641   0.566
 7479SOL    HW223337   4.376   2.520   0.671
 7480SOL     OW23338   6.244   5.123   1.547
 7480SOL    HW123339   6.181   5.144   1.621
 7480SOL    HW223340   6.310   5.198   1.538
 7481SOL     OW23341   5.341   5.237   1.665
 7481SOL    HW123342   5.301   5.212   1.577
 7481SOL    HW223343   5.310   5.328   1.692
 7482SOL     OW23344   4.509   1.773   2.467
 7482SOL    HW123345   4.448   1.732   2.399
 7482SOL    HW223346   4.479   1.867   2.485
 7483SOL     OW23347   4.260   2.046   4.939
 7483SOL    HW123348   4.161   2.054   4.926
 7483SOL    HW223349   4.298   2.137   4.957
 7484SOL     OW23350   6.387   6.961   2.566
 7484SOL    HW123351   6.338   6.994   2.486
 7484SOL    HW223352   6.481   6.997   2.565
 7485SOL     OW23353   3.096   5.994   5.444
 7485SOL    HW123354   3.089   5.914   5.504
 7485SOL    HW223355   3.143   5.969   5.360
 7486SOL     OW23356   2.255   0.068   5.730
 7486SOL    HW123357   2.233   6.990   5.731
 7486SOL    HW223358   2.253   0.102   5.636
 7487SOL     OW23359   2.310   6.277   2.479
 7487SOL    HW123360   2.372   6.202   2.457
 7487SOL    HW223361   2.308   6.343   2.404
 7488SOL     OW23362   1.769   6.679   5.102
 7488SOL    HW123363   1.700   6.711   5.037
 7488SOL    HW223364   1.743   6.705   5.194
 7489SOL     OW23365   5.107   2.825   5.390
 7489SOL    HW123366   5.104   2.923   5.369
 7489SOL    HW223367   5.032   2.779   5.344
 7490SOL     OW23368   0.903   1.629   1.470
 7490SOL    HW123369   0.953   1.695   1.413
 7490SOL    HW223370   0.948   1.621   1.559
 7491SOL     OW23371   0.347   4.802   6.570
 7491SOL    HW123372   0.333   4.734   6.498
 7491SOL    HW223373   0.270   4.866   6.569
 7492SOL     OW23374   2.899   1.206   4.815
 7492SOL    HW123375   2.855   1.217   4.726
 7492SOL    HW223376   2.963   1.129   4.811
 7493SOL     OW23377   6.075   4.654   6.422
 7493SOL    HW123378   6.056   4.749   6.397
 7493SOL    HW223379   6.149   4.618   6.364
 7494SOL     OW23380   6.318   1.267   2.773
 7494SOL    HW123381   6.240   1.328   2.784
 7494SOL    HW223382   6.333   1.249   2.676
 7495SOL     OW23383   2.274   1.515   0.825
 7495SOL    HW123384   2.308   1.430   0.864
 7495SOL    HW223385   2.347   1.584   0.826
 7496SOL     OW23386   0.795   3.407   5.947
 7496SOL    HW123387   0.793   3.507   5.941
 7496SOL    HW223388   0.711   3.375   5.992
 7497SOL     OW23389   2.869   4.827   1.038
 7497SOL    HW123390   2.804   4.857   1.108
 7497SOL    HW223391   2.952   4.882   1.046
 7498SOL     OW23392   2.055   0.606   4.486
 7498SOL    HW123393   2.032   0.652   4.572
 7498SOL    HW223394   1.994   0.638   4.414
 7499SOL     OW23395   6.001   1.017   3.365
 7499SOL    HW123396   5.959   1.010   3.274
 7499SOL    HW223397   6.000   0.928   3.409
 7500SOL     OW23398   3.968   6.276   3.352
 7500SOL    HW123399   3.992   6.369   3.322
 7500SOL    HW223400   3.990   6.266   3.449
 7501SOL     OW23401   0.004   4.427   4.367
 7501SOL    HW123402   0.025   4.460   4.275
 7501SOL    HW223403   7.006   4.505   4.427
 7502SOL     OW23404   1.320   0.797   5.409
 7502SOL    HW123405   1.274   0.714   5.440
 7502SOL    HW223406   1.267   0.877   5.436
 7503SOL     OW23407   2.483   1.239   0.119
 7503SOL    HW123408   2.433   1.218   0.203
 7503SOL    HW223409   2.496   1.155   0.066
 7504SOL     OW23410   3.442   0.346   3.512
 7504SOL    HW123411   3.427   0.260   3.463
 7504SOL    HW223412   3.517   0.397   3.469
 7505SOL     OW23413   2.324   0.512   5.391
 7505SOL    HW123414   2.381   0.491   5.312
 7505SOL    HW223415   2.230   0.526   5.362
 7506SOL     OW23416   3.996   0.075   2.451
 7506SOL    HW123417   3.908   0.053   2.493
 7506SOL    HW223418   4.068   0.064   2.519
 7507SOL     OW23419   0.079   0.702   1.155
 7507SOL    HW123420   0.069   0.687   1.253
 7507SOL    HW223421   0.170   0.675   1.125
 7508SOL     OW23422   5.517   0.031   2.023
 7508SOL    HW123423   5.499   0.020   2.120
 7508SOL    HW223424   5.431   0.047   1.974
 7509SOL     OW23425   5.491   4.312   1.038
 7509SOL    HW123426   5.473   4.339   0.943
 7509SOL    HW223427   5.457   4.220   1.053
 7510SOL     OW23428   2.896   4.143   5.543
 7510SOL    HW123429   2.925   4.074   5.609
 7510SOL    HW223430   2.903   4.234   5.584
 7511SOL     OW23431   1.349   0.705   3.304
 7511SOL    HW123432   1.417   0.635   3.326
 7511SOL    HW223433   1.268   0.691   3.360
 7512SOL     OW23434   2.906   4.362   1.418
 7512SOL    HW123435   2.949   4.356   1.329
 7512SOL    HW223436   2.871   4.455   1.432
 7513SOL     OW23437   1.828   2.262   1.190
 7513SOL    HW123438   1.850   2.352   1.228
 7513SOL    HW223439   1.870   2.253   1.100
 7514SOL     OW23440   2.888   5.839   2.534
 7514SOL    HW123441   2.861   5.746   2.556
 7514SOL    HW223442   2.981   5.855   2.566
 7515SOL     OW23443   1.946   6.243   2.086
 7515SOL    HW123444   1.971   6.207   2.176
 7515SOL    HW223445   1.933   6.168   2.022
 7516SOL     OW23446   0.237   6.019   4.439
 7516SOL    HW123447   0.141   6.006   4.463
 7516SOL    HW223448   0.253   5.990   4.345
 7517SOL     OW23449   6.506   3.509   1.448
 7517SOL    HW123450   6.521   3.584   1.384
 7517SOL    HW223451   6.495   3.423   1.397
 7518SOL     OW23452   3.979   5.844   3.873
 7518SOL    HW123453   3.882   5.868   3.866
 7518SOL    HW223454   4.019   5.841   3.782
 7519SOL     OW23455   0.456   0.173   3.494
 7519SOL    HW123456   0.507   0.087   3.490
 7519SOL    HW223457   0.359   0.153   3.506
 7520SOL     OW23458   2.847   0.114   1.894
 7520SOL    HW123459   2.877   0.154   1.807
 7520SOL    HW223460   2.924   0.109   1.957
 7521SOL     OW23461   4.572   4.576   5.700
 7521SOL    HW123462   4.630   4.582   5.782
 7521SOL    HW223463   4.485   4.533   5.724
 7522SOL     OW23464   2.877   1.085   6.321
 7522SOL    HW123465   2.905   1.178   6.295
 7522SOL    HW223466   2.869   1.029   6.239
 7523SOL     OW23467   5.128   0.851   5.687
 7523SOL    HW123468   5.165   0.821   5.599
 7523SOL    HW223469   5.139   0.777   5.754
 7524SOL     OW23470   0.778   2.561   6.462
 7524SOL    HW123471   0.764   2.466   6.488
 7524SOL    HW223472   0.810   2.565   6.368
 7525SOL     OW23473   2.719   6.943   6.785
 7525SOL    HW123474   2.781   6.926   6.861
 7525SOL    HW223475   2.633   6.981   6.820
 7526SOL     OW23476   3.501   2.903   2.468
 7526SOL    HW123477   3.592   2.863   2.458
 7526SOL    HW223478   3.450   2.889   2.383
 7527SOL     OW23479   4.237   5.809   3.743
 7527SOL    HW123480   4.294   5.727   3.735
 7527SOL    HW223481   4.293   5.891   3.730
 7528SOL     OW23482   4.127   2.177   6.575
 7528SOL    HW123483   4.174   2.110   6.633
 7528SOL    HW223484   4.103   2.135   6.488
 7529SOL     OW23485   6.053   0.947   4.617
 7529SOL    HW123486   5.960   0.918   4.641
 7529SOL    HW223487   6.099   0.874   4.568
 7530SOL     OW23488   6.069   3.633   2.426
 7530SOL    HW123489   6.153   3.587   2.456
 7530SOL    HW223490   6.071   3.645   2.327
 7531SOL     OW23491   4.189   2.295   4.200
 7531SOL    HW123492   4.137   2.221   4.242
 7531SOL    HW223493   4.242   2.342   4.271
 7532SOL     OW23494   5.146   5.621   1.524
 7532SOL    HW123495   5.057   5.662   1.509
 7532SOL    HW223496   5.204   5.636   1.443
 7533SOL     OW23497   2.197   0.719   3.137
 7533SOL    HW123498   2.202   0.681   3.229
 7533SOL    HW223499   2.216   0.818   3.140
 7534SOL     OW23500   3.370   6.853   5.377
 7534SOL    HW123501   3.274   6.872   5.398
 7534SOL    HW223502   3.376   6.792   5.299
 7535SOL     OW23503   2.585   1.085   5.553
 7535SOL    HW123504   2.662   1.120   5.500
 7535SOL    HW223505   2.614   1.066   5.646
 7536SOL     OW23506   5.509   4.788   4.743
 7536SOL    HW123507   5.554   4.706   4.709
 7536SOL    HW223508   5.544   4.868   4.694
 7537SOL     OW23509   2.227   5.261   4.812
 7537SOL    HW123510   2.169   5.187   4.845
 7537SOL    HW223511   2.290   5.225   4.743
 7538SOL     OW23512   3.234   2.991   2.009
 7538SOL    HW123513   3.211   2.946   1.922
 7538SOL    HW223514   3.307   2.940   2.054
 7539SOL     OW23515   2.446   2.622   4.496
 7539SOL    HW123516   2.545   2.615   4.507
 7539SOL    HW223517   2.415   2.554   4.429
 7540SOL     OW23518   2.599   0.806   5.703
 7540SOL    HW123519   2.577   0.886   5.759
 7540SOL    HW223520   2.520   0.782   5.647
 7541SOL     OW23521   6.649   3.212   4.460
 7541SOL    HW123522   6.714   3.244   4.391
 7541SOL    HW223523   6.653   3.273   4.539
 7542SOL     OW23524   0.604   6.093   6.817
 7542SOL    HW123525   0.572   6.045   6.899
 7542SOL    HW223526   0.551   6.063   6.738
 7543SOL     OW23527   4.190   1.953   0.802
 7543SOL    HW123528   4.272   1.975   0.750
 7543SOL    HW223529   4.199   1.989   0.895
 7544SOL     OW23530   0.716   2.562   3.840
 7544SOL    HW123531   0.696   2.640   3.780
 7544SOL    HW223532   0.640   2.497   3.836
 7545SOL     OW23533   5.580   6.414   3.014
 7545SOL    HW123534   5.621   6.496   3.053
 7545SOL    HW223535   5.507   6.441   2.951
 7546SOL     OW23536   4.290   1.011   1.505
 7546SOL    HW123537   4.257   1.097   1.465
 7546SOL    HW223538   4.370   1.030   1.562
 7547SOL     OW23539   4.146   6.704   0.757
 7547SOL    HW123540   4.157   6.654   0.671
 7547SOL    HW223541   4.201   6.660   0.829
 7548SOL     OW23542   3.133   1.940   0.609
 7548SOL    HW123543   3.152   1.953   0.511
 7548SOL    HW223544   3.166   1.850   0.638
 7549SOL     OW23545   5.896   1.916   1.029
 7549SOL    HW123546   5.983   1.869   1.040
 7549SOL    HW223547   5.866   1.909   0.933
 7550SOL     OW23548   2.390   4.638   2.033
 7550SOL    HW123549   2.425   4.703   2.100
 7550SOL    HW223550   2.458   4.623   1.962
 7551SOL     OW23551   4.770   4.044   0.092
 7551SOL    HW123552   4.708   4.105   0.142
 7551SOL    HW223553   4.766   4.066   7.014
 7552SOL     OW23554   1.979   5.675   4.077
 7552SOL    HW123555   1.939   5.585   4.094
 7552SOL    HW223556   2.061   5.664   4.021
 7553SOL     OW23557   4.210   4.951   5.250
 7553SOL    HW123558   4.233   5.027   5.190
 7553SOL    HW223559   4.252   4.965   5.340
 7554SOL     OW23560   5.016   0.697   0.757
 7554SOL    HW123561   5.086   0.764   0.732
 7554SOL    HW223562   5.050   0.640   0.832
 7555SOL     OW23563   1.830   4.870   4.696
 7555SOL    HW123564   1.846   4.850   4.600
 7555SOL    HW223565   1.870   4.798   4.753
 7556SOL     OW23566   0.583   2.449   5.691
 7556SOL    HW123567   0.507   2.499   5.649
 7556SOL    HW223568   0.569   2.351   5.678
 7557SOL     OW23569   5.770   3.227   6.523
 7557SOL    HW123570   5.746   3.323   6.509
 7557SOL    HW223571   5.794   3.185   6.436
 7558SOL     OW23572   2.565   2.107   3.271
 7558SOL    HW123573   2.645   2.049   3.256
 7558SOL    HW223574   2.588   2.202   3.253
 7559SOL     OW23575   6.670   5.797   1.068
 7559SOL    HW123576   6.682   5.881   1.121
 7559SOL    HW223577   6.573   5.785   1.046
 7560SOL     OW23578   5.652   6.248   0.118
 7560SOL    HW123579   5.595   6.273   0.039
 7560SOL    HW223580   5.748   6.242   0.089
 7561SOL     OW23581   0.623   3.435   0.762
 7561SOL    HW123582   0.573   3.366   0.709
 7561SOL    HW223583   0.657   3.506   0.700
 7562SOL     OW23584   5.005   6.085   4.586
 7562SOL    HW123585   5.055   6.131   4.513
 7562SOL    HW223586   5.066   6.020   4.633
 7563SOL     OW23587   2.677   6.915   0.652
 7563SOL    HW123588   2.725   6.867   0.727
 7563SOL    HW223589   2.736   6.917   0.572
 7564SOL     OW23590   4.953   1.534   2.648
 7564SOL    HW123591   4.881   1.501   2.709
 7564SOL    HW223592   4.913   1.593   2.577
 7565SOL     OW23593   4.834   4.921   0.077
 7565SOL    HW123594   4.904   4.866   0.031
 7565SOL    HW223595   4.762   4.945   0.011
 7566SOL     OW23596   1.075   4.945   2.976
 7566SOL    HW123597   1.106   4.906   3.063
 7566SOL    HW223598   0.981   4.977   2.985
 7567SOL     OW23599   1.873   2.456   4.768
 7567SOL    HW123600   1.940   2.450   4.694
 7567SOL    HW223601   1.919   2.474   4.854
 7568SOL     OW23602   5.713   6.221   3.650
 7568SOL    HW123603   5.724   6.292   3.719
 7568SOL    HW223604   5.798   6.211   3.598
 7569SOL     OW23605   4.065   4.580   6.432
 7569SOL    HW123606   4.091   4.490   6.467
 7569SOL    HW223607   4.146   4.629   6.402
 7570SOL     OW23608   5.265   4.740   5.555
 7570SOL    HW123609   5.196   4.812   5.551
 7570SOL    HW223610   5.355   4.780   5.541
 7571SOL     OW23611   5.523   4.948   2.625
 7571SOL    HW123612   5.605   4.898   2.599
 7571SOL    HW223613   5.461   4.888   2.674
 7572SOL     OW23614   4.904   0.518   3.476
 7572SOL    HW123615   4.845   0.516   3.557
 7572SOL    HW223616   4.984   0.461   3.491
 7573SOL     OW23617   5.994   5.954   4.477
 7573SOL    HW123618   6.081   5.991   4.444
 7573SOL    HW223619   5.992   5.855   4.464
 7574SOL     OW23620   6.740   0.929   4.686
 7574SOL    HW123621   6.713   1.010   4.634
 7574SOL    HW223622   6.829   0.945   4.729
 7575SOL     OW23623   4.593   0.290   5.768
 7575SOL    HW123624   4.625   0.283   5.673
 7575SOL    HW223625   4.671   0.289   5.830
 7576SOL     OW23626   6.195   6.023   0.690
 7576SOL    HW123627   6.137   5.942   0.679
 7576SOL    HW223628   6.284   6.005   0.647
 7577SOL     OW23629   6.720   6.846   5.276
 7577SOL    HW123630   6.751   6.848   5.180
 7577SOL    HW223631   6.721   6.751   5.309
 7578SOL     OW23632   2.300   6.049   3.492
 7578SOL    HW123633   2.391   6.087   3.506
 7578SOL    HW223634   2.265   6.078   3.403
 7579SOL     OW23635   4.627   2.115   2.474
 7579SOL    HW123636   4.537   2.113   2.430
 7579SOL    HW223637   4.697   2.141   2.407
 7580SOL     OW23638   1.496   4.322   3.628
 7580SOL    HW123639   1.519   4.296   3.722
 7580SOL    HW223640   1.575   4.365   3.586
 7581SOL     OW23641   5.309   0.610   1.236
 7581SOL    HW123642   5.308   0.653   1.146
 7581SOL    HW223643   5.261   0.668   1.302
 7582SOL     OW23644   3.197   0.952   0.124
 7582SOL    HW123645   3.100   0.976   0.115
 7582SOL    HW223646   3.219   0.938   0.221
 7583SOL     OW23647   6.103   3.576   1.280
 7583SOL    HW123648   6.011   3.555   1.248
 7583SOL    HW223649   6.162   3.496   1.269
 7584SOL     OW23650   3.232   6.846   0.920
 7584SOL    HW123651   3.220   6.748   0.936
 7584SOL    HW223652   3.186   6.872   0.836
 7585SOL     OW23653   1.743   3.238   6.052
 7585SOL    HW123654   1.754   3.291   5.967
 7585SOL    HW223655   1.822   3.178   6.063
 7586SOL     OW23656   3.365   0.777   3.750
 7586SOL    HW123657   3.411   0.689   3.740
 7586SOL    HW223658   3.407   0.829   3.824
 7587SOL     OW23659   3.493   1.291   6.678
 7587SOL    HW123660   3.592   1.291   6.665
 7587SOL    HW223661   3.454   1.374   6.639
 7588SOL     OW23662   0.811   3.464   2.231
 7588SOL    HW123663   0.802   3.563   2.239
 7588SOL    HW223664   0.874   3.442   2.156
 7589SOL     OW23665   6.079   6.908   0.947
 7589SOL    HW123666   6.134   6.837   0.903
 7589SOL    HW223667   6.088   6.993   0.896
 7590SOL     OW23668   2.768   2.185   6.446
 7590SOL    HW123669   2.737   2.116   6.511
 7590SOL    HW223670   2.816   2.258   6.495
 7591SOL     OW23671   6.694   4.940   0.318
 7591SOL    HW123672   6.640   4.974   0.395
 7591SOL    HW223673   6.666   4.987   0.234
 7592SOL     OW23674   6.935   4.275   6.780
 7592SOL    HW123675   6.888   4.329   6.849
 7592SOL    HW223676   0.000   4.320   6.753
 7593SOL     OW23677   4.902   2.431   0.756
 7593SOL    HW123678   4.981   2.423   0.695
 7593SOL    HW223679   4.823   2.465   0.705
 7594SOL     OW23680   0.003   4.333   2.247
 7594SOL    HW123681   0.051   4.270   2.187
 7594SOL    HW223682   0.069   4.395   2.290
 7595SOL     OW23683   6.985   2.197   6.054
 7595SOL    HW123684   6.970   2.233   5.962
 7595SOL    HW223685   0.037   2.251   6.099
 7596SOL     OW23686   4.238   5.495   3.043
 7596SOL    HW123687   4.243   5.595   3.047
 7596SOL    HW223688   4.316   5.456   3.093
 7597SOL     OW23689   2.614   5.658   1.803
 7597SOL    HW123690   2.620   5.573   1.855
 7597SOL    HW223691   2.698   5.670   1.749
 7598SOL     OW23692   0.059   1.111   2.944
 7598SOL    HW123693   0.001   1.030   2.940
 7598SOL    HW223694   0.128   1.099   3.016
 7599SOL     OW23695   5.654   1.798   3.560
 7599SOL    HW123696   5.557   1.820   3.551
 7599SOL    HW223697   5.666   1.699   3.559
 7600SOL     OW23698   1.899   0.713   2.504
 7600SOL    HW123699   1.863   0.702   2.596
 7600SOL    HW223700   1.824   0.712   2.438
 7601SOL     OW23701   2.279   5.580   2.807
 7601SOL    HW123702   2.336   5.511   2.763
 7601SOL    HW223703   2.183   5.563   2.784
 7602SOL     OW23704   1.750   3.999   6.161
 7602SOL    HW123705   1.766   4.096   6.145
 7602SOL    HW223706   1.837   3.954   6.181
 7603SOL     OW23707   1.112   5.625   5.972
 7603SOL    HW123708   1.012   5.618   5.967
 7603SOL    HW223709   1.145   5.576   6.052
 7604SOL     OW23710   2.315   4.313   4.063
 7604SOL    HW123711   2.398   4.359   4.094
 7604SOL    HW223712   2.323   4.290   3.966
 7605SOL     OW23713   1.765   6.195   0.181
 7605SOL    HW123714   1.811   6.176   0.094
 7605SOL    HW223715   1.672   6.226   0.164
 7606SOL     OW23716   6.957   2.863   3.296
 7606SOL    HW123717   6.907   2.862   3.210
 7606SOL    HW223718   7.017   2.943   3.299
 7607SOL     OW23719   4.719   6.350   0.092
 7607SOL    HW123720   4.629   6.315   0.067
 7607SOL    HW223721   4.730   6.348   0.192
 7608SOL     OW23722   3.452   4.136   2.793
 7608SOL    HW123723   3.483   4.200   2.722
 7608SOL    HW223724   3.363   4.099   2.768
 7609SOL     OW23725   0.059   4.482   3.477
 7609SOL    HW123726   0.155   4.461   3.458
 7609SOL    HW223727   0.026   4.425   3.552
 7610SOL     OW23728   6.305   6.901   6.595
 7610SOL    HW123729   6.236   6.845   6.641
 7610SOL    HW223730   6.283   6.909   6.498
 7611SOL     OW23731   0.890   2.037   0.258
 7611SOL    HW123732   0.900   1.938   0.244
 7611SOL    HW223733   0.849   2.053   0.348
 7612SOL     OW23734   4.772   2.814   4.872
 7612SOL    HW123735   4.701   2.748   4.849
 7612SOL    HW223736   4.861   2.781   4.842
 7613SOL     OW23737   5.430   2.325   1.843
 7613SOL    HW123738   5.397   2.231   1.854
 7613SOL    HW223739   5.355   2.389   1.857
 7614SOL     OW23740   5.192   2.811   1.663
 7614SOL    HW123741   5.171   2.856   1.576
 7614SOL    HW223742   5.147   2.861   1.737
 7615SOL     OW23743   4.615   3.960   6.127
 7615SOL    HW123744   4.551   4.030   6.159
 7615SOL    HW223745   4.639   3.899   6.203
 7616SOL     OW23746   6.950   4.621   4.530
 7616SOL    HW123747   6.857   4.651   4.550
 7616SOL    HW223748   7.014   4.666   4.591
 7617SOL     OW23749   2.943   5.456   3.075
 7617SOL    HW123750   3.013   5.519   3.109
 7617SOL    HW223751   2.855   5.502   3.072
 7618SOL     OW23752   0.697   2.226   0.033
 7618SOL    HW123753   0.654   2.292   6.990
 7618SOL    HW223754   0.789   2.206   0.001
 7619SOL     OW23755   5.565   3.269   5.076
 7619SOL    HW123756   5.573   3.212   4.994
 7619SOL    HW223757   5.615   3.355   5.061
 7620SOL     OW23758   3.822   5.168   6.991
 7620SOL    HW123759   3.886   5.166   0.048
 7620SOL    HW223760   3.803   5.263   6.965
 7621SOL     OW23761   0.276   1.596   0.596
 7621SOL    HW123762   0.304   1.658   0.669
 7621SOL    HW223763   0.236   1.513   0.636
 7622SOL     OW23764   4.764   4.850   1.553
 7622SOL    HW123765   4.825   4.923   1.584
 7622SOL    HW223766   4.720   4.807   1.633
 7623SOL     OW23767   4.617   4.732   6.819
 7623SOL    HW123768   4.698   4.701   6.768
 7623SOL    HW223769   4.630   4.827   6.848
 7624SOL     OW23770   0.035   2.567   4.722
 7624SOL    HW123771   0.060   2.526   4.634
 7624SOL    HW223772   0.101   2.538   4.792
 7625SOL     OW23773   4.447   0.635   1.590
 7625SOL    HW123774   4.493   0.629   1.678
 7625SOL    HW223775   4.507   0.679   1.523
 7626SOL     OW23776   6.902   6.417   4.381
 7626SOL    HW123777   6.877   6.364   4.462
 7626SOL    HW223778   6.882   6.363   4.299
 7627SOL     OW23779   5.029   3.141   0.166
 7627SOL    HW123780   5.086   3.223   0.154
 7627SOL    HW223781   5.088   3.061   0.175
 7628SOL     OW23782   3.393   0.739   1.947
 7628SOL    HW123783   3.422   0.681   1.871
 7628SOL    HW223784   3.306   0.783   1.924
 7629SOL     OW23785   6.715   0.150   3.175
 7629SOL    HW123786   6.777   0.144   3.097
 7629SOL    HW223787   6.640   0.085   3.163
 7630SOL     OW23788   5.565   6.504   1.920
 7630SOL    HW123789   5.580   6.557   2.003
 7630SOL    HW223790   5.634   6.529   1.852
 7631SOL     OW23791   0.881   0.725   5.222
 7631SOL    HW123792   0.805   0.717   5.158
 7631SOL    HW223793   0.919   0.817   5.218
 7632SOL     OW23794   3.543   2.511   1.687
 7632SOL    HW123795   3.490   2.456   1.623
 7632SOL    HW223796   3.592   2.451   1.750
 7633SOL     OW23797   4.270   2.539   0.254
 7633SOL    HW123798   4.301   2.453   0.213
 7633SOL    HW223799   4.342   2.608   0.242
 7634SOL     OW23800   1.236   1.638   2.614
 7634SOL    HW123801   1.333   1.650   2.594
 7634SOL    HW223802   1.198   1.723   2.649
 7635SOL     OW23803   2.605   6.277   5.052
 7635SOL    HW123804   2.687   6.333   5.066
 7635SOL    HW223805   2.612   6.230   4.964
 7636SOL     OW23806   1.628   2.167   3.520
 7636SOL    HW123807   1.573   2.149   3.602
 7636SOL    HW223808   1.599   2.105   3.447
 7637SOL     OW23809   2.918   6.453   2.602
 7637SOL    HW123810   2.941   6.528   2.540
 7637SOL    HW223811   2.914   6.488   2.696
 7638SOL     OW23812   3.905   5.591   1.885
 7638SOL    HW123813   3.882   5.688   1.875
 7638SOL    HW223814   3.913   5.569   1.982
 7639SOL     OW23815   1.445   2.262   0.737
 7639SOL    HW123816   1.473   2.342   0.683
 7639SOL    HW223817   1.507   2.252   0.815
 7640SOL     OW23818   3.506   2.001   0.241
 7640SOL    HW123819   3.586   1.944   0.220
 7640SOL    HW223820   3.441   1.995   0.165
 7641SOL     OW23821   0.851   4.656   1.771
 7641SOL    HW123822   0.880   4.672   1.866
 7641SOL    HW223823   0.758   4.619   1.770
 7642SOL     OW23824   2.730   1.780   2.496
 7642SOL    HW123825   2.751   1.782   2.594
 7642SOL    HW223826   2.651   1.721   2.481
 7643SOL     OW23827   5.054   2.843   4.074
 7643SOL    HW123828   5.104   2.887   4.149
 7643SOL    HW223829   5.109   2.767   4.037
 7644SOL     OW23830   5.911   2.265   2.484
 7644SOL    HW123831   5.959   2.290   2.399
 7644SOL    HW223832   5.847   2.191   2.465
 7645SOL     OW23833   4.398   4.085   5.346
 7645SOL    HW123834   4.387   3.987   5.334
 7645SOL    HW223835   4.308   4.127   5.359
 7646SOL     OW23836   2.156   2.143   2.170
 7646SOL    HW123837   2.180   2.148   2.073
 7646SOL    HW223838   2.233   2.176   2.224
 7647SOL     OW23839   0.089   3.481   2.345
 7647SOL    HW123840   0.105   3.467   2.247
 7647SOL    HW223841   0.146   3.557   2.377
 7648SOL     OW23842   3.536   1.089   3.514
 7648SOL    HW123843   3.578   1.010   3.471
 7648SOL    HW223844   3.500   1.151   3.444
 7649SOL     OW23845   1.221   1.461   2.964
 7649SOL    HW123846   1.212   1.389   3.034
 7649SOL    HW223847   1.168   1.541   2.992
 7650SOL     OW23848   5.071   2.726   1.135
 7650SOL    HW123849   4.977   2.741   1.166
 7650SOL    HW223850   5.135   2.758   1.205
 7651SOL     OW23851   2.462   6.806   5.247
 7651SOL    HW123852   2.502   6.855   5.325
 7651SOL    HW223853   2.370   6.775   5.272
 7652SOL     OW23854   6.981   3.912   3.766
 7652SOL    HW123855   0.028   3.837   3.767
 7652SOL    HW223856   6.966   3.945   3.859
 7653SOL     OW23857   2.498   1.680   0.777
 7653SOL    HW123858   2.529   1.755   0.835
 7653SOL    HW223859   2.564   1.665   0.703
 7654SOL     OW23860   4.881   3.634   4.295
 7654SOL    HW123861   4.931   3.548   4.299
 7654SOL    HW223862   4.888   3.673   4.203
 7655SOL     OW23863   3.392   0.096   3.392
 7655SOL    HW123864   3.462   0.049   3.444
 7655SOL    HW223865   3.304   0.050   3.404
 7656SOL     OW23866   1.996   4.965   6.243
 7656SOL    HW123867   1.947   4.913   6.313
 7656SOL    HW223868   2.015   5.057   6.277
 7657SOL     OW23869   2.863   2.276   3.029
 7657SOL    HW123870   2.804   2.200   3.056
 7657SOL    HW223871   2.806   2.355   3.005
 7658SOL     OW23872   4.101   6.232   5.866
 7658SOL    HW123873   4.188   6.204   5.906
 7658SOL    HW223874   4.065   6.311   5.915
 7659SOL     OW23875   5.446   5.640   6.751
 7659SOL    HW123876   5.439   5.642   6.651
 7659SOL    HW223877   5.452   5.733   6.786
 7660SOL     OW23878   0.377   6.779   3.954
 7660SOL    HW123879   0.409   6.834   3.877
 7660SOL    HW223880   0.454   6.756   4.013
 7661SOL     OW23881   5.622   2.497   4.479
 7661SOL    HW123882   5.561   2.435   4.430
 7661SOL    HW223883   5.633   2.582   4.426
 7662SOL     OW23884   0.752   2.370   2.343
 7662SOL    HW123885   0.789   2.314   2.269
 7662SOL    HW223886   0.683   2.318   2.393
 7663SOL     OW23887   6.977   6.710   6.102
 7663SOL    HW123888   6.894   6.659   6.080
 7663SOL    HW223889   0.019   6.652   6.155
 7664SOL     OW23890   3.920   0.636   2.069
 7664SOL    HW123891   3.839   0.582   2.048
 7664SOL    HW223892   3.998   0.600   2.018
 7665SOL     OW23893   4.921   0.046   4.719
 7665SOL    HW123894   4.900   6.995   4.786
 7665SOL    HW223895   4.857   0.040   4.643
 7666SOL     OW23896   1.080   6.905   1.701
 7666SOL    HW123897   1.149   6.833   1.704
 7666SOL    HW223898   1.090   6.957   1.616
 7667SOL     OW23899   4.590   5.931   1.874
 7667SOL    HW123900   4.531   6.007   1.901
 7667SOL    HW223901   4.675   5.934   1.928
 7668SOL     OW23902   2.849   4.425   0.780
 7668SOL    HW123903   2.848   4.331   0.747
 7668SOL    HW223904   2.943   4.453   0.801
 7669SOL     OW23905   5.846   1.902   6.165
 7669SOL    HW123906   5.882   1.936   6.078
 7669SOL    HW223907   5.784   1.825   6.148
 7670SOL     OW23908   1.380   4.755   6.368
 7670SOL    HW123909   1.461   4.810   6.347
 7670SOL    HW223910   1.302   4.815   6.384
 7671SOL     OW23911   4.554   0.701   4.844
 7671SOL    HW123912   4.625   0.657   4.898
 7671SOL    HW223913   4.584   0.794   4.819
 7672SOL     OW23914   6.017   6.498   3.775
 7672SOL    HW123915   6.102   6.519   3.822
 7672SOL    HW223916   5.956   6.447   3.835
 7673SOL     OW23917   2.084   5.107   6.939
 7673SOL    HW123918   2.129   5.018   6.943
 7673SOL    HW223919   2.147   5.174   6.899
 7674SOL     OW23920   6.056   2.486   3.745
 7674SOL    HW123921   5.979   2.491   3.809
 7674SOL    HW223922   6.073   2.391   3.721
 7675SOL     OW23923   4.929   0.270   2.542
 7675SOL    HW123924   4.934   0.313   2.632
 7675SOL    HW223925   4.954   0.336   2.472
 7676SOL     OW23926   1.707   2.196   0.492
 7676SOL    HW123927   1.743   2.262   0.559
 7676SOL    HW223928   1.617   2.164   0.522
 7677SOL     OW23929   0.142   4.105   2.438
 7677SOL    HW123930   0.130   4.200   2.411
 7677SOL    HW223931   0.056   4.069   2.473
 7678SOL     OW23932   2.375   1.495   5.534
 7678SOL    HW123933   2.466   1.458   5.513
 7678SOL    HW223934   2.385   1.575   5.592
 7679SOL     OW23935   2.233   6.016   5.858
 7679SOL    HW123936   2.261   6.108   5.885
 7679SOL    HW223937   2.224   6.011   5.759
 7680SOL     OW23938   1.610   2.049   0.259
 7680SOL    HW123939   1.511   2.061   0.265
 7680SOL    HW223940   1.655   2.110   0.323
 7681SOL     OW23941   3.053   0.030   0.420
 7681SOL    HW123942   3.079   0.109   0.474
 7681SOL    HW223943   3.075   0.047   0.324
 7682SOL     OW23944   3.462   0.589   1.728
 7682SOL    HW123945   3.509   0.572   1.642
 7682SOL    HW223946   3.394   0.517   1.745
 7683SOL     OW23947   6.706   2.041   3.924
 7683SOL    HW123948   6.776   1.990   3.874
 7683SOL    HW223949   6.734   2.051   4.019
 7684SOL     OW23950   4.247   1.853   1.432
 7684SOL    HW123951   4.164   1.803   1.458
 7684SOL    HW223952   4.316   1.788   1.400
 7685SOL     OW23953   3.006   3.392   0.219
 7685SOL    HW123954   2.948   3.432   0.148
 7685SOL    HW223955   3.102   3.413   0.200
 7686SOL     OW23956   5.297   6.943   3.064
 7686SOL    HW123957   5.318   6.850   3.093
 7686SOL    HW223958   5.258   6.994   3.140
 7687SOL     OW23959   5.997   5.100   5.379
 7687SOL    HW123960   5.979   5.048   5.462
 7687SOL    HW223961   6.028   5.192   5.403
 7688SOL     OW23962   0.419   6.898   5.311
 7688SOL    HW123963   0.427   6.834   5.387
 7688SOL    HW223964   0.328   6.939   5.311
 7689SOL     OW23965   4.986   5.853   3.091
 7689SOL    HW123966   4.957   5.947   3.071
 7689SOL    HW223967   4.956   5.828   3.183
 7690SOL     OW23968   6.373   5.103   0.762
 7690SOL    HW123969   6.345   5.033   0.828
 7690SOL    HW223970   6.401   5.059   0.677
 7691SOL     OW23971   5.340   3.012   4.053
 7691SOL    HW123972   5.435   3.017   4.082
 7691SOL    HW223973   5.282   2.989   4.131
 7692SOL     OW23974   1.180   6.527   1.580
 7692SOL    HW123975   1.228   6.609   1.610
 7692SOL    HW223976   1.158   6.470   1.659
 7693SOL     OW23977   3.396   6.932   1.517
 7693SOL    HW123978   3.385   0.009   1.540
 7693SOL    HW223979   3.454   6.888   1.585
 7694SOL     OW23980   0.246   4.233   4.108
 7694SOL    HW123981   0.333   4.221   4.155
 7694SOL    HW223982   0.174   4.185   4.158
 7695SOL     OW23983   3.663   6.470   0.238
 7695SOL    HW123984   3.649   6.466   0.337
 7695SOL    HW223985   3.749   6.517   0.219
 7696SOL     OW23986   6.596   1.645   4.617
 7696SOL    HW123987   6.570   1.729   4.664
 7696SOL    HW223988   6.646   1.586   4.681
 7697SOL     OW23989   2.590   0.246   1.855
 7697SOL    HW123990   2.539   0.169   1.816
 7697SOL    HW223991   2.684   0.218   1.871
 7698SOL     OW23992   0.196   2.060   4.492
 7698SOL    HW123993   0.127   2.083   4.562
 7698SOL    HW223994   0.183   1.965   4.463
 7699SOL     OW23995   3.896   5.421   6.902
 7699SOL    HW123996   3.989   5.398   6.931
 7699SOL    HW223997   3.879   5.518   6.922
 7700SOL     OW23998   4.789   6.068   4.730
 7700SOL    HW123999   4.773   6.167   4.739
 7700SOL    HW224000   4.876   6.053   4.683
 7701SOL     OW24001   6.994   1.655   6.539
 7701SOL    HW124002   6.926   1.610   6.598
 7701SOL    HW224003   0.056   1.676   6.592
 7702SOL     OW24004   2.637   6.623   6.274
 7702SOL    HW124005   2.596   6.532   6.276
 7702SOL    HW224006   2.629   6.666   6.364
 7703SOL     OW24007   6.395   0.538   5.198
 7703SOL    HW124008   6.306   0.494   5.195
 7703SOL    HW224009   6.394   0.621   5.141
 7704SOL     OW24010   5.381   4.548   5.317
 7704SOL    HW124011   5.436   4.615   5.267
 7704SOL    HW224012   5.400   4.555   5.415
 7705SOL     OW24013   3.860   4.791   6.183
 7705SOL    HW124014   3.805   4.725   6.234
 7705SOL    HW224015   3.802   4.837   6.115
 7706SOL     OW24016   4.406   1.870   5.537
 7706SOL    HW124017   4.417   1.824   5.450
 7706SOL    HW224018   4.375   1.805   5.607
 7707SOL     OW24019   1.339   5.941   6.528
 7707SOL    HW124020   1.268   5.925   6.461
 7707SOL    HW224021   1.317   5.893   6.613
 7708SOL     OW24022   5.623   6.476   5.183
 7708SOL    HW124023   5.692   6.515   5.123
 7708SOL    HW224024   5.590   6.545   5.247
 7709SOL     OW24025   5.627   4.216   1.397
 7709SOL    HW124026   5.601   4.136   1.343
 7709SOL    HW224027   5.664   4.286   1.336
 7710SOL     OW24028   3.843   1.007   0.780
 7710SOL    HW124029   3.936   1.041   0.774
 7710SOL    HW224030   3.781   1.071   0.734
 7711SOL     OW24031   6.264   5.953   5.290
 7711SOL    HW124032   6.351   5.968   5.243
 7711SOL    HW224033   6.189   5.952   5.223
 7712SOL     OW24034   5.622   4.598   2.050
 7712SOL    HW124035   5.569   4.587   1.967
 7712SOL    HW224036   5.613   4.516   2.107
 7713SOL     OW24037   1.174   5.038   0.314
 7713SOL    HW124038   1.266   5.075   0.328
 7713SOL    HW224039   1.131   5.083   0.235
 7714SOL     OW24040   6.349   4.784   5.324
 7714SOL    HW124041   6.406   4.705   5.301
 7714SOL    HW224042   6.388   4.832   5.402
 7715SOL     OW24043   4.786   2.081   0.563
 7715SOL    HW124044   4.742   2.110   0.648
 7715SOL    HW224045   4.822   2.162   0.515
 7716SOL     OW24046   6.467   4.067   3.635
 7716SOL    HW124047   6.387   4.126   3.646
 7716SOL    HW224048   6.498   4.035   3.725
 7717SOL     OW24049   1.781   0.900   4.981
 7717SOL    HW124050   1.841   0.951   4.920
 7717SOL    HW224051   1.708   0.858   4.926
 7718SOL     OW24052   1.974   1.873   3.305
 7718SOL    HW124053   1.963   1.972   3.310
 7718SOL    HW224054   2.032   1.850   3.227
 7719SOL     OW24055   0.389   3.725   4.266
 7719SOL    HW124056   0.435   3.682   4.343
 7719SOL    HW224057   0.290   3.714   4.276
 7720SOL     OW24058   0.140   6.820   0.711
 7720SOL    HW124059   0.100   6.847   0.623
 7720SOL    HW224060   0.239   6.831   0.707
 7721SOL     OW24061   1.228   4.909   2.418
 7721SOL    HW124062   1.234   4.947   2.510
 7721SOL    HW224063   1.239   4.982   2.351
 7722SOL     OW24064   0.339   5.817   3.097
 7722SOL    HW124065   0.369   5.884   3.165
 7722SOL    HW224066   0.400   5.738   3.099
 7723SOL     OW24067   6.639   3.655   0.105
 7723SOL    HW124068   6.643   3.653   0.005
 7723SOL    HW224069   6.697   3.583   0.142
 7724SOL     OW24070   2.345   4.216   1.881
 7724SOL    HW124071   2.271   4.280   1.861
 7724SOL    HW224072   2.430   4.249   1.840
 7725SOL     OW24073   5.007   3.217   3.766
 7725SOL    HW124074   4.959   3.237   3.851
 7725SOL    HW224075   5.089   3.162   3.786
 7726SOL     OW24076   1.039   6.346   4.797
 7726SOL    HW124077   1.054   6.315   4.703
 7726SOL    HW224078   1.003   6.439   4.796
 7727SOL     OW24079   6.996   0.864   2.879
 7727SOL    HW124080   0.057   0.850   2.821
 7727SOL    HW224081   6.961   0.775   2.908
 7728SOL     OW24082   1.131   5.050   3.320
 7728SOL    HW124083   1.060   5.104   3.275
 7728SOL    HW224084   1.125   5.062   3.419
 7729SOL     OW24085   5.897   3.221   0.458
 7729SOL    HW124086   5.969   3.264   0.404
 7729SOL    HW224087   5.818   3.283   0.464
 7730SOL     OW24088   5.635   5.550   2.004
 7730SOL    HW124089   5.698   5.627   2.018
 7730SOL    HW224090   5.604   5.549   1.909
 7731SOL     OW24091   6.868   1.205   0.684
 7731SOL    HW124092   6.930   1.269   0.638
 7731SOL    HW224093   6.805   1.166   0.618
 7732SOL     OW24094   4.585   6.239   0.609
 7732SOL    HW124095   4.537   6.312   0.659
 7732SOL    HW224096   4.642   6.188   0.673
 7733SOL     OW24097   3.895   6.849   2.291
 7733SOL    HW124098   3.904   6.787   2.369
 7733SOL    HW224099   3.923   6.941   2.318
 7734SOL     OW24100   2.358   4.863   3.326
 7734SOL    HW124101   2.448   4.867   3.369
 7734SOL    HW224102   2.299   4.933   3.365
 7735SOL     OW24103   4.735   6.285   6.129
 7735SOL    HW124104   4.681   6.298   6.212
 7735SOL    HW224105   4.822   6.333   6.138
 7736SOL     OW24106   4.278   3.822   6.837
 7736SOL    HW124107   4.252   3.787   6.927
 7736SOL    HW224108   4.249   3.917   6.828
 7737SOL     OW24109   4.241   0.794   2.097
 7737SOL    HW124110   4.314   0.725   2.098
 7737SOL    HW224111   4.267   0.869   2.036
 7738SOL     OW24112   1.655   5.547   6.460
 7738SOL    HW124113   1.655   5.450   6.440
 7738SOL    HW224114   1.653   5.599   6.375
 7739SOL     OW24115   0.466   1.413   1.848
 7739SOL    HW124116   0.515   1.464   1.919
 7739SOL    HW224117   0.410   1.342   1.890
 7740SOL     OW24118   1.729   0.524   2.971
 7740SOL    HW124119   1.665   0.475   2.912
 7740SOL    HW224120   1.684   0.605   3.010
 7741SOL     OW24121   1.043   5.995   4.703
 7741SOL    HW124122   0.957   6.021   4.659
 7741SOL    HW224123   1.119   6.006   4.638
 7742SOL     OW24124   6.042   2.044   3.147
 7742SOL    HW124125   6.084   2.106   3.214
 7742SOL    HW224126   6.031   1.953   3.188
 7743SOL     OW24127   4.814   2.090   6.431
 7743SOL    HW124128   4.829   2.149   6.351
 7743SOL    HW224129   4.717   2.089   6.453
 7744SOL     OW24130   1.170   6.178   3.658
 7744SOL    HW124131   1.179   6.082   3.632
 7744SOL    HW224132   1.101   6.186   3.731
 7745SOL     OW24133   2.961   1.055   5.614
 7745SOL    HW124134   2.924   1.092   5.529
 7745SOL    HW224135   3.059   1.074   5.619
 7746SOL     OW24136   2.110   6.623   6.928
 7746SOL    HW124137   2.091   6.580   6.840
 7746SOL    HW224138   2.104   6.555   7.001
 7747SOL     OW24139   4.195   5.528   1.370
 7747SOL    HW124140   4.207   5.465   1.447
 7747SOL    HW224141   4.187   5.621   1.404
 7748SOL     OW24142   3.573   3.543   5.635
 7748SOL    HW124143   3.649   3.478   5.634
 7748SOL    HW224144   3.554   3.575   5.542
 7749SOL     OW24145   3.001   3.042   5.520
 7749SOL    HW124146   3.048   3.107   5.461
 7749SOL    HW224147   2.960   2.969   5.465
 7750SOL     OW24148   6.741   6.209   1.612
 7750SOL    HW124149   6.804   6.281   1.643
 7750SOL    HW224150   6.654   6.218   1.659
 7751SOL     OW24151   1.640   1.509   2.310
 7751SOL    HW124152   1.721   1.528   2.366
 7751SOL    HW224153   1.579   1.588   2.312
 7752SOL     OW24154   5.208   0.102   5.518
 7752SOL    HW124155   5.293   0.058   5.488
 7752SOL    HW224156   5.228   0.194   5.552
 7753SOL     OW24157   2.527   1.388   4.756
 7753SOL    HW124158   2.505   1.335   4.674
 7753SOL    HW224159   2.552   1.326   4.830
 7754SOL     OW24160   3.710   5.984   1.344
 7754SOL    HW124161   3.798   6.007   1.303
 7754SOL    HW224162   3.697   6.038   1.427
 7755SOL     OW24163   1.270   2.233   6.125
 7755SOL    HW124164   1.317   2.148   6.100
 7755SOL    HW224165   1.175   2.229   6.092
 7756SOL     OW24166   3.203   6.245   1.646
 7756SOL    HW124167   3.227   6.330   1.601
 7756SOL    HW224168   3.109   6.220   1.623
 7757SOL     OW24169   6.866   4.959   1.256
 7757SOL    HW124170   6.964   4.946   1.269
 7757SOL    HW224171   6.816   4.917   1.331
 7758SOL     OW24172   1.608   6.813   5.900
 7758SOL    HW124173   1.539   6.774   5.961
 7758SOL    HW224174   1.635   6.903   5.934
 7759SOL     OW24175   2.745   1.272   5.799
 7759SOL    HW124176   2.836   1.295   5.765
 7759SOL    HW224177   2.712   1.344   5.859
 7760SOL     OW24178   5.433   2.222   2.536
 7760SOL    HW124179   5.387   2.300   2.494
 7760SOL    HW224180   5.365   2.156   2.568
 7761SOL     OW24181   6.729   5.789   4.930
 7761SOL    HW124182   6.661   5.841   4.879
 7761SOL    HW224183   6.821   5.820   4.905
 7762SOL     OW24184   1.927   0.055   3.725
 7762SOL    HW124185   1.928   0.117   3.803
 7762SOL    HW224186   1.833   0.044   3.693
 7763SOL     OW24187   2.461   0.198   6.401
 7763SOL    HW124188   2.436   0.295   6.409
 7763SOL    HW224189   2.515   0.184   6.319
 7764SOL     OW24190   3.344   3.938   6.263
 7764SOL    HW124191   3.250   3.906   6.249
 7764SOL    HW224192   3.405   3.888   6.202
 7765SOL     OW24193   6.370   3.143   4.943
 7765SOL    HW124194   6.426   3.159   4.862
 7765SOL    HW224195   6.394   3.209   5.015
 7766SOL     OW24196   6.939   4.270   0.376
 7766SOL    HW124197   0.004   4.250   0.326
 7766SOL    HW224198   6.886   4.338   0.326
 7767SOL     OW24199   4.844   6.622   2.283
 7767SOL    HW124200   4.855   6.717   2.313
 7767SOL    HW224201   4.747   6.601   2.272
 7768SOL     OW24202   4.715   4.565   3.898
 7768SOL    HW124203   4.737   4.468   3.889
 7768SOL    HW224204   4.786   4.620   3.854
 7769SOL     OW24205   4.059   1.565   4.861
 7769SOL    HW124206   3.994   1.614   4.920
 7769SOL    HW224207   4.092   1.627   4.790
 7770SOL     OW24208   0.092   3.319   4.308
 7770SOL    HW124209   0.155   3.330   4.385
 7770SOL    HW224210   0.039   3.234   4.320
 7771SOL     OW24211   3.053   1.685   6.038
 7771SOL    HW124212   3.061   1.586   6.029
 7771SOL    HW224213   3.124   1.729   5.983
 7772SOL     OW24214   5.186   0.217   1.240
 7772SOL    HW124215   5.140   0.134   1.270
 7772SOL    HW224216   5.218   0.206   1.146
 7773SOL     OW24217   2.666   5.631   5.623
 7773SOL    HW124218   2.636   5.609   5.716
 7773SOL    HW224219   2.602   5.591   5.557
 7774SOL     OW24220   4.748   2.381   4.592
 7774SOL    HW124221   4.724   2.397   4.497
 7774SOL    HW224222   4.705   2.451   4.650
 7775SOL     OW24223   3.774   6.903   0.183
 7775SOL    HW124224   3.869   6.893   0.211
 7775SOL    HW224225   3.769   6.906   0.083
 7776SOL     OW24226   0.747   6.524   6.289
 7776SOL    HW124227   0.830   6.547   6.341
 7776SOL    HW224228   0.773   6.477   6.205
 7777SOL     OW24229   6.699   5.491   4.947
 7777SOL    HW124230   6.736   5.581   4.969
 7777SOL    HW224231   6.613   5.477   4.996
 7778SOL     OW24232   5.749   4.099   2.090
 7778SOL    HW124233   5.748   4.046   2.175
 7778SOL    HW224234   5.658   4.096   2.048
 7779SOL     OW24235   2.708   0.628   2.708
 7779SOL    HW124236   2.692   0.602   2.803
 7779SOL    HW224237   2.634   0.688   2.677
 7780SOL     OW24238   0.700   5.968   5.857
 7780SOL    HW124239   0.605   5.993   5.880
 7780SOL    HW224240   0.761   6.042   5.884
 7781SOL     OW24241   1.013   4.069   0.448
 7781SOL    HW124242   1.111   4.070   0.433
 7781SOL    HW224243   0.989   4.140   0.515
 7782SOL     OW24244   5.484   5.185   4.085
 7782SOL    HW124245   5.408   5.168   4.148
 7782SOL    HW224246   5.500   5.284   4.077
 7783SOL     OW24247   0.390   0.043   6.033
 7783SOL    HW124248   0.363   0.086   6.119
 7783SOL    HW224249   0.448   0.106   5.981
 7784SOL     OW24250   2.810   2.723   1.723
 7784SOL    HW124251   2.803   2.775   1.637
 7784SOL    HW224252   2.906   2.710   1.747
 7785SOL     OW24253   1.243   6.720   4.072
 7785SOL    HW124254   1.146   6.703   4.056
 7785SOL    HW224255   1.289   6.634   4.092
 7786SOL     OW24256   4.338   0.782   6.770
 7786SOL    HW124257   4.238   0.779   6.768
 7786SOL    HW224258   4.367   0.855   6.832
 7787SOL     OW24259   1.849   3.080   0.330
 7787SOL    HW124260   1.778   3.131   0.378
 7787SOL    HW224261   1.939   3.118   0.354
 7788SOL     OW24262   1.341   6.172   2.167
 7788SOL    HW124263   1.285   6.109   2.112
 7788SOL    HW224264   1.404   6.221   2.108
 7789SOL     OW24265   3.258   0.231   6.624
 7789SOL    HW124266   3.354   0.251   6.605
 7789SOL    HW224267   3.208   0.317   6.635
 7790SOL     OW24268   6.345   5.095   2.703
 7790SOL    HW124269   6.343   5.193   2.682
 7790SOL    HW224270   6.301   5.044   2.629
 7791SOL     OW24271   2.844   5.792   2.254
 7791SOL    HW124272   2.850   5.800   2.354
 7791SOL    HW224273   2.748   5.790   2.227
 7792SOL     OW24274   1.086   0.374   2.802
 7792SOL    HW124275   0.990   0.347   2.809
 7792SOL    HW224276   1.134   0.347   2.886
 7793SOL     OW24277   4.739   0.670   0.163
 7793SOL    HW124278   4.670   0.641   0.230
 7793SOL    HW224279   4.718   0.762   0.130
 7794SOL     OW24280   0.266   5.322   1.704
 7794SOL    HW124281   0.246   5.328   1.802
 7794SOL    HW224282   0.191   5.274   1.658
 7795SOL     OW24283   3.446   5.574   5.615
 7795SOL    HW124284   3.423   5.665   5.649
 7795SOL    HW224285   3.543   5.571   5.592
 7796SOL     OW24286   3.085   2.794   5.684
 7796SOL    HW124287   3.024   2.715   5.690
 7796SOL    HW224288   3.033   2.873   5.652
 7797SOL     OW24289   0.663   5.714   1.396
 7797SOL    HW124290   0.664   5.616   1.416
 7797SOL    HW224291   0.614   5.730   1.310
 7798SOL     OW24292   1.813   1.297   2.741
 7798SOL    HW124293   1.825   1.208   2.787
 7798SOL    HW224294   1.718   1.326   2.748
 7799SOL     OW24295   2.299   5.518   3.078
 7799SOL    HW124296   2.374   5.461   3.113
 7799SOL    HW224297   2.312   5.533   2.980
 7800SOL     OW24298   0.089   5.854   3.057
 7800SOL    HW124299   0.179   5.818   3.080
 7800SOL    HW224300   0.100   5.935   2.999
 7801SOL     OW24301   1.608   1.121   3.194
 7801SOL    HW124302   1.671   1.080   3.128
 7801SOL    HW224303   1.585   1.214   3.165
 7802SOL     OW24304   6.909   4.021   6.903
 7802SOL    HW124305   6.862   3.947   6.855
 7802SOL    HW224306   6.875   4.109   6.869
 7803SOL     OW24307   4.698   1.987   6.803
 7803SOL    HW124308   4.674   2.021   6.894
 7803SOL    HW224309   4.783   2.030   6.772
 7804SOL     OW24310   3.913   1.811   4.656
 7804SOL    HW124311   3.867   1.728   4.689
 7804SOL    HW224312   3.847   1.867   4.606
 7805SOL     OW24313   4.908   3.633   2.712
 7805SOL    HW124314   4.985   3.666   2.659
 7805SOL    HW224315   4.878   3.704   2.776
 7806SOL     OW24316   6.345   2.235   6.319
 7806SOL    HW124317   6.310   2.141   6.316
 7806SOL    HW224318   6.380   2.254   6.410
 7807SOL     OW24319   1.078   4.136   5.223
 7807SOL    HW124320   0.985   4.098   5.215
 7807SOL    HW224321   1.117   4.148   5.132
 7808SOL     OW24322   5.062   4.230   2.780
 7808SOL    HW124323   5.121   4.152   2.759
 7808SOL    HW224324   4.986   4.200   2.838
 7809SOL     OW24325   5.267   4.881   4.848
 7809SOL    HW124326   5.351   4.844   4.810
 7809SOL    HW224327   5.202   4.807   4.865
 7810SOL     OW24328   3.603   6.628   4.821
 7810SOL    HW124329   3.574   6.722   4.840
 7810SOL    HW224330   3.603   6.575   4.906
 7811SOL     OW24331   2.025   5.855   2.865
 7811SOL    HW124332   1.990   5.835   2.957
 7811SOL    HW224333   2.002   5.780   2.804
 7812SOL     OW24334   2.211   3.175   5.248
 7812SOL    HW124335   2.241   3.262   5.286
 7812SOL    HW224336   2.288   3.128   5.206
 7813SOL     OW24337   4.588   2.835   1.349
 7813SOL    HW124338   4.501   2.796   1.378
 7813SOL    HW224339   4.627   2.779   1.275
 7814SOL     OW24340   6.911   3.656   2.499
 7814SOL    HW124341   7.005   3.667   2.530
 7814SOL    HW224342   6.892   3.559   2.484
 7815SOL     OW24343   5.568   2.405   5.213
 7815SOL    HW124344   5.492   2.458   5.251
 7815SOL    HW224345   5.543   2.370   5.123
 7816SOL     OW24346   0.501   2.591   5.948
 7816SOL    HW124347   0.561   2.611   6.026
 7816SOL    HW224348   0.516   2.497   5.918
 7817SOL     OW24349   4.542   3.823   5.692
 7817SOL    HW124350   4.447   3.801   5.670
 7817SOL    HW224351   4.569   3.908   5.647
 7818SOL     OW24352   4.931   1.200   2.536
 7818SOL    HW124353   4.928   1.111   2.490
 7818SOL    HW224354   5.023   1.238   2.529
 7819SOL     OW24355   6.925   3.223   3.878
 7819SOL    HW124356   6.863   3.302   3.878
 7819SOL    HW224357   7.019   3.254   3.890
 7820SOL     OW24358   2.116   1.458   5.466
 7820SOL    HW124359   2.113   1.408   5.379
 7820SOL    HW224360   2.208   1.455   5.503
 7821SOL     OW24361   5.597   6.009   0.281
 7821SOL    HW124362   5.620   6.098   0.243
 7821SOL    HW224363   5.667   5.942   0.256
 7822SOL     OW24364   0.881   1.623   6.070
 7822SOL    HW124365   0.980   1.615   6.079
 7822SOL    HW224366   0.836   1.565   6.138
 7823SOL     OW24367   1.375   3.980   6.220
 7823SOL    HW124368   1.404   3.887   6.199
 7823SOL    HW224369   1.286   3.998   6.179
 7824SOL     OW24370   6.402   0.432   4.454
 7824SOL    HW124371   6.357   0.389   4.376
 7824SOL    HW224372   6.334   0.480   4.509
 7825SOL     OW24373   2.206   2.604   1.515
 7825SOL    HW124374   2.183   2.688   1.564
 7825SOL    HW224375   2.198   2.619   1.417
 7826SOL     OW24376   5.089   2.117   6.382
 7826SOL    HW124377   4.995   2.085   6.392
 7826SOL    HW224378   5.151   2.052   6.426
 7827SOL     OW24379   3.240   4.993   1.291
 7827SOL    HW124380   3.282   5.082   1.307
 7827SOL    HW224381   3.217   4.951   1.379
 7828SOL     OW24382   0.373   5.339   0.353
 7828SOL    HW124383   0.307   5.328   0.279
 7828SOL    HW224384   0.331   5.312   0.440
 7829SOL     OW24385   1.934   3.174   1.273
 7829SOL    HW124386   1.954   3.076   1.276
 7829SOL    HW224387   1.932   3.211   1.366
 7830SOL     OW24388   5.715   3.768   5.904
 7830SOL    HW124389   5.703   3.739   5.999
 7830SOL    HW224390   5.758   3.694   5.852
 7831SOL     OW24391   1.052   5.119   0.104
 7831SOL    HW124392   1.105   5.072   0.032
 7831SOL    HW224393   0.956   5.124   0.076
 7832SOL     OW24394   3.553   0.559   4.896
 7832SOL    HW124395   3.649   0.556   4.869
 7832SOL    HW224396   3.531   0.650   4.932
 7833SOL     OW24397   0.867   0.795   0.465
 7833SOL    HW124398   0.897   0.828   0.376
 7833SOL    HW224399   0.822   0.869   0.514
 7834SOL     OW24400   0.258   1.452   2.570
 7834SOL    HW124401   0.272   1.365   2.618
 7834SOL    HW224402   0.302   1.525   2.622
 7835SOL     OW24403   2.206   2.504   5.097
 7835SOL    HW124404   2.247   2.586   5.056
 7835SOL    HW224405   2.250   2.422   5.059
 7836SOL     OW24406   3.275   0.903   6.238
 7836SOL    HW124407   3.239   0.902   6.331
 7836SOL    HW224408   3.210   0.857   6.177
 7837SOL     OW24409   6.346   6.290   1.626
 7837SOL    HW124410   6.261   6.332   1.595
 7837SOL    HW224411   6.332   6.248   1.715
 7838SOL     OW24412   4.550   6.293   6.384
 7838SOL    HW124413   4.489   6.356   6.433
 7838SOL    HW224414   4.560   6.209   6.437
 7839SOL     OW24415   6.751   4.302   4.684
 7839SOL    HW124416   6.789   4.258   4.603
 7839SOL    HW224417   6.653   4.284   4.689
 7840SOL     OW24418   5.070   3.830   3.837
 7840SOL    HW124419   5.139   3.867   3.776
 7840SOL    HW224420   5.061   3.731   3.822
 7841SOL     OW24421   5.576   1.636   6.645
 7841SOL    HW124422   5.557   1.581   6.564
 7841SOL    HW224423   5.644   1.590   6.701
 7842SOL     OW24424   1.217   1.164   3.465
 7842SOL    HW124425   1.240   1.158   3.562
 7842SOL    HW224426   1.168   1.249   3.448
 7843SOL     OW24427   5.890   4.648   1.673
 7843SOL    HW124428   5.957   4.576   1.689
 7843SOL    HW224429   5.803   4.608   1.647
 7844SOL     OW24430   4.389   0.526   3.814
 7844SOL    HW124431   4.395   0.514   3.913
 7844SOL    HW224432   4.402   0.438   3.768
 7845SOL     OW24433   0.610   0.959   4.167
 7845SOL    HW124434   0.593   0.876   4.220
 7845SOL    HW224435   0.675   0.940   4.094
 7846SOL     OW24436   2.131   0.296   1.714
 7846SOL    HW124437   2.088   0.358   1.648
 7846SOL    HW224438   2.204   0.246   1.669
 7847SOL     OW24439   0.360   1.840   1.156
 7847SOL    HW124440   0.351   1.745   1.186
 7847SOL    HW224441   0.302   1.855   1.077
 7848SOL     OW24442   3.020   4.314   1.154
 7848SOL    HW124443   3.071   4.232   1.128
 7848SOL    HW224444   3.028   4.382   1.081
 7849SOL     OW24445   5.759   4.090   4.475
 7849SOL    HW124446   5.664   4.084   4.445
 7849SOL    HW224447   5.763   4.137   4.564
 7850SOL     OW24448   0.503   0.731   3.793
 7850SOL    HW124449   0.580   0.689   3.840
 7850SOL    HW224450   0.512   0.719   3.695
 7851SOL     OW24451   6.803   6.668   0.645
 7851SOL    HW124452   6.840   6.607   0.576
 7851SOL    HW224453   6.826   6.634   0.736
 7852SOL     OW24454   2.979   6.654   6.395
 7852SOL    HW124455   2.969   6.704   6.481
 7852SOL    HW224456   2.973   6.556   6.413
 7853SOL     OW24457   3.994   1.380   1.294
 7853SOL    HW124458   4.037   1.343   1.212
 7853SOL    HW224459   3.904   1.338   1.306
 7854SOL     OW24460   3.634   4.400   0.894
 7854SOL    HW124461   3.643   4.331   0.966
 7854SOL    HW224462   3.724   4.440   0.875
 7855SOL     OW24463   4.389   5.423   5.962
 7855SOL    HW124464   4.320   5.383   6.023
 7855SOL    HW224465   4.389   5.374   5.875
 7856SOL     OW24466   6.233   4.616   4.088
 7856SOL    HW124467   6.302   4.612   4.161
 7856SOL    HW224468   6.231   4.529   4.039
 7857SOL     OW24469   7.004   2.659   5.802
 7857SOL    HW124470   7.018   2.701   5.712
 7857SOL    HW224471   6.931   2.708   5.850
 7858SOL     OW24472   5.266   5.194   3.788
 7858SOL    HW124473   5.345   5.134   3.781
 7858SOL    HW224474   5.182   5.140   3.777
 7859SOL     OW24475   6.740   4.250   5.904
 7859SOL    HW124476   6.766   4.251   5.808
 7859SOL    HW224477   6.645   4.222   5.913
 7860SOL     OW24478   3.863   6.023   2.538
 7860SOL    HW124479   3.766   6.026   2.562
 7860SOL    HW224480   3.883   5.937   2.490
 7861SOL     OW24481   4.290   5.771   1.959
 7861SOL    HW124482   4.385   5.786   1.929
 7861SOL    HW224483   4.283   5.681   2.002
 7862SOL     OW24484   2.816   4.285   1.667
 7862SOL    HW124485   2.859   4.354   1.726
 7862SOL    HW224486   2.815   4.318   1.573
 7863SOL     OW24487   0.264   5.863   3.731
 7863SOL    HW124488   0.256   5.911   3.644
 7863SOL    HW224489   0.349   5.890   3.776
 7864SOL     OW24490   6.821   5.920   5.927
 7864SOL    HW124491   6.862   5.859   5.994
 7864SOL    HW224492   6.877   6.002   5.917
 7865SOL     OW24493   4.540   6.609   4.140
 7865SOL    HW124494   4.508   6.672   4.069
 7865SOL    HW224495   4.539   6.515   4.104
 7866SOL     OW24496   2.533   2.124   1.235
 7866SOL    HW124497   2.614   2.067   1.248
 7866SOL    HW224498   2.506   2.164   1.322
 7867SOL     OW24499   5.879   5.019   2.901
 7867SOL    HW124500   5.918   4.973   2.821
 7867SOL    HW224501   5.792   5.061   2.876
 7868SOL     OW24502   5.232   6.897   2.785
 7868SOL    HW124503   5.322   6.863   2.756
 7868SOL    HW224504   5.238   6.934   2.877
 7869SOL     OW24505   6.329   3.842   0.848
 7869SOL    HW124506   6.395   3.804   0.914
 7869SOL    HW224507   6.371   3.845   0.758
 7870SOL     OW24508   5.446   6.196   3.759
 7870SOL    HW124509   5.478   6.181   3.852
 7870SOL    HW224510   5.524   6.212   3.699
 7871SOL     OW24511   6.044   4.312   3.304
 7871SOL    HW124512   6.085   4.222   3.300
 7871SOL    HW224513   5.962   4.310   3.361
 7872SOL     OW24514   1.003   4.303   1.781
 7872SOL    HW124515   0.911   4.303   1.741
 7872SOL    HW224516   1.053   4.383   1.748
 7873SOL     OW24517   5.698   0.152   5.578
 7873SOL    HW124518   5.703   0.111   5.669
 7873SOL    HW224519   5.767   0.112   5.519
 7874SOL     OW24520   6.101   1.146   6.904
 7874SOL    HW124521   6.052   1.175   6.986
 7874SOL    HW224522   6.194   1.119   6.928
 7875SOL     OW24523   4.065   3.535   6.568
 7875SOL    HW124524   4.082   3.593   6.647
 7875SOL    HW224525   3.998   3.580   6.508
 7876SOL     OW24526   6.950   6.491   4.750
 7876SOL    HW124527   6.945   6.589   4.735
 7876SOL    HW224528   0.009   6.469   4.807
 7877SOL     OW24529   0.664   2.880   2.540
 7877SOL    HW124530   0.656   2.937   2.458
 7877SOL    HW224531   0.753   2.836   2.541
 7878SOL     OW24532   4.704   5.003   3.798
 7878SOL    HW124533   4.717   4.943   3.719
 7878SOL    HW224534   4.611   5.038   3.799
 7879SOL     OW24535   4.356   6.188   3.218
 7879SOL    HW124536   4.323   6.119   3.283
 7879SOL    HW224537   4.411   6.142   3.148
 7880SOL     OW24538   0.286   6.103   1.505
 7880SOL    HW124539   0.371   6.107   1.557
 7880SOL    HW224540   0.294   6.158   1.422
 7881SOL     OW24541   6.970   3.495   4.719
 7881SOL    HW124542   6.887   3.440   4.731
 7881SOL    HW224543   7.005   3.483   4.626
 7882SOL     OW24544   1.895   2.158   3.578
 7882SOL    HW124545   1.926   2.225   3.646
 7882SOL    HW224546   1.795   2.157   3.575
 7883SOL     OW24547   1.667   0.321   1.294
 7883SOL    HW124548   1.606   0.263   1.347
 7883SOL    HW224549   1.613   0.382   1.236
 7884SOL     OW24550   1.185   4.067   3.535
 7884SOL    HW124551   1.217   4.010   3.611
 7884SOL    HW224552   1.227   4.035   3.450
 7885SOL     OW24553   5.673   5.996   2.893
 7885SOL    HW124554   5.714   5.915   2.852
 7885SOL    HW224555   5.574   5.984   2.899
 7886SOL     OW24556   5.017   3.815   1.100
 7886SOL    HW124557   4.939   3.875   1.117
 7886SOL    HW224558   5.013   3.736   1.160
 7887SOL     OW24559   3.215   2.821   5.106
 7887SOL    HW124560   3.198   2.881   5.184
 7887SOL    HW224561   3.178   2.730   5.125
 7888SOL     OW24562   0.608   0.611   4.841
 7888SOL    HW124563   0.567   0.531   4.885
 7888SOL    HW224564   0.693   0.585   4.796
 7889SOL     OW24565   0.612   5.290   6.389
 7889SOL    HW124566   0.676   5.231   6.438
 7889SOL    HW224567   0.552   5.335   6.455
 7890SOL     OW24568   1.120   3.292   4.029
 7890SOL    HW124569   1.174   3.220   4.073
 7890SOL    HW224570   1.101   3.266   3.935
 7891SOL     OW24571   1.121   3.526   4.456
 7891SOL    HW124572   1.024   3.523   4.435
 7891SOL    HW224573   1.174   3.511   4.373
 7892SOL     OW24574   1.338   2.184   4.311
 7892SOL    HW124575   1.265   2.216   4.251
 7892SOL    HW224576   1.391   2.112   4.265
 7893SOL     OW24577   5.738   5.975   2.472
 7893SOL    HW124578   5.645   5.946   2.491
 7893SOL    HW224579   5.756   6.062   2.518
 7894SOL     OW24580   3.168   0.999   0.613
 7894SOL    HW124581   3.135   1.090   0.590
 7894SOL    HW224582   3.228   1.005   0.693
 7895SOL     OW24583   3.810   6.323   4.669
 7895SOL    HW124584   3.846   6.391   4.732
 7895SOL    HW224585   3.886   6.277   4.622
 7896SOL     OW24586   5.449   2.870   1.755
 7896SOL    HW124587   5.445   2.874   1.855
 7896SOL    HW224588   5.361   2.840   1.719
 7897SOL     OW24589   3.255   3.325   6.777
 7897SOL    HW124590   3.307   3.401   6.816
 7897SOL    HW224591   3.163   3.356   6.754
 7898SOL     OW24592   4.494   0.278   3.695
 7898SOL    HW124593   4.558   0.313   3.764
 7898SOL    HW224594   4.537   0.202   3.647
 7899SOL     OW24595   5.358   6.674   2.203
 7899SOL    HW124596   5.320   6.641   2.290
 7899SOL    HW224597   5.291   6.732   2.157
 7900SOL     OW24598   0.563   4.022   0.332
 7900SOL    HW124599   0.624   4.061   0.263
 7900SOL    HW224600   0.480   3.987   0.287
 7901SOL     OW24601   5.175   1.286   5.869
 7901SOL    HW124602   5.094   1.342   5.886
 7901SOL    HW224603   5.148   1.202   5.821
 7902SOL     OW24604   6.615   6.289   3.451
 7902SOL    HW124605   6.714   6.278   3.453
 7902SOL    HW224606   6.587   6.357   3.519
 7903SOL     OW24607   4.249   2.004   3.328
 7903SOL    HW124608   4.319   2.001   3.399
 7903SOL    HW224609   4.161   2.030   3.369
 7904SOL     OW24610   6.039   0.635   3.682
 7904SOL    HW124611   6.118   0.574   3.687
 7904SOL    HW224612   5.957   0.586   3.710
 7905SOL     OW24613   5.792   1.491   0.496
 7905SOL    HW124614   5.695   1.517   0.492
 7905SOL    HW224615   5.824   1.495   0.590
 7906SOL     OW24616   1.052   5.751   0.675
 7906SOL    HW124617   1.088   5.764   0.767
 7906SOL    HW224618   1.117   5.698   0.621
 7907SOL     OW24619   5.889   0.925   3.140
 7907SOL    HW124620   5.804   0.915   3.088
 7907SOL    HW224621   5.964   0.882   3.090
 7908SOL     OW24622   1.099   1.678   6.470
 7908SOL    HW124623   1.080   1.638   6.381
 7908SOL    HW224624   1.151   1.763   6.459
 7909SOL     OW24625   4.954   4.150   3.564
 7909SOL    HW124626   5.044   4.192   3.565
 7909SOL    HW224627   4.885   4.218   3.590
 7910SOL     OW24628   1.517   3.234   1.021
 7910SOL    HW124629   1.574   3.210   1.099
 7910SOL    HW224630   1.424   3.199   1.035
 7911SOL     OW24631   0.611   4.076   1.149
 7911SOL    HW124632   0.655   4.087   1.060
 7911SOL    HW224633   0.654   4.137   1.216
 7912SOL     OW24634   5.099   4.116   0.652
 7912SOL    HW124635   5.101   4.016   0.648
 7912SOL    HW224636   5.026   4.145   0.715
 7913SOL     OW24637   1.533   4.682   0.835
 7913SOL    HW124638   1.520   4.727   0.747
 7913SOL    HW224639   1.495   4.739   0.908
 7914SOL     OW24640   0.203   4.236   0.318
 7914SOL    HW124641   0.179   4.328   0.286
 7914SOL    HW224642   0.244   4.184   0.242
 7915SOL     OW24643   4.620   1.667   2.851
 7915SOL    HW124644   4.587   1.759   2.830
 7915SOL    HW224645   4.551   1.618   2.905
 7916SOL     OW24646   0.686   0.111   5.076
 7916SOL    HW124647   0.698   0.117   5.175
 7916SOL    HW224648   0.616   0.043   5.055
 7917SOL     OW24649   4.206   2.844   5.509
 7917SOL    HW124650   4.192   2.880   5.601
 7917SOL    HW224651   4.187   2.916   5.442
 7918SOL     OW24652   0.368   0.974   4.954
 7918SOL    HW124653   0.362   0.978   5.053
 7918SOL    HW224654   0.461   0.951   4.927
 7919SOL     OW24655   1.229   5.030   1.942
 7919SOL    HW124656   1.269   4.982   1.863
 7919SOL    HW224657   1.130   5.027   1.936
 7920SOL     OW24658   4.946   0.911   1.925
 7920SOL    HW124659   4.906   0.999   1.900
 7920SOL    HW224660   4.972   0.911   2.021
 7921SOL     OW24661   5.813   0.687   1.536
 7921SOL    HW124662   5.857   0.605   1.572
 7921SOL    HW224663   5.832   0.696   1.439
 7922SOL     OW24664   0.434   6.174   0.149
 7922SOL    HW124665   0.433   6.218   0.059
 7922SOL    HW224666   0.502   6.217   0.207
 7923SOL     OW24667   3.372   1.693   6.481
 7923SOL    HW124668   3.288   1.726   6.524
 7923SOL    HW224669   3.449   1.706   6.543
 7924SOL     OW24670   4.852   0.194   1.736
 7924SOL    HW124671   4.790   0.195   1.815
 7924SOL    HW224672   4.944   0.219   1.766
 7925SOL     OW24673   1.418   6.757   0.846
 7925SOL    HW124674   1.468   6.815   0.782
 7925SOL    HW224675   1.320   6.774   0.835
 7926SOL     OW24676   4.910   1.358   6.594
 7926SOL    HW124677   4.972   1.434   6.612
 7926SOL    HW224678   4.946   1.275   6.637
 7927SOL     OW24679   4.943   6.936   1.694
 7927SOL    HW124680   4.911   6.886   1.774
 7927SOL    HW224681   4.916   0.012   1.701
 7928SOL     OW24682   0.401   1.663   3.862
 7928SOL    HW124683   0.384   1.755   3.898
 7928SOL    HW224684   0.422   1.668   3.765
 7929SOL     OW24685   4.326   3.875   6.132
 7929SOL    HW124686   4.273   3.791   6.147
 7929SOL    HW224687   4.360   3.909   6.220
 7930SOL     OW24688   4.069   5.411   6.572
 7930SOL    HW124689   4.086   5.468   6.653
 7930SOL    HW224690   3.996   5.451   6.517
 7931SOL     OW24691   4.211   2.662   0.487
 7931SOL    HW124692   4.233   2.619   0.400
 7931SOL    HW224693   4.117   2.695   0.486
 7932SOL     OW24694   1.008   4.898   0.835
 7932SOL    HW124695   1.055   4.983   0.808
 7932SOL    HW224696   1.005   4.892   0.935
 7933SOL     OW24697   6.751   0.291   5.828
 7933SOL    HW124698   6.821   0.286   5.900
 7933SOL    HW224699   6.677   0.350   5.858
 7934SOL     OW24700   1.426   4.846   0.139
 7934SOL    HW124701   1.520   4.840   0.171
 7934SOL    HW224702   1.414   4.929   0.085
 7935SOL     OW24703   5.192   5.320   2.293
 7935SOL    HW124704   5.289   5.345   2.287
 7935SOL    HW224705   5.182   5.238   2.350
 7936SOL     OW24706   2.903   5.507   3.450
 7936SOL    HW124707   2.939   5.433   3.394
 7936SOL    HW224708   2.905   5.593   3.399
 7937SOL     OW24709   1.915   5.840   4.267
 7937SOL    HW124710   1.819   5.856   4.242
 7937SOL    HW224711   1.953   5.769   4.208
 7938SOL     OW24712   5.654   5.725   5.136
 7938SOL    HW124713   5.739   5.774   5.158
 7938SOL    HW224714   5.586   5.790   5.103
 7939SOL     OW24715   0.936   1.731   5.786
 7939SOL    HW124716   0.900   1.655   5.841
 7939SOL    HW224717   0.975   1.696   5.701
 7940SOL     OW24718   3.508   1.824   2.641
 7940SOL    HW124719   3.520   1.841   2.543
 7940SOL    HW224720   3.549   1.736   2.664
 7941SOL     OW24721   5.089   6.659   2.822
 7941SOL    HW124722   5.096   6.570   2.778
 7941SOL    HW224723   5.151   6.723   2.776
 7942SOL     OW24724   1.132   3.101   3.138
 7942SOL    HW124725   1.221   3.099   3.093
 7942SOL    HW224726   1.141   3.146   3.227
 7943SOL     OW24727   0.720   4.211   5.567
 7943SOL    HW124728   0.816   4.197   5.592
 7943SOL    HW224729   0.663   4.145   5.616
 7944SOL     OW24730   0.399   2.996   1.756
 7944SOL    HW124731   0.457   2.998   1.838
 7944SOL    HW224732   0.454   3.019   1.676
 7945SOL     OW24733   6.349   5.425   2.749
 7945SOL    HW124734   6.314   5.511   2.785
 7945SOL    HW224735   6.429   5.396   2.801
 7946SOL     OW24736   3.551   6.685   6.099
 7946SOL    HW124737   3.456   6.660   6.078
 7946SOL    HW224738   3.606   6.602   6.104
 7947SOL     OW24739   2.266   1.977   5.117
 7947SOL    HW124740   2.297   1.980   5.212
 7947SOL    HW224741   2.215   1.892   5.101
 7948SOL     OW24742   0.867   5.438   0.804
 7948SOL    HW124743   0.965   5.440   0.784
 7948SOL    HW224744   0.831   5.346   0.788
 7949SOL     OW24745   4.459   4.155   6.178
 7949SOL    HW124746   4.471   4.151   6.278
 7949SOL    HW224747   4.370   4.194   6.157
 7950SOL     OW24748   4.550   5.978   4.658
 7950SOL    HW124749   4.485   5.979   4.734
 7950SOL    HW224750   4.642   5.998   4.693
 7951SOL     OW24751   2.111   5.217   2.408
 7951SOL    HW124752   2.158   5.129   2.406
 7951SOL    HW224753   2.046   5.223   2.332
 7952SOL     OW24754   6.837   3.438   6.990
 7952SOL    HW124755   6.882   3.510   6.936
 7952SOL    HW224756   6.831   3.467   0.066
 7953SOL     OW24757   4.346   2.124   1.757
 7953SOL    HW124758   4.321   2.139   1.662
 7953SOL    HW224759   4.430   2.175   1.778
 7954SOL     OW24760   3.749   4.144   6.387
 7954SOL    HW124761   3.778   4.094   6.306
 7954SOL    HW224762   3.653   4.169   6.379
 7955SOL     OW24763   2.224   1.373   6.737
 7955SOL    HW124764   2.254   1.410   6.825
 7955SOL    HW224765   2.135   1.413   6.713
 7956SOL     OW24766   5.739   1.401   1.777
 7956SOL    HW124767   5.742   1.380   1.679
 7956SOL    HW224768   5.701   1.324   1.827
 7957SOL     OW24769   2.027   1.240   6.919
 7957SOL    HW124770   2.092   1.282   6.857
 7957SOL    HW224771   2.021   1.142   6.901
 7958SOL     OW24772   5.492   3.900   6.008
 7958SOL    HW124773   5.561   3.831   5.986
 7958SOL    HW224774   5.401   3.866   5.984
 7959SOL     OW24775   5.148   0.064   6.804
 7959SOL    HW124776   5.104   0.064   6.893
 7959SOL    HW224777   5.196   6.997   6.790
 7960SOL     OW24778   0.954   1.202   6.019
 7960SOL    HW124779   0.925   1.208   5.924
 7960SOL    HW224780   0.888   1.251   6.077
 7961SOL     OW24781   6.459   0.044   0.543
 7961SOL    HW124782   6.366   0.019   0.515
 7961SOL    HW224783   6.519   6.984   0.537
 7962SOL     OW24784   0.439   1.890   5.886
 7962SOL    HW124785   0.492   1.975   5.874
 7962SOL    HW224786   0.375   1.902   5.962
 7963SOL     OW24787   6.388   5.682   4.135
 7963SOL    HW124788   6.451   5.734   4.194
 7963SOL    HW224789   6.440   5.624   4.073
 7964SOL     OW24790   5.867   3.017   2.168
 7964SOL    HW124791   5.812   2.934   2.157
 7964SOL    HW224792   5.817   3.084   2.223
 7965SOL     OW24793   3.935   2.022   5.989
 7965SOL    HW124794   4.023   2.028   5.944
 7965SOL    HW224795   3.926   1.933   6.034
 7966SOL     OW24796   3.499   2.876   5.715
 7966SOL    HW124797   3.530   2.943   5.647
 7966SOL    HW224798   3.512   2.784   5.679
 7967SOL     OW24799   1.897   5.651   1.842
 7967SOL    HW124800   1.929   5.739   1.805
 7967SOL    HW224801   1.954   5.626   1.921
 7968SOL     OW24802   6.121   2.192   5.072
 7968SOL    HW124803   6.179   2.136   5.131
 7968SOL    HW224804   6.126   2.287   5.101
 7969SOL     OW24805   5.245   6.097   0.660
 7969SOL    HW124806   5.310   6.173   0.656
 7969SOL    HW224807   5.293   6.014   0.687
 7970SOL     OW24808   5.859   3.503   2.561
 7970SOL    HW124809   5.834   3.427   2.501
 7970SOL    HW224810   5.935   3.553   2.521
 7971SOL     OW24811   2.913   0.836   1.604
 7971SOL    HW124812   2.844   0.816   1.674
 7971SOL    HW224813   2.980   0.901   1.640
 7972SOL     OW24814   3.423   3.482   2.163
 7972SOL    HW124815   3.432   3.518   2.070
 7972SOL    HW224816   3.383   3.391   2.161
 7973SOL     OW24817   5.442   4.083   4.569
 7973SOL    HW124818   5.368   4.147   4.549
 7973SOL    HW224819   5.461   4.028   4.489
 7974SOL     OW24820   6.176   0.731   6.037
 7974SOL    HW124821   6.110   0.657   6.030
 7974SOL    HW224822   6.130   0.815   6.066
 7975SOL     OW24823   5.188   0.350   0.870
 7975SOL    HW124824   5.134   0.361   0.787
 7975SOL    HW224825   5.187   0.253   0.898
 7976SOL     OW24826   1.062   0.236   6.124
 7976SOL    HW124827   1.129   0.293   6.171
 7976SOL    HW224828   1.036   0.159   6.182
 7977SOL     OW24829   4.288   5.958   2.577
 7977SOL    HW124830   4.367   5.902   2.552
 7977SOL    HW224831   4.222   5.958   2.503
 7978SOL     OW24832   0.218   2.598   6.588
 7978SOL    HW124833   0.311   2.569   6.612
 7978SOL    HW224834   0.187   2.668   6.652
 7979SOL     OW24835   1.975   4.286   5.769
 7979SOL    HW124836   1.923   4.201   5.764
 7979SOL    HW224837   2.073   4.266   5.775
 7980SOL     OW24838   2.806   5.518   6.772
 7980SOL    HW124839   2.718   5.507   6.819
 7980SOL    HW224840   2.790   5.524   6.673
 7981SOL     OW24841   0.531   5.293   1.628
 7981SOL    HW124842   0.557   5.199   1.648
 7981SOL    HW224843   0.436   5.308   1.656
 7982SOL     OW24844   1.368   1.819   6.035
 7982SOL    HW124845   1.425   1.766   5.973
 7982SOL    HW224846   1.409   1.909   6.050
 7983SOL     OW24847   6.371   2.094   1.266
 7983SOL    HW124848   6.348   2.163   1.198
 7983SOL    HW224849   6.299   2.025   1.269
 7984SOL     OW24850   0.399   1.185   0.329
 7984SOL    HW124851   0.407   1.094   0.288
 7984SOL    HW224852   0.489   1.229   0.332
 7985SOL     OW24853   2.550   1.899   4.752
 7985SOL    HW124854   2.596   1.910   4.664
 7985SOL    HW224855   2.553   1.802   4.779
 7986SOL     OW24856   3.078   0.774   6.052
 7986SOL    HW124857   3.126   0.775   5.964
 7986SOL    HW224858   2.980   0.763   6.036
 7987SOL     OW24859   1.827   3.274   0.615
 7987SOL    HW124860   1.789   3.290   0.706
 7987SOL    HW224861   1.926   3.281   0.619
 7988SOL     OW24862   1.420   0.945   2.578
 7988SOL    HW124863   1.483   0.894   2.636
 7988SOL    HW224864   1.468   1.020   2.534
 7989SOL     OW24865   2.597   3.429   0.201
 7989SOL    HW124866   2.540   3.358   0.161
 7989SOL    HW224867   2.557   3.519   0.181
 7990SOL     OW24868   2.607   5.313   4.454
 7990SOL    HW124869   2.564   5.246   4.393
 7990SOL    HW224870   2.537   5.376   4.489
 7991SOL     OW24871   6.005   1.760   3.909
 7991SOL    HW124872   5.918   1.767   3.860
 7991SOL    HW224873   5.987   1.756   4.007
 7992SOL     OW24874   1.341   0.546   0.293
 7992SOL    HW124875   1.305   0.501   0.375
 7992SOL    HW224876   1.265   0.563   0.229
 7993SOL     OW24877   0.097   0.126   1.387
 7993SOL    HW124878   0.146   0.050   1.345
 7993SOL    HW224879   0.112   0.126   1.486
 7994SOL     OW24880   4.637   0.479   3.053
 7994SOL    HW124881   4.602   0.521   2.969
 7994SOL    HW224882   4.596   0.523   3.133
 7995SOL     OW24883   5.856   5.379   3.276
 7995SOL    HW124884   5.790   5.351   3.346
 7995SOL    HW224885   5.867   5.479   3.279
 7996SOL     OW24886   3.546   6.206   4.729
 7996SOL    HW124887   3.639   6.225   4.698
 7996SOL    HW224888   3.510   6.127   4.680
 7997SOL     OW24889   0.098   1.921   0.236
 7997SOL    HW124890   0.070   1.902   0.330
 7997SOL    HW224891   0.136   2.013   0.230
 7998SOL     OW24892   3.405   6.812   6.823
 7998SOL    HW124893   3.419   6.853   6.913
 7998SOL    HW224894   3.310   6.784   6.813
 7999SOL     OW24895   0.842   0.798   5.803
 7999SOL    HW124896   0.793   0.718   5.837
 7999SOL    HW224897   0.929   0.769   5.762
 8000SOL     OW24898   5.865   6.531   6.009
 8000SOL    HW124899   5.959   6.563   6.016
 8000SOL    HW224900   5.849   6.496   5.917
 8001SOL     OW24901   4.199   5.771   1.484
 8001SOL    HW124902   4.293   5.781   1.454
 8001SOL    HW224903   4.195   5.768   1.584
 8002SOL     OW24904   0.967   0.643   5.477
 8002SOL    HW124905   0.885   0.636   5.534
 8002SOL    HW224906   0.941   0.671   5.385
 8003SOL     OW24907   2.158   5.477   1.399
 8003SOL    HW124908   2.215   5.538   1.454
 8003SOL    HW224909   2.068   5.468   1.442
 8004SOL     OW24910   2.132   3.529   3.315
 8004SOL    HW124911   2.098   3.559   3.226
 8004SOL    HW224912   2.173   3.439   3.307
 8005SOL     OW24913   2.174   0.337   3.547
 8005SOL    HW124914   2.146   0.241   3.547
 8005SOL    HW224915   2.174   0.373   3.641
 8006SOL     OW24916   2.404   6.038   5.208
 8006SOL    HW124917   2.451   6.126   5.207
 8006SOL    HW224918   2.468   5.965   5.183
 8007SOL     OW24919   6.036   1.944   6.420
 8007SOL    HW124920   6.036   1.979   6.514
 8007SOL    HW224921   5.948   1.963   6.377
 8008SOL     OW24922   3.370   5.750   6.627
 8008SOL    HW124923   3.300   5.771   6.558
 8008SOL    HW224924   3.361   5.814   6.703
 8009SOL     OW24925   4.626   1.050   0.303
 8009SOL    HW124926   4.618   1.110   0.224
 8009SOL    HW224927   4.717   1.060   0.343
 8010SOL     OW24928   2.557   1.993   5.154
 8010SOL    HW124929   2.485   2.052   5.119
 8010SOL    HW224930   2.579   2.018   5.248
 8011SOL     OW24931   3.661   2.015   1.274
 8011SOL    HW124932   3.657   2.058   1.364
 8011SOL    HW224933   3.597   2.060   1.212
 8012SOL     OW24934   1.318   2.851   6.846
 8012SOL    HW124935   1.385   2.895   6.786
 8012SOL    HW224936   1.340   2.754   6.854
 8013SOL     OW24937   1.754   4.056   3.328
 8013SOL    HW124938   1.784   4.026   3.238
 8013SOL    HW224939   1.666   4.103   3.321
 8014SOL     OW24940   2.222   0.277   4.520
 8014SOL    HW124941   2.162   0.197   4.515
 8014SOL    HW224942   2.314   0.249   4.545
 8015SOL     OW24943   1.768   0.723   6.091
 8015SOL    HW124944   1.791   0.808   6.138
 8015SOL    HW224945   1.848   0.689   6.042
 8016SOL     OW24946   3.824   1.241   5.005
 8016SOL    HW124947   3.818   1.149   5.044
 8016SOL    HW224948   3.733   1.271   4.976
 8017SOL     OW24949   6.555   6.807   6.917
 8017SOL    HW124950   6.521   6.749   6.842
 8017SOL    HW224951   6.604   6.885   6.878
 8018SOL     OW24952   3.156   2.649   0.466
 8018SOL    HW124953   3.204   2.733   0.493
 8018SOL    HW224954   3.163   2.638   0.367
 8019SOL     OW24955   1.850   4.474   1.393
 8019SOL    HW124956   1.818   4.417   1.317
 8019SOL    HW224957   1.945   4.501   1.375
 8020SOL     OW24958   6.627   0.113   6.369
 8020SOL    HW124959   6.555   0.177   6.397
 8020SOL    HW224960   6.652   0.056   6.447
 8021SOL     OW24961   1.878   3.003   1.772
 8021SOL    HW124962   1.813   3.078   1.783
 8021SOL    HW224963   1.830   2.915   1.775
 8022SOL     OW24964   6.504   0.533   1.994
 8022SOL    HW124965   6.417   0.506   2.035
 8022SOL    HW224966   6.491   0.552   1.897
 8023SOL     OW24967   5.893   4.204   2.572
 8023SOL    HW124968   5.834   4.182   2.650
 8023SOL    HW224969   5.974   4.252   2.605
 8024SOL     OW24970   1.340   4.912   6.101
 8024SOL    HW124971   1.343   4.946   6.006
 8024SOL    HW224972   1.433   4.898   6.134
 8025SOL     OW24973   1.475   5.397   0.956
 8025SOL    HW124974   1.534   5.377   1.034
 8025SOL    HW224975   1.477   5.320   0.892
 8026SOL     OW24976   6.830   4.736   0.956
 8026SOL    HW124977   6.773   4.654   0.960
 8026SOL    HW224978   6.782   4.813   0.998
 8027SOL     OW24979   3.260   6.663   6.048
 8027SOL    HW124980   3.186   6.598   6.063
 8027SOL    HW224981   3.251   6.739   6.112
 8028SOL     OW24982   3.450   4.878   5.162
 8028SOL    HW124983   3.469   4.856   5.066
 8028SOL    HW224984   3.352   4.869   5.179
 8029SOL     OW24985   5.002   2.300   1.986
 8029SOL    HW124986   4.961   2.210   1.973
 8029SOL    HW224987   5.070   2.296   2.059
 8030SOL     OW24988   5.932   5.450   1.173
 8030SOL    HW124989   6.007   5.399   1.216
 8030SOL    HW224990   5.845   5.422   1.213
 8031SOL     OW24991   6.942   6.297   2.992
 8031SOL    HW124992   6.898   6.300   3.081
 8031SOL    HW224993   6.872   6.296   2.920
 8032SOL     OW24994   5.198   3.794   1.515
 8032SOL    HW124995   5.191   3.855   1.594
 8032SOL    HW224996   5.292   3.794   1.481
 8033SOL     OW24997   4.599   3.046   6.860
 8033SOL    HW124998   4.550   3.106   6.923
 8033SOL    HW224999   4.697   3.059   6.870
 8034SOL     OW25000   4.815   6.708   5.688
 8034SOL    HW125001   4.834   6.626   5.743
 8034SOL    HW225002   4.851   6.695   5.595
 8035SOL     OW25003   5.187   2.014   2.312
 8035SOL    HW125004   5.114   1.948   2.295
 8035SOL    HW225005   5.267   1.992   2.256
 8036SOL     OW25006   6.875   3.439   3.685
 8036SOL    HW125007   6.959   3.478   3.647
 8036SOL    HW225008   6.804   3.510   3.688
 8037SOL     OW25009   1.383   3.763   6.879
 8037SOL    HW125010   1.396   3.675   6.926
 8037SOL    HW225011   1.290   3.796   6.894
 8038SOL     OW25012   4.346   6.750   3.022
 8038SOL    HW125013   4.397   6.827   2.983
 8038SOL    HW225014   4.282   6.715   2.954
 8039SOL     OW25015   6.862   1.881   4.489
 8039SOL    HW125016   6.886   1.817   4.416
 8039SOL    HW225017   6.813   1.959   4.450
 8040SOL     OW25018   1.495   6.384   6.771
 8040SOL    HW125019   1.469   6.430   6.686
 8040SOL    HW225020   1.451   6.294   6.774
 8041SOL     OW25021   3.090   1.058   2.770
 8041SOL    HW125022   3.061   1.118   2.695
 8041SOL    HW225023   3.030   0.978   2.773
 8042SOL     OW25024   4.555   4.077   5.570
 8042SOL    HW125025   4.539   4.047   5.476
 8042SOL    HW225026   4.604   4.164   5.569
 8043SOL     OW25027   3.628   5.092   0.367
 8043SOL    HW125028   3.555   5.086   0.435
 8043SOL    HW225029   3.655   5.000   0.338
 8044SOL     OW25030   3.762   3.457   0.471
 8044SOL    HW125031   3.765   3.435   0.568
 8044SOL    HW225032   3.836   3.521   0.449
 8045SOL     OW25033   6.255   2.145   2.413
 8045SOL    HW125034   6.157   2.135   2.395
 8045SOL    HW225035   6.273   2.131   2.511
 8046SOL     OW25036   0.625   4.621   2.089
 8046SOL    HW125037   0.671   4.552   2.033
 8046SOL    HW225038   0.678   4.705   2.089
 8047SOL     OW25039   3.222   6.553   6.620
 8047SOL    HW125040   3.180   6.473   6.578
 8047SOL    HW225041   3.319   6.557   6.596
 8048SOL     OW25042   3.068   2.327   0.325
 8048SOL    HW125043   3.129   2.393   0.281
 8048SOL    HW225044   2.990   2.375   0.366
 8049SOL     OW25045   0.512   6.837   0.318
 8049SOL    HW125046   0.535   6.749   0.359
 8049SOL    HW225047   0.416   6.837   0.290
 8050SOL     OW25048   1.842   3.453   3.773
 8050SOL    HW125049   1.758   3.486   3.730
 8050SOL    HW225050   1.908   3.427   3.702
 8051SOL     OW25051   5.000   6.451   4.852
 8051SOL    HW125052   5.095   6.436   4.827
 8051SOL    HW225053   4.984   6.413   4.944
 8052SOL     OW25054   2.832   2.201   1.175
 8052SOL    HW125055   2.802   2.110   1.204
 8052SOL    HW225056   2.825   2.265   1.252
 8053SOL     OW25057   3.198   3.099   5.285
 8053SOL    HW125058   3.213   3.181   5.341
 8053SOL    HW225059   3.272   3.090   5.219
 8054SOL     OW25060   6.859   4.225   4.436
 8054SOL    HW125061   6.914   4.299   4.398
 8054SOL    HW225062   6.916   4.145   4.451
 8055SOL     OW25063   6.670   0.519   5.587
 8055SOL    HW125064   6.627   0.606   5.563
 8055SOL    HW225065   6.725   0.531   5.670
 8056SOL     OW25066   3.235   0.498   4.858
 8056SOL    HW125067   3.331   0.516   4.877
 8056SOL    HW225068   3.220   0.399   4.855
 8057SOL     OW25069   2.465   2.611   2.791
 8057SOL    HW125070   2.547   2.601   2.736
 8057SOL    HW225071   2.391   2.556   2.752
 8058SOL     OW25072   2.929   6.646   2.347
 8058SOL    HW125073   2.998   6.685   2.285
 8058SOL    HW225074   2.902   6.556   2.313
 8059SOL     OW25075   2.832   0.954   5.141
 8059SOL    HW125076   2.852   0.987   5.233
 8059SOL    HW225077   2.735   0.933   5.133
 8060SOL     OW25078   0.400   2.425   6.370
 8060SOL    HW125079   0.423   2.455   6.463
 8060SOL    HW225080   0.347   2.496   6.325
 8061SOL     OW25081   0.715   0.141   2.232
 8061SOL    HW125082   0.663   0.213   2.187
 8061SOL    HW225083   0.700   0.146   2.331
 8062SOL     OW25084   4.083   5.086   4.171
 8062SOL    HW125085   4.035   5.160   4.219
 8062SOL    HW225086   4.173   5.118   4.142
 8063SOL     OW25087   2.488   1.064   3.171
 8063SOL    HW125088   2.521   0.974   3.198
 8063SOL    HW225089   2.502   1.077   3.073
 8064SOL     OW25090   6.129   2.338   0.221
 8064SOL    HW125091   6.067   2.342   0.299
 8064SOL    HW225092   6.092   2.274   0.153
 8065SOL     OW25093   2.851   6.442   4.584
 8065SOL    HW125094   2.867   6.347   4.558
 8065SOL    HW225095   2.906   6.465   4.664
 8066SOL     OW25096   6.422   6.864   5.081
 8066SOL    HW125097   6.363   6.912   5.147
 8066SOL    HW225098   6.431   6.769   5.109
 8067SOL     OW25099   5.138   2.142   2.906
 8067SOL    HW125100   5.054   2.180   2.944
 8067SOL    HW225101   5.116   2.062   2.850
 8068SOL     OW25102   0.278   4.921   1.261
 8068SOL    HW125103   0.325   4.964   1.338
 8068SOL    HW225104   0.344   4.871   1.205
 8069SOL     OW25105   2.158   4.425   1.846
 8069SOL    HW125106   2.204   4.504   1.887
 8069SOL    HW225107   2.080   4.455   1.792
 8070SOL     OW25108   3.800   2.843   0.258
 8070SOL    HW125109   3.746   2.824   0.175
 8070SOL    HW225110   3.893   2.867   0.232
 8071SOL     OW25111   2.841   6.668   5.515
 8071SOL    HW125112   2.772   6.629   5.576
 8071SOL    HW225113   2.877   6.596   5.455
 8072SOL     OW25114   3.369   1.678   1.390
 8072SOL    HW125115   3.401   1.728   1.309
 8072SOL    HW225116   3.446   1.665   1.453
 8073SOL     OW25117   3.258   5.476   5.444
 8073SOL    HW125118   3.334   5.516   5.494
 8073SOL    HW225119   3.217   5.545   5.384
 8074SOL     OW25120   2.692   1.654   0.591
 8074SOL    HW125121   2.683   1.568   0.541
 8074SOL    HW225122   2.747   1.718   0.538
 8075SOL     OW25123   6.885   0.193   0.096
 8075SOL    HW125124   6.798   0.197   0.147
 8075SOL    HW225125   6.941   0.272   0.120
 8076SOL     OW25126   6.141   6.620   5.295
 8076SOL    HW125127   6.163   6.584   5.205
 8076SOL    HW225128   6.056   6.579   5.328
 8077SOL     OW25129   3.101   6.061   2.718
 8077SOL    HW125130   3.025   6.096   2.665
 8077SOL    HW225131   3.067   6.018   2.802
 8078SOL     OW25132   0.884   2.054   1.432
 8078SOL    HW125133   0.884   2.148   1.466
 8078SOL    HW225134   0.811   2.043   1.365
 8079SOL     OW25135   6.827   1.699   3.406
 8079SOL    HW125136   6.779   1.757   3.472
 8079SOL    HW225137   6.854   1.614   3.452
 8080SOL     OW25138   1.402   1.970   2.600
 8080SOL    HW125139   1.438   2.035   2.534
 8080SOL    HW225140   1.474   1.945   2.665
 8081SOL     OW25141   6.175   5.372   6.096
 8081SOL    HW125142   6.117   5.291   6.099
 8081SOL    HW225143   6.134   5.446   6.150
 8082SOL     OW25144   3.032   0.655   2.539
 8082SOL    HW125145   2.996   0.663   2.446
 8082SOL    HW225146   3.124   0.615   2.536
 8083SOL     OW25147   5.141   2.584   3.987
 8083SOL    HW125148   5.231   2.564   3.950
 8083SOL    HW225149   5.079   2.508   3.966
 8084SOL     OW25150   2.562   0.432   0.235
 8084SOL    HW125151   2.564   0.520   0.187
 8084SOL    HW225152   2.498   0.370   0.189
 8085SOL     OW25153   5.438   5.629   2.503
 8085SOL    HW125154   5.492   5.589   2.577
 8085SOL    HW225155   5.488   5.621   2.417
 8086SOL     OW25156   0.037   0.637   1.427
 8086SOL    HW125157   7.012   0.549   1.410
 8086SOL    HW225158   6.993   0.698   1.474
 8087SOL     OW25159   1.313   0.617   6.995
 8087SOL    HW125160   1.375   0.538   6.993
 8087SOL    HW225161   1.332   0.672   0.056
 8088SOL     OW25162   5.591   0.711   0.624
 8088SOL    HW125163   5.593   0.618   0.660
 8088SOL    HW225164   5.684   0.738   0.598
 8089SOL     OW25165   5.432   2.845   6.806
 8089SOL    HW125166   5.448   2.860   6.708
 8089SOL    HW225167   5.506   2.887   6.858
 8090SOL     OW25168   4.085   0.922   5.889
 8090SOL    HW125169   4.161   0.973   5.848
 8090SOL    HW225170   4.087   0.933   5.989
 8091SOL     OW25171   1.748   3.825   4.839
 8091SOL    HW125172   1.752   3.846   4.937
 8091SOL    HW225173   1.738   3.910   4.787
 8092SOL     OW25174   4.960   1.929   5.047
 8092SOL    HW125175   5.023   2.004   5.068
 8092SOL    HW225176   4.874   1.967   5.012
 8093SOL     OW25177   2.658   5.316   3.385
 8093SOL    HW125178   2.745   5.307   3.338
 8093SOL    HW225179   2.611   5.228   3.386
 8094SOL     OW25180   0.237   2.907   4.874
 8094SOL    HW125181   0.253   2.960   4.790
 8094SOL    HW225182   0.150   2.936   4.915
 8095SOL     OW25183   0.863   4.013   4.472
 8095SOL    HW125184   0.891   4.000   4.567
 8095SOL    HW225185   0.937   4.059   4.422
 8096SOL     OW25186   2.505   0.392   2.078
 8096SOL    HW125187   2.537   0.349   1.993
 8096SOL    HW225188   2.406   0.382   2.086
 8097SOL     OW25189   4.882   6.893   4.976
 8097SOL    HW125190   4.801   6.890   5.035
 8097SOL    HW225191   4.964   6.876   5.032
 8098SOL     OW25192   2.241   6.449   3.830
 8098SOL    HW125193   2.222   6.533   3.780
 8098SOL    HW225194   2.330   6.457   3.875
 8099SOL     OW25195   5.081   6.351   4.130
 8099SOL    HW125196   4.989   6.313   4.123
 8099SOL    HW225197   5.119   6.364   4.038
 8100SOL     OW25198   6.541   1.202   6.542
 8100SOL    HW125199   6.575   1.297   6.545
 8100SOL    HW225200   6.463   1.196   6.481
 8101SOL     OW25201   1.803   5.953   1.151
 8101SOL    HW125202   1.885   5.929   1.204
 8101SOL    HW225203   1.735   5.880   1.160
 8102SOL     OW25204   0.635   3.584   2.692
 8102SOL    HW125205   0.717   3.607   2.639
 8102SOL    HW225206   0.662   3.536   2.776
 8103SOL     OW25207   3.249   6.822   1.328
 8103SOL    HW125208   3.168   6.772   1.359
 8103SOL    HW225209   3.293   6.866   1.407
 8104SOL     OW25210   1.564   0.637   6.285
 8104SOL    HW125211   1.478   0.674   6.249
 8104SOL    HW225212   1.638   0.654   6.219
 8105SOL     OW25213   6.774   2.987   2.617
 8105SOL    HW125214   6.735   2.998   2.708
 8105SOL    HW225215   6.710   3.021   2.549
 8106SOL     OW25216   3.249   5.457   3.621
 8106SOL    HW125217   3.325   5.477   3.683
 8106SOL    HW225218   3.267   5.501   3.533
 8107SOL     OW25219   1.028   5.451   3.825
 8107SOL    HW125220   1.086   5.434   3.746
 8107SOL    HW225221   1.084   5.446   3.908
 8108SOL     OW25222   6.786   2.806   6.772
 8108SOL    HW125223   6.856   2.819   6.842
 8108SOL    HW225224   6.749   2.713   6.779
 8109SOL     OW25225   6.845   3.355   6.611
 8109SOL    HW125226   6.758   3.310   6.591
 8109SOL    HW225227   6.912   3.288   6.641
 8110SOL     OW25228   4.239   5.550   2.483
 8110SOL    HW125229   4.285   5.605   2.412
 8110SOL    HW225230   4.222   5.608   2.563
 8111SOL     OW25231   5.090   1.214   4.787
 8111SOL    HW125232   5.145   1.134   4.761
 8111SOL    HW225233   4.994   1.187   4.792
 8112SOL     OW25234   2.213   2.947   4.309
 8112SOL    HW125235   2.164   3.033   4.297
 8112SOL    HW225236   2.271   2.953   4.391
 8113SOL     OW25237   0.339   3.915   0.825
 8113SOL    HW125238   0.398   3.871   0.757
 8113SOL    HW225239   0.380   4.002   0.853
 8114SOL     OW25240   2.052   3.673   2.624
 8114SOL    HW125241   1.957   3.705   2.632
 8114SOL    HW225242   2.096   3.679   2.714
 8115SOL     OW25243   3.811   6.718   6.607
 8115SOL    HW125244   3.733   6.744   6.664
 8115SOL    HW225245   3.809   6.771   6.522
 8116SOL     OW25246   3.987   5.138   0.193
 8116SOL    HW125247   4.077   5.096   0.177
 8116SOL    HW225248   3.947   5.099   0.276
 8117SOL     OW25249   1.466   0.240   3.126
 8117SOL    HW125250   1.521   0.285   3.197
 8117SOL    HW225251   1.500   0.266   3.036
 8118SOL     OW25252   5.243   4.070   5.785
 8118SOL    HW125253   5.256   3.993   5.847
 8118SOL    HW225254   5.150   4.067   5.746
 8119SOL     OW25255   5.821   6.438   6.247
 8119SOL    HW125256   5.750   6.490   6.294
 8119SOL    HW225257   5.833   6.475   6.154
 8120SOL     OW25258   3.361   4.382   1.002
 8120SOL    HW125259   3.344   4.439   1.082
 8120SOL    HW225260   3.455   4.397   0.970
 8121SOL     OW25261   0.411   5.099   1.426
 8121SOL    HW125262   0.378   5.186   1.465
 8121SOL    HW225263   0.495   5.072   1.473
 8122SOL     OW25264   0.433   4.565   2.716
 8122SOL    HW125265   0.347   4.594   2.675
 8122SOL    HW225266   0.423   4.559   2.815
 8123SOL     OW25267   6.797   2.011   6.808
 8123SOL    HW125268   6.710   1.996   6.856
 8123SOL    HW225269   6.871   1.967   6.859
 8124SOL     OW25270   4.798   5.879   2.034
 8124SOL    HW125271   4.818   5.784   2.056
 8124SOL    HW225272   4.871   5.917   1.977
 8125SOL     OW25273   1.514   2.086   3.285
 8125SOL    HW125274   1.432   2.077   3.230
 8125SOL    HW225275   1.587   2.129   3.231
 8126SOL     OW25276   5.204   5.060   3.260
 8126SOL    HW125277   5.202   5.145   3.313
 8126SOL    HW225278   5.284   5.060   3.200
 8127SOL     OW25279   2.300   3.384   6.095
 8127SOL    HW125280   2.390   3.406   6.057
 8127SOL    HW225281   2.311   3.346   6.186
 8128SOL     OW25282   2.694   2.399   2.289
 8128SOL    HW125283   2.756   2.368   2.216
 8128SOL    HW225284   2.674   2.496   2.277
 8129SOL     OW25285   3.708   1.105   5.913
 8129SOL    HW125286   3.645   1.090   5.837
 8129SOL    HW225287   3.755   1.020   5.935
 8130SOL     OW25288   0.708   4.590   6.588
 8130SOL    HW125289   0.723   4.618   6.494
 8130SOL    HW225290   0.727   4.492   6.598
 8131SOL     OW25291   2.477   1.784   1.403
 8131SOL    HW125292   2.438   1.876   1.396
 8131SOL    HW225293   2.478   1.742   1.312
 8132SOL     OW25294   5.295   6.782   5.249
 8132SOL    HW125295   5.286   6.747   5.156
 8132SOL    HW225296   5.328   6.709   5.309
 8133SOL     OW25297   3.157   5.140   2.410
 8133SOL    HW125298   3.139   5.172   2.317
 8133SOL    HW225299   3.152   5.040   2.413
 8134SOL     OW25300   0.471   2.104   6.744
 8134SOL    HW125301   0.414   2.063   6.673
 8134SOL    HW225302   0.412   2.148   6.812
 8135SOL     OW25303   2.639   0.144   1.503
 8135SOL    HW125304   2.568   0.143   1.572
 8135SOL    HW225305   2.609   0.197   1.424
 8136SOL     OW25306   4.455   5.578   2.768
 8136SOL    HW125307   4.370   5.525   2.764
 8136SOL    HW225308   4.434   5.672   2.793
 8137SOL     OW25309   2.861   1.617   5.151
 8137SOL    HW125310   2.849   1.706   5.106
 8137SOL    HW225311   2.877   1.547   5.081
 8138SOL     OW25312   5.069   1.183   1.385
 8138SOL    HW125313   5.054   1.185   1.286
 8138SOL    HW225314   5.034   1.267   1.426
 8139SOL     OW25315   0.193   0.488   1.688
 8139SOL    HW125316   0.190   0.582   1.721
 8139SOL    HW225317   0.121   0.435   1.733
 8140SOL     OW25318   5.881   0.383   5.945
 8140SOL    HW125319   5.814   0.416   5.878
 8140SOL    HW225320   5.916   0.460   5.998
 8141SOL     OW25321   4.315   5.189   5.160
 8141SOL    HW125322   4.241   5.241   5.202
 8141SOL    HW225323   4.334   5.225   5.069
 8142SOL     OW25324   0.186   5.365   6.900
 8142SOL    HW125325   0.108   5.324   6.853
 8142SOL    HW225326   0.263   5.375   6.837
 8143SOL     OW25327   5.929   4.426   0.535
 8143SOL    HW125328   5.865   4.422   0.459
 8143SOL    HW225329   5.911   4.507   0.590
 8144SOL     OW25330   6.101   6.195   6.530
 8144SOL    HW125331   6.002   6.194   6.541
 8144SOL    HW225332   6.145   6.153   6.609
 8145SOL     OW25333   4.890   6.162   1.653
 8145SOL    HW125334   4.879   6.067   1.681
 8145SOL    HW225335   4.897   6.220   1.735
 8146SOL     OW25336   4.075   0.710   4.869
 8146SOL    HW125337   4.161   0.716   4.819
 8146SOL    HW225338   4.093   0.684   4.963
 8147SOL     OW25339   5.957   2.146   2.093
 8147SOL    HW125340   5.954   2.240   2.128
 8147SOL    HW225341   6.046   2.128   2.052
 8148SOL     OW25342   5.245   4.404   1.676
 8148SOL    HW125343   5.340   4.377   1.688
 8148SOL    HW225344   5.186   4.342   1.729
 8149SOL     OW25345   2.370   5.791   2.055
 8149SOL    HW125346   2.320   5.861   2.105
 8149SOL    HW225347   2.397   5.827   1.966
 8150SOL     OW25348   0.494   4.611   6.763
 8150SOL    HW125349   0.432   4.662   6.703
 8150SOL    HW225350   0.580   4.593   6.715
 8151SOL     OW25351   6.232   2.268   1.474
 8151SOL    HW125352   6.224   2.271   1.574
 8151SOL    HW225353   6.288   2.190   1.447
 8152SOL     OW25354   0.650   2.253   2.725
 8152SOL    HW125355   0.649   2.207   2.636
 8152SOL    HW225356   0.726   2.317   2.729
 8153SOL     OW25357   3.298   0.545   2.562
 8153SOL    HW125358   3.387   0.533   2.518
 8153SOL    HW225359   3.273   0.461   2.610
 8154SOL     OW25360   2.955   5.749   3.948
 8154SOL    HW125361   2.945   5.684   4.024
 8154SOL    HW225362   3.046   5.790   3.950
 8155SOL     OW25363   2.327   3.773   1.614
 8155SOL    HW125364   2.270   3.746   1.692
 8155SOL    HW225365   2.269   3.787   1.533
 8156SOL     OW25366   5.042   0.034   6.268
 8156SOL    HW125367   5.038   0.083   6.355
 8156SOL    HW225368   4.951   0.002   6.243
 8157SOL     OW25369   5.910   5.327   6.457
 8157SOL    HW125370   5.976   5.305   6.385
 8157SOL    HW225371   5.902   5.250   6.520
 8158SOL     OW25372   0.144   5.089   1.085
 8158SOL    HW125373   0.172   5.044   1.170
 8158SOL    HW225374   0.172   5.032   1.007
 8159SOL     OW25375   2.616   6.398   2.653
 8159SOL    HW125376   2.713   6.396   2.680
 8159SOL    HW225377   2.604   6.347   2.568
 8160SOL     OW25378   4.577   1.549   2.006
 8160SOL    HW125379   4.596   1.646   1.992
 8160SOL    HW225380   4.479   1.536   2.023
 8161SOL     OW25381   5.172   1.249   0.128
 8161SOL    HW125382   5.265   1.284   0.144
 8161SOL    HW225383   5.105   1.312   0.168
 8162SOL     OW25384   6.716   6.595   6.070
 8162SOL    HW125385   6.673   6.670   6.119
 8162SOL    HW225386   6.714   6.613   5.972
 8163SOL     OW25387   2.783   3.615   5.560
 8163SOL    HW125388   2.870   3.568   5.576
 8163SOL    HW225389   2.798   3.714   5.561
 8164SOL     OW25390   5.812   3.630   0.572
 8164SOL    HW125391   5.769   3.547   0.607
 8164SOL    HW225392   5.752   3.708   0.589
 8165SOL     OW25393   0.966   4.979   6.541
 8165SOL    HW125394   1.037   4.918   6.576
 8165SOL    HW225395   0.891   4.925   6.502
 8166SOL     OW25396   2.559   1.160   2.123
 8166SOL    HW125397   2.574   1.072   2.167
 8166SOL    HW225398   2.645   1.210   2.116
 8167SOL     OW25399   5.668   1.058   4.304
 8167SOL    HW125400   5.587   1.058   4.246
 8167SOL    HW225401   5.748   1.085   4.250
 8168SOL     OW25402   3.216   1.263   2.867
 8168SOL    HW125403   3.200   1.170   2.835
 8168SOL    HW225404   3.135   1.319   2.853
 8169SOL     OW25405   5.274   3.462   1.425
 8169SOL    HW125406   5.242   3.375   1.463
 8169SOL    HW225407   5.370   3.453   1.398
 8170SOL     OW25408   1.686   5.800   2.798
 8170SOL    HW125409   1.701   5.702   2.787
 8170SOL    HW225410   1.663   5.820   2.893
 8171SOL     OW25411   1.088   1.633   6.817
 8171SOL    HW125412   1.061   1.557   6.758
 8171SOL    HW225413   1.027   1.710   6.803
 8172SOL     OW25414   0.716   0.996   1.494
 8172SOL    HW125415   0.723   0.979   1.396
 8172SOL    HW225416   0.733   0.911   1.544
 8173SOL     OW25417   3.774   2.196   0.334
 8173SOL    HW125418   3.841   2.133   0.374
 8173SOL    HW225419   3.780   2.284   0.380
 8174SOL     OW25420   4.828   1.879   0.781
 8174SOL    HW125421   4.799   1.933   0.702
 8174SOL    HW225422   4.793   1.920   0.865
 8175SOL     OW25423   0.273   2.616   6.221
 8175SOL    HW125424   0.226   2.677   6.285
 8175SOL    HW225425   0.368   2.646   6.210
 8176SOL     OW25426   2.595   5.683   2.202
 8176SOL    HW125427   2.511   5.723   2.165
 8176SOL    HW225428   2.596   5.585   2.182
 8177SOL     OW25429   2.050   6.069   4.331
 8177SOL    HW125430   2.000   5.996   4.285
 8177SOL    HW225431   2.138   6.034   4.363
 8178SOL     OW25432   1.959   6.669   6.524
 8178SOL    HW125433   2.013   6.708   6.450
 8178SOL    HW225434   2.015   6.605   6.577
 8179SOL     OW25435   3.648   2.791   0.032
 8179SOL    HW125436   3.636   2.875   6.998
 8179SOL    HW225437   3.560   2.744   0.041
 8180SOL     OW25438   6.584   0.274   4.585
 8180SOL    HW125439   6.515   0.331   4.542
 8180SOL    HW225440   6.673   0.288   4.541
 8181SOL     OW25441   2.202   1.076   2.391
 8181SOL    HW125442   2.103   1.077   2.379
 8181SOL    HW225443   2.245   1.138   2.326
 8182SOL     OW25444   4.054   1.829   6.641
 8182SOL    HW125445   4.132   1.887   6.664
 8182SOL    HW225446   4.042   1.827   6.542
 8183SOL     OW25447   0.461   2.163   5.318
 8183SOL    HW125448   0.537   2.100   5.330
 8183SOL    HW225449   0.496   2.252   5.287
 8184SOL     OW25450   5.705   1.735   5.624
 8184SOL    HW125451   5.772   1.791   5.577
 8184SOL    HW225452   5.626   1.719   5.564
 8185SOL     OW25453   3.409   0.708   0.373
 8185SOL    HW125454   3.374   0.802   0.376
 8185SOL    HW225455   3.335   0.644   0.395
 8186SOL     OW25456   2.895   6.009   6.692
 8186SOL    HW125457   2.978   5.969   6.732
 8186SOL    HW225458   2.916   6.047   6.602
 8187SOL     OW25459   1.832   2.210   4.890
 8187SOL    HW125460   1.910   2.154   4.917
 8187SOL    HW225461   1.865   2.298   4.854
 8188SOL     OW25462   5.617   1.842   2.691
 8188SOL    HW125463   5.587   1.937   2.700
 8188SOL    HW225464   5.633   1.820   2.595
 8189SOL     OW25465   5.282   3.967   2.390
 8189SOL    HW125466   5.277   3.957   2.291
 8189SOL    HW225467   5.310   4.061   2.412
 8190SOL     OW25468   5.390   5.696   4.464
 8190SOL    HW125469   5.311   5.635   4.471
 8190SOL    HW225470   5.358   5.791   4.455
 8191SOL     OW25471   2.312   5.272   3.694
 8191SOL    HW125472   2.321   5.371   3.696
 8191SOL    HW225473   2.384   5.233   3.636
 8192SOL     OW25474   2.461   5.900   0.181
 8192SOL    HW125475   2.434   5.993   0.154
 8192SOL    HW225476   2.444   5.888   0.279
 8193SOL     OW25477   6.606   0.182   4.310
 8193SOL    HW125478   6.563   0.271   4.293
 8193SOL    HW225479   6.599   0.126   4.228
 8194SOL     OW25480   6.141   2.802   0.032
 8194SOL    HW125481   6.212   2.756   6.999
 8194SOL    HW225482   6.110   2.743   0.106
 8195SOL     OW25483   0.567   0.989   0.727
 8195SOL    HW125484   0.667   0.987   0.733
 8195SOL    HW225485   0.528   0.987   0.819
 8196SOL     OW25486   3.741   6.844   5.874
 8196SOL    HW125487   3.717   6.851   5.777
 8196SOL    HW225488   3.668   6.798   5.924
 8197SOL     OW25489   5.176   1.574   6.011
 8197SOL    HW125490   5.091   1.598   6.056
 8197SOL    HW225491   5.158   1.548   5.916
 8198SOL     OW25492   3.307   6.939   2.192
 8198SOL    HW125493   3.236   7.007   2.176
 8198SOL    HW225494   3.378   6.948   2.123
 8199SOL     OW25495   6.719   3.743   0.349
 8199SOL    HW125496   6.720   3.839   0.375
 8199SOL    HW225497   6.680   3.733   0.257
 8200SOL     OW25498   4.412   3.819   1.266
 8200SOL    HW125499   4.368   3.883   1.329
 8200SOL    HW225500   4.380   3.726   1.285
 8201SOL     OW25501   5.394   1.084   4.724
 8201SOL    HW125502   5.480   1.071   4.674
 8201SOL    HW225503   5.390   1.177   4.760
 8202SOL     OW25504   1.316   5.910   4.266
 8202SOL    HW125505   1.275   5.865   4.345
 8202SOL    HW225506   1.299   5.854   4.184
 8203SOL     OW25507   4.772   3.279   0.534
 8203SOL    HW125508   4.713   3.339   0.587
 8203SOL    HW225509   4.852   3.330   0.502
 8204SOL     OW25510   3.629   5.764   0.881
 8204SOL    HW125511   3.715   5.729   0.844
 8204SOL    HW225512   3.553   5.707   0.848
 8205SOL     OW25513   6.107   4.634   1.942
 8205SOL    HW125514   6.204   4.652   1.921
 8205SOL    HW225515   6.061   4.602   1.859
 8206SOL     OW25516   3.157   2.408   5.598
 8206SOL    HW125517   3.083   2.458   5.553
 8206SOL    HW225518   3.202   2.347   5.532
 8207SOL     OW25519   3.627   4.693   5.333
 8207SOL    HW125520   3.540   4.646   5.344
 8207SOL    HW225521   3.612   4.788   5.306
 8208SOL     OW25522   2.139   6.613   1.329
 8208SOL    HW125523   2.202   6.666   1.272
 8208SOL    HW225524   2.170   6.518   1.335
 8209SOL     OW25525   0.774   1.163   5.096
 8209SOL    HW125526   0.743   1.091   5.158
 8209SOL    HW225527   0.696   1.219   5.068
 8210SOL     OW25528   3.604   1.290   0.255
 8210SOL    HW125529   3.663   1.343   0.316
 8210SOL    HW225530   3.584   1.343   0.172
 8211SOL     OW25531   3.638   4.161   4.126
 8211SOL    HW125532   3.645   4.240   4.187
 8211SOL    HW225533   3.579   4.092   4.167
 8212SOL     OW25534   3.020   0.836   0.767
 8212SOL    HW125535   3.044   0.909   0.704
 8212SOL    HW225536   3.095   0.770   0.772
 8213SOL     OW25537   4.510   5.293   3.403
 8213SOL    HW125538   4.579   5.238   3.356
 8213SOL    HW225539   4.467   5.239   3.475
 8214SOL     OW25540   2.299   5.908   4.342
 8214SOL    HW125541   2.376   5.871   4.290
 8214SOL    HW225542   2.332   5.982   4.401
 8215SOL     OW25543   4.420   5.311   0.257
 8215SOL    HW125544   4.505   5.360   0.272
 8215SOL    HW225545   4.382   5.282   0.345
 8216SOL     OW25546   5.692   6.641   3.139
 8216SOL    HW125547   5.692   6.716   3.205
 8216SOL    HW225548   5.757   6.661   3.065
 8217SOL     OW25549   2.176   4.090   2.301
 8217SOL    HW125550   2.167   4.097   2.202
 8217SOL    HW225551   2.146   3.999   2.330
 8218SOL     OW25552   1.922   6.954   4.742
 8218SOL    HW125553   1.945   6.950   4.839
 8218SOL    HW225554   1.827   6.983   4.731
 8219SOL     OW25555   3.104   4.517   0.962
 8219SOL    HW125556   3.189   4.501   0.912
 8219SOL    HW225557   3.123   4.571   1.044
 8220SOL     OW25558   3.438   4.278   5.380
 8220SOL    HW125559   3.508   4.243   5.318
 8220SOL    HW225560   3.348   4.253   5.345
 8221SOL     OW25561   6.090   4.056   3.411
 8221SOL    HW125562   6.184   4.022   3.398
 8221SOL    HW225563   6.028   4.004   3.354
 8222SOL     OW25564   5.933   2.315   0.418
 8222SOL    HW125565   5.937   2.371   0.500
 8222SOL    HW225566   5.934   2.218   0.444
 8223SOL     OW25567   6.972   4.907   5.571
 8223SOL    HW125568   0.019   4.872   5.505
 8223SOL    HW225569   6.998   4.877   5.663
 8224SOL     OW25570   4.333   1.784   1.144
 8224SOL    HW125571   4.380   1.736   1.217
 8224SOL    HW225572   4.268   1.722   1.100
 8225SOL     OW25573   4.326   0.077   0.779
 8225SOL    HW125574   4.396   0.042   0.840
 8225SOL    HW225575   4.327   0.177   0.780
 8226SOL     OW25576   3.621   0.718   0.196
 8226SOL    HW125577   3.576   0.707   0.285
 8226SOL    HW225578   3.552   0.732   0.125
 8227SOL     OW25579   5.677   1.132   2.471
 8227SOL    HW125580   5.741   1.131   2.394
 8227SOL    HW225581   5.696   1.055   2.531
 8228SOL     OW25582   0.251   1.228   5.262
 8228SOL    HW125583   0.227   1.240   5.358
 8228SOL    HW225584   0.243   1.131   5.237
 8229SOL     OW25585   4.370   4.426   0.921
 8229SOL    HW125586   4.323   4.514   0.915
 8229SOL    HW225587   4.418   4.408   0.835
 8230SOL     OW25588   4.191   0.014   5.526
 8230SOL    HW125589   4.104   7.014   5.570
 8230SOL    HW225590   4.242   0.080   5.581
 8231SOL     OW25591   3.546   1.458   2.374
 8231SOL    HW125592   3.560   1.472   2.472
 8231SOL    HW225593   3.620   1.503   2.324
 8232SOL     OW25594   5.384   1.386   2.179
 8232SOL    HW125595   5.390   1.318   2.106
 8232SOL    HW225596   5.469   1.385   2.232
 8233SOL     OW25597   0.965   0.343   5.699
 8233SOL    HW125598   1.051   0.293   5.712
 8233SOL    HW225599   0.965   0.426   5.755
 8234SOL     OW25600   3.456   3.007   0.348
 8234SOL    HW125601   3.379   3.069   0.333
 8234SOL    HW225602   3.540   3.049   0.311
 8235SOL     OW25603   0.110   4.578   6.975
 8235SOL    HW125604   0.102   4.620   6.885
 8235SOL    HW225605   0.194   4.525   6.980
 8236SOL     OW25606   7.007   6.122   5.814
 8236SOL    HW125607   0.026   6.209   5.845
 8236SOL    HW225608   0.055   6.074   5.758
 8237SOL     OW25609   4.240   5.538   6.280
 8237SOL    HW125610   4.197   5.475   6.216
 8237SOL    HW225611   4.329   5.502   6.308
 8238SOL     OW25612   1.199   5.720   6.655
 8238SOL    HW125613   1.287   5.675   6.644
 8238SOL    HW225614   1.126   5.657   6.629
 8239SOL     OW25615   0.227   1.143   4.735
 8239SOL    HW125616   0.141   1.094   4.741
 8239SOL    HW225617   0.285   1.118   4.813
 8240SOL     OW25618   3.029   3.403   3.201
 8240SOL    HW125619   3.111   3.454   3.227
 8240SOL    HW225620   3.029   3.387   3.102
 8241SOL     OW25621   1.307   3.336   0.017
 8241SOL    HW125622   1.279   3.306   6.946
 8241SOL    HW225623   1.319   3.256   0.077
 8242SOL     OW25624   0.831   3.450   4.687
 8242SOL    HW125625   0.813   3.546   4.709
 8242SOL    HW225626   0.846   3.442   4.588
 8243SOL     OW25627   0.575   4.465   5.629
 8243SOL    HW125628   0.568   4.366   5.623
 8243SOL    HW225629   0.545   4.506   5.543
 8244SOL     OW25630   1.141   0.710   3.464
 8244SOL    HW125631   1.146   0.773   3.541
 8244SOL    HW225632   1.046   0.704   3.432
 8245SOL     OW25633   4.447   1.821   3.481
 8245SOL    HW125634   4.370   1.767   3.448
 8245SOL    HW225635   4.529   1.764   3.486
 8246SOL     OW25636   1.116   3.973   6.164
 8246SOL    HW125637   1.061   4.035   6.219
 8246SOL    HW225638   1.083   3.879   6.176
 8247SOL     OW25639   3.128   5.192   3.628
 8247SOL    HW125640   3.169   5.283   3.623
 8247SOL    HW225641   3.083   5.180   3.716
 8248SOL     OW25642   1.411   6.094   4.108
 8248SOL    HW125643   1.376   6.027   4.174
 8248SOL    HW225644   1.508   6.111   4.124
 8249SOL     OW25645   2.343   1.686   5.746
 8249SOL    HW125646   2.413   1.744   5.789
 8249SOL    HW225647   2.262   1.683   5.805
 8250SOL     OW25648   3.190   1.677   0.657
 8250SOL    HW125649   3.095   1.646   0.670
 8250SOL    HW225650   3.238   1.612   0.598
 8251SOL     OW25651   6.348   2.180   4.426
 8251SOL    HW125652   6.310   2.091   4.451
 8251SOL    HW225653   6.370   2.231   4.510
 8252SOL     OW25654   2.432   2.065   6.714
 8252SOL    HW125655   2.345   2.029   6.748
 8252SOL    HW225656   2.417   2.156   6.674
 8253SOL     OW25657   4.037   5.751   6.273
 8253SOL    HW125658   4.082   5.661   6.280
 8253SOL    HW225659   4.044   5.798   6.361
 8254SOL     OW25660   6.207   4.842   6.219
 8254SOL    HW125661   6.156   4.804   6.141
 8254SOL    HW225662   6.149   4.908   6.267
 8255SOL     OW25663   0.730   6.833   6.058
 8255SOL    HW125664   0.770   6.916   6.017
 8255SOL    HW225665   0.743   6.836   6.157
 8256SOL     OW25666   6.995   6.664   3.376
 8256SOL    HW125667   0.065   6.626   3.402
 8256SOL    HW225668   7.009   6.738   3.309
 8257SOL     OW25669   5.656   4.307   4.306
 8257SOL    HW125670   5.730   4.321   4.372
 8257SOL    HW225671   5.692   4.258   4.226
 8258SOL     OW25672   5.633   2.602   0.978
 8258SOL    HW125673   5.684   2.654   0.910
 8258SOL    HW225674   5.672   2.619   1.069
 8259SOL     OW25675   4.164   1.937   4.327
 8259SOL    HW125676   4.107   2.015   4.351
 8259SOL    HW225677   4.107   1.856   4.313
 8260SOL     OW25678   1.535   6.429   0.272
 8260SOL    HW125679   1.577   6.517   0.293
 8260SOL    HW225680   1.565   6.399   0.181
 8261SOL     OW25681   5.829   6.484   3.375
 8261SOL    HW125682   5.743   6.445   3.408
 8261SOL    HW225683   5.810   6.545   3.298
 8262SOL     OW25684   0.176   5.321   0.142
 8262SOL    HW125685   0.129   5.234   0.153
 8262SOL    HW225686   0.203   5.333   0.047
 8263SOL     OW25687   6.726   2.944   6.337
 8263SOL    HW125688   6.817   2.973   6.308
 8263SOL    HW225689   6.723   2.844   6.342
 8264SOL     OW25690   1.467   0.021   1.589
 8264SOL    HW125691   1.538   6.978   1.554
 8264SOL    HW225692   1.502   0.069   1.669
 8265SOL     OW25693   4.274   0.429   1.652
 8265SOL    HW125694   4.319   0.517   1.635
 8265SOL    HW225695   4.339   0.365   1.693
 8266SOL     OW25696   3.153   0.214   4.818
 8266SOL    HW125697   3.073   0.188   4.871
 8266SOL    HW225698   3.128   0.222   4.721
 8267SOL     OW25699   1.522   5.031   2.277
 8267SOL    HW125700   1.578   5.112   2.257
 8267SOL    HW225701   1.564   4.978   2.350
 8268SOL     OW25702   2.440   3.769   6.589
 8268SOL    HW125703   2.398   3.855   6.563
 8268SOL    HW225704   2.452   3.712   6.507
 8269SOL     OW25705   4.778   2.725   2.947
 8269SOL    HW125706   4.776   2.746   3.045
 8269SOL    HW225707   4.689   2.691   2.918
 8270SOL     OW25708   2.555   6.710   5.874
 8270SOL    HW125709   2.461   6.698   5.907
 8270SOL    HW225710   2.614   6.733   5.951
 8271SOL     OW25711   5.876   6.163   4.657
 8271SOL    HW125712   5.907   6.153   4.751
 8271SOL    HW225713   5.900   6.082   4.605
 8272SOL     OW25714   0.465   0.189   1.931
 8272SOL    HW125715   0.478   0.246   1.850
 8272SOL    HW225716   0.374   0.147   1.929
 8273SOL     OW25717   3.029   0.087   0.099
 8273SOL    HW125718   3.101   0.097   0.031
 8273SOL    HW225719   2.972   0.169   0.099
 8274SOL     OW25720   4.030   4.508   6.855
 8274SOL    HW125721   3.932   4.497   6.840
 8274SOL    HW225722   4.049   4.600   6.890
 8275SOL     OW25723   6.470   0.292   4.842
 8275SOL    HW125724   6.475   0.211   4.900
 8275SOL    HW225725   6.516   0.274   4.755
 8276SOL     OW25726   6.867   2.388   5.828
 8276SOL    HW125727   6.842   2.411   5.922
 8276SOL    HW225728   6.931   2.457   5.793
 8277SOL     OW25729   2.184   5.210   5.383
 8277SOL    HW125730   2.270   5.208   5.332
 8277SOL    HW225731   2.110   5.239   5.322
 8278SOL     OW25732   3.384   1.167   6.002
 8278SOL    HW125733   3.471   1.118   6.003
 8278SOL    HW225734   3.388   1.245   6.064
 8279SOL     OW25735   5.083   5.836   6.951
 8279SOL    HW125736   5.070   5.796   6.860
 8279SOL    HW225737   5.163   5.895   6.950
 8280SOL     OW25738   4.275   2.492   6.740
 8280SOL    HW125739   4.186   2.484   6.696
 8280SOL    HW225740   4.347   2.490   6.671
 8281SOL     OW25741   1.924   4.580   0.495
 8281SOL    HW125742   1.978   4.496   0.486
 8281SOL    HW225743   1.967   4.652   0.442
 8282SOL     OW25744   3.054   2.269   1.014
 8282SOL    HW125745   3.064   2.368   1.014
 8282SOL    HW225746   2.984   2.242   1.080
 8283SOL     OW25747   0.606   5.088   3.682
 8283SOL    HW125748   0.548   5.146   3.739
 8283SOL    HW225749   0.577   5.094   3.587
 8284SOL     OW25750   2.011   2.507   2.632
 8284SOL    HW125751   2.004   2.605   2.652
 8284SOL    HW225752   2.066   2.463   2.704
 8285SOL     OW25753   3.494   3.788   6.056
 8285SOL    HW125754   3.590   3.811   6.066
 8285SOL    HW225755   3.475   3.762   5.961
 8286SOL     OW25756   5.625   1.051   4.572
 8286SOL    HW125757   5.642   1.069   4.476
 8286SOL    HW225758   5.700   0.995   4.609
 8287SOL     OW25759   1.119   6.876   4.509
 8287SOL    HW125760   1.150   6.896   4.416
 8287SOL    HW225761   1.043   6.811   4.505
 8288SOL     OW25762   1.911   2.220   2.310
 8288SOL    HW125763   1.991   2.199   2.255
 8288SOL    HW225764   1.858   2.137   2.327
 8289SOL     OW25765   6.084   1.068   5.746
 8289SOL    HW125766   6.042   0.980   5.729
 8289SOL    HW225767   6.016   1.132   5.781
 8290SOL     OW25768   3.902   3.339   1.669
 8290SOL    HW125769   3.886   3.276   1.593
 8290SOL    HW225770   3.815   3.376   1.701
 8291SOL     OW25771   5.898   6.753   6.481
 8291SOL    HW125772   5.824   6.705   6.433
 8291SOL    HW225773   5.859   6.829   6.532
 8292SOL     OW25774   1.718   4.682   5.724
 8292SOL    HW125775   1.762   4.594   5.736
 8292SOL    HW225776   1.688   4.717   5.813
 8293SOL     OW25777   2.150   4.769   1.575
 8293SOL    HW125778   2.233   4.714   1.563
 8293SOL    HW225779   2.135   4.786   1.672
 8294SOL     OW25780   6.872   3.969   5.401
 8294SOL    HW125781   6.777   3.983   5.429
 8294SOL    HW225782   6.916   4.058   5.390
 8295SOL     OW25783   5.008   3.878   3.455
 8295SOL    HW125784   4.963   3.945   3.515
 8295SOL    HW225785   5.103   3.866   3.485
 8296SOL     OW25786   3.409   5.940   6.828
 8296SOL    HW125787   3.432   5.879   6.904
 8296SOL    HW225788   3.366   6.023   6.863
 8297SOL     OW25789   6.202   4.099   2.023
 8297SOL    HW125790   6.190   4.045   2.106
 8297SOL    HW225791   6.154   4.186   2.032
 8298SOL     OW25792   0.836   0.679   6.389
 8298SOL    HW125793   0.780   0.753   6.426
 8298SOL    HW225794   0.917   0.667   6.447
 8299SOL     OW25795   0.149   3.864   1.671
 8299SOL    HW125796   0.105   3.936   1.618
 8299SOL    HW225797   0.131   3.879   1.769
 8300SOL     OW25798   5.832   5.714   4.529
 8300SOL    HW125799   5.795   5.625   4.557
 8300SOL    HW225800   5.760   5.783   4.533
 8301SOL     OW25801   4.363   0.144   6.743
 8301SOL    HW125802   4.287   0.100   6.790
 8301SOL    HW225803   4.361   0.243   6.762
 8302SOL     OW25804   3.062   6.662   5.045
 8302SOL    HW125805   3.000   6.726   5.000
 8302SOL    HW225806   3.157   6.688   5.025
 8303SOL     OW25807   6.771   0.366   2.593
 8303SOL    HW125808   6.758   0.284   2.650
 8303SOL    HW225809   6.795   0.444   2.651
 8304SOL     OW25810   5.837   4.185   3.658
 8304SOL    HW125811   5.764   4.121   3.682
 8304SOL    HW225812   5.806   4.244   3.583
 8305SOL     OW25813   4.663   5.476   4.311
 8305SOL    HW125814   4.682   5.541   4.385
 8305SOL    HW225815   4.587   5.417   4.337
 8306SOL     OW25816   6.595   0.855   2.777
 8306SOL    HW125817   6.616   0.933   2.836
 8306SOL    HW225818   6.561   0.779   2.832
 8307SOL     OW25819   1.140   5.192   0.902
 8307SOL    HW125820   1.166   5.222   0.994
 8307SOL    HW225821   1.106   5.270   0.849
 8308SOL     OW25822   1.482   4.419   0.385
 8308SOL    HW125823   1.537   4.497   0.415
 8308SOL    HW225824   1.390   4.450   0.362
 8309SOL     OW25825   6.517   4.940   4.750
 8309SOL    HW125826   6.500   4.891   4.836
 8309SOL    HW225827   6.500   5.037   4.764
 8310SOL     OW25828   0.654   6.683   0.760
 8310SOL    HW125829   0.679   6.590   0.786
 8310SOL    HW225830   0.702   6.708   0.676
 8311SOL     OW25831   5.401   6.578   3.998
 8311SOL    HW125832   5.454   6.658   3.972
 8311SOL    HW225833   5.330   6.604   4.064
 8312SOL     OW25834   5.409   0.324   0.520
 8312SOL    HW125835   5.355   0.392   0.570
 8312SOL    HW225836   5.422   0.355   0.426
 8313SOL     OW25837   3.445   6.800   5.714
 8313SOL    HW125838   3.412   6.717   5.760
 8313SOL    HW225839   3.436   6.789   5.615
 8314SOL     OW25840   5.361   6.162   6.408
 8314SOL    HW125841   5.379   6.235   6.342
 8314SOL    HW225842   5.429   6.166   6.482
 8315SOL     OW25843   3.730   3.759   3.837
 8315SOL    HW125844   3.709   3.856   3.855
 8315SOL    HW225845   3.826   3.742   3.859
 8316SOL     OW25846   0.958   3.183   6.873
 8316SOL    HW125847   1.050   3.217   6.855
 8316SOL    HW225848   0.940   3.187   6.971
 8317SOL     OW25849   2.061   2.127   4.995
 8317SOL    HW125850   2.126   2.082   5.056
 8317SOL    HW225851   2.106   2.203   4.947
 8318SOL     OW25852   4.306   1.226   6.088
 8318SOL    HW125853   4.253   1.148   6.121
 8318SOL    HW225854   4.343   1.277   6.166
 8319SOL     OW25855   1.236   0.409   5.905
 8319SOL    HW125856   1.248   0.310   5.908
 8319SOL    HW225857   1.142   0.431   5.931
 8320SOL     OW25858   3.341   4.058   3.743
 8320SOL    HW125859   3.328   4.072   3.842
 8320SOL    HW225860   3.253   4.064   3.697
 8321SOL     OW25861   7.001   0.572   6.549
 8321SOL    HW125862   6.931   0.637   6.520
 8321SOL    HW225863   6.984   0.483   6.506
 8322SOL     OW25864   0.136   1.194   0.416
 8322SOL    HW125865   0.232   1.200   0.388
 8322SOL    HW225866   0.119   1.106   0.459
 8323SOL     OW25867   5.122   4.631   1.605
 8323SOL    HW125868   5.098   4.610   1.511
 8323SOL    HW225869   5.166   4.551   1.647
 8324SOL     OW25870   6.205   0.710   6.974
 8324SOL    HW125871   6.143   0.688   6.899
 8324SOL    HW225872   6.183   0.802   7.009
 8325SOL     OW25873   1.236   5.286   4.989
 8325SOL    HW125874   1.267   5.280   5.083
 8325SOL    HW225875   1.151   5.338   4.984
 8326SOL     OW25876   3.135   3.834   0.293
 8326SOL    HW125877   3.195   3.772   0.243
 8326SOL    HW225878   3.040   3.810   0.276
 8327SOL     OW25879   0.574   0.642   5.348
 8327SOL    HW125880   0.615   0.551   5.360
 8327SOL    HW225881   0.646   0.711   5.341
 8328SOL     OW25882   0.971   6.115   5.926
 8328SOL    HW125883   1.027   6.039   5.893
 8328SOL    HW225884   0.953   6.179   5.851
 8329SOL     OW25885   0.916   2.510   5.249
 8329SOL    HW125886   0.917   2.572   5.328
 8329SOL    HW225887   0.880   2.421   5.277
 8330SOL     OW25888   3.703   1.114   6.316
 8330SOL    HW125889   3.764   1.043   6.281
 8330SOL    HW225890   3.612   1.076   6.331
 8331SOL     OW25891   2.064   2.148   0.614
 8331SOL    HW125892   2.035   2.077   0.551
 8331SOL    HW225893   2.091   2.230   0.562
 8332SOL     OW25894   5.244   4.860   2.329
 8332SOL    HW125895   5.163   4.914   2.307
 8332SOL    HW225896   5.262   4.867   2.427
 8333SOL     OW25897   1.883   5.235   0.785
 8333SOL    HW125898   1.960   5.205   0.727
 8333SOL    HW225899   1.823   5.158   0.803
 8334SOL     OW25900   3.449   1.475   6.352
 8334SOL    HW125901   3.394   1.419   6.290
 8334SOL    HW225902   3.391   1.546   6.392
 8335SOL     OW25903   4.229   2.754   6.515
 8335SOL    HW125904   4.328   2.753   6.500
 8335SOL    HW225905   4.205   2.684   6.581
 8336SOL     OW25906   1.631   3.550   2.340
 8336SOL    HW125907   1.592   3.526   2.429
 8336SOL    HW225908   1.570   3.614   2.293
 8337SOL     OW25909   1.371   0.931   4.858
 8337SOL    HW125910   1.338   1.025   4.862
 8337SOL    HW225911   1.410   0.906   4.947
 8338SOL     OW25912   3.899   4.855   2.338
 8338SOL    HW125913   3.805   4.881   2.316
 8338SOL    HW225914   3.951   4.846   2.254
 8339SOL     OW25915   0.048   0.942   0.505
 8339SOL    HW125916   0.092   0.894   0.428
 8339SOL    HW225917   7.009   0.879   0.555
 8340SOL     OW25918   4.935   2.719   0.729
 8340SOL    HW125919   4.920   2.649   0.799
 8340SOL    HW225920   4.987   2.795   0.768
 8341SOL     OW25921   3.491   0.562   6.260
 8341SOL    HW125922   3.479   0.568   6.161
 8341SOL    HW225923   3.406   0.586   6.306
 8342SOL     OW25924   3.196   5.800   0.174
 8342SOL    HW125925   3.217   5.799   0.272
 8342SOL    HW225926   3.279   5.783   0.121
 8343SOL     OW25927   6.473   5.374   3.990
 8343SOL    HW125928   6.563   5.342   3.961
 8343SOL    HW225929   6.468   5.375   4.089
 8344SOL     OW25930   0.611   4.487   4.066
 8344SOL    HW125931   0.687   4.429   4.036
 8344SOL    HW225932   0.538   4.485   3.997
 8345SOL     OW25933   5.072   1.316   3.232
 8345SOL    HW125934   5.026   1.231   3.257
 8345SOL    HW225935   5.022   1.360   3.157
 8346SOL     OW25936   4.217   3.133   6.259
 8346SOL    HW125937   4.160   3.058   6.292
 8346SOL    HW225938   4.190   3.218   6.303
 8347SOL     OW25939   2.039   6.745   6.251
 8347SOL    HW125940   2.138   6.737   6.242
 8347SOL    HW225941   1.998   6.654   6.247
 8348SOL     OW25942   2.803   6.804   1.210
 8348SOL    HW125943   2.861   6.859   1.151
 8348SOL    HW225944   2.776   6.857   1.290
 8349SOL     OW25945   0.883   6.766   1.822
 8349SOL    HW125946   0.798   6.818   1.832
 8349SOL    HW225947   0.948   6.820   1.767
 8350SOL     OW25948   2.883   0.322   6.477
 8350SOL    HW125949   2.898   0.360   6.386
 8350SOL    HW225950   2.949   0.362   6.541
 8351SOL     OW25951   6.103   5.640   4.193
 8351SOL    HW125952   6.090   5.650   4.292
 8351SOL    HW225953   6.198   5.660   4.170
 8352SOL     OW25954   2.902   6.192   2.526
 8352SOL    HW125955   2.907   6.173   2.428
 8352SOL    HW225956   2.918   6.289   2.542
 8353SOL     OW25957   1.131   3.908   1.529
 8353SOL    HW125958   1.151   3.965   1.608
 8353SOL    HW225959   1.094   3.820   1.559
 8354SOL     OW25960   3.578   6.682   4.125
 8354SOL    HW125961   3.603   6.605   4.067
 8354SOL    HW225962   3.496   6.726   4.088
 8355SOL     OW25963   1.268   0.389   6.255
 8355SOL    HW125964   1.343   0.336   6.293
 8355SOL    HW225965   1.305   0.464   6.200
 8356SOL     OW25966   1.292   5.682   1.982
 8356SOL    HW125967   1.331   5.680   1.890
 8356SOL    HW225968   1.365   5.668   2.049
 8357SOL     OW25969   3.611   5.691   6.314
 8357SOL    HW125970   3.660   5.702   6.227
 8357SOL    HW225971   3.515   5.670   6.295
 8358SOL     OW25972   1.285   2.671   6.224
 8358SOL    HW125973   1.380   2.690   6.201
 8358SOL    HW225974   1.237   2.636   6.144
 8359SOL     OW25975   2.389   0.972   4.497
 8359SOL    HW125976   2.319   0.996   4.429
 8359SOL    HW225977   2.358   0.999   4.588
 8360SOL     OW25978   4.691   0.095   0.741
 8360SOL    HW125979   4.665   0.141   0.826
 8360SOL    HW225980   4.658   0.001   0.741
 8361SOL     OW25981   2.359   6.959   6.408
 8361SOL    HW125982   2.335   6.955   6.505
 8361SOL    HW225983   2.388   0.033   6.386
 8362SOL     OW25984   6.103   1.929   0.630
 8362SOL    HW125985   6.160   1.848   0.643
 8362SOL    HW225986   6.149   1.992   0.568
 8363SOL     OW25987   4.269   1.741   0.551
 8363SOL    HW125988   4.172   1.766   0.545
 8363SOL    HW225989   4.277   1.641   0.554
 8364SOL     OW25990   0.919   3.230   4.214
 8364SOL    HW125991   0.865   3.175   4.151
 8364SOL    HW225992   0.985   3.285   4.163
 8365SOL     OW25993   2.083   2.514   2.943
 8365SOL    HW125994   2.152   2.516   3.016
 8365SOL    HW225995   2.098   2.590   2.881
 8366SOL     OW25996   4.295   5.349   1.187
 8366SOL    HW125997   4.250   5.418   1.244
 8366SOL    HW225998   4.319   5.270   1.244
 8367SOL     OW25999   2.931   5.385   5.039
 8367SOL    HW126000   2.939   5.329   5.121
 8367SOL    HW226001   2.894   5.329   4.964
 8368SOL     OW26002   0.989   6.185   0.013
 8368SOL    HW126003   0.933   6.162   0.092
 8368SOL    HW226004   1.039   6.270   0.031
 8369SOL     OW26005   0.936   1.458   1.184
 8369SOL    HW126006   0.923   1.512   1.268
 8369SOL    HW226007   0.870   1.487   1.115
 8370SOL     OW26008   2.643   1.711   6.910
 8370SOL    HW126009   2.632   1.658   6.825
 8370SOL    HW226010   2.622   1.807   6.892
 8371SOL     OW26011   1.566   3.176   5.591
 8371SOL    HW126012   1.601   3.089   5.627
 8371SOL    HW226013   1.509   3.157   5.511
 8372SOL     OW26014   2.226   6.353   1.363
 8372SOL    HW126015   2.136   6.310   1.370
 8372SOL    HW226016   2.272   6.323   1.280
 8373SOL     OW26017   0.662   1.660   4.493
 8373SOL    HW126018   0.699   1.707   4.573
 8373SOL    HW226019   0.656   1.724   4.417
 8374SOL     OW26020   1.040   0.657   4.481
 8374SOL    HW126021   1.093   0.705   4.551
 8374SOL    HW226022   1.040   0.710   4.397
 8375SOL     OW26023   3.641   0.691   5.288
 8375SOL    HW126024   3.604   0.673   5.379
 8375SOL    HW226025   3.711   0.622   5.267
 8376SOL     OW26026   1.715   1.348   3.780
 8376SOL    HW126027   1.631   1.329   3.729
 8376SOL    HW226028   1.697   1.416   3.851
 8377SOL     OW26029   5.106   5.689   0.674
 8377SOL    HW126030   5.123   5.591   0.689
 8377SOL    HW226031   5.011   5.702   0.647
 8378SOL     OW26032   5.553   5.289   2.981
 8378SOL    HW126033   5.597   5.246   2.902
 8378SOL    HW226034   5.519   5.218   3.043
 8379SOL     OW26035   4.682   2.373   1.390
 8379SOL    HW126036   4.734   2.403   1.469
 8379SOL    HW226037   4.740   2.375   1.308
 8380SOL     OW26038   6.871   6.613   6.926
 8380SOL    HW126039   6.835   6.532   6.973
 8380SOL    HW226040   6.885   6.686   6.993
 8381SOL     OW26041   0.504   2.653   3.411
 8381SOL    HW126042   0.579   2.707   3.372
 8381SOL    HW226043   0.509   2.559   3.375
 8382SOL     OW26044   2.549   0.804   1.202
 8382SOL    HW126045   2.495   0.835   1.124
 8382SOL    HW226046   2.638   0.850   1.201
 8383SOL     OW26047   2.461   0.486   5.159
 8383SOL    HW126048   2.525   0.452   5.089
 8383SOL    HW226049   2.367   0.476   5.126
 8384SOL     OW26050   0.132   1.721   0.899
 8384SOL    HW126051   0.097   1.726   0.992
 8384SOL    HW226052   0.111   1.631   0.859
 8385SOL     OW26053   4.861   3.044   0.788
 8385SOL    HW126054   4.775   3.078   0.750
 8385SOL    HW226055   4.842   2.972   0.854
 8386SOL     OW26056   2.155   5.712   1.230
 8386SOL    HW126057   2.102   5.784   1.276
 8386SOL    HW226058   2.149   5.627   1.283
 8387SOL     OW26059   1.900   1.195   1.663
 8387SOL    HW126060   1.921   1.271   1.725
 8387SOL    HW226061   1.819   1.218   1.609
 8388SOL     OW26062   1.424   0.107   0.647
 8388SOL    HW126063   1.437   0.182   0.713
 8388SOL    HW226064   1.326   0.087   0.640
 8389SOL     OW26065   1.457   3.400   3.866
 8389SOL    HW126066   1.370   3.429   3.829
 8389SOL    HW226067   1.451   3.395   3.966
 8390SOL     OW26068   3.488   0.274   6.798
 8390SOL    HW126069   3.439   0.332   6.863
 8390SOL    HW226070   3.570   0.322   6.766
 8391SOL     OW26071   5.188   5.415   0.694
 8391SOL    HW126072   5.280   5.422   0.731
 8391SOL    HW226073   5.158   5.320   0.696
 8392SOL     OW26074   6.649   5.528   5.264
 8392SOL    HW126075   6.570   5.504   5.206
 8392SOL    HW226076   6.727   5.471   5.238
 8393SOL     OW26077   0.446   0.607   4.033
 8393SOL    HW126078   0.437   0.664   3.951
 8393SOL    HW226079   0.357   0.595   4.075
 8394SOL     OW26080   0.721   1.828   2.401
 8394SOL    HW126081   0.655   1.812   2.475
 8394SOL    HW226082   0.770   1.743   2.381
 8395SOL     OW26083   0.749   6.503   3.797
 8395SOL    HW126084   0.737   6.602   3.794
 8395SOL    HW226085   0.805   6.474   3.719
 8396SOL     OW26086   4.532   4.403   2.478
 8396SOL    HW126087   4.464   4.472   2.456
 8396SOL    HW226088   4.566   4.361   2.394
 8397SOL     OW26089   2.210   6.835   2.706
 8397SOL    HW126090   2.261   6.827   2.620
 8397SOL    HW226091   2.123   6.882   2.689
 8398SOL     OW26092   3.499   1.758   0.003
 8398SOL    HW126093   3.574   1.781   0.065
 8398SOL    HW226094   3.461   1.842   6.984
 8399SOL     OW26095   6.567   6.311   0.199
 8399SOL    HW126096   6.475   6.273   0.209
 8399SOL    HW226097   6.623   6.247   0.145
 8400SOL     OW26098   0.921   0.737   3.127
 8400SOL    HW126099   0.962   0.802   3.063
 8400SOL    HW226100   0.958   0.646   3.110
 8401SOL     OW26101   4.344   3.152   5.654
 8401SOL    HW126102   4.411   3.111   5.717
 8401SOL    HW226103   4.252   3.123   5.679
 8402SOL     OW26104   3.028   1.595   5.594
 8402SOL    HW126105   3.075   1.654   5.659
 8402SOL    HW226106   3.067   1.608   5.503
 8403SOL     OW26107   0.552   1.344   3.250
 8403SOL    HW126108   0.596   1.423   3.292
 8403SOL    HW226109   0.589   1.330   3.158
 8404SOL     OW26110   5.657   6.613   6.414
 8404SOL    HW126111   5.566   6.655   6.406
 8404SOL    HW226112   5.663   6.564   6.500
 8405SOL     OW26113   1.976   1.523   0.138
 8405SOL    HW126114   2.053   1.562   0.087
 8405SOL    HW226115   1.910   1.484   0.073
 8406SOL     OW26116   3.959   1.365   0.857
 8406SOL    HW126117   3.956   1.351   0.758
 8406SOL    HW226118   3.960   1.463   0.876
 8407SOL     OW26119   5.613   5.550   4.500
 8407SOL    HW126120   5.654   5.526   4.412
 8407SOL    HW226121   5.539   5.617   4.485
 8408SOL     OW26122   4.677   1.330   3.188
 8408SOL    HW126123   4.685   1.241   3.232
 8408SOL    HW226124   4.603   1.383   3.231
 8409SOL     OW26125   6.356   2.504   3.804
 8409SOL    HW126126   6.430   2.450   3.764
 8409SOL    HW226127   6.271   2.484   3.757
 8410SOL     OW26128   4.281   1.026   1.905
 8410SOL    HW126129   4.185   1.049   1.913
 8410SOL    HW226130   4.319   1.069   1.823
 8411SOL     OW26131   1.866   5.437   4.094
 8411SOL    HW126132   1.863   5.460   4.192
 8411SOL    HW226133   1.835   5.342   4.082
 8412SOL     OW26134   4.072   1.581   1.459
 8412SOL    HW126135   4.037   1.506   1.402
 8412SOL    HW226136   4.067   1.554   1.555
 8413SOL     OW26137   4.841   4.787   0.563
 8413SOL    HW126138   4.761   4.752   0.610
 8413SOL    HW226139   4.813   4.834   0.479
 8414SOL     OW26140   3.625   0.250   1.681
 8414SOL    HW126141   3.683   0.324   1.712
 8414SOL    HW226142   3.678   0.188   1.622
 8415SOL     OW26143   0.303   5.018   3.760
 8415SOL    HW126144   0.373   4.995   3.693
 8415SOL    HW226145   0.326   5.103   3.805
 8416SOL     OW26146   4.822   4.801   3.346
 8416SOL    HW126147   4.921   4.804   3.362
 8416SOL    HW226148   4.774   4.819   3.432
 8417SOL     OW26149   1.425   5.959   5.202
 8417SOL    HW126150   1.504   5.983   5.146
 8417SOL    HW226151   1.347   6.017   5.177
 8418SOL     OW26152   5.629   4.971   1.710
 8418SOL    HW126153   5.663   4.932   1.796
 8418SOL    HW226154   5.540   4.932   1.688
 8419SOL     OW26155   4.390   0.485   1.960
 8419SOL    HW126156   4.415   0.563   2.017
 8419SOL    HW226157   4.460   0.470   1.891
 8420SOL     OW26158   3.871   6.423   1.163
 8420SOL    HW126159   3.826   6.441   1.075
 8420SOL    HW226160   3.903   6.509   1.203
 8421SOL     OW26161   3.246   6.520   1.615
 8421SOL    HW126162   3.281   6.572   1.536
 8421SOL    HW226163   3.231   6.583   1.691
 8422SOL     OW26164   4.775   5.912   1.079
 8422SOL    HW126165   4.714   5.836   1.102
 8422SOL    HW226166   4.741   5.996   1.123
 8423SOL     OW26167   4.283   4.096   6.552
 8423SOL    HW126168   4.362   4.087   6.493
 8423SOL    HW226169   4.212   4.031   6.524
 8424SOL     OW26170   2.619   2.446   3.009
 8424SOL    HW126171   2.578   2.512   2.946
 8424SOL    HW226172   2.598   2.353   2.978
 8425SOL     OW26173   6.624   5.491   1.100
 8425SOL    HW126174   6.670   5.573   1.065
 8425SOL    HW226175   6.573   5.448   1.025
 8426SOL     OW26176   3.896   2.996   4.117
 8426SOL    HW126177   3.896   3.004   4.216
 8426SOL    HW226178   3.948   3.072   4.078
 8427SOL     OW26179   1.288   4.169   5.740
 8427SOL    HW126180   1.353   4.209   5.805
 8427SOL    HW226181   1.317   4.191   5.646
 8428SOL     OW26182   6.638   4.604   1.957
 8428SOL    HW126183   6.652   4.582   2.053
 8428SOL    HW226184   6.664   4.526   1.900
 8429SOL     OW26185   2.109   4.585   4.289
 8429SOL    HW126186   2.147   4.532   4.365
 8429SOL    HW226187   2.095   4.526   4.210
 8430SOL     OW26188   4.033   5.413   3.199
 8430SOL    HW126189   4.063   5.329   3.244
 8430SOL    HW226190   4.108   5.450   3.143
 8431SOL     OW26191   2.423   5.034   1.136
 8431SOL    HW126192   2.437   4.944   1.177
 8431SOL    HW226193   2.384   5.096   1.205
 8432SOL     OW26194   4.582   5.255   6.107
 8432SOL    HW126195   4.654   5.238   6.041
 8432SOL    HW226196   4.505   5.300   6.063
 8433SOL     OW26197   0.027   2.453   6.453
 8433SOL    HW126198   0.085   2.493   6.524
 8433SOL    HW226199   0.002   2.523   6.387
 8434SOL     OW26200   2.857   0.166   4.864
 8434SOL    HW126201   2.896   0.181   4.955
 8434SOL    HW226202   2.853   0.253   4.815
 8435SOL     OW26203   5.007   1.817   1.306
 8435SOL    HW126204   4.911   1.793   1.294
 8435SOL    HW226205   5.059   1.789   1.225
 8436SOL     OW26206   3.836   6.757   3.943
 8436SOL    HW126207   3.775   6.814   3.997
 8436SOL    HW226208   3.832   6.663   3.975
 8437SOL     OW26209   1.755   6.940   2.379
 8437SOL    HW126210   1.744   6.854   2.330
 8437SOL    HW226211   1.852   6.962   2.388
 8438SOL     OW26212   3.142   4.865   2.348
 8438SOL    HW126213   3.055   4.839   2.389
 8438SOL    HW226214   3.149   4.824   2.257
 8439SOL     OW26215   6.748   5.771   1.925
 8439SOL    HW126216   6.659   5.728   1.910
 8439SOL    HW226217   6.757   5.851   1.865
 8440SOL     OW26218   0.392   0.632   2.763
 8440SOL    HW126219   0.370   0.584   2.848
 8440SOL    HW226220   0.377   0.571   2.685
 8441SOL     OW26221   6.528   6.264   0.565
 8441SOL    HW126222   6.582   6.221   0.493
 8441SOL    HW226223   6.499   6.195   0.631
 8442SOL     OW26224   3.575   3.317   6.211
 8442SOL    HW126225   3.518   3.399   6.199
 8442SOL    HW226226   3.540   3.244   6.153
 8443SOL     OW26227   1.489   6.809   3.077
 8443SOL    HW126228   1.561   6.800   3.008
 8443SOL    HW226229   1.438   6.724   3.083
 8444SOL     OW26230   3.300   6.377   3.663
 8444SOL    HW126231   3.389   6.333   3.647
 8444SOL    HW226232   3.263   6.410   3.577
 8445SOL     OW26233   3.343   5.001   2.090
 8445SOL    HW126234   3.391   4.993   2.177
 8445SOL    HW226235   3.304   5.092   2.081
 8446SOL     OW26236   4.822   5.535   1.511
 8446SOL    HW126237   4.724   5.532   1.534
 8446SOL    HW226238   4.832   5.554   1.414
 8447SOL     OW26239   5.591   2.226   2.199
 8447SOL    HW126240   5.627   2.183   2.281
 8447SOL    HW226241   5.610   2.324   2.201
 8448SOL     OW26242   6.770   3.417   5.208
 8448SOL    HW126243   6.848   3.366   5.173
 8448SOL    HW226244   6.798   3.512   5.226
 8449SOL     OW26245   0.099   2.771   4.277
 8449SOL    HW126246   0.097   2.806   4.184
 8449SOL    HW226247   0.029   2.818   4.332
 8450SOL     OW26248   2.081   5.832   2.121
 8450SOL    HW126249   2.048   5.907   2.064
 8450SOL    HW226250   2.146   5.867   2.188
 8451SOL     OW26251   4.097   2.848   0.203
 8451SOL    HW126252   4.116   2.763   0.155
 8451SOL    HW226253   4.137   2.925   0.152
 8452SOL     OW26254   0.320   0.410   1.439
 8452SOL    HW126255   0.294   0.320   1.405
 8452SOL    HW226256   0.267   0.431   1.521
 8453SOL     OW26257   6.146   4.382   6.152
 8453SOL    HW126258   6.199   4.466   6.168
 8453SOL    HW226259   6.049   4.405   6.148
 8454SOL     OW26260   1.272   5.666   1.673
 8454SOL    HW126261   1.194   5.613   1.706
 8454SOL    HW226262   1.239   5.743   1.618
 8455SOL     OW26263   5.055   2.275   0.480
 8455SOL    HW126264   5.111   2.211   0.532
 8455SOL    HW226265   5.094   2.289   0.389
 8456SOL     OW26266   5.524   4.731   3.242
 8456SOL    HW126267   5.475   4.671   3.179
 8456SOL    HW226268   5.588   4.789   3.191
 8457SOL     OW26269   6.499   6.432   5.886
 8457SOL    HW126270   6.496   6.430   5.986
 8457SOL    HW226271   6.563   6.502   5.856
 8458SOL     OW26272   2.292   1.078   6.697
 8458SOL    HW126273   2.368   1.106   6.756
 8458SOL    HW226274   2.241   1.159   6.667
 8459SOL     OW26275   3.109   6.615   0.781
 8459SOL    HW126276   3.046   6.556   0.832
 8459SOL    HW226277   3.192   6.563   0.759
 8460SOL     OW26278   4.754   2.451   5.725
 8460SOL    HW126279   4.693   2.451   5.804
 8460SOL    HW226280   4.802   2.539   5.720
 8461SOL     OW26281   1.063   3.831   2.215
 8461SOL    HW126282   0.994   3.858   2.282
 8461SOL    HW226283   1.132   3.774   2.259
 8462SOL     OW26284   3.131   2.597   0.740
 8462SOL    HW126285   3.074   2.517   0.759
 8462SOL    HW226286   3.131   2.615   0.642
 8463SOL     OW26287   0.008   1.404   0.567
 8463SOL    HW126288   6.974   1.439   0.490
 8463SOL    HW226289   0.070   1.333   0.535
 8464SOL     OW26290   6.908   4.395   4.891
 8464SOL    HW126291   6.934   4.491   4.881
 8464SOL    HW226292   6.853   4.367   4.812
 8465SOL     OW26293   3.264   2.186   0.681
 8465SOL    HW126294   3.323   2.203   0.603
 8465SOL    HW226295   3.215   2.100   0.668
 8466SOL     OW26296   6.006   6.788   5.095
 8466SOL    HW126297   6.079   6.720   5.106
 8466SOL    HW226298   5.980   6.794   4.999
 8467SOL     OW26299   4.202   1.003   1.223
 8467SOL    HW126300   4.256   0.972   1.301
 8467SOL    HW226301   4.106   1.011   1.251
 8468SOL     OW26302   5.858   3.454   0.074
 8468SOL    HW126303   5.902   3.456   7.004
 8468SOL    HW226304   5.794   3.531   0.082
 8469SOL     OW26305   2.886   1.881   5.498
 8469SOL    HW126306   2.946   1.856   5.573
 8469SOL    HW226307   2.863   1.978   5.504
 8470SOL     OW26308   1.197   4.694   0.141
 8470SOL    HW126309   1.275   4.756   0.133
 8470SOL    HW226310   1.201   4.648   0.230
 8471SOL     OW26311   4.007   0.272   5.511
 8471SOL    HW126312   4.099   0.290   5.546
 8471SOL    HW226313   3.979   0.179   5.537
 8472SOL     OW26314   5.569   1.076   5.368
 8472SOL    HW126315   5.665   1.048   5.367
 8472SOL    HW226316   5.548   1.127   5.285
 8473SOL     OW26317   5.626   5.649   0.308
 8473SOL    HW126318   5.674   5.569   0.345
 8473SOL    HW226319   5.692   5.716   0.276
 8474SOL     OW26320   3.428   4.142   2.172
 8474SOL    HW126321   3.442   4.240   2.158
 8474SOL    HW226322   3.364   4.107   2.103
 8475SOL     OW26323   6.706   2.716   2.560
 8475SOL    HW126324   6.733   2.812   2.568
 8475SOL    HW226325   6.777   2.658   2.600
 8476SOL     OW26326   6.602   1.972   1.725
 8476SOL    HW126327   6.578   2.068   1.740
 8476SOL    HW226328   6.559   1.939   1.640
 8477SOL     OW26329   4.193   6.616   2.851
 8477SOL    HW126330   4.144   6.534   2.880
 8477SOL    HW226331   4.245   6.596   2.768
 8478SOL     OW26332   0.567   0.864   5.619
 8478SOL    HW126333   0.589   0.766   5.618
 8478SOL    HW226334   0.646   0.916   5.588
 8479SOL     OW26335   1.206   3.168   1.236
 8479SOL    HW126336   1.120   3.167   1.185
 8479SOL    HW226337   1.224   3.261   1.269
 8480SOL     OW26338   5.294   3.825   6.826
 8480SOL    HW126339   5.282   3.913   6.779
 8480SOL    HW226340   5.308   3.841   6.923
 8481SOL     OW26341   5.118   2.276   4.938
 8481SOL    HW126342   5.138   2.196   4.882
 8481SOL    HW226343   5.020   2.297   4.932
 8482SOL     OW26344   5.117   0.215   2.171
 8482SOL    HW126345   5.130   0.312   2.189
 8482SOL    HW226346   5.204   0.174   2.143
 8483SOL     OW26347   2.880   5.721   3.274
 8483SOL    HW126348   2.866   5.814   3.309
 8483SOL    HW226349   2.822   5.707   3.194
 8484SOL     OW26350   6.941   6.257   4.625
 8484SOL    HW126351   6.947   6.194   4.702
 8484SOL    HW226352   6.948   6.351   4.659
 8485SOL     OW26353   3.924   2.679   0.494
 8485SOL    HW126354   3.946   2.630   0.410
 8485SOL    HW226355   3.841   2.732   0.480
 8486SOL     OW26356   1.825   0.701   2.764
 8486SOL    HW126357   1.793   0.635   2.832
 8486SOL    HW226358   1.909   0.744   2.797
 8487SOL     OW26359   5.638   2.004   6.300
 8487SOL    HW126360   5.721   1.958   6.269
 8487SOL    HW226361   5.662   2.081   6.358
 8488SOL     OW26362   5.015   6.099   2.659
 8488SOL    HW126363   5.060   6.072   2.573
 8488SOL    HW226364   5.084   6.109   2.731
 8489SOL     OW26365   6.554   0.871   1.694
 8489SOL    HW126366   6.561   0.931   1.774
 8489SOL    HW226367   6.644   0.834   1.672
 8490SOL     OW26368   2.976   6.620   5.789
 8490SOL    HW126369   2.941   6.528   5.771
 8490SOL    HW226370   2.940   6.652   5.877
 8491SOL     OW26371   1.738   6.163   2.526
 8491SOL    HW126372   1.660   6.203   2.479
 8491SOL    HW226373   1.815   6.154   2.462
 8492SOL     OW26374   5.948   4.930   4.106
 8492SOL    HW126375   5.865   4.901   4.152
 8492SOL    HW226376   5.981   4.857   4.046
 8493SOL     OW26377   1.715   2.007   6.977
 8493SOL    HW126378   1.753   1.952   0.032
 8493SOL    HW226379   1.660   1.948   6.917
 8494SOL     OW26380   4.089   5.074   2.549
 8494SOL    HW126381   4.141   5.064   2.464
 8494SOL    HW226382   4.026   4.997   2.559
 8495SOL     OW26383   0.253   5.213   0.586
 8495SOL    HW126384   0.190   5.142   0.554
 8495SOL    HW226385   0.311   5.176   0.659
 8496SOL     OW26386   6.654   1.243   2.715
 8496SOL    HW126387   6.624   1.303   2.789
 8496SOL    HW226388   6.575   1.200   2.672
 8497SOL     OW26389   0.237   1.035   3.147
 8497SOL    HW126390   0.190   0.981   3.217
 8497SOL    HW226391   0.302   0.975   3.099
 8498SOL     OW26392   6.806   6.542   3.235
 8498SOL    HW126393   6.728   6.605   3.237
 8498SOL    HW226394   6.870   6.565   3.308
 8499SOL     OW26395   1.079   4.192   6.786
 8499SOL    HW126396   1.044   4.103   6.817
 8499SOL    HW226397   1.052   4.207   6.691
 8500SOL     OW26398   1.509   6.534   5.765
 8500SOL    HW126399   1.546   6.553   5.674
 8500SOL    HW226400   1.516   6.616   5.821
 8501SOL     OW26401   0.498   2.564   6.609
 8501SOL    HW126402   0.579   2.506   6.619
 8501SOL    HW226403   0.526   2.656   6.584
 8502SOL     OW26404   0.240   3.178   1.469
 8502SOL    HW126405   0.319   3.131   1.509
 8502SOL    HW226406   0.166   3.112   1.455
 8503SOL     OW26407   0.223   5.785   5.337
 8503SOL    HW126408   0.184   5.695   5.354
 8503SOL    HW226409   0.296   5.778   5.269
 8504SOL     OW26410   1.502   5.667   2.144
 8504SOL    HW126411   1.484   5.735   2.215
 8504SOL    HW226412   1.589   5.622   2.163
 8505SOL     OW26413   6.293   3.463   2.850
 8505SOL    HW126414   6.270   3.415   2.765
 8505SOL    HW226415   6.210   3.504   2.888
 8506SOL     OW26416   1.478   0.576   6.674
 8506SOL    HW126417   1.502   0.669   6.646
 8506SOL    HW226418   1.427   0.532   6.601
 8507SOL     OW26419   3.917   6.640   4.901
 8507SOL    HW126420   3.891   6.584   4.980
 8507SOL    HW226421   3.836   6.686   4.865
 8508SOL     OW26422   4.491   1.727   5.275
 8508SOL    HW126423   4.446   1.711   5.187
 8508SOL    HW226424   4.550   1.649   5.296
 8509SOL     OW26425   5.660   6.908   3.285
 8509SOL    HW126426   5.567   6.932   3.312
 8509SOL    HW226427   5.722   6.920   3.363
 8510SOL     OW26428   5.278   4.066   2.682
 8510SOL    HW126429   5.378   4.062   2.684
 8510SOL    HW226430   5.245   4.013   2.604
 8511SOL     OW26431   6.159   2.918   2.702
 8511SOL    HW126432   6.191   2.824   2.689
 8511SOL    HW226433   6.062   2.917   2.726
 8512SOL     OW26434   2.750   6.847   2.666
 8512SOL    HW126435   2.726   6.944   2.670
 8512SOL    HW226436   2.772   6.815   2.758
 8513SOL     OW26437   6.988   5.517   0.899
 8513SOL    HW126438   6.993   5.430   0.850
 8513SOL    HW226439   0.003   5.505   0.992
 8514SOL     OW26440   2.612   0.540   3.291
 8514SOL    HW126441   2.640   0.566   3.384
 8514SOL    HW226442   2.551   0.461   3.295
 8515SOL     OW26443   4.685   2.381   0.998
 8515SOL    HW126444   4.727   2.348   0.913
 8515SOL    HW226445   4.586   2.370   0.992
 8516SOL     OW26446   0.127   1.993   2.261
 8516SOL    HW126447   0.192   2.052   2.213
 8516SOL    HW226448   0.058   2.050   2.307
 8517SOL     OW26449   0.858   2.413   5.772
 8517SOL    HW126450   0.760   2.428   5.755
 8517SOL    HW226451   0.889   2.477   5.843
 8518SOL     OW26452   4.502   4.412   0.299
 8518SOL    HW126453   4.403   4.418   0.314
 8518SOL    HW226454   4.539   4.505   0.289
 8519SOL     OW26455   1.953   5.618   2.200
 8519SOL    HW126456   2.016   5.544   2.173
 8519SOL    HW226457   1.979   5.702   2.154
 8520SOL     OW26458   3.982   1.434   0.561
 8520SOL    HW126459   4.078   1.458   0.548
 8520SOL    HW226460   3.926   1.485   0.495
 8521SOL     OW26461   2.079   5.769   5.470
 8521SOL    HW126462   2.134   5.693   5.435
 8521SOL    HW226463   2.031   5.740   5.552
 8522SOL     OW26464   1.120   5.623   2.370
 8522SOL    HW126465   1.022   5.624   2.389
 8522SOL    HW226466   1.168   5.572   2.442
 8523SOL     OW26467   2.859   0.059   6.589
 8523SOL    HW126468   2.790   0.062   6.661
 8523SOL    HW226469   2.834   0.122   6.516
 8524SOL     OW26470   1.258   2.868   4.368
 8524SOL    HW126471   1.300   2.926   4.438
 8524SOL    HW226472   1.319   2.861   4.289
 8525SOL     OW26473   6.311   3.906   3.426
 8525SOL    HW126474   6.376   3.942   3.493
 8525SOL    HW226475   6.257   3.832   3.467
 8526SOL     OW26476   2.578   3.678   1.554
 8526SOL    HW126477   2.628   3.764   1.563
 8526SOL    HW226478   2.480   3.697   1.550
 8527SOL     OW26479   3.776   6.929   4.830
 8527SOL    HW126480   3.733   6.919   4.740
 8527SOL    HW226481   3.872   6.953   4.818
 8528SOL     OW26482   5.481   3.228   5.881
 8528SOL    HW126483   5.515   3.171   5.956
 8528SOL    HW226484   5.481   3.175   5.796
 8529SOL     OW26485   0.934   0.121   0.032
 8529SOL    HW126486   1.030   0.105   0.056
 8529SOL    HW226487   0.877   0.103   0.112
 8530SOL     OW26488   1.014   5.235   5.919
 8530SOL    HW126489   1.044   5.195   6.006
 8530SOL    HW226490   1.093   5.250   5.860
 8531SOL     OW26491   5.793   4.300   3.411
 8531SOL    HW126492   5.722   4.254   3.358
 8531SOL    HW226493   5.796   4.397   3.387
 8532SOL     OW26494   4.260   4.792   5.015
 8532SOL    HW126495   4.222   4.822   5.103
 8532SOL    HW226496   4.281   4.694   5.021
 8533SOL     OW26497   1.821   0.815   5.239
 8533SOL    HW126498   1.807   0.835   5.142
 8533SOL    HW226499   1.896   0.872   5.275
 8534SOL     OW26500   0.136   4.664   2.704
 8534SOL    HW126501   0.073   4.669   2.627
 8534SOL    HW226502   0.172   4.756   2.723
 8535SOL     OW26503   1.022   2.132   4.831
 8535SOL    HW126504   1.029   2.204   4.900
 8535SOL    HW226505   0.957   2.160   4.760
 8536SOL     OW26506   6.098   2.490   5.061
 8536SOL    HW126507   6.196   2.481   5.077
 8536SOL    HW226508   6.078   2.583   5.029
 8537SOL     OW26509   6.408   1.413   0.806
 8537SOL    HW126510   6.392   1.403   0.904
 8537SOL    HW226511   6.498   1.454   0.791
 8538SOL     OW26512   1.066   0.871   5.095
 8538SOL    HW126513   1.015   0.796   5.053
 8538SOL    HW226514   1.155   0.881   5.050
 8539SOL     OW26515   6.314   2.063   2.677
 8539SOL    HW126516   6.379   1.989   2.697
 8539SOL    HW226517   6.247   2.069   2.751
 8540SOL     OW26518   3.988   1.830   0.479
 8540SOL    HW126519   3.911   1.769   0.495
 8540SOL    HW226520   3.992   1.854   0.382
 8541SOL     OW26521   2.659   1.446   5.509
 8541SOL    HW126522   2.698   1.522   5.457
 8541SOL    HW226523   2.697   1.448   5.602
 8542SOL     OW26524   3.228   4.674   6.679
 8542SOL    HW126525   3.303   4.660   6.744
 8542SOL    HW226526   3.239   4.762   6.634
 8543SOL     OW26527   2.739   1.688   5.376
 8543SOL    HW126528   2.799   1.750   5.427
 8543SOL    HW226529   2.784   1.658   5.293
 8544SOL     OW26530   5.129   3.094   5.359
 8544SOL    HW126531   5.057   3.146   5.405
 8544SOL    HW226532   5.207   3.153   5.341
 8545SOL     OW26533   3.206   6.395   4.601
 8545SOL    HW126534   3.283   6.415   4.661
 8545SOL    HW226535   3.139   6.468   4.608
 8546SOL     OW26536   5.571   0.279   1.101
 8546SOL    HW126537   5.522   0.309   1.183
 8546SOL    HW226538   5.554   0.182   1.085
 8547SOL     OW26539   6.649   0.896   5.336
 8547SOL    HW126540   6.608   0.973   5.385
 8547SOL    HW226541   6.717   0.930   5.271
 8548SOL     OW26542   0.703   2.785   5.329
 8548SOL    HW126543   0.691   2.859   5.395
 8548SOL    HW226544   0.778   2.726   5.358
 8549SOL     OW26545   0.912   2.265   4.249
 8549SOL    HW126546   0.945   2.359   4.249
 8549SOL    HW226547   0.959   2.213   4.321
 8550SOL     OW26548   0.970   3.708   6.286
 8550SOL    HW126549   0.973   3.716   6.186
 8550SOL    HW226550   1.015   3.624   6.315
 8551SOL     OW26551   2.352   2.564   6.874
 8551SOL    HW126552   2.368   2.634   6.804
 8551SOL    HW226553   2.433   2.553   6.930
 8552SOL     OW26554   3.284   0.455   2.047
 8552SOL    HW126555   3.297   0.517   1.969
 8552SOL    HW226556   3.294   0.361   2.016
 8553SOL     OW26557   4.046   4.197   0.399
 8553SOL    HW126558   3.968   4.219   0.458
 8553SOL    HW226559   4.121   4.161   0.454
 8554SOL     OW26560   0.975   6.178   1.347
 8554SOL    HW126561   0.878   6.202   1.349
 8554SOL    HW226562   1.003   6.141   1.436
 8555SOL     OW26563   4.271   1.775   3.176
 8555SOL    HW126564   4.351   1.719   3.198
 8555SOL    HW226565   4.268   1.855   3.236
 8556SOL     OW26566   1.677   6.206   5.554
 8556SOL    HW126567   1.752   6.186   5.491
 8556SOL    HW226568   1.590   6.198   5.505
 8557SOL     OW26569   6.613   1.144   0.935
 8557SOL    HW126570   6.686   1.086   0.970
 8557SOL    HW226571   6.529   1.091   0.926
 8558SOL     OW26572   2.369   4.770   2.869
 8558SOL    HW126573   2.335   4.765   2.963
 8558SOL    HW226574   2.341   4.689   2.819
 8559SOL     OW26575   1.141   6.496   2.752
 8559SOL    HW126576   1.200   6.568   2.718
 8559SOL    HW226577   1.172   6.407   2.716
 8560SOL     OW26578   1.506   5.538   1.596
 8560SOL    HW126579   1.415   5.566   1.626
 8560SOL    HW226580   1.566   5.531   1.675
 8561SOL     OW26581   4.071   0.110   3.265
 8561SOL    HW126582   4.160   0.154   3.258
 8561SOL    HW226583   4.073   0.023   3.215
 8562SOL     OW26584   4.325   0.406   6.823
 8562SOL    HW126585   4.259   0.433   6.754
 8562SOL    HW226586   4.277   0.385   6.908
 8563SOL     OW26587   0.816   5.628   2.036
 8563SOL    HW126588   0.854   5.672   1.954
 8563SOL    HW226589   0.875   5.647   2.114
 8564SOL     OW26590   3.314   6.047   6.434
 8564SOL    HW126591   3.329   6.108   6.356
 8564SOL    HW226592   3.401   6.010   6.464
 8565SOL     OW26593   3.901   5.029   1.647
 8565SOL    HW126594   4.001   5.016   1.651
 8565SOL    HW226595   3.856   4.944   1.675
 8566SOL     OW26596   2.500   0.866   2.229
 8566SOL    HW126597   2.487   0.831   2.136
 8566SOL    HW226598   2.427   0.831   2.288
 8567SOL     OW26599   1.768   1.673   1.850
 8567SOL    HW126600   1.811   1.585   1.871
 8567SOL    HW226601   1.839   1.744   1.845
 8568SOL     OW26602   6.623   1.126   0.512
 8568SOL    HW126603   6.541   1.162   0.556
 8568SOL    HW226604   6.612   1.027   0.498
 8569SOL     OW26605   5.020   1.905   5.916
 8569SOL    HW126606   4.964   1.864   5.843
 8569SOL    HW226607   5.011   1.850   5.999
 8570SOL     OW26608   2.007   1.921   4.180
 8570SOL    HW126609   2.091   1.872   4.154
 8570SOL    HW226610   1.987   1.903   4.276
 8571SOL     OW26611   1.203   0.792   4.698
 8571SOL    HW126612   1.273   0.840   4.751
 8571SOL    HW226613   1.119   0.785   4.751
 8572SOL     OW26614   1.889   4.030   5.769
 8572SOL    HW126615   1.813   3.965   5.774
 8572SOL    HW226616   1.957   4.007   5.839
 8573SOL     OW26617   2.827   6.201   6.869
 8573SOL    HW126618   2.866   6.290   6.843
 8573SOL    HW226619   2.858   6.132   6.803
 8574SOL     OW26620   6.369   6.753   6.028
 8574SOL    HW126621   6.349   6.675   5.969
 8574SOL    HW226622   6.287   6.779   6.079
 8575SOL     OW26623   3.656   0.764   2.522
 8575SOL    HW126624   3.651   0.827   2.600
 8575SOL    HW226625   3.620   0.675   2.549
 8576SOL     OW26626   1.984   4.831   4.271
 8576SOL    HW126627   1.887   4.839   4.295
 8576SOL    HW226628   2.014   4.737   4.286
 8577SOL     OW26629   1.486   0.915   5.808
 8577SOL    HW126630   1.406   0.854   5.812
 8577SOL    HW226631   1.500   0.958   5.897
 8578SOL     OW26632   5.903   5.589   5.972
 8578SOL    HW126633   5.995   5.629   5.977
 8578SOL    HW226634   5.907   5.494   6.003
 8579SOL     OW26635   1.574   6.293   2.085
 8579SOL    HW126636   1.609   6.365   2.145
 8579SOL    HW226637   1.626   6.292   2.000
 8580SOL     OW26638   1.497   6.355   0.703
 8580SOL    HW126639   1.559   6.278   0.714
 8580SOL    HW226640   1.467   6.361   0.608
 8581SOL     OW26641   4.005   4.639   1.831
 8581SOL    HW126642   4.098   4.626   1.867
 8581SOL    HW226643   3.977   4.557   1.781
 8582SOL     OW26644   4.927   4.420   5.430
 8582SOL    HW126645   4.832   4.419   5.460
 8582SOL    HW226646   4.974   4.338   5.464
 8583SOL     OW26647   3.511   6.696   2.766
 8583SOL    HW126648   3.565   6.612   2.754
 8583SOL    HW226649   3.414   6.672   2.776
 8584SOL     OW26650   0.040   0.410   5.311
 8584SOL    HW126651   0.000   0.343   5.373
 8584SOL    HW226652   0.136   0.424   5.333
 8585SOL     OW26653   6.150   1.566   0.762
 8585SOL    HW126654   6.181   1.583   0.668
 8585SOL    HW226655   6.207   1.496   0.803
 8586SOL     OW26656   4.606   6.901   1.555
 8586SOL    HW126657   4.643   6.902   1.648
 8586SOL    HW226658   4.538   6.828   1.548
 8587SOL     OW26659   1.111   1.553   5.015
 8587SOL    HW126660   1.196   1.528   4.968
 8587SOL    HW226661   1.124   1.542   5.114
 8588SOL     OW26662   4.555   1.224   0.098
 8588SOL    HW126663   4.596   1.210   0.008
 8588SOL    HW226664   4.530   1.320   0.110
 8589SOL     OW26665   6.640   2.820   5.178
 8589SOL    HW126666   6.694   2.876   5.115
 8589SOL    HW226667   6.632   2.727   5.141
 8590SOL     OW26668   0.409   0.460   2.281
 8590SOL    HW126669   0.497   0.440   2.239
 8590SOL    HW226670   0.352   0.511   2.217
 8591SOL     OW26671   6.875   4.508   0.202
 8591SOL    HW126672   6.845   4.438   0.136
 8591SOL    HW226673   6.974   4.504   0.211
 8592SOL     OW26674   0.611   2.943   0.296
 8592SOL    HW126675   0.616   2.983   0.205
 8592SOL    HW226676   0.704   2.927   0.330
 8593SOL     OW26677   3.572   0.984   6.614
 8593SOL    HW126678   3.618   1.062   6.657
 8593SOL    HW226679   3.522   1.016   6.533
 8594SOL     OW26680   6.230   2.588   5.943
 8594SOL    HW126681   6.288   2.528   5.999
 8594SOL    HW226682   6.146   2.609   5.992
 8595SOL     OW26683   6.325   1.003   3.728
 8595SOL    HW126684   6.249   1.046   3.777
 8595SOL    HW226685   6.412   1.029   3.770
 8596SOL     OW26686   1.434   4.396   2.787
 8596SOL    HW126687   1.503   4.338   2.743
 8596SOL    HW226688   1.353   4.342   2.807
 8597SOL     OW26689   5.638   2.159   0.708
 8597SOL    HW126690   5.666   2.091   0.776
 8597SOL    HW226691   5.645   2.250   0.747
 8598SOL     OW26692   5.325   0.341   5.583
 8598SOL    HW126693   5.300   0.326   5.678
 8598SOL    HW226694   5.424   0.328   5.572
 8599SOL     OW26695   0.956   2.634   4.420
 8599SOL    HW126696   1.052   2.611   4.403
 8599SOL    HW226697   0.924   2.697   4.349
 8600SOL     OW26698   5.352   3.667   0.481
 8600SOL    HW126699   5.409   3.624   0.410
 8600SOL    HW226700   5.393   3.650   0.571
 8601SOL     OW26701   6.864   1.866   3.779
 8601SOL    HW126702   6.950   1.845   3.733
 8601SOL    HW226703   6.788   1.824   3.729
 8602SOL     OW26704   2.340   6.386   3.306
 8602SOL    HW126705   2.290   6.301   3.319
 8602SOL    HW226706   2.358   6.401   3.209
 8603SOL     OW26707   5.320   0.290   6.933
 8603SOL    HW126708   5.233   0.268   6.890
 8603SOL    HW226709   5.379   0.336   6.866
 8604SOL     OW26710   1.011   2.654   6.309
 8604SOL    HW126711   1.014   2.718   6.386
 8604SOL    HW226712   1.104   2.639   6.275
 8605SOL     OW26713   0.787   4.621   3.718
 8605SOL    HW126714   0.788   4.711   3.674
 8605SOL    HW226715   0.859   4.618   3.788
 8606SOL     OW26716   2.863   1.915   0.251
 8606SOL    HW126717   2.769   1.881   0.256
 8606SOL    HW226718   2.913   1.865   0.181
 8607SOL     OW26719   2.884   4.404   6.804
 8607SOL    HW126720   2.940   4.404   6.721
 8607SOL    HW226721   2.824   4.484   6.804
 8608SOL     OW26722   2.251   5.062   1.904
 8608SOL    HW126723   2.166   5.109   1.877
 8608SOL    HW226724   2.302   5.119   1.968
 8609SOL     OW26725   4.894   0.564   4.179
 8609SOL    HW126726   4.905   0.661   4.161
 8609SOL    HW226727   4.896   0.548   4.278
 8610SOL     OW26728   6.957   0.277   3.308
 8610SOL    HW126729   6.943   0.355   3.248
 8610SOL    HW226730   6.909   0.292   3.394
 8611SOL     OW26731   3.188   0.913   4.027
 8611SOL    HW126732   3.285   0.936   4.022
 8611SOL    HW226733   3.176   0.835   4.087
 8612SOL     OW26734   2.940   3.547   1.497
 8612SOL    HW126735   3.006   3.594   1.556
 8612SOL    HW226736   2.959   3.449   1.496
 8613SOL     OW26737   3.105   2.582   1.671
 8613SOL    HW126738   3.101   2.482   1.672
 8613SOL    HW226739   3.125   2.614   1.578
 8614SOL     OW26740   1.566   2.443   3.503
 8614SOL    HW126741   1.486   2.447   3.563
 8614SOL    HW226742   1.612   2.355   3.515
 8615SOL     OW26743   4.620   2.064   5.276
 8615SOL    HW126744   4.672   1.990   5.319
 8615SOL    HW226745   4.655   2.080   5.184
 8616SOL     OW26746   2.537   4.533   1.794
 8616SOL    HW126747   2.618   4.538   1.854
 8616SOL    HW226748   2.532   4.441   1.754
 8617SOL     OW26749   5.644   1.195   3.980
 8617SOL    HW126750   5.649   1.275   4.040
 8617SOL    HW226751   5.704   1.210   3.901
 8618SOL     OW26752   6.157   4.564   1.040
 8618SOL    HW126753   6.100   4.629   0.990
 8618SOL    HW226754   6.181   4.603   1.129
 8619SOL     OW26755   4.104   5.320   3.705
 8619SOL    HW126756   4.062   5.282   3.787
 8619SOL    HW226757   4.065   5.276   3.624
 8620SOL     OW26758   2.039   0.080   4.502
 8620SOL    HW126759   2.034   0.034   4.591
 8620SOL    HW226760   1.953   0.067   4.454
 8621SOL     OW26761   4.954   3.076   2.218
 8621SOL    HW126762   4.917   3.020   2.292
 8621SOL    HW226763   4.895   3.068   2.137
 8622SOL     OW26764   5.856   4.930   1.584
 8622SOL    HW126765   5.767   4.942   1.629
 8622SOL    HW226766   5.891   4.838   1.604
 8623SOL     OW26767   0.983   3.966   4.768
 8623SOL    HW126768   0.974   4.030   4.844
 8623SOL    HW226769   1.050   3.896   4.792
 8624SOL     OW26770   3.893   3.608   5.612
 8624SOL    HW126771   3.910   3.648   5.702
 8624SOL    HW226772   3.826   3.665   5.563
 8625SOL     OW26773   4.424   0.909   5.866
 8625SOL    HW126774   4.363   0.920   5.787
 8625SOL    HW226775   4.518   0.901   5.835
 8626SOL     OW26776   3.665   3.223   6.458
 8626SOL    HW126777   3.745   3.165   6.442
 8626SOL    HW226778   3.630   3.256   6.370
 8627SOL     OW26779   2.104   1.445   2.357
 8627SOL    HW126780   2.179   1.495   2.402
 8627SOL    HW226781   2.120   1.445   2.258
 8628SOL     OW26782   6.531   6.510   6.941
 8628SOL    HW126783   6.547   6.608   6.950
 8628SOL    HW226784   6.530   6.468   0.013
 8629SOL     OW26785   1.459   6.209   5.400
 8629SOL    HW126786   1.416   6.134   5.349
 8629SOL    HW226787   1.388   6.271   5.433
 8630SOL     OW26788   4.788   4.024   4.456
 8630SOL    HW126789   4.701   4.074   4.454
 8630SOL    HW226790   4.840   4.045   4.373
 8631SOL     OW26791   1.791   6.064   6.142
 8631SOL    HW126792   1.728   6.059   6.219
 8631SOL    HW226793   1.753   6.122   6.070
 8632SOL     OW26794   4.025   4.048   5.167
 8632SOL    HW126795   4.051   4.133   5.213
 8632SOL    HW226796   3.938   4.060   5.119
 8633SOL     OW26797   5.943   3.482   5.515
 8633SOL    HW126798   5.927   3.438   5.427
 8633SOL    HW226799   6.041   3.480   5.535
 8634SOL     OW26800   4.994   4.463   0.132
 8634SOL    HW126801   5.003   4.405   0.213
 8634SOL    HW226802   4.926   4.534   0.150
 8635SOL     OW26803   5.657   2.820   6.966
 8635SOL    HW126804   5.635   2.888   0.017
 8635SOL    HW226805   5.751   2.788   6.979
 8636SOL     OW26806   4.709   5.703   0.843
 8636SOL    HW126807   4.660   5.616   0.848
 8636SOL    HW226808   4.642   5.778   0.840
 8637SOL     OW26809   2.086   1.602   6.274
 8637SOL    HW126810   2.056   1.514   6.239
 8637SOL    HW226811   2.184   1.600   6.292
 8638SOL     OW26812   3.835   2.414   5.374
 8638SOL    HW126813   3.915   2.462   5.338
 8638SOL    HW226814   3.858   2.319   5.392
 8639SOL     OW26815   4.222   3.643   0.069
 8639SOL    HW126816   4.220   3.662   0.167
 8639SOL    HW226817   4.140   3.592   0.043
 8640SOL     OW26818   4.179   3.091   0.815
 8640SOL    HW126819   4.102   3.053   0.765
 8640SOL    HW226820   4.216   3.022   0.877
 8641SOL     OW26821   4.005   4.806   4.423
 8641SOL    HW126822   4.074   4.765   4.364
 8641SOL    HW226823   3.931   4.843   4.366
 8642SOL     OW26824   0.817   0.156   3.255
 8642SOL    HW126825   0.884   0.231   3.259
 8642SOL    HW226826   0.840   0.088   3.325
 8643SOL     OW26827   2.173   0.220   0.093
 8643SOL    HW126828   2.101   0.246   0.029
 8643SOL    HW226829   2.146   0.245   0.186
 8644SOL     OW26830   6.190   2.894   6.128
 8644SOL    HW126831   6.147   2.864   6.213
 8644SOL    HW226832   6.280   2.933   6.148
 8645SOL     OW26833   4.343   4.742   1.620
 8645SOL    HW126834   4.304   4.678   1.553
 8645SOL    HW226835   4.418   4.792   1.577
 8646SOL     OW26836   0.523   2.029   0.153
 8646SOL    HW126837   0.585   2.100   0.120
 8646SOL    HW226838   0.502   1.966   0.078
 8647SOL     OW26839   2.583   5.150   0.361
 8647SOL    HW126840   2.682   5.161   0.350
 8647SOL    HW226841   2.560   5.052   0.362
 8648SOL     OW26842   6.140   6.299   1.013
 8648SOL    HW126843   6.157   6.397   1.019
 8648SOL    HW226844   6.079   6.280   0.936
 8649SOL     OW26845   5.541   6.471   0.290
 8649SOL    HW126846   5.499   6.543   0.235
 8649SOL    HW226847   5.610   6.423   0.235
 8650SOL     OW26848   1.650   6.729   4.856
 8650SOL    HW126849   1.551   6.723   4.867
 8650SOL    HW226850   1.675   6.822   4.827
 8651SOL     OW26851   3.588   1.672   0.412
 8651SOL    HW126852   3.605   1.748   0.475
 8651SOL    HW226853   3.499   1.683   0.369
 8652SOL     OW26854   1.155   4.896   3.674
 8652SOL    HW126855   1.249   4.864   3.685
 8652SOL    HW226856   1.108   4.838   3.608
 8653SOL     OW26857   6.655   1.477   5.813
 8653SOL    HW126858   6.649   1.575   5.834
 8653SOL    HW226859   6.707   1.464   5.729
 8654SOL     OW26860   0.312   4.902   0.625
 8654SOL    HW126861   0.332   4.811   0.661
 8654SOL    HW226862   0.316   4.969   0.699
 8655SOL     OW26863   5.675   0.934   5.092
 8655SOL    HW126864   5.765   0.976   5.103
 8655SOL    HW226865   5.604   1.003   5.107
 8656SOL     OW26866   5.580   0.829   1.837
 8656SOL    HW126867   5.660   0.770   1.844
 8656SOL    HW226868   5.539   0.819   1.747
 8657SOL     OW26869   5.803   5.839   0.177
 8657SOL    HW126870   5.797   5.793   0.089
 8657SOL    HW226871   5.893   5.823   0.217
 8658SOL     OW26872   6.402   5.827   1.026
 8658SOL    HW126873   6.362   5.917   1.004
 8658SOL    HW226874   6.351   5.786   1.101
 8659SOL     OW26875   4.452   2.452   2.745
 8659SOL    HW126876   4.390   2.394   2.693
 8659SOL    HW226877   4.518   2.493   2.683
 8660SOL     OW26878   0.208   2.568   2.330
 8660SOL    HW126879   0.306   2.559   2.350
 8660SOL    HW226880   0.160   2.484   2.356
 8661SOL     OW26881   5.747   4.051   1.699
 8661SOL    HW126882   5.765   4.000   1.615
 8661SOL    HW226883   5.831   4.097   1.728
 8662SOL     OW26884   4.147   5.967   2.354
 8662SOL    HW126885   4.167   5.989   2.259
 8662SOL    HW226886   4.070   5.904   2.359
 8663SOL     OW26887   2.803   5.051   2.285
 8663SOL    HW126888   2.820   4.990   2.362
 8663SOL    HW226889   2.874   5.039   2.216
 8664SOL     OW26890   2.496   5.174   2.126
 8664SOL    HW126891   2.558   5.233   2.074
 8664SOL    HW226892   2.502   5.197   2.223
 8665SOL     OW26893   6.085   5.670   4.463
 8665SOL    HW126894   5.992   5.700   4.487
 8665SOL    HW226895   6.117   5.604   4.531
 8666SOL     OW26896   5.064   0.460   4.606
 8666SOL    HW126897   5.077   0.383   4.543
 8666SOL    HW226898   5.151   0.485   4.647
 8667SOL     OW26899   4.813   1.603   4.081
 8667SOL    HW126900   4.862   1.684   4.113
 8667SOL    HW226901   4.874   1.524   4.082
 8668SOL     OW26902   5.203   3.184   5.021
 8668SOL    HW126903   5.237   3.127   4.946
 8668SOL    HW226904   5.279   3.206   5.082
 8669SOL     OW26905   0.546   6.519   5.953
 8669SOL    HW126906   0.629   6.561   5.919
 8669SOL    HW226907   0.510   6.572   6.030
 8670SOL     OW26908   4.708   5.200   5.836
 8670SOL    HW126909   4.766   5.264   5.785
 8670SOL    HW226910   4.618   5.196   5.793
 8671SOL     OW26911   0.552   1.576   2.380
 8671SOL    HW126912   0.561   1.596   2.477
 8671SOL    HW226913   0.625   1.621   2.329
 8672SOL     OW26914   0.886   0.266   3.661
 8672SOL    HW126915   0.816   0.213   3.613
 8672SOL    HW226916   0.969   0.210   3.672
 8673SOL     OW26917   6.333   1.327   0.263
 8673SOL    HW126918   6.293   1.361   0.178
 8673SOL    HW226919   6.428   1.299   0.246
 8674SOL     OW26920   6.900   5.087   2.714
 8674SOL    HW126921   6.856   4.998   2.727
 8674SOL    HW226922   6.843   5.144   2.655
 8675SOL     OW26923   4.374   1.109   5.208
 8675SOL    HW126924   4.306   1.181   5.220
 8675SOL    HW226925   4.407   1.080   5.298
 8676SOL     OW26926   5.405   0.380   1.307
 8676SOL    HW126927   5.372   0.469   1.275
 8676SOL    HW226928   5.341   0.308   1.279
 8677SOL     OW26929   1.535   6.182   5.796
 8677SOL    HW126930   1.585   6.232   5.866
 8677SOL    HW226931   1.578   6.195   5.707
 8678SOL     OW26932   0.806   6.983   0.627
 8678SOL    HW126933   0.755   0.020   0.563
 8678SOL    HW226934   0.829   0.018   0.708
 8679SOL     OW26935   1.967   0.999   3.572
 8679SOL    HW126936   1.958   1.098   3.579
 8679SOL    HW226937   2.028   0.977   3.496
 8680SOL     OW26938   6.043   2.635   6.551
 8680SOL    HW126939   6.027   2.726   6.512
 8680SOL    HW226940   5.965   2.609   6.607
 8681SOL     OW26941   4.724   5.277   1.363
 8681SOL    HW126942   4.627   5.288   1.385
 8681SOL    HW226943   4.775   5.358   1.393
 8682SOL     OW26944   6.690   0.560   1.263
 8682SOL    HW126945   6.746   0.519   1.191
 8682SOL    HW226946   6.594   0.557   1.236
 8683SOL     OW26947   1.551   2.877   4.818
 8683SOL    HW126948   1.452   2.865   4.823
 8683SOL    HW226949   1.573   2.937   4.741
 8684SOL     OW26950   6.969   3.118   4.639
 8684SOL    HW126951   6.934   3.136   4.547
 8684SOL    HW226952   6.986   3.020   4.650
 8685SOL     OW26953   5.461   3.432   6.676
 8685SOL    HW126954   5.366   3.424   6.643
 8685SOL    HW226955   5.471   3.377   6.759
 8686SOL     OW26956   5.938   6.889   2.392
 8686SOL    HW126957   5.968   6.945   2.314
 8686SOL    HW226958   5.999   6.810   2.401
 8687SOL     OW26959   5.895   5.101   3.198
 8687SOL    HW126960   5.895   5.111   3.098
 8687SOL    HW226961   5.883   5.191   3.240
 8688SOL     OW26962   0.977   3.924   6.794
 8688SOL    HW126963   1.060   3.917   6.850
 8688SOL    HW226964   0.972   3.844   6.733
 8689SOL     OW26965   4.486   3.236   0.013
 8689SOL    HW126966   4.457   3.331   0.008
 8689SOL    HW226967   4.578   3.231   0.051
 8690SOL     OW26968   0.696   2.728   2.838
 8690SOL    HW126969   0.705   2.761   2.744
 8690SOL    HW226970   0.613   2.673   2.846
 8691SOL     OW26971   3.115   1.901   5.362
 8691SOL    HW126972   3.127   1.953   5.277
 8691SOL    HW226973   3.020   1.909   5.392
 8692SOL     OW26974   3.721   0.814   5.017
 8692SOL    HW126975   3.632   0.802   4.974
 8692SOL    HW226976   3.739   0.738   5.080
 8693SOL     OW26977   6.176   1.316   5.991
 8693SOL    HW126978   6.165   1.366   6.078
 8693SOL    HW226979   6.103   1.343   5.928
 8694SOL     OW26980   5.876   2.071   5.050
 8694SOL    HW126981   5.963   2.117   5.072
 8694SOL    HW226982   5.827   2.124   4.981
 8695SOL     OW26983   4.099   2.761   5.930
 8695SOL    HW126984   4.022   2.816   5.899
 8695SOL    HW226985   4.161   2.818   5.984
 8696SOL     OW26986   2.576   5.856   5.106
 8696SOL    HW126987   2.579   5.815   5.015
 8696SOL    HW226988   2.603   5.787   5.174
 8697SOL     OW26989   0.368   4.321   6.028
 8697SOL    HW126990   0.452   4.365   5.996
 8697SOL    HW226991   0.290   4.379   6.005
 8698SOL     OW26992   5.468   6.098   5.491
 8698SOL    HW126993   5.533   6.135   5.558
 8698SOL    HW226994   5.499   6.008   5.461
 8699SOL     OW26995   2.002   2.924   6.186
 8699SOL    HW126996   2.045   3.010   6.214
 8699SOL    HW226997   2.013   2.911   6.088
 8700SOL     OW26998   1.465   1.119   5.115
 8700SOL    HW126999   1.423   1.151   5.200
 8700SOL    HW227000   1.562   1.142   5.115
 8701SOL     OW27001   1.825   1.402   6.977
 8701SOL    HW127002   1.761   1.336   7.016
 8701SOL    HW227003   1.903   1.354   6.938
 8702SOL     OW27004   5.021   4.932   2.193
 8702SOL    HW127005   5.004   4.894   2.103
 8702SOL    HW227006   4.936   4.931   2.246
 8703SOL     OW27007   3.151   5.191   6.677
 8703SOL    HW127008   3.054   5.216   6.678
 8703SOL    HW227009   3.206   5.268   6.709
 8704SOL     OW27010   6.651   3.765   3.447
 8704SOL    HW127011   6.579   3.826   3.415
 8704SOL    HW227012   6.678   3.704   3.373
 8705SOL     OW27013   4.584   1.787   6.173
 8705SOL    HW127014   4.576   1.760   6.269
 8705SOL    HW227015   4.535   1.722   6.115
 8706SOL     OW27016   5.267   2.001   0.022
 8706SOL    HW127017   5.320   1.927   0.064
 8706SOL    HW227018   5.205   2.039   0.090
 8707SOL     OW27019   1.002   2.912   4.262
 8707SOL    HW127020   1.075   2.898   4.329
 8707SOL    HW227021   0.939   2.982   4.295
 8708SOL     OW27022   4.081   1.617   4.275
 8708SOL    HW127023   4.157   1.588   4.333
 8708SOL    HW227024   4.011   1.545   4.273
 8709SOL     OW27025   6.879   6.989   6.668
 8709SOL    HW127026   6.963   7.018   6.623
 8709SOL    HW227027   6.890   6.995   6.768
 8710SOL     OW27028   1.958   2.318   3.782
 8710SOL    HW127029   2.031   2.298   3.847
 8710SOL    HW227030   1.870   2.299   3.824
 8711SOL     OW27031   1.397   6.447   1.945
 8711SOL    HW127032   1.434   6.534   1.911
 8711SOL    HW227033   1.473   6.386   1.968
 8712SOL     OW27034   3.198   1.386   4.074
 8712SOL    HW127035   3.220   1.449   3.999
 8712SOL    HW227036   3.146   1.309   4.037
 8713SOL     OW27037   0.165   4.180   1.319
 8713SOL    HW127038   0.088   4.116   1.315
 8713SOL    HW227039   0.134   4.271   1.292
 8714SOL     OW27040   0.665   6.986   6.813
 8714SOL    HW127041   0.755   0.009   6.799
 8714SOL    HW227042   0.677   6.887   6.827
 8715SOL     OW27043   3.758   1.561   6.797
 8715SOL    HW127044   3.700   1.551   6.716
 8715SOL    HW227045   3.799   1.652   6.798
 8716SOL     OW27046   0.375   6.520   0.893
 8716SOL    HW127047   0.402   6.566   0.978
 8716SOL    HW227048   0.350   6.426   0.913
 8717SOL     OW27049   1.825   3.740   5.952
 8717SOL    HW127050   1.770   3.759   5.870
 8717SOL    HW227051   1.919   3.771   5.936
 8718SOL     OW27052   2.212   3.000   6.742
 8718SOL    HW127053   2.216   2.944   6.824
 8718SOL    HW227054   2.117   3.010   6.712
 8719SOL     OW27055   4.360   0.859   0.048
 8719SOL    HW127056   4.270   0.880   0.009
 8719SOL    HW227057   4.430   0.914   0.002
 8720SOL     OW27058   6.871   5.742   6.099
 8720SOL    HW127059   6.957   5.762   6.147
 8720SOL    HW227060   6.832   5.658   6.137
 8721SOL     OW27061   6.307   0.055   0.175
 8721SOL    HW127062   6.393   0.104   0.190
 8721SOL    HW227063   6.308   0.016   0.083
 8722SOL     OW27064   3.685   1.073   6.883
 8722SOL    HW127065   3.588   1.069   6.858
 8722SOL    HW227066   3.698   1.032   6.973
 8723SOL     OW27067   5.430   0.059   2.281
 8723SOL    HW127068   5.517   0.079   2.325
 8723SOL    HW227069   5.373   0.005   2.343
 8724SOL     OW27070   5.711   0.680   4.477
 8724SOL    HW127071   5.650   0.715   4.406
 8724SOL    HW227072   5.806   0.691   4.448
 8725SOL     OW27073   0.705   6.200   5.304
 8725SOL    HW127074   0.649   6.205   5.387
 8725SOL    HW227075   0.790   6.251   5.318
 8726SOL     OW27076   6.666   0.529   0.348
 8726SOL    HW127077   6.630   0.442   0.382
 8726SOL    HW227078   6.591   0.596   0.344
 8727SOL     OW27079   5.551   6.848   6.786
 8727SOL    HW127080   5.597   6.876   6.702
 8727SOL    HW227081   5.551   6.924   6.851
 8728SOL     OW27082   5.399   1.900   2.194
 8728SOL    HW127083   5.401   1.829   2.124
 8728SOL    HW227084   5.448   1.868   2.275
 8729SOL     OW27085   3.054   5.327   5.591
 8729SOL    HW127086   3.113   5.372   5.524
 8729SOL    HW227087   3.090   5.341   5.683
 8730SOL     OW27088   5.315   4.682   3.549
 8730SOL    HW127089   5.310   4.582   3.542
 8730SOL    HW227090   5.411   4.710   3.546
 8731SOL     OW27091   0.670   3.018   2.945
 8731SOL    HW127092   0.753   2.983   2.901
 8731SOL    HW227093   0.590   2.993   2.891
 8732SOL     OW27094   5.715   4.379   2.185
 8732SOL    HW127095   5.710   4.372   2.285
 8732SOL    HW227096   5.705   4.287   2.145
 8733SOL     OW27097   0.951   6.141   0.669
 8733SOL    HW127098   0.947   6.120   0.767
 8733SOL    HW227099   1.034   6.194   0.650
 8734SOL     OW27100   6.629   3.004   2.397
 8734SOL    HW127101   6.629   2.906   2.378
 8734SOL    HW227102   6.671   3.053   2.321
 8735SOL     OW27103   1.044   3.258   5.234
 8735SOL    HW127104   1.030   3.239   5.331
 8735SOL    HW227105   1.142   3.265   5.215
 8736SOL     OW27106   0.743   5.326   2.324
 8736SOL    HW127107   0.659   5.273   2.327
 8736SOL    HW227108   0.738   5.401   2.391
 8737SOL     OW27109   2.658   6.482   6.751
 8737SOL    HW127110   2.751   6.464   6.782
 8737SOL    HW227111   2.604   6.518   6.827
 8738SOL     OW27112   2.206   5.070   3.440
 8738SOL    HW127113   2.143   5.009   3.393
 8738SOL    HW227114   2.188   5.165   3.411
 8739SOL     OW27115   5.226   4.567   5.755
 8739SOL    HW127116   5.160   4.595   5.825
 8739SOL    HW227117   5.220   4.630   5.677
 8740SOL     OW27118   3.651   1.992   2.850
 8740SOL    HW127119   3.588   1.956   2.782
 8740SOL    HW227120   3.716   2.054   2.806
 8741SOL     OW27121   2.196   0.237   2.644
 8741SOL    HW127122   2.244   0.168   2.589
 8741SOL    HW227123   2.230   0.232   2.738
 8742SOL     OW27124   3.947   7.017   1.828
 8742SOL    HW127125   3.886   0.005   1.749
 8742SOL    HW227126   3.919   0.062   1.899
 8743SOL     OW27127   1.836   0.874   1.291
 8743SOL    HW127128   1.893   0.900   1.369
 8743SOL    HW227129   1.814   0.777   1.295
 8744SOL     OW27130   4.510   2.867   0.486
 8744SOL    HW127131   4.505   2.967   0.487
 8744SOL    HW227132   4.603   2.838   0.509
 8745SOL     OW27133   6.296   2.624   6.442
 8745SOL    HW127134   6.352   2.553   6.484
 8745SOL    HW227135   6.207   2.628   6.487
 8746SOL     OW27136   4.667   5.691   4.793
 8746SOL    HW127137   4.614   5.699   4.877
 8746SOL    HW227138   4.615   5.728   4.716
 8747SOL     OW27139   0.035   1.274   2.364
 8747SOL    HW127140   0.045   1.370   2.390
 8747SOL    HW227141   0.081   1.216   2.431
 8748SOL     OW27142   0.727   2.494   4.529
 8748SOL    HW127143   0.793   2.550   4.479
 8748SOL    HW227144   0.721   2.525   4.624
 8749SOL     OW27145   1.720   1.111   5.158
 8749SOL    HW127146   1.740   1.026   5.110
 8749SOL    HW227147   1.753   1.189   5.105
 8750SOL     OW27148   3.973   3.359   5.525
 8750SOL    HW127149   4.071   3.345   5.512
 8750SOL    HW227150   3.958   3.447   5.571
 8751SOL     OW27151   6.876   0.459   1.086
 8751SOL    HW127152   6.901   0.364   1.068
 8751SOL    HW227153   6.955   0.507   1.126
 8752SOL     OW27154   4.833   3.070   6.486
 8752SOL    HW127155   4.746   3.040   6.526
 8752SOL    HW227156   4.848   3.166   6.507
 8753SOL     OW27157   2.281   3.521   7.011
 8753SOL    HW127158   2.195   3.479   0.020
 8753SOL    HW227159   2.304   3.490   6.919
 8754SOL     OW27160   2.972   4.933   6.036
 8754SOL    HW127161   3.016   4.846   6.013
 8754SOL    HW227162   2.876   4.916   6.059
 8755SOL     OW27163   2.147   1.171   1.111
 8755SOL    HW127164   2.241   1.140   1.126
 8755SOL    HW227165   2.144   1.271   1.114
 8756SOL     OW27166   1.540   2.884   3.403
 8756SOL    HW127167   1.547   2.852   3.498
 8756SOL    HW227168   1.475   2.827   3.354
 8757SOL     OW27169   5.214   5.856   6.262
 8757SOL    HW127170   5.189   5.763   6.235
 8757SOL    HW227171   5.162   5.922   6.208
 8758SOL     OW27172   4.765   6.423   3.909
 8758SOL    HW127173   4.748   6.517   3.938
 8758SOL    HW227174   4.848   6.419   3.853
 8759SOL     OW27175   5.941   1.865   6.879
 8759SOL    HW127176   5.976   1.814   6.958
 8759SOL    HW227177   5.842   1.875   6.887
 8760SOL     OW27178   2.485   1.647   4.458
 8760SOL    HW127179   2.407   1.706   4.479
 8760SOL    HW227180   2.549   1.647   4.535
 8761SOL     OW27181   6.016   1.789   1.678
 8761SOL    HW127182   6.062   1.712   1.635
 8761SOL    HW227183   5.991   1.856   1.608
 8762SOL     OW27184   1.225   5.765   4.046
 8762SOL    HW127185   1.266   5.828   3.981
 8762SOL    HW227186   1.245   5.671   4.018
 8763SOL     OW27187   5.812   0.168   5.199
 8763SOL    HW127188   5.867   0.120   5.130
 8763SOL    HW227189   5.868   0.234   5.247
 8764SOL     OW27190   4.810   6.141   5.733
 8764SOL    HW127191   4.737   6.155   5.800
 8764SOL    HW227192   4.880   6.211   5.743
 8765SOL     OW27193   5.678   1.268   4.978
 8765SOL    HW127194   5.652   1.356   4.939
 8765SOL    HW227195   5.771   1.274   5.016
 8766SOL     OW27196   4.154   4.254   5.373
 8766SOL    HW127197   4.214   4.287   5.300
 8766SOL    HW227198   4.117   4.332   5.424
 8767SOL     OW27199   3.884   6.926   3.380
 8767SOL    HW127200   3.951   7.000   3.372
 8767SOL    HW227201   3.924   6.850   3.431
 8768SOL     OW27202   0.732   1.974   0.888
 8768SOL    HW127203   0.800   1.918   0.841
 8768SOL    HW227204   0.711   1.933   0.977
 8769SOL     OW27205   0.353   1.248   2.033
 8769SOL    HW127206   0.261   1.262   2.069
 8769SOL    HW227207   0.416   1.231   2.108
 8770SOL     OW27208   5.205   4.642   2.196
 8770SOL    HW127209   5.202   4.733   2.237
 8770SOL    HW227210   5.112   4.610   2.178
 8771SOL     OW27211   0.076   2.841   6.355
 8771SOL    HW127212   0.160   2.881   6.318
 8771SOL    HW227213   0.079   2.842   6.455
 8772SOL     OW27214   4.718   0.557   5.951
 8772SOL    HW127215   4.780   0.489   5.912
 8772SOL    HW227216   4.771   0.634   5.986
 8773SOL     OW27217   5.533   2.602   3.002
 8773SOL    HW127218   5.476   2.676   2.964
 8773SOL    HW227219   5.621   2.640   3.030
 8774SOL     OW27220   0.510   0.255   6.692
 8774SOL    HW127221   0.495   0.156   6.691
 8774SOL    HW227222   0.426   0.301   6.663
 8775SOL     OW27223   5.194   1.249   5.461
 8775SOL    HW127224   5.141   1.201   5.531
 8775SOL    HW227225   5.290   1.251   5.487
 8776SOL     OW27226   5.187   3.088   1.801
 8776SOL    HW127227   5.265   3.119   1.855
 8776SOL    HW227228   5.198   3.117   1.706
 8777SOL     OW27229   0.463   3.723   3.359
 8777SOL    HW127230   0.379   3.756   3.401
 8777SOL    HW227231   0.482   3.630   3.391
 8778SOL     OW27232   4.964   3.359   6.033
 8778SOL    HW127233   5.009   3.446   6.016
 8778SOL    HW227234   4.866   3.374   6.047
 8779SOL     OW27235   2.946   5.581   2.750
 8779SOL    HW127236   2.975   5.518   2.678
 8779SOL    HW227237   2.849   5.566   2.770
 8780SOL     OW27238   0.672   6.272   3.115
 8780SOL    HW127239   0.736   6.286   3.190
 8780SOL    HW227240   0.700   6.326   3.036
 8781SOL     OW27241   4.655   6.873   3.105
 8781SOL    HW127242   4.735   6.926   3.075
 8781SOL    HW227243   4.648   6.790   3.050
 8782SOL     OW27244   6.009   1.447   1.686
 8782SOL    HW127245   5.940   1.408   1.747
 8782SOL    HW227246   6.099   1.411   1.710
 8783SOL     OW27247   6.354   3.792   3.951
 8783SOL    HW127248   6.365   3.697   3.921
 8783SOL    HW227249   6.303   3.843   3.882
 8784SOL     OW27250   6.505   6.096   0.779
 8784SOL    HW127251   6.571   6.021   0.777
 8784SOL    HW227252   6.443   6.084   0.857
 8785SOL     OW27253   0.026   4.893   6.322
 8785SOL    HW127254   6.976   4.947   6.275
 8785SOL    HW227255   0.060   4.944   6.401
 8786SOL     OW27256   3.529   1.667   2.055
 8786SOL    HW127257   3.601   1.660   2.124
 8786SOL    HW227258   3.446   1.705   2.097
 8787SOL     OW27259   3.574   0.724   2.283
 8787SOL    HW127260   3.610   0.752   2.372
 8787SOL    HW227261   3.475   0.715   2.288
 8788SOL     OW27262   6.714   1.214   5.306
 8788SOL    HW127263   6.687   1.179   5.395
 8788SOL    HW227264   6.633   1.248   5.258
 8789SOL     OW27265   6.679   4.244   5.344
 8789SOL    HW127266   6.642   4.165   5.294
 8789SOL    HW227267   6.605   4.307   5.367
 8790SOL     OW27268   6.674   1.444   6.540
 8790SOL    HW127269   6.721   1.456   6.452
 8790SOL    HW227270   6.726   1.489   6.613
 8791SOL     OW27271   4.813   6.554   5.210
 8791SOL    HW127272   4.883   6.607   5.163
 8791SOL    HW227273   4.722   6.585   5.179
 8792SOL     OW27274   3.246   5.095   2.985
 8792SOL    HW127275   3.158   5.139   3.000
 8792SOL    HW227276   3.241   5.037   2.903
 8793SOL     OW27277   0.761   4.877   3.606
 8793SOL    HW127278   0.681   4.923   3.644
 8793SOL    HW227279   0.836   4.943   3.596
 8794SOL     OW27280   6.489   0.744   3.579
 8794SOL    HW127281   6.468   0.700   3.666
 8794SOL    HW227282   6.404   0.767   3.532
 8795SOL     OW27283   1.135   5.056   4.855
 8795SOL    HW127284   1.095   5.017   4.937
 8795SOL    HW227285   1.190   5.137   4.879
 8796SOL     OW27286   6.101   3.440   3.200
 8796SOL    HW127287   6.014   3.393   3.211
 8796SOL    HW227288   6.162   3.414   3.275
 8797SOL     OW27289   6.993   0.285   4.283
 8797SOL    HW127290   6.949   0.374   4.299
 8797SOL    HW227291   0.073   0.297   4.279
 8798SOL     OW27292   4.360   6.383   5.860
 8798SOL    HW127293   4.342   6.392   5.762
 8798SOL    HW227294   4.274   6.362   5.907
 8799SOL     OW27295   2.887   4.773   2.443
 8799SOL    HW127296   2.832   4.742   2.521
 8799SOL    HW227297   2.862   4.721   2.362
 8800SOL     OW27298   5.656   5.203   5.516
 8800SOL    HW127299   5.631   5.259   5.595
 8800SOL    HW227300   5.610   5.115   5.522
 8801SOL     OW27301   6.077   1.883   4.970
 8801SOL    HW127302   5.987   1.924   4.984
 8801SOL    HW227303   6.141   1.955   4.942
 8802SOL     OW27304   1.478   5.401   5.564
 8802SOL    HW127305   1.487   5.458   5.482
 8802SOL    HW227306   1.542   5.433   5.634
 8803SOL     OW27307   6.844   1.007   6.986
 8803SOL    HW127308   6.917   0.940   7.002
 8803SOL    HW227309   6.755   0.961   6.990
 8804SOL     OW27310   1.635   6.172   1.120
 8804SOL    HW127311   1.694   6.098   1.151
 8804SOL    HW227312   1.672   6.260   1.149
 8805SOL     OW27313   3.689   5.363   3.994
 8805SOL    HW127314   3.789   5.365   3.989
 8805SOL    HW227315   3.657   5.443   4.046
 8806SOL     OW27316   2.215   5.154   0.661
 8806SOL    HW127317   2.215   5.131   0.759
 8806SOL    HW227318   2.306   5.185   0.634
 8807SOL     OW27319   4.521   1.899   6.627
 8807SOL    HW127320   4.569   1.811   6.625
 8807SOL    HW227321   4.569   1.961   6.689
 8808SOL     OW27322   0.432   2.330   6.939
 8808SOL    HW127323   0.376   2.343   0.002
 8808SOL    HW227324   0.430   2.415   6.885
 8809SOL     OW27325   2.380   4.353   3.359
 8809SOL    HW127326   2.384   4.353   3.459
 8809SOL    HW227327   2.381   4.259   3.326
 8810SOL     OW27328   5.827   1.054   5.317
 8810SOL    HW127329   5.867   1.140   5.284
 8810SOL    HW227330   5.900   0.988   5.335
 8811SOL     OW27331   3.742   0.302   2.795
 8811SOL    HW127332   3.787   0.344   2.874
 8811SOL    HW227333   3.767   0.351   2.712
 8812SOL     OW27334   3.269   0.580   6.970
 8812SOL    HW127335   3.308   0.490   6.987
 8812SOL    HW227336   3.342   0.649   6.970
 8813SOL     OW27337   1.678   4.427   2.487
 8813SOL    HW127338   1.625   4.503   2.526
 8813SOL    HW227339   1.727   4.459   2.406
 8814SOL     OW27340   5.587   6.743   0.444
 8814SOL    HW127341   5.651   6.669   0.420
 8814SOL    HW227342   5.588   6.757   0.543
 8815SOL     OW27343   5.464   0.004   1.512
 8815SOL    HW127344   5.538   0.063   1.478
 8815SOL    HW227345   5.499   6.931   1.527
 8816SOL     OW27346   0.650   7.015   6.535
 8816SOL    HW127347   0.658   6.974   6.626
 8816SOL    HW227348   0.555   7.010   6.504
 8817SOL     OW27349   0.214   3.593   4.084
 8817SOL    HW127350   0.214   3.494   4.069
 8817SOL    HW227351   0.297   3.619   4.135
 8818SOL     OW27352   0.857   6.365   3.347
 8818SOL    HW127353   0.784   6.414   3.396
 8818SOL    HW227354   0.940   6.421   3.348
 8819SOL     OW27355   5.613   4.595   5.492
 8819SOL    HW127356   5.642   4.670   5.551
 8819SOL    HW227357   5.694   4.552   5.452
 8820SOL     OW27358   2.876   1.702   4.826
 8820SOL    HW127359   2.974   1.704   4.806
 8820SOL    HW227360   2.855   1.771   4.895
 8821SOL     OW27361   1.430   5.309   0.080
 8821SOL    HW127362   1.516   5.341   0.039
 8821SOL    HW227363   1.356   5.372   0.055
 8822SOL     OW27364   0.615   0.325   3.304
 8822SOL    HW127365   0.571   0.310   3.392
 8822SOL    HW227366   0.683   0.253   3.287
 8823SOL     OW27367   2.538   0.681   2.015
 8823SOL    HW127368   2.473   0.643   1.949
 8823SOL    HW227369   2.571   0.608   2.075
 8824SOL     OW27370   1.180   0.787   1.069
 8824SOL    HW127371   1.194   0.856   1.140
 8824SOL    HW227372   1.142   0.831   0.987
 8825SOL     OW27373   0.541   0.686   1.666
 8825SOL    HW127374   0.557   0.625   1.744
 8825SOL    HW227375   0.610   0.758   1.666
 8826SOL     OW27376   0.938   3.212   1.493
 8826SOL    HW127377   0.841   3.228   1.474
 8826SOL    HW227378   0.948   3.172   1.584
 8827SOL     OW27379   3.792   0.009   2.664
 8827SOL    HW127380   3.789   0.057   2.751
 8827SOL    HW227381   3.705   6.981   2.648
 8828SOL     OW27382   3.490   4.557   6.466
 8828SOL    HW127383   3.422   4.580   6.396
 8828SOL    HW227384   3.506   4.637   6.524
 8829SOL     OW27385   6.148   1.932   1.256
 8829SOL    HW127386   6.061   1.976   1.281
 8829SOL    HW227387   6.138   1.832   1.264
 8830SOL     OW27388   1.518   1.827   3.050
 8830SOL    HW127389   1.612   1.838   3.020
 8830SOL    HW227390   1.505   1.737   3.091
 8831SOL     OW27391   5.774   3.011   2.512
 8831SOL    HW127392   5.801   2.974   2.600
 8831SOL    HW227393   5.786   2.942   2.441
 8832SOL     OW27394   0.543   6.388   4.147
 8832SOL    HW127395   0.570   6.467   4.202
 8832SOL    HW227396   0.498   6.321   4.207
 8833SOL     OW27397   3.610   3.835   0.305
 8833SOL    HW127398   3.612   3.926   0.265
 8833SOL    HW227399   3.703   3.799   0.313
 8834SOL     OW27400   6.113   3.389   4.924
 8834SOL    HW127401   6.036   3.451   4.928
 8834SOL    HW227402   6.081   3.297   4.902
 8835SOL     OW27403   5.782   1.501   6.780
 8835SOL    HW127404   5.813   1.406   6.780
 8835SOL    HW227405   5.859   1.562   6.761
 8836SOL     OW27406   5.420   2.339   0.381
 8836SOL    HW127407   5.393   2.244   0.364
 8836SOL    HW227408   5.514   2.353   0.350
 8837SOL     OW27409   6.717   0.041   1.791
 8837SOL    HW127410   6.684   6.981   1.741
 8837SOL    HW227411   6.640   0.088   1.834
 8838SOL     OW27412   0.768   4.821   2.414
 8838SOL    HW127413   0.714   4.887   2.362
 8838SOL    HW227414   0.712   4.741   2.435
 8839SOL     OW27415   3.787   5.491   2.641
 8839SOL    HW127416   3.711   5.489   2.707
 8839SOL    HW227417   3.839   5.575   2.652
 8840SOL     OW27418   5.726   0.195   1.859
 8840SOL    HW127419   5.754   0.287   1.884
 8840SOL    HW227420   5.675   0.154   1.935
 8841SOL     OW27421   5.190   1.369   2.592
 8841SOL    HW127422   5.281   1.387   2.629
 8841SOL    HW227423   5.121   1.402   2.656
 8842SOL     OW27424   3.334   3.773   3.737
 8842SOL    HW127425   3.361   3.755   3.643
 8842SOL    HW227426   3.326   3.872   3.751
 8843SOL     OW27427   1.631   3.020   4.599
 8843SOL    HW127428   1.677   2.949   4.546
 8843SOL    HW227429   1.694   3.056   4.669
 8844SOL     OW27430   0.237   1.720   4.791
 8844SOL    HW127431   0.159   1.682   4.741
 8844SOL    HW227432   0.210   1.737   4.886
 8845SOL     OW27433   2.598   4.862   0.365
 8845SOL    HW127434   2.660   4.808   0.423
 8845SOL    HW227435   2.523   4.804   0.334
 8846SOL     OW27436   5.554   4.624   4.341
 8846SOL    HW127437   5.506   4.709   4.362
 8846SOL    HW227438   5.498   4.546   4.370
 8847SOL     OW27439   1.844   0.989   3.034
 8847SOL    HW127440   1.796   0.911   3.074
 8847SOL    HW227441   1.876   0.965   2.943
 8848SOL     OW27442   3.072   1.991   2.224
 8848SOL    HW127443   2.976   1.962   2.217
 8848SOL    HW227444   3.077   2.078   2.271
 8849SOL     OW27445   3.135   4.940   3.524
 8849SOL    HW127446   3.114   5.029   3.565
 8849SOL    HW227447   3.211   4.950   3.460
 8850SOL     OW27448   2.757   1.147   0.755
 8850SOL    HW127449   2.693   1.145   0.678
 8850SOL    HW227450   2.841   1.194   0.727
 8851SOL     OW27451   1.286   4.573   1.970
 8851SOL    HW127452   1.269   4.627   2.052
 8851SOL    HW227453   1.217   4.595   1.901
 8852SOL     OW27454   5.072   3.144   6.158
 8852SOL    HW127455   5.169   3.122   6.153
 8852SOL    HW227456   5.053   3.227   6.105
 8853SOL     OW27457   3.130   0.503   4.411
 8853SOL    HW127458   3.048   0.516   4.354
 8853SOL    HW227459   3.111   0.434   4.481
 8854SOL     OW27460   2.479   0.747   6.173
 8854SOL    HW127461   2.547   0.691   6.221
 8854SOL    HW227462   2.486   0.842   6.203
 8855SOL     OW27463   0.069   6.210   0.374
 8855SOL    HW127464   0.119   6.236   0.457
 8855SOL    HW227465   0.052   6.291   0.318
 8856SOL     OW27466   6.189   0.101   5.719
 8856SOL    HW127467   6.151   0.193   5.710
 8856SOL    HW227468   6.114   0.036   5.733
 8857SOL     OW27469   6.146   1.977   3.816
 8857SOL    HW127470   6.093   1.911   3.868
 8857SOL    HW227471   6.208   1.930   3.753
 8858SOL     OW27472   2.141   3.280   5.540
 8858SOL    HW127473   2.062   3.298   5.482
 8858SOL    HW227474   2.133   3.188   5.580
 8859SOL     OW27475   0.122   6.897   5.304
 8859SOL    HW127476   0.101   6.937   5.214
 8859SOL    HW227477   0.068   6.944   5.374
 8860SOL     OW27478   1.880   4.025   3.007
 8860SOL    HW127479   1.813   4.095   3.032
 8860SOL    HW227480   1.838   3.935   3.012
 8861SOL     OW27481   3.405   2.286   6.330
 8861SOL    HW127482   3.310   2.278   6.301
 8861SOL    HW227483   3.432   2.382   6.332
 8862SOL     OW27484   6.245   1.435   3.526
 8862SOL    HW127485   6.197   1.479   3.602
 8862SOL    HW227486   6.251   1.336   3.543
 8863SOL     OW27487   1.718   5.696   4.798
 8863SOL    HW127488   1.716   5.768   4.729
 8863SOL    HW227489   1.659   5.721   4.874
 8864SOL     OW27490   2.325   3.385   6.389
 8864SOL    HW127491   2.348   3.292   6.417
 8864SOL    HW227492   2.275   3.431   6.463
 8865SOL     OW27493   3.250   1.732   5.007
 8865SOL    HW127494   3.210   1.697   4.922
 8865SOL    HW227495   3.304   1.659   5.050
 8866SOL     OW27496   4.973   6.935   4.074
 8866SOL    HW127497   5.000   6.925   4.170
 8866SOL    HW227498   4.977   6.846   4.028
 8867SOL     OW27499   5.161   2.805   2.737
 8867SOL    HW127500   5.090   2.786   2.669
 8867SOL    HW227501   5.144   2.894   2.779
 8868SOL     OW27502   5.920   3.907   0.761
 8868SOL    HW127503   5.954   4.001   0.751
 8868SOL    HW227504   5.825   3.902   0.730
 8869SOL     OW27505   4.447   5.541   3.508
 8869SOL    HW127506   4.484   5.461   3.459
 8869SOL    HW227507   4.491   5.549   3.597
 8870SOL     OW27508   3.436   0.005   0.501
 8870SOL    HW127509   3.468   0.050   0.418
 8870SOL    HW227510   3.498   0.028   0.577
 8871SOL     OW27511   3.588   1.146   4.044
 8871SOL    HW127512   3.625   1.232   4.078
 8871SOL    HW227513   3.568   1.154   3.946
 8872SOL     OW27514   1.773   4.075   4.231
 8872SOL    HW127515   1.676   4.066   4.208
 8872SOL    HW227516   1.808   3.987   4.263
 8873SOL     OW27517   6.300   6.230   1.877
 8873SOL    HW127518   6.396   6.243   1.900
 8873SOL    HW227519   6.243   6.253   1.955
 8874SOL     OW27520   2.039   6.982   1.074
 8874SOL    HW127521   1.948   6.984   1.032
 8874SOL    HW227522   2.101   6.927   1.018
 8875SOL     OW27523   1.083   2.869   5.035
 8875SOL    HW127524   0.988   2.845   5.016
 8875SOL    HW227525   1.142   2.818   4.972
 8876SOL     OW27526   0.771   0.207   4.681
 8876SOL    HW127527   0.797   0.149   4.758
 8876SOL    HW227528   0.835   0.195   4.606
 8877SOL     OW27529   3.073   0.631   4.672
 8877SOL    HW127530   3.136   0.672   4.606
 8877SOL    HW227531   3.124   0.597   4.751
 8878SOL     OW27532   0.659   5.371   0.566
 8878SOL    HW127533   0.602   5.453   0.571
 8878SOL    HW227534   0.706   5.358   0.654
 8879SOL     OW27535   6.043   5.090   1.226
 8879SOL    HW127536   5.966   5.079   1.289
 8879SOL    HW227537   6.103   5.011   1.232
 8880SOL     OW27538   7.011   5.729   4.367
 8880SOL    HW127539   0.056   5.784   4.422
 8880SOL    HW227540   6.919   5.739   4.405
 8881SOL     OW27541   5.974   0.115   4.204
 8881SOL    HW127542   5.947   0.139   4.110
 8881SOL    HW227543   5.916   0.041   4.237
 8882SOL     OW27544   5.200   1.502   0.817
 8882SOL    HW127545   5.102   1.509   0.836
 8882SOL    HW227546   5.237   1.421   0.863
 8883SOL     OW27547   0.794   1.054   5.462
 8883SOL    HW127548   0.724   1.015   5.403
 8883SOL    HW227549   0.874   1.078   5.407
 8884SOL     OW27550   5.849   6.053   6.471
 8884SOL    HW127551   5.879   6.050   6.376
 8884SOL    HW227552   5.801   5.968   6.494
 8885SOL     OW27553   6.734   4.005   1.471
 8885SOL    HW127554   6.826   3.984   1.504
 8885SOL    HW227555   6.740   4.068   1.393
 8886SOL     OW27556   3.311   6.553   5.783
 8886SOL    HW127557   3.399   6.508   5.797
 8886SOL    HW227558   3.288   6.608   5.863
 8887SOL     OW27559   3.216   1.440   1.020
 8887SOL    HW127560   3.181   1.428   1.113
 8887SOL    HW227561   3.314   1.423   1.018
 8888SOL     OW27562   0.740   1.819   1.102
 8888SOL    HW127563   0.696   1.741   1.147
 8888SOL    HW227564   0.822   1.845   1.155
 8889SOL     OW27565   5.521   6.445   5.559
 8889SOL    HW127566   5.583   6.368   5.575
 8889SOL    HW227567   5.557   6.527   5.603
 8890SOL     OW27568   6.703   6.001   4.172
 8890SOL    HW127569   6.780   5.937   4.165
 8890SOL    HW227570   6.667   6.018   4.080
 8891SOL     OW27571   6.145   3.475   6.416
 8891SOL    HW127572   6.108   3.472   6.508
 8891SOL    HW227573   6.217   3.545   6.411
 8892SOL     OW27574   3.338   6.029   3.542
 8892SOL    HW127575   3.267   5.971   3.584
 8892SOL    HW227576   3.303   6.066   3.455
 8893SOL     OW27577   1.243   0.845   1.883
 8893SOL    HW127578   1.216   0.914   1.950
 8893SOL    HW227579   1.214   0.874   1.792
 8894SOL     OW27580   3.863   3.090   5.526
 8894SOL    HW127581   3.840   3.085   5.428
 8894SOL    HW227582   3.879   3.186   5.551
 8895SOL     OW27583   6.651   1.535   1.855
 8895SOL    HW127584   6.561   1.530   1.900
 8895SOL    HW227585   6.648   1.481   1.771
 8896SOL     OW27586   1.821   3.355   4.785
 8896SOL    HW127587   1.919   3.367   4.769
 8896SOL    HW227588   1.787   3.432   4.840
 8897SOL     OW27589   2.033   1.725   2.979
 8897SOL    HW127590   1.987   1.652   2.928
 8897SOL    HW227591   2.050   1.695   3.073
 8898SOL     OW27592   6.242   3.547   4.615
 8898SOL    HW127593   6.163   3.560   4.676
 8898SOL    HW227594   6.211   3.507   4.529
 8899SOL     OW27595   1.665   4.647   0.396
 8899SOL    HW127596   1.659   4.710   0.319
 8899SOL    HW227597   1.759   4.617   0.407
 8900SOL     OW27598   5.711   3.927   3.120
 8900SOL    HW127599   5.665   3.994   3.179
 8900SOL    HW227600   5.807   3.920   3.146
 8901SOL     OW27601   2.589   1.057   4.324
 8901SOL    HW127602   2.534   1.103   4.254
 8901SOL    HW227603   2.531   1.032   4.401
 8902SOL     OW27604   3.117   6.042   6.929
 8902SOL    HW127605   3.123   5.959   6.874
 8902SOL    HW227606   3.117   6.018   0.007
 8903SOL     OW27607   1.716   0.899   4.333
 8903SOL    HW127608   1.658   0.977   4.356
 8903SOL    HW227609   1.671   0.815   4.363
 8904SOL     OW27610   6.543   5.557   3.665
 8904SOL    HW127611   6.553   5.617   3.744
 8904SOL    HW227612   6.632   5.518   3.641
 8905SOL     OW27613   2.196   3.905   4.589
 8905SOL    HW127614   2.168   3.815   4.621
 8905SOL    HW227615   2.191   3.971   4.664
 8906SOL     OW27616   0.123   6.642   6.799
 8906SOL    HW127617   0.037   6.615   6.842
 8906SOL    HW227618   0.185   6.678   6.869
 8907SOL     OW27619   3.315   1.982   5.007
 8907SOL    HW127620   3.291   1.884   5.009
 8907SOL    HW227621   3.285   2.024   5.093
 8908SOL     OW27622   1.558   2.832   0.072
 8908SOL    HW127623   1.583   2.817   0.168
 8908SOL    HW227624   1.528   2.926   0.059
 8909SOL     OW27625   2.035   0.684   4.801
 8909SOL    HW127626   1.969   0.664   4.873
 8909SOL    HW227627   2.105   0.612   4.800
 8910SOL     OW27628   1.860   3.454   6.203
 8910SOL    HW127629   1.929   3.471   6.132
 8910SOL    HW227630   1.769   3.465   6.164
 8911SOL     OW27631   3.998   2.159   4.778
 8911SOL    HW127632   3.932   2.103   4.728
 8911SOL    HW227633   3.955   2.198   4.859
 8912SOL     OW27634   4.097   1.616   6.895
 8912SOL    HW127635   4.080   1.666   6.810
 8912SOL    HW227636   4.058   1.667   6.972
 8913SOL     OW27637   4.595   5.292   0.668
 8913SOL    HW127638   4.550   5.348   0.737
 8913SOL    HW227639   4.650   5.222   0.713
 8914SOL     OW27640   4.389   0.598   5.315
 8914SOL    HW127641   4.474   0.547   5.326
 8914SOL    HW227642   4.402   0.671   5.248
 8915SOL     OW27643   1.210   2.959   3.899
 8915SOL    HW127644   1.111   2.965   3.914
 8915SOL    HW227645   1.258   3.013   3.967
 8916SOL     OW27646   0.390   3.533   1.965
 8916SOL    HW127647   0.411   3.435   1.964
 8916SOL    HW227648   0.292   3.546   1.948
 8917SOL     OW27649   5.490   4.861   6.328
 8917SOL    HW127650   5.427   4.922   6.376
 8917SOL    HW227651   5.502   4.777   6.380
 8918SOL     OW27652   6.744   5.627   0.858
 8918SOL    HW127653   6.732   5.697   0.929
 8918SOL    HW227654   6.832   5.581   0.872
 8919SOL     OW27655   4.609   3.426   0.704
 8919SOL    HW127656   4.514   3.397   0.706
 8919SOL    HW227657   4.615   3.518   0.667
 8920SOL     OW27658   6.955   6.596   6.462
 8920SOL    HW127659   0.030   6.618   6.484
 8920SOL    HW227660   6.901   6.591   6.546
 8921SOL     OW27661   2.426   1.906   3.401
 8921SOL    HW127662   2.463   1.992   3.367
 8921SOL    HW227663   2.496   1.835   3.394
 8922SOL     OW27664   2.803   4.610   1.460
 8922SOL    HW127665   2.777   4.651   1.547
 8922SOL    HW227666   2.722   4.572   1.416
 8923SOL     OW27667   1.293   3.404   5.995
 8923SOL    HW127668   1.359   3.380   5.923
 8923SOL    HW227669   1.203   3.420   5.954
 8924SOL     OW27670   3.312   5.759   5.862
 8924SOL    HW127671   3.361   5.840   5.832
 8924SOL    HW227672   3.262   5.780   5.946
 8925SOL     OW27673   0.966   0.728   1.850
 8925SOL    HW127674   0.937   0.793   1.920
 8925SOL    HW227675   1.066   0.726   1.846
 8926SOL     OW27676   6.035   3.433   0.323
 8926SOL    HW127677   6.050   3.509   0.387
 8926SOL    HW227678   5.965   3.459   0.257
 8927SOL     OW27679   1.615   2.169   5.056
 8927SOL    HW127680   1.689   2.200   4.995
 8927SOL    HW227681   1.622   2.217   5.143
 8928SOL     OW27682   6.835   1.029   5.145
 8928SOL    HW127683   6.793   1.111   5.183
 8928SOL    HW227684   6.873   1.049   5.055
 8929SOL     OW27685   0.538   3.519   3.732
 8929SOL    HW127686   0.531   3.432   3.781
 8929SOL    HW227687   0.484   3.515   3.648
 8930SOL     OW27688   1.953   4.669   4.863
 8930SOL    HW127689   1.917   4.589   4.910
 8930SOL    HW227690   2.035   4.701   4.910
 8931SOL     OW27691   3.763   2.957   0.761
 8931SOL    HW127692   3.740   2.942   0.665
 8931SOL    HW227693   3.738   3.050   0.788
 8932SOL     OW27694   5.483   0.458   6.783
 8932SOL    HW127695   5.428   0.513   6.845
 8932SOL    HW227696   5.555   0.514   6.743
 8933SOL     OW27697   1.085   1.967   5.594
 8933SOL    HW127698   1.098   1.954   5.692
 8933SOL    HW227699   1.032   2.050   5.578
 8934SOL     OW27700   2.604   5.647   4.013
 8934SOL    HW127701   2.687   5.598   4.041
 8934SOL    HW227702   2.532   5.581   3.992
 8935SOL     OW27703   4.968   4.209   1.705
 8935SOL    HW127704   5.039   4.221   1.775
 8935SOL    HW227705   4.894   4.153   1.741
 8936SOL     OW27706   0.473   3.710   0.696
 8936SOL    HW127707   0.545   3.748   0.637
 8936SOL    HW227708   0.510   3.693   0.787
 8937SOL     OW27709   0.211   0.622   4.155
 8937SOL    HW127710   0.234   0.684   4.229
 8937SOL    HW227711   0.222   0.528   4.185
 8938SOL     OW27712   0.022   1.260   0.158
 8938SOL    HW127713   0.033   1.258   0.258
 8938SOL    HW227714   6.946   1.246   0.135
 8939SOL     OW27715   6.304   2.773   4.810
 8939SOL    HW127716   6.273   2.729   4.726
 8939SOL    HW227717   6.250   2.855   4.827
 8940SOL     OW27718   5.432   1.986   0.631
 8940SOL    HW127719   5.453   1.895   0.667
 8940SOL    HW227720   5.491   2.054   0.674
 8941SOL     OW27721   4.844   2.066   1.989
 8941SOL    HW127722   4.749   2.074   2.017
 8941SOL    HW227723   4.848   2.054   1.889
 8942SOL     OW27724   0.751   5.261   4.410
 8942SOL    HW127725   0.797   5.243   4.323
 8942SOL    HW227726   0.677   5.195   4.423
 8943SOL     OW27727   4.347   4.739   7.016
 8943SOL    HW127728   4.409   4.773   0.068
 8943SOL    HW227729   4.399   4.691   6.946
 8944SOL     OW27730   4.986   4.884   4.703
 8944SOL    HW127731   4.928   4.803   4.706
 8944SOL    HW227732   4.939   4.961   4.748
 8945SOL     OW27733   6.734   2.112   4.958
 8945SOL    HW127734   6.710   2.101   4.861
 8945SOL    HW227735   6.674   2.056   5.014
 8946SOL     OW27736   3.559   0.281   4.657
 8946SOL    HW127737   3.521   0.327   4.576
 8946SOL    HW227738   3.657   0.269   4.645
 8947SOL     OW27739   1.635   3.803   6.363
 8947SOL    HW127740   1.659   3.894   6.328
 8947SOL    HW227741   1.583   3.812   6.448
 8948SOL     OW27742   6.464   5.686   3.462
 8948SOL    HW127743   6.485   5.640   3.548
 8948SOL    HW227744   6.440   5.618   3.392
 8949SOL     OW27745   3.846   5.950   0.019
 8949SOL    HW127746   3.780   5.967   6.966
 8949SOL    HW227747   3.833   6.017   0.092
 8950SOL     OW27748   4.438   3.560   1.364
 8950SOL    HW127749   4.440   3.576   1.463
 8950SOL    HW227750   4.527   3.526   1.334
 8951SOL     OW27751   2.207   1.011   4.299
 8951SOL    HW127752   2.213   0.927   4.245
 8951SOL    HW227753   2.145   0.996   4.376
 8952SOL     OW27754   2.125   5.337   2.979
 8952SOL    HW127755   2.147   5.340   2.881
 8952SOL    HW227756   2.191   5.393   3.030
 8953SOL     OW27757   2.018   4.772   1.101
 8953SOL    HW127758   2.087   4.768   1.028
 8953SOL    HW227759   2.052   4.722   1.180
 8954SOL     OW27760   0.198   6.585   3.933
 8954SOL    HW127761   0.148   6.611   3.851
 8954SOL    HW227762   0.278   6.644   3.943
 8955SOL     OW27763   0.249   2.970   2.414
 8955SOL    HW127764   0.267   2.876   2.388
 8955SOL    HW227765   0.162   2.975   2.463
 8956SOL     OW27766   0.610   0.507   6.433
 8956SOL    HW127767   0.626   0.415   6.396
 8956SOL    HW227768   0.694   0.560   6.427
 8957SOL     OW27769   1.649   4.870   1.509
 8957SOL    HW127770   1.574   4.934   1.491
 8957SOL    HW227771   1.737   4.915   1.490
 8958SOL     OW27772   1.458   2.737   5.221
 8958SOL    HW127773   1.468   2.638   5.233
 8958SOL    HW227774   1.383   2.770   5.278
 8959SOL     OW27775   1.194   3.468   2.229
 8959SOL    HW127776   1.245   3.382   2.222
 8959SOL    HW227777   1.117   3.466   2.166
 8960SOL     OW27778   6.692   5.235   3.872
 8960SOL    HW127779   6.738   5.321   3.850
 8960SOL    HW227780   6.685   5.179   3.790
 8961SOL     OW27781   4.236   1.298   3.844
 8961SOL    HW127782   4.319   1.246   3.824
 8961SOL    HW227783   4.176   1.295   3.765
 8962SOL     OW27784   7.004   6.284   1.740
 8962SOL    HW127785   6.946   6.353   1.782
 8962SOL    HW227786   7.015   6.303   1.643
 8963SOL     OW27787   3.414   6.443   4.752
 8963SOL    HW127788   3.491   6.506   4.764
 8963SOL    HW227789   3.448   6.348   4.755
 8964SOL     OW27790   4.902   3.920   3.162
 8964SOL    HW127791   4.931   3.877   3.247
 8964SOL    HW227792   4.835   3.861   3.116
 8965SOL     OW27793   3.512   5.340   0.299
 8965SOL    HW127794   3.566   5.261   0.330
 8965SOL    HW227795   3.512   5.343   0.199
 8966SOL     OW27796   6.531   4.788   6.465
 8966SOL    HW127797   6.597   4.836   6.407
 8966SOL    HW227798   6.516   4.696   6.429
 8967SOL     OW27799   4.316   0.614   2.759
 8967SOL    HW127800   4.236   0.556   2.773
 8967SOL    HW227801   4.292   0.709   2.778
 8968SOL     OW27802   3.017   4.766   1.369
 8968SOL    HW127803   2.938   4.710   1.394
 8968SOL    HW227804   2.996   4.862   1.385
 8969SOL     OW27805   0.374   0.700   3.332
 8969SOL    HW127806   0.418   0.758   3.400
 8969SOL    HW227807   0.351   0.611   3.373
 8970SOL     OW27808   1.372   2.602   6.950
 8970SOL    HW127809   1.411   2.632   0.018
 8970SOL    HW227810   1.362   2.502   6.951
 8971SOL     OW27811   4.541   6.594   1.924
 8971SOL    HW127812   4.465   6.529   1.924
 8971SOL    HW227813   4.508   6.685   1.898
 8972SOL     OW27814   5.231   4.401   0.406
 8972SOL    HW127815   5.267   4.432   0.494
 8972SOL    HW227816   5.135   4.372   0.417
 8973SOL     OW27817   0.109   2.596   2.814
 8973SOL    HW127818   0.192   2.628   2.769
 8973SOL    HW227819   0.041   2.571   2.746
 8974SOL     OW27820   2.121   3.724   3.935
 8974SOL    HW127821   2.094   3.694   4.027
 8974SOL    HW227822   2.184   3.658   3.895
 8975SOL     OW27823   0.114   0.054   0.133
 8975SOL    HW127824   0.170   0.134   0.153
 8975SOL    HW227825   0.018   0.081   0.126
 8976SOL     OW27826   0.014   6.232   0.818
 8976SOL    HW127827   6.956   6.187   0.773
 8976SOL    HW227828   0.013   6.210   0.916
 8977SOL     OW27829   7.006   4.640   6.462
 8977SOL    HW127830   0.014   4.698   6.386
 8977SOL    HW227831   0.000   4.544   6.438
 8978SOL     OW27832   5.276   6.402   4.831
 8978SOL    HW127833   5.299   6.370   4.739
 8978SOL    HW227834   5.357   6.443   4.873
 8979SOL     OW27835   1.104   5.449   6.176
 8979SOL    HW127836   1.033   5.461   6.245
 8979SOL    HW227837   1.119   5.351   6.160
 8980SOL     OW27838   5.239   2.108   5.421
 8980SOL    HW127839   5.251   2.141   5.514
 8980SOL    HW227840   5.200   2.015   5.424
 8981SOL     OW27841   5.080   2.448   5.549
 8981SOL    HW127842   5.129   2.470   5.465
 8981SOL    HW227843   5.042   2.356   5.543
 8982SOL     OW27844   6.498   2.233   1.730
 8982SOL    HW127845   6.521   2.230   1.633
 8982SOL    HW227846   6.405   2.268   1.742
 8983SOL     OW27847   1.255   5.226   1.159
 8983SOL    HW127848   1.306   5.294   1.212
 8983SOL    HW227849   1.318   5.157   1.124
 8984SOL     OW27850   6.194   0.161   4.369
 8984SOL    HW127851   6.129   0.125   4.302
 8984SOL    HW227852   6.144   0.199   4.447
 8985SOL     OW27853   4.113   2.299   1.183
 8985SOL    HW127854   4.038   2.335   1.126
 8985SOL    HW227855   4.075   2.237   1.252
 8986SOL     OW27856   5.416   4.233   2.320
 8986SOL    HW127857   5.478   4.293   2.370
 8986SOL    HW227858   5.464   4.193   2.242
 8987SOL     OW27859   3.232   0.484   1.125
 8987SOL    HW127860   3.154   0.421   1.131
 8987SOL    HW227861   3.214   0.565   1.181
 8988SOL     OW27862   2.171   5.271   0.165
 8988SOL    HW127863   2.127   5.209   0.100
 8988SOL    HW227864   2.152   5.239   0.258
 8989SOL     OW27865   4.785   2.956   2.829
 8989SOL    HW127866   4.831   3.021   2.890
 8989SOL    HW227867   4.777   2.868   2.874
 8990SOL     OW27868   2.210   6.157   1.101
 8990SOL    HW127869   2.300   6.195   1.083
 8990SOL    HW227870   2.212   6.058   1.087
 8991SOL     OW27871   2.464   2.241   1.460
 8991SOL    HW127872   2.515   2.204   1.537
 8991SOL    HW227873   2.459   2.341   1.468
 8992SOL     OW27874   0.385   3.286   0.617
 8992SOL    HW127875   0.357   3.375   0.653
 8992SOL    HW227876   0.326   3.261   0.540
 8993SOL     OW27877   5.201   2.578   2.911
 8993SOL    HW127878   5.175   2.636   2.834
 8993SOL    HW227879   5.143   2.497   2.913
 8994SOL     OW27880   1.865   5.113   4.134
 8994SOL    HW127881   1.901   5.023   4.161
 8994SOL    HW227882   1.940   5.173   4.110
 8995SOL     OW27883   1.618   2.208   5.361
 8995SOL    HW127884   1.653   2.141   5.426
 8995SOL    HW227885   1.553   2.269   5.407
 8996SOL     OW27886   0.840   3.964   1.852
 8996SOL    HW127887   0.919   3.909   1.879
 8996SOL    HW227888   0.809   4.019   1.930
 8997SOL     OW27889   5.639   0.874   6.333
 8997SOL    HW127890   5.651   0.969   6.361
 8997SOL    HW227891   5.594   0.823   6.407
 8998SOL     OW27892   0.203   1.766   5.069
 8998SOL    HW127893   0.277   1.832   5.085
 8998SOL    HW227894   0.120   1.798   5.115
 8999SOL     OW27895   4.957   0.855   6.314
 8999SOL    HW127896   4.928   0.950   6.317
 8999SOL    HW227897   4.973   0.822   6.407
 9000SOL     OW27898   2.631   4.322   6.688
 9000SOL    HW127899   2.543   4.311   6.643
 9000SOL    HW227900   2.685   4.238   6.677
 9001SOL     OW27901   1.022   4.494   2.574
 9001SOL    HW127902   1.057   4.499   2.668
 9001SOL    HW227903   1.040   4.581   2.528
 9002SOL     OW27904   6.957   5.413   5.921
 9002SOL    HW127905   6.946   5.356   6.002
 9002SOL    HW227906   0.007   5.483   5.940
 9003SOL     OW27907   5.959   2.292   0.966
 9003SOL    HW127908   5.992   2.321   1.056
 9003SOL    HW227909   6.017   2.218   0.932
 9004SOL     OW27910   5.066   6.506   2.108
 9004SOL    HW127911   5.002   6.529   2.181
 9004SOL    HW227912   5.109   6.590   2.074
 9005SOL     OW27913   4.963   2.528   3.627
 9005SOL    HW127914   4.949   2.485   3.716
 9005SOL    HW227915   4.903   2.484   3.559
 9006SOL     OW27916   1.142   5.792   0.925
 9006SOL    HW127917   1.099   5.839   1.003
 9006SOL    HW227918   1.154   5.695   0.946
 9007SOL     OW27919   3.147   5.197   3.970
 9007SOL    HW127920   3.245   5.189   3.954
 9007SOL    HW227921   3.126   5.290   4.002
 9008SOL     OW27922   6.199   4.707   2.438
 9008SOL    HW127923   6.257   4.677   2.361
 9008SOL    HW227924   6.192   4.632   2.504
 9009SOL     OW27925   2.930   6.467   0.915
 9009SOL    HW127926   2.835   6.498   0.922
 9009SOL    HW227927   2.944   6.391   0.978
 9010SOL     OW27928   1.043   6.631   5.098
 9010SOL    HW127929   0.951   6.632   5.138
 9010SOL    HW227930   1.052   6.708   5.036
 9011SOL     OW27931   3.830   2.353   1.441
 9011SOL    HW127932   3.762   2.293   1.484
 9011SOL    HW227933   3.905   2.298   1.405
 9012SOL     OW27934   1.788   5.741   0.533
 9012SOL    HW127935   1.734   5.786   0.462
 9012SOL    HW227936   1.839   5.809   0.584
 9013SOL     OW27937   6.388   5.667   4.616
 9013SOL    HW127938   6.358   5.573   4.598
 9013SOL    HW227939   6.485   5.676   4.593
 9014SOL     OW27940   1.638   1.619   0.453
 9014SOL    HW127941   1.558   1.567   0.422
 9014SOL    HW227942   1.721   1.579   0.415
 9015SOL     OW27943   6.617   1.427   6.856
 9015SOL    HW127944   6.617   1.328   6.869
 9015SOL    HW227945   6.550   1.469   6.916
 9016SOL     OW27946   6.394   5.999   5.986
 9016SOL    HW127947   6.434   6.059   5.917
 9016SOL    HW227948   6.400   5.904   5.956
 9017SOL     OW27949   5.469   2.052   3.345
 9017SOL    HW127950   5.488   1.996   3.264
 9017SOL    HW227951   5.520   2.138   3.338
 9018SOL     OW27952   3.646   1.459   5.258
 9018SOL    HW127953   3.577   1.404   5.304
 9018SOL    HW227954   3.648   1.436   5.161
 9019SOL     OW27955   1.482   7.005   0.069
 9019SOL    HW127956   1.495   6.945   0.148
 9019SOL    HW227957   1.570   0.001   0.024
 9020SOL     OW27958   1.856   3.859   2.322
 9020SOL    HW127959   1.952   3.874   2.348
 9020SOL    HW227960   1.808   3.947   2.322
 9021SOL     OW27961   6.946   6.479   3.948
 9021SOL    HW127962   0.023   6.506   3.947
 9021SOL    HW227963   6.900   6.523   4.026
 9022SOL     OW27964   2.770   0.445   0.428
 9022SOL    HW127965   2.702   0.448   0.355
 9022SOL    HW227966   2.800   0.351   0.442
 9023SOL     OW27967   4.074   3.448   3.481
 9023SOL    HW127968   4.020   3.530   3.461
 9023SOL    HW227969   4.103   3.449   3.576
 9024SOL     OW27970   1.787   5.754   6.019
 9024SOL    HW127971   1.728   5.825   5.982
 9024SOL    HW227972   1.882   5.771   5.992
 9025SOL     OW27973   6.248   5.931   1.845
 9025SOL    HW127974   6.164   5.975   1.815
 9025SOL    HW227975   6.294   5.988   1.914
 9026SOL     OW27976   3.793   3.291   3.873
 9026SOL    HW127977   3.835   3.373   3.835
 9026SOL    HW227978   3.846   3.211   3.845
 9027SOL     OW27979   2.498   1.628   3.766
 9027SOL    HW127980   2.462   1.569   3.839
 9027SOL    HW227981   2.425   1.686   3.731
 9028SOL     OW27982   2.212   4.436   6.636
 9028SOL    HW127983   2.168   4.417   6.724
 9028SOL    HW227984   2.147   4.484   6.576
 9029SOL     OW27985   3.860   5.521   4.953
 9029SOL    HW127986   3.864   5.438   5.008
 9029SOL    HW227987   3.808   5.504   4.869
 9030SOL     OW27988   1.591   0.598   2.611
 9030SOL    HW127989   1.543   0.633   2.531
 9030SOL    HW227990   1.541   0.621   2.694
 9031SOL     OW27991   2.997   5.204   6.080
 9031SOL    HW127992   2.951   5.241   5.999
 9031SOL    HW227993   3.003   5.105   6.072
 9032SOL     OW27994   3.932   2.978   1.248
 9032SOL    HW127995   3.887   2.923   1.178
 9032SOL    HW227996   3.954   3.068   1.210
 9033SOL     OW27997   1.815   3.226   4.122
 9033SOL    HW127998   1.784   3.319   4.102
 9033SOL    HW227999   1.851   3.184   4.038
 9034SOL     OW28000   2.707   6.723   5.180
 9034SOL    HW128001   2.761   6.753   5.259
 9034SOL    HW228002   2.611   6.746   5.194
 9035SOL     OW28003   0.764   6.747   5.585
 9035SOL    HW128004   0.751   6.729   5.683
 9035SOL    HW228005   0.739   6.841   5.565
 9036SOL     OW28006   2.407   2.150   5.604
 9036SOL    HW128007   2.342   2.100   5.548
 9036SOL    HW228008   2.428   2.238   5.560
 9037SOL     OW28009   1.910   3.716   6.687
 9037SOL    HW128010   1.987   3.767   6.648
 9037SOL    HW228011   1.854   3.777   6.742
 9038SOL     OW28012   5.606   0.995   5.900
 9038SOL    HW128013   5.506   0.999   5.895
 9038SOL    HW228014   5.643   1.087   5.912
 9039SOL     OW28015   2.081   4.347   5.265
 9039SOL    HW128016   2.103   4.251   5.282
 9039SOL    HW228017   2.040   4.386   5.347
 9040SOL     OW28018   2.911   0.924   3.549
 9040SOL    HW128019   3.009   0.912   3.534
 9040SOL    HW228020   2.896   0.990   3.623
 9041SOL     OW28021   0.831   1.568   2.353
 9041SOL    HW128022   0.924   1.529   2.351
 9041SOL    HW228023   0.775   1.524   2.283
 9042SOL     OW28024   2.622   6.575   3.704
 9042SOL    HW128025   2.686   6.603   3.632
 9042SOL    HW228026   2.606   6.476   3.698
 9043SOL     OW28027   1.962   1.867   5.777
 9043SOL    HW128028   2.006   1.820   5.701
 9043SOL    HW228029   1.994   1.962   5.781
 9044SOL     OW28030   6.382   0.974   0.907
 9044SOL    HW128031   6.380   0.941   0.812
 9044SOL    HW228032   6.312   0.927   0.960
 9045SOL     OW28033   3.651   1.110   2.633
 9045SOL    HW128034   3.598   1.136   2.553
 9045SOL    HW228035   3.589   1.081   2.706
 9046SOL     OW28036   3.748   3.881   5.187
 9046SOL    HW128037   3.799   3.939   5.125
 9046SOL    HW228038   3.714   3.801   5.138
 9047SOL     OW28039   1.698   4.309   5.354
 9047SOL    HW128040   1.758   4.229   5.354
 9047SOL    HW228041   1.724   4.370   5.429
 9048SOL     OW28042   0.622   3.602   5.806
 9048SOL    HW128043   0.537   3.617   5.857
 9048SOL    HW228044   0.601   3.557   5.719
 9049SOL     OW28045   5.016   6.583   6.745
 9049SOL    HW128046   4.944   6.520   6.717
 9049SOL    HW228047   4.975   6.664   6.787
 9050SOL     OW28048   1.119   5.190   6.749
 9050SOL    HW128049   1.039   5.237   6.785
 9050SOL    HW228050   1.115   5.188   6.649
 9051SOL     OW28051   4.438   5.972   1.134
 9051SOL    HW128052   4.379   6.019   1.068
 9051SOL    HW228053   4.387   5.898   1.177
 9052SOL     OW28054   2.727   4.719   4.431
 9052SOL    HW128055   2.634   4.733   4.465
 9052SOL    HW228056   2.729   4.737   4.332
 9053SOL     OW28057   2.604   2.122   4.005
 9053SOL    HW128058   2.666   2.181   3.952
 9053SOL    HW228059   2.558   2.059   3.943
 9054SOL     OW28060   1.974   0.844   2.079
 9054SOL    HW128061   2.015   0.902   2.008
 9054SOL    HW228062   2.021   0.755   2.080
 9055SOL     OW28063   0.406   4.196   3.438
 9055SOL    HW128064   0.402   4.154   3.347
 9055SOL    HW228065   0.364   4.136   3.505
 9056SOL     OW28066   5.096   0.490   1.635
 9056SOL    HW128067   5.071   0.581   1.668
 9056SOL    HW228068   5.190   0.469   1.662
 9057SOL     OW28069   6.512   4.689   5.654
 9057SOL    HW128070   6.428   4.727   5.692
 9057SOL    HW228071   6.574   4.763   5.628
 9058SOL     OW28072   2.310   2.050   4.341
 9058SOL    HW128073   2.307   1.996   4.257
 9058SOL    HW228074   2.385   2.018   4.399
 9059SOL     OW28075   6.964   0.610   2.974
 9059SOL    HW128076   0.040   0.578   2.981
 9059SOL    HW228077   6.922   0.606   3.064
 9060SOL     OW28078   6.866   3.827   2.712
 9060SOL    HW128079   6.837   3.753   2.652
 9060SOL    HW228080   6.896   3.789   2.800
 9061SOL     OW28081   4.628   5.696   3.148
 9061SOL    HW128082   4.639   5.632   3.072
 9061SOL    HW228083   4.628   5.790   3.113
 9062SOL     OW28084   0.964   4.994   1.899
 9062SOL    HW128085   0.907   5.076   1.911
 9062SOL    HW228086   0.939   4.926   1.968
 9063SOL     OW28087   3.126   0.803   1.959
 9063SOL    HW128088   3.158   0.831   1.868
 9063SOL    HW228089   3.117   0.883   2.018
 9064SOL     OW28090   6.244   4.168   4.396
 9064SOL    HW128091   6.291   4.149   4.310
 9064SOL    HW228092   6.294   4.240   4.445
 9065SOL     OW28093   2.837   6.076   5.850
 9065SOL    HW128094   2.749   6.061   5.896
 9065SOL    HW228095   2.881   5.988   5.834
 9066SOL     OW28096   6.335   0.266   6.085
 9066SOL    HW128097   6.323   0.296   5.991
 9066SOL    HW228098   6.408   0.198   6.090
 9067SOL     OW28099   6.523   6.213   4.372
 9067SOL    HW128100   6.426   6.196   4.352
 9067SOL    HW228101   6.576   6.205   4.287
 9068SOL     OW28102   3.337   6.649   5.156
 9068SOL    HW128103   3.335   6.704   5.073
 9068SOL    HW228104   3.285   6.564   5.141
 9069SOL     OW28105   4.506   1.938   2.827
 9069SOL    HW128106   4.452   1.984   2.756
 9069SOL    HW228107   4.481   1.975   2.916
 9070SOL     OW28108   1.869   2.570   6.291
 9070SOL    HW128109   1.786   2.522   6.320
 9070SOL    HW228110   1.938   2.503   6.263
 9071SOL     OW28111   4.832   0.214   6.463
 9071SOL    HW128112   4.928   0.209   6.491
 9071SOL    HW228113   4.775   0.161   6.525
 9072SOL     OW28114   5.185   6.605   1.175
 9072SOL    HW128115   5.096   6.588   1.217
 9072SOL    HW228116   5.187   6.697   1.138
 9073SOL     OW28117   3.703   6.321   1.705
 9073SOL    HW128118   3.629   6.255   1.718
 9073SOL    HW228119   3.721   6.333   1.608
 9074SOL     OW28120   1.427   1.051   1.683
 9074SOL    HW128121   1.436   1.011   1.774
 9074SOL    HW228122   1.356   1.002   1.632
 9075SOL     OW28123   0.211   0.055   1.962
 9075SOL    HW128124   0.202   0.072   2.060
 9075SOL    HW228125   0.124   0.025   1.925
 9076SOL     OW28126   4.557   1.494   3.644
 9076SOL    HW128127   4.470   1.542   3.654
 9076SOL    HW228128   4.595   1.473   3.734
 9077SOL     OW28129   4.668   1.627   6.388
 9077SOL    HW128130   4.646   1.637   6.485
 9077SOL    HW228131   4.707   1.536   6.373
 9078SOL     OW28132   5.289   4.829   6.788
 9078SOL    HW128133   5.364   4.780   6.744
 9078SOL    HW228134   5.326   4.891   6.857
 9079SOL     OW28135   1.469   0.156   4.827
 9079SOL    HW128136   1.373   0.148   4.801
 9079SOL    HW228137   1.477   0.198   4.917
 9080SOL     OW28138   5.996   2.982   0.172
 9080SOL    HW128139   6.003   2.953   0.268
 9080SOL    HW228140   6.044   2.916   0.114
 9081SOL     OW28141   3.577   1.440   1.886
 9081SOL    HW128142   3.539   1.507   1.949
 9081SOL    HW228143   3.592   1.354   1.935
 9082SOL     OW28144   2.197   6.387   5.138
 9082SOL    HW128145   2.138   6.452   5.186
 9082SOL    HW228146   2.292   6.417   5.146
 9083SOL     OW28147   3.919   3.773   6.781
 9083SOL    HW128148   3.902   3.845   6.714
 9083SOL    HW228149   3.934   3.814   6.871
 9084SOL     OW28150   1.087   2.252   6.346
 9084SOL    HW128151   1.171   2.288   6.305
 9084SOL    HW228152   1.026   2.220   6.274
 9085SOL     OW28153   2.302   5.701   1.568
 9085SOL    HW128154   2.400   5.717   1.552
 9085SOL    HW228155   2.263   5.780   1.614
 9086SOL     OW28156   5.704   4.416   1.216
 9086SOL    HW128157   5.796   4.414   1.178
 9086SOL    HW228158   5.637   4.395   1.145
 9087SOL     OW28159   5.339   2.927   2.351
 9087SOL    HW128160   5.298   2.955   2.264
 9087SOL    HW228161   5.309   2.989   2.423
 9088SOL     OW28162   6.385   0.023   1.390
 9088SOL    HW128163   6.415   0.115   1.366
 9088SOL    HW228164   6.285   0.020   1.395
 9089SOL     OW28165   3.809   5.759   5.387
 9089SOL    HW128166   3.733   5.824   5.386
 9089SOL    HW228167   3.827   5.728   5.294
 9090SOL     OW28168   5.213   0.534   3.675
 9090SOL    HW128169   5.301   0.538   3.721
 9090SOL    HW228170   5.211   0.454   3.614
 9091SOL     OW28171   2.787   3.362   0.912
 9091SOL    HW128172   2.724   3.418   0.858
 9091SOL    HW228173   2.881   3.377   0.879
 9092SOL     OW28174   0.835   1.198   0.112
 9092SOL    HW128175   0.873   1.183   0.021
 9092SOL    HW228176   0.737   1.177   0.111
 9093SOL     OW28177   1.142   6.417   6.562
 9093SOL    HW128178   1.130   6.318   6.565
 9093SOL    HW228179   1.124   6.455   6.653
 9094SOL     OW28180   0.885   5.114   2.726
 9094SOL    HW128181   0.981   5.127   2.751
 9094SOL    HW228182   0.878   5.091   2.629
 9095SOL     OW28183   4.914   3.934   6.050
 9095SOL    HW128184   4.816   3.927   6.073
 9095SOL    HW228185   4.929   3.896   5.959
 9096SOL     OW28186   5.478   3.906   2.991
 9096SOL    HW128187   5.576   3.898   3.011
 9096SOL    HW228188   5.455   4.003   2.977
 9097SOL     OW28189   0.285   3.312   6.781
 9097SOL    HW128190   0.257   3.353   6.868
 9097SOL    HW228191   0.257   3.371   6.705
 9098SOL     OW28192   3.440   2.473   0.024
 9098SOL    HW128193   3.488   2.464   0.111
 9098SOL    HW228194   3.501   2.516   6.976
 9099SOL     OW28195   3.376   3.525   0.616
 9099SOL    HW128196   3.387   3.448   0.679
 9099SOL    HW228197   3.362   3.609   0.669
 9100SOL     OW28198   0.977   3.270   2.760
 9100SOL    HW128199   1.027   3.279   2.675
 9100SOL    HW228200   0.962   3.173   2.781
 9101SOL     OW28201   2.090   2.893   2.994
 9101SOL    HW128202   2.120   2.832   2.920
 9101SOL    HW228203   2.136   2.867   3.079
 9102SOL     OW28204   3.209   6.779   1.751
 9102SOL    HW128205   3.134   6.813   1.694
 9102SOL    HW228206   3.173   6.720   1.822
 9103SOL     OW28207   6.584   3.678   6.853
 9103SOL    HW128208   6.513   3.745   6.831
 9103SOL    HW228209   6.543   3.587   6.855
 9104SOL     OW28210   4.316   6.413   3.033
 9104SOL    HW128211   4.322   6.333   3.094
 9104SOL    HW228212   4.406   6.455   3.024
 9105SOL     OW28213   1.807   0.865   0.614
 9105SOL    HW128214   1.812   0.805   0.534
 9105SOL    HW228215   1.734   0.931   0.601
 9106SOL     OW28216   5.797   4.231   6.572
 9106SOL    HW128217   5.699   4.231   6.594
 9106SOL    HW228218   5.825   4.323   6.546
 9107SOL     OW28219   3.596   0.560   5.577
 9107SOL    HW128220   3.667   0.560   5.647
 9107SOL    HW228221   3.562   0.467   5.564
 9108SOL     OW28222   5.433   3.792   5.656
 9108SOL    HW128223   5.445   3.884   5.693
 9108SOL    HW228224   5.504   3.775   5.587
 9109SOL     OW28225   1.435   2.571   2.672
 9109SOL    HW128226   1.429   2.627   2.754
 9109SOL    HW228227   1.502   2.498   2.686
 9110SOL     OW28228   2.045   4.436   4.056
 9110SOL    HW128229   2.034   4.472   3.964
 9110SOL    HW228230   2.123   4.373   4.058
 9111SOL     OW28231   3.706   3.026   6.916
 9111SOL    HW128232   3.748   3.058   7.000
 9111SOL    HW228233   3.733   3.086   6.840
 9112SOL     OW28234   0.967   4.519   5.084
 9112SOL    HW128235   0.981   4.576   5.003
 9112SOL    HW228236   0.916   4.437   5.057
 9113SOL     OW28237   4.543   6.894   0.658
 9113SOL    HW128238   4.466   6.925   0.602
 9113SOL    HW228239   4.556   6.796   0.646
 9114SOL     OW28240   1.399   4.851   1.017
 9114SOL    HW128241   1.330   4.828   1.086
 9114SOL    HW228242   1.458   4.924   1.052
 9115SOL     OW28243   0.765   5.532   5.811
 9115SOL    HW128244   0.690   5.468   5.831
 9115SOL    HW228245   0.769   5.602   5.882
 9116SOL     OW28246   6.678   1.582   0.241
 9116SOL    HW128247   6.646   1.577   0.146
 9116SOL    HW228248   6.679   1.490   0.280
 9117SOL     OW28249   5.704   2.909   0.602
 9117SOL    HW128250   5.636   2.841   0.627
 9117SOL    HW228251   5.795   2.867   0.599
 9118SOL     OW28252   6.107   5.457   0.313
 9118SOL    HW128253   6.157   5.537   0.280
 9118SOL    HW228254   6.131   5.438   0.408
 9119SOL     OW28255   5.290   1.089   1.568
 9119SOL    HW128256   5.235   1.114   1.488
 9119SOL    HW228257   5.279   1.160   1.638
 9120SOL     OW28258   5.883   2.208   6.027
 9120SOL    HW128259   5.817   2.210   5.952
 9120SOL    HW228260   5.964   2.157   6.000
 9121SOL     OW28261   2.746   2.355   6.044
 9121SOL    HW128262   2.744   2.417   6.122
 9121SOL    HW228263   2.824   2.378   5.986
 9122SOL     OW28264   1.904   4.202   1.978
 9122SOL    HW128265   1.934   4.280   2.032
 9122SOL    HW228266   1.983   4.151   1.945
 9123SOL     OW28267   3.255   0.132   4.334
 9123SOL    HW128268   3.207   0.058   4.288
 9123SOL    HW228269   3.352   0.129   4.310
 9124SOL     OW28270   5.551   6.559   5.977
 9124SOL    HW128271   5.469   6.609   5.948
 9124SOL    HW228272   5.633   6.612   5.954
 9125SOL     OW28273   5.141   4.286   1.901
 9125SOL    HW128274   5.235   4.301   1.932
 9125SOL    HW228275   5.078   4.298   1.978
 9126SOL     OW28276   5.711   2.457   1.335
 9126SOL    HW128277   5.786   2.522   1.352
 9126SOL    HW228278   5.627   2.507   1.317
 9127SOL     OW28279   6.577   1.303   6.212
 9127SOL    HW128280   6.584   1.400   6.234
 9127SOL    HW228281   6.625   1.284   6.126
 9128SOL     OW28282   4.941   1.724   5.235
 9128SOL    HW128283   4.952   1.773   5.149
 9128SOL    HW228284   4.863   1.762   5.285
 9129SOL     OW28285   0.194   2.881   1.242
 9129SOL    HW128286   0.167   2.785   1.243
 9129SOL    HW228287   0.210   2.910   1.148
 9130SOL     OW28288   0.068   3.399   0.548
 9130SOL    HW128289   7.003   3.394   0.600
 9130SOL    HW228290   0.141   3.438   0.606
 9131SOL     OW28291   6.876   2.947   5.776
 9131SOL    HW128292   6.814   2.949   5.697
 9131SOL    HW228293   6.860   3.027   5.833
 9132SOL     OW28294   0.275   5.113   4.352
 9132SOL    HW128295   0.234   5.029   4.387
 9132SOL    HW228296   0.255   5.123   4.255
 9133SOL     OW28297   4.146   5.966   2.083
 9133SOL    HW128298   4.055   5.932   2.060
 9133SOL    HW228299   4.214   5.917   2.030
 9134SOL     OW28300   4.918   6.205   0.005
 9134SOL    HW128301   4.850   6.278   0.014
 9134SOL    HW228302   4.873   6.121   6.996
 9135SOL     OW28303   6.245   6.605   1.452
 9135SOL    HW128304   6.332   6.590   1.498
 9135SOL    HW228305   6.224   6.703   1.452
 9136SOL     OW28306   5.434   5.618   6.137
 9136SOL    HW128307   5.383   5.672   6.070
 9136SOL    HW228308   5.370   5.571   6.197
 9137SOL     OW28309   5.037   2.057   1.163
 9137SOL    HW128310   5.013   1.973   1.211
 9137SOL    HW228311   5.049   2.132   1.229
 9138SOL     OW28312   0.467   6.118   5.876
 9138SOL    HW128313   0.384   6.108   5.821
 9138SOL    HW228314   0.447   6.095   5.971
 9139SOL     OW28315   2.291   1.806   4.693
 9139SOL    HW128316   2.386   1.830   4.712
 9139SOL    HW228317   2.232   1.885   4.708
 9140SOL     OW28318   6.404   3.324   3.088
 9140SOL    HW128319   6.361   3.234   3.089
 9140SOL    HW228320   6.357   3.383   3.023
 9141SOL     OW28321   5.801   0.691   6.810
 9141SOL    HW128322   5.900   0.686   6.796
 9141SOL    HW228323   5.755   0.642   6.736
 9142SOL     OW28324   0.351   2.309   1.615
 9142SOL    HW128325   0.291   2.315   1.536
 9142SOL    HW228326   0.316   2.241   1.679
 9143SOL     OW28327   6.215   3.347   0.853
 9143SOL    HW128328   6.209   3.270   0.789
 9143SOL    HW228329   6.123   3.373   0.883
 9144SOL     OW28330   2.523   5.043   5.465
 9144SOL    HW128331   2.552   4.947   5.472
 9144SOL    HW228332   2.499   5.063   5.370
 9145SOL     OW28333   0.057   5.583   0.219
 9145SOL    HW128334   0.092   5.635   0.296
 9145SOL    HW228335   0.094   5.490   0.222
 9146SOL     OW28336   5.156   3.053   2.871
 9146SOL    HW128337   5.198   3.126   2.818
 9146SOL    HW228338   5.099   3.093   2.943
 9147SOL     OW28339   6.199   0.610   4.633
 9147SOL    HW128340   6.292   0.648   4.633
 9147SOL    HW228341   6.172   0.588   4.726
 9148SOL     OW28342   4.710   6.303   0.369
 9148SOL    HW128343   4.715   6.211   0.330
 9148SOL    HW228344   4.658   6.300   0.454
 9149SOL     OW28345   5.859   3.331   3.625
 9149SOL    HW128346   5.953   3.312   3.597
 9149SOL    HW228347   5.858   3.406   3.692
 9150SOL     OW28348   3.027   4.831   1.723
 9150SOL    HW128349   3.084   4.778   1.660
 9150SOL    HW228350   2.932   4.802   1.714
 9151SOL     OW28351   1.694   4.586   3.705
 9151SOL    HW128352   1.775   4.551   3.752
 9151SOL    HW228353   1.722   4.651   3.634
 9152SOL     OW28354   2.274   4.341   4.760
 9152SOL    HW128355   2.325   4.408   4.814
 9152SOL    HW228356   2.291   4.249   4.795
 9153SOL     OW28357   1.116   3.533   0.233
 9153SOL    HW128358   1.167   3.448   0.245
 9153SOL    HW228359   1.047   3.521   0.162
 9154SOL     OW28360   4.380   4.510   6.128
 9154SOL    HW128361   4.376   4.419   6.087
 9154SOL    HW228362   4.415   4.576   6.061
 9155SOL     OW28363   1.784   3.914   1.943
 9155SOL    HW128364   1.758   3.963   1.860
 9155SOL    HW228365   1.702   3.897   1.999
 9156SOL     OW28366   1.069   2.260   0.903
 9156SOL    HW128367   1.081   2.164   0.880
 9156SOL    HW228368   0.978   2.274   0.941
 9157SOL     OW28369   6.519   4.577   5.254
 9157SOL    HW128370   6.500   4.568   5.156
 9157SOL    HW228371   6.614   4.606   5.266
 9158SOL     OW28372   5.637   3.173   4.668
 9158SOL    HW128373   5.728   3.148   4.636
 9158SOL    HW228374   5.628   3.150   4.765
 9159SOL     OW28375   2.105   0.604   2.044
 9159SOL    HW128376   2.134   0.574   2.135
 9159SOL    HW228377   2.024   0.552   2.016
 9160SOL     OW28378   5.940   6.896   5.347
 9160SOL    HW128379   5.974   6.856   5.262
 9160SOL    HW228380   6.015   6.907   5.412
 9161SOL     OW28381   4.921   4.069   4.992
 9161SOL    HW128382   4.881   4.098   4.905
 9161SOL    HW228383   4.849   4.035   5.052
 9162SOL     OW28384   4.623   1.090   4.519
 9162SOL    HW128385   4.605   1.175   4.569
 9162SOL    HW228386   4.698   1.105   4.455
 9163SOL     OW28387   1.558   2.538   4.437
 9163SOL    HW128388   1.557   2.475   4.359
 9163SOL    HW228389   1.643   2.590   4.436
 9164SOL     OW28390   2.611   0.433   6.114
 9164SOL    HW128391   2.533   0.495   6.118
 9164SOL    HW228392   2.588   0.347   6.162
 9165SOL     OW28393   6.302   2.012   5.989
 9165SOL    HW128394   6.378   2.038   6.049
 9165SOL    HW228395   6.237   2.088   5.983
 9166SOL     OW28396   4.050   6.043   1.696
 9166SOL    HW128397   4.077   6.036   1.600
 9166SOL    HW228398   4.007   6.132   1.712
 9167SOL     OW28399   2.365   2.336   6.710
 9167SOL    HW128400   2.318   2.383   6.785
 9167SOL    HW228401   2.425   2.401   6.663
 9168SOL     OW28402   0.163   0.090   6.825
 9168SOL    HW128403   0.218   0.042   6.893
 9168SOL    HW228404   0.066   0.083   6.849
 9169SOL     OW28405   5.871   0.404   5.318
 9169SOL    HW128406   5.831   0.482   5.367
 9169SOL    HW228407   5.970   0.417   5.310
 9170SOL     OW28408   1.418   6.131   6.756
 9170SOL    HW128409   1.424   6.087   6.667
 9170SOL    HW228410   1.325   6.120   6.793
 9171SOL     OW28411   4.239   4.964   0.988
 9171SOL    HW128412   4.327   4.986   0.945
 9171SOL    HW228413   4.169   5.027   0.953
 9172SOL     OW28414   3.895   0.966   2.582
 9172SOL    HW128415   3.803   1.003   2.569
 9172SOL    HW228416   3.905   0.881   2.530
 9173SOL     OW28417   6.814   3.478   5.501
 9173SOL    HW128418   6.786   3.431   5.418
 9173SOL    HW228419   6.765   3.565   5.509
 9174SOL     OW28420   5.469   3.911   1.733
 9174SOL    HW128421   5.463   3.834   1.670
 9174SOL    HW228422   5.553   3.963   1.714
 9175SOL     OW28423   0.419   0.160   5.279
 9175SOL    HW128424   0.499   0.219   5.288
 9175SOL    HW228425   0.437   0.073   5.326
 9176SOL     OW28426   2.419   1.163   4.152
 9176SOL    HW128427   2.337   1.161   4.210
 9176SOL    HW228428   2.411   1.237   4.086
 9177SOL     OW28429   0.428   4.800   5.079
 9177SOL    HW128430   0.462   4.738   5.009
 9177SOL    HW228431   0.467   4.891   5.064
 9178SOL     OW28432   1.495   4.772   0.582
 9178SOL    HW128433   1.419   4.817   0.535
 9178SOL    HW228434   1.547   4.717   0.517
 9179SOL     OW28435   2.507   4.526   4.087
 9179SOL    HW128436   2.498   4.543   3.989
 9179SOL    HW228437   2.452   4.591   4.139
 9180SOL     OW28438   6.296   2.594   3.362
 9180SOL    HW128439   6.354   2.564   3.438
 9180SOL    HW228440   6.307   2.530   3.285
 9181SOL     OW28441   4.382   2.203   5.250
 9181SOL    HW128442   4.470   2.157   5.257
 9181SOL    HW228443   4.309   2.136   5.263
 9182SOL     OW28444   2.938   6.202   1.476
 9182SOL    HW128445   2.893   6.283   1.438
 9182SOL    HW228446   2.880   6.161   1.546
 9183SOL     OW28447   4.993   5.749   0.195
 9183SOL    HW128448   4.959   5.676   0.254
 9183SOL    HW228449   4.993   5.718   0.100
 9184SOL     OW28450   4.448   2.042   0.227
 9184SOL    HW128451   4.365   2.008   0.183
 9184SOL    HW228452   4.487   1.970   0.285
 9185SOL     OW28453   4.601   6.843   4.542
 9185SOL    HW128454   4.618   6.749   4.514
 9185SOL    HW228455   4.509   6.870   4.514
 9186SOL     OW28456   5.603   6.131   4.689
 9186SOL    HW128457   5.687   6.114   4.740
 9186SOL    HW228458   5.525   6.128   4.752
 9187SOL     OW28459   2.537   2.004   0.552
 9187SOL    HW128460   2.446   1.974   0.581
 9187SOL    HW228461   2.529   2.083   0.491
 9188SOL     OW28462   1.239   6.750   7.002
 9188SOL    HW128463   1.285   6.809   6.935
 9188SOL    HW228464   1.158   6.796   0.016
 9189SOL     OW28465   2.993   5.831   1.895
 9189SOL    HW128466   3.039   5.791   1.975
 9189SOL    HW228467   3.047   5.908   1.860
 9190SOL     OW28468   2.515   4.630   5.621
 9190SOL    HW128469   2.445   4.671   5.680
 9190SOL    HW228470   2.530   4.690   5.543
 9191SOL     OW28471   6.657   1.968   6.548
 9191SOL    HW128472   6.702   1.968   6.637
 9191SOL    HW228473   6.627   2.060   6.526
 9192SOL     OW28474   1.187   2.525   6.018
 9192SOL    HW128475   1.111   2.554   5.959
 9192SOL    HW228476   1.242   2.457   5.970
 9193SOL     OW28477   3.481   4.152   6.393
 9193SOL    HW128478   3.441   4.076   6.342
 9193SOL    HW228479   3.418   4.183   6.463
 9194SOL     OW28480   3.246   0.847   3.297
 9194SOL    HW128481   3.259   0.923   3.234
 9194SOL    HW228482   3.322   0.783   3.289
 9195SOL     OW28483   1.114   1.665   3.168
 9195SOL    HW128484   1.179   1.662   3.244
 9195SOL    HW228485   1.034   1.718   3.195
 9196SOL     OW28486   5.526   0.437   2.716
 9196SOL    HW128487   5.462   0.483   2.654
 9196SOL    HW228488   5.586   0.505   2.758
 9197SOL     OW28489   1.784   4.889   1.118
 9197SOL    HW128490   1.876   4.852   1.104
 9197SOL    HW228491   1.719   4.814   1.130
 9198SOL     OW28492   5.957   4.789   6.718
 9198SOL    HW128493   6.027   4.843   6.764
 9198SOL    HW228494   5.968   4.797   6.619
 9199SOL     OW28495   1.081   3.501   5.477
 9199SOL    HW128496   1.006   3.438   5.456
 9199SOL    HW228497   1.055   3.560   5.553
 9200SOL     OW28498   2.971   6.464   6.910
 9200SOL    HW128499   3.062   6.423   6.909
 9200SOL    HW228500   2.979   6.564   6.912
 9201SOL     OW28501   6.702   3.230   0.281
 9201SOL    HW128502   6.736   3.145   0.239
 9201SOL    HW228503   6.674   3.211   0.375
 9202SOL     OW28504   0.852   6.280   2.521
 9202SOL    HW128505   0.859   6.377   2.548
 9202SOL    HW228506   0.906   6.225   2.585
 9203SOL     OW28507   0.346   3.793   5.393
 9203SOL    HW128508   0.300   3.857   5.455
 9203SOL    HW228509   0.445   3.806   5.398
 9204SOL     OW28510   5.344   3.087   6.284
 9204SOL    HW128511   5.411   3.121   6.218
 9204SOL    HW228512   5.315   3.161   6.344
 9205SOL     OW28513   5.432   5.994   3.555
 9205SOL    HW128514   5.513   6.013   3.611
 9205SOL    HW228515   5.460   5.977   3.461
 9206SOL     OW28516   3.659   5.397   3.641
 9206SOL    HW128517   3.676   5.384   3.543
 9206SOL    HW228518   3.668   5.309   3.688
 9207SOL     OW28519   4.974   4.141   5.757
 9207SOL    HW128520   4.976   4.162   5.660
 9207SOL    HW228521   4.931   4.216   5.807
 9208SOL     OW28522   5.845   4.780   3.778
 9208SOL    HW128523   5.876   4.734   3.861
 9208SOL    HW228524   5.785   4.719   3.726
 9209SOL     OW28525   4.467   0.355   0.212
 9209SOL    HW128526   4.496   0.413   0.288
 9209SOL    HW228527   4.405   0.405   0.153
 9210SOL     OW28528   0.258   0.875   2.164
 9210SOL    HW128529   0.268   0.779   2.139
 9210SOL    HW228530   0.320   0.931   2.109
 9211SOL     OW28531   0.371   2.938   5.927
 9211SOL    HW128532   0.279   2.933   5.965
 9211SOL    HW228533   0.375   2.886   5.842
 9212SOL     OW28534   4.414   5.786   4.428
 9212SOL    HW128535   4.492   5.838   4.462
 9212SOL    HW228536   4.330   5.835   4.448
 9213SOL     OW28537   5.805   3.013   5.122
 9213SOL    HW128538   5.826   2.930   5.173
 9213SOL    HW228539   5.781   3.086   5.186
 9214SOL     OW28540   6.920   3.896   6.149
 9214SOL    HW128541   6.908   3.991   6.119
 9214SOL    HW228542   6.848   3.872   6.214
 9215SOL     OW28543   0.966   2.905   1.492
 9215SOL    HW128544   0.928   2.816   1.468
 9215SOL    HW228545   0.956   2.920   1.590
 9216SOL     OW28546   3.658   0.312   2.084
 9216SOL    HW128547   3.634   0.409   2.088
 9216SOL    HW228548   3.585   0.261   2.039
 9217SOL     OW28549   0.076   2.867   6.619
 9217SOL    HW128550   7.002   2.838   6.642
 9217SOL    HW228551   0.129   2.880   6.703
 9218SOL     OW28552   1.950   0.675   6.820
 9218SOL    HW128553   1.986   0.625   6.740
 9218SOL    HW228554   1.853   0.653   6.831
 9219SOL     OW28555   5.639   3.389   0.591
 9219SOL    HW128556   5.556   3.435   0.623
 9219SOL    HW228557   5.627   3.361   0.496
 9220SOL     OW28558   1.586   6.426   1.422
 9220SOL    HW128559   1.611   6.435   1.325
 9220SOL    HW228560   1.599   6.514   1.467
 9221SOL     OW28561   2.644   0.852   3.221
 9221SOL    HW128562   2.724   0.834   3.163
 9221SOL    HW228563   2.623   0.770   3.274
 9222SOL     OW28564   2.499   6.396   6.298
 9222SOL    HW128565   2.399   6.395   6.306
 9222SOL    HW228566   2.531   6.304   6.277
 9223SOL     OW28567   0.950   2.264   3.563
 9223SOL    HW128568   0.962   2.168   3.588
 9223SOL    HW228569   0.889   2.271   3.485
 9224SOL     OW28570   1.339   5.129   4.170
 9224SOL    HW128571   1.439   5.136   4.171
 9224SOL    HW228572   1.304   5.145   4.263
 9225SOL     OW28573   2.873   6.774   6.608
 9225SOL    HW128574   2.781   6.738   6.592
 9225SOL    HW228575   2.867   6.867   6.644
 9226SOL     OW28576   6.228   0.096   1.620
 9226SOL    HW128577   6.315   0.137   1.650
 9226SOL    HW228578   6.183   0.156   1.555
 9227SOL     OW28579   1.658   6.130   0.680
 9227SOL    HW128580   1.623   6.077   0.603
 9227SOL    HW228581   1.714   6.071   0.738
 9228SOL     OW28582   1.734   2.256   6.024
 9228SOL    HW128583   1.815   2.251   6.082
 9228SOL    HW228584   1.677   2.333   6.054
 9229SOL     OW28585   1.007   5.434   5.282
 9229SOL    HW128586   1.011   5.444   5.182
 9229SOL    HW228587   1.098   5.415   5.317
 9230SOL     OW28588   4.818   2.374   3.444
 9230SOL    HW128589   4.856   2.364   3.352
 9230SOL    HW228590   4.745   2.442   3.443
 9231SOL     OW28591   0.549   3.615   4.520
 9231SOL    HW128592   0.500   3.528   4.509
 9231SOL    HW228593   0.494   3.678   4.574
 9232SOL     OW28594   4.077   5.223   0.598
 9232SOL    HW128595   4.027   5.268   0.672
 9232SOL    HW228596   4.021   5.151   0.558
 9233SOL     OW28597   5.520   5.169   1.922
 9233SOL    HW128598   5.476   5.090   1.966
 9233SOL    HW228599   5.582   5.212   1.987
 9234SOL     OW28600   3.407   6.330   6.297
 9234SOL    HW128601   3.414   6.398   6.370
 9234SOL    HW228602   3.464   6.358   6.219
 9235SOL     OW28603   1.559   3.505   2.911
 9235SOL    HW128604   1.637   3.460   2.955
 9235SOL    HW228605   1.482   3.442   2.907
 9236SOL     OW28606   2.153   4.586   5.963
 9236SOL    HW128607   2.203   4.603   6.049
 9236SOL    HW228608   2.079   4.522   5.980
 9237SOL     OW28609   2.034   5.842   4.759
 9237SOL    HW128610   2.033   5.817   4.662
 9237SOL    HW228611   2.034   5.760   4.815
 9238SOL     OW28612   3.048   1.703   6.937
 9238SOL    HW128613   3.023   1.800   6.932
 9238SOL    HW228614   3.069   1.679   0.012
 9239SOL     OW28615   6.585   4.156   0.326
 9239SOL    HW128616   6.523   4.112   0.261
 9239SOL    HW228617   6.661   4.198   0.277
 9240SOL     OW28618   4.994   1.444   1.446
 9240SOL    HW128619   4.926   1.467   1.514
 9240SOL    HW228620   4.975   1.494   1.361
 9241SOL     OW28621   0.522   5.266   5.821
 9241SOL    HW128622   0.565   5.298   5.905
 9241SOL    HW228623   0.501   5.344   5.762
 9242SOL     OW28624   1.235   4.920   6.787
 9242SOL    HW128625   1.333   4.938   6.784
 9242SOL    HW228626   1.185   5.006   6.794
 9243SOL     OW28627   6.616   6.881   1.381
 9243SOL    HW128628   6.537   6.943   1.377
 9243SOL    HW228629   6.585   6.790   1.408
 9244SOL     OW28630   4.632   5.633   6.286
 9244SOL    HW128631   4.603   5.548   6.330
 9244SOL    HW228632   4.555   5.697   6.282
 9245SOL     OW28633   1.733   5.171   3.032
 9245SOL    HW128634   1.828   5.194   3.051
 9245SOL    HW228635   1.698   5.113   3.106
 9246SOL     OW28636   0.259   5.746   2.501
 9246SOL    HW128637   0.291   5.780   2.590
 9246SOL    HW228638   0.236   5.649   2.510
 9247SOL     OW28639   1.307   6.718   2.655
 9247SOL    HW128640   1.315   6.817   2.668
 9247SOL    HW228641   1.389   6.684   2.608
 9248SOL     OW28642   2.190   2.286   4.375
 9248SOL    HW128643   2.239   2.198   4.374
 9248SOL    HW228644   2.254   2.359   4.350
 9249SOL     OW28645   3.934   3.901   0.381
 9249SOL    HW128646   3.960   3.957   0.302
 9249SOL    HW228647   4.016   3.862   0.422
 9250SOL     OW28648   5.525   3.407   3.903
 9250SOL    HW128649   5.436   3.447   3.884
 9250SOL    HW228650   5.522   3.358   3.990
 9251SOL     OW28651   4.073   1.808   2.489
 9251SOL    HW128652   4.081   1.761   2.577
 9251SOL    HW228653   4.087   1.742   2.415
 9252SOL     OW28654   5.636   0.270   4.541
 9252SOL    HW128655   5.703   0.332   4.499
 9252SOL    HW228656   5.653   0.265   4.639
 9253SOL     OW28657   5.815   6.559   5.022
 9253SOL    HW128658   5.761   6.610   4.955
 9253SOL    HW228659   5.887   6.508   4.975
 9254SOL     OW28660   6.382   4.706   2.950
 9254SOL    HW128661   6.284   4.703   2.932
 9254SOL    HW228662   6.431   4.729   2.865
 9255SOL     OW28663   4.576   3.781   0.150
 9255SOL    HW128664   4.514   3.803   0.225
 9255SOL    HW228665   4.669   3.767   0.186
 9256SOL     OW28666   3.980   6.798   2.561
 9256SOL    HW128667   3.946   6.791   2.655
 9256SOL    HW228668   4.068   6.845   2.561
 9257SOL     OW28669   0.070   3.549   2.921
 9257SOL    HW128670   0.035   3.534   3.014
 9257SOL    HW228671   0.131   3.627   2.920
 9258SOL     OW28672   3.053   3.251   3.597
 9258SOL    HW128673   3.087   3.168   3.640
 9258SOL    HW228674   3.130   3.304   3.561
 9259SOL     OW28675   1.446   2.565   0.213
 9259SOL    HW128676   1.502   2.646   0.232
 9259SOL    HW228677   1.364   2.567   0.270
 9260SOL     OW28678   5.144   2.029   4.819
 9260SOL    HW128679   5.070   2.063   4.761
 9260SOL    HW228680   5.224   2.008   4.763
 9261SOL     OW28681   4.687   0.931   0.019
 9261SOL    HW128682   4.652   0.931   6.945
 9261SOL    HW228683   4.736   1.017   0.035
 9262SOL     OW28684   0.080   4.127   5.894
 9262SOL    HW128685   0.014   4.100   5.823
 9262SOL    HW228686   0.031   4.166   5.972
 9263SOL     OW28687   5.122   6.049   1.525
 9263SOL    HW128688   5.137   5.966   1.578
 9263SOL    HW228689   5.037   6.092   1.554
 9264SOL     OW28690   5.271   4.535   0.640
 9264SOL    HW128691   5.179   4.551   0.677
 9264SOL    HW228692   5.328   4.616   0.657
 9265SOL     OW28693   3.474   1.976   6.849
 9265SOL    HW128694   3.472   1.904   6.779
 9265SOL    HW228695   3.563   2.020   6.848
 9266SOL     OW28696   2.493   0.014   1.769
 9266SOL    HW128697   2.504   6.941   1.807
 9266SOL    HW228698   2.397   0.029   1.745
 9267SOL     OW28699   0.004   2.992   5.011
 9267SOL    HW128700   6.997   3.088   5.011
 9267SOL    HW228701   0.052   2.970   5.096
 9268SOL     OW28702   0.675   5.519   1.741
 9268SOL    HW128703   0.627   5.446   1.692
 9268SOL    HW228704   0.617   5.552   1.816
 9269SOL     OW28705   3.066   1.404   6.059
 9269SOL    HW128706   3.089   1.342   5.983
 9269SOL    HW228707   2.983   1.371   6.104
 9270SOL     OW28708   4.500   6.495   6.091
 9270SOL    HW128709   4.434   6.444   6.035
 9270SOL    HW228710   4.451   6.555   6.154
 9271SOL     OW28711   0.223   0.394   0.010
 9271SOL    HW128712   0.187   0.430   6.943
 9271SOL    HW228713   0.291   0.458   0.046
 9272SOL     OW28714   1.497   5.674   4.288
 9272SOL    HW128715   1.555   5.608   4.336
 9272SOL    HW228716   1.475   5.750   4.349
 9273SOL     OW28717   6.300   6.353   3.585
 9273SOL    HW128718   6.332   6.388   3.673
 9273SOL    HW228719   6.211   6.393   3.564
 9274SOL     OW28720   6.686   2.640   0.049
 9274SOL    HW128721   6.633   2.720   0.023
 9274SOL    HW228722   6.648   2.601   0.133
 9275SOL     OW28723   0.225   1.268   6.700
 9275SOL    HW128724   0.313   1.316   6.702
 9275SOL    HW228725   0.170   1.298   6.777
 9276SOL     OW28726   2.126   3.842   2.409
 9276SOL    HW128727   2.110   3.776   2.482
 9276SOL    HW228728   2.117   3.796   2.320
 9277SOL     OW28729   5.206   3.378   0.101
 9277SOL    HW128730   5.249   3.294   0.067
 9277SOL    HW228731   5.234   3.395   0.195
 9278SOL     OW28732   1.602   1.044   6.033
 9278SOL    HW128733   1.683   1.031   6.090
 9278SOL    HW228734   1.520   1.034   6.090
 9279SOL     OW28735   4.898   0.975   1.489
 9279SOL    HW128736   4.975   1.038   1.485
 9279SOL    HW228737   4.816   1.023   1.519
 9280SOL     OW28738   2.072   1.738   3.556
 9280SOL    HW128739   2.021   1.753   3.471
 9280SOL    HW228740   2.029   1.664   3.608
 9281SOL     OW28741   2.625   4.606   0.955
 9281SOL    HW128742   2.634   4.555   0.869
 9281SOL    HW228743   2.690   4.569   1.022
 9282SOL     OW28744   4.739   1.240   4.032
 9282SOL    HW128745   4.682   1.166   4.067
 9282SOL    HW228746   4.818   1.201   3.984
 9283SOL     OW28747   5.648   0.413   3.620
 9283SOL    HW128748   5.591   0.441   3.697
 9283SOL    HW228749   5.657   0.488   3.556
 9284SOL     OW28750   3.407   3.515   6.172
 9284SOL    HW128751   3.397   3.610   6.142
 9284SOL    HW228752   3.368   3.505   6.263
 9285SOL     OW28753   4.824   3.047   1.090
 9285SOL    HW128754   4.754   3.114   1.067
 9285SOL    HW228755   4.795   2.956   1.059
 9286SOL     OW28756   5.334   6.305   0.368
 9286SOL    HW128757   5.312   6.374   0.437
 9286SOL    HW228758   5.408   6.340   0.310
 9287SOL     OW28759   3.180   5.169   6.399
 9287SOL    HW128760   3.239   5.238   6.357
 9287SOL    HW228761   3.185   5.176   6.498
 9288SOL     OW28762   4.471   1.179   3.734
 9288SOL    HW128763   4.488   1.083   3.752
 9288SOL    HW228764   4.528   1.235   3.794
 9289SOL     OW28765   3.843   1.398   2.393
 9289SOL    HW128766   3.828   1.303   2.363
 9289SOL    HW228767   3.841   1.402   2.493
 9290SOL     OW28768   5.310   1.160   3.260
 9290SOL    HW128769   5.263   1.089   3.312
 9290SOL    HW228770   5.243   1.215   3.211
 9291SOL     OW28771   1.429   6.943   4.426
 9291SOL    HW128772   1.416   0.021   4.442
 9291SOL    HW228773   1.355   6.908   4.369
 9292SOL     OW28774   0.842   3.748   0.088
 9292SOL    HW128775   0.861   3.656   0.054
 9292SOL    HW228776   0.913   3.775   0.152
 9293SOL     OW28777   5.459   4.191   6.868
 9293SOL    HW128778   5.505   4.125   6.927
 9293SOL    HW228779   5.479   4.170   6.772
 9294SOL     OW28780   3.818   0.534   5.145
 9294SOL    HW128781   3.902   0.509   5.193
 9294SOL    HW228782   3.805   0.472   5.068
 9295SOL     OW28783   5.347   2.405   4.362
 9295SOL    HW128784   5.328   2.352   4.445
 9295SOL    HW228785   5.272   2.469   4.346
 9296SOL     OW28786   0.401   6.300   6.927
 9296SOL    HW128787   0.454   6.255   6.855
 9296SOL    HW228788   0.408   6.400   6.915
 9297SOL     OW28789   6.405   0.642   0.370
 9297SOL    HW128790   6.354   0.571   0.418
 9297SOL    HW228791   6.364   0.657   0.280
 9298SOL     OW28792   0.898   0.362   5.268
 9298SOL    HW128793   0.980   0.408   5.234
 9298SOL    HW228794   0.818   0.391   5.214
 9299SOL     OW28795   0.698   2.736   4.754
 9299SOL    HW128796   0.616   2.758   4.807
 9299SOL    HW228797   0.778   2.735   4.815
 9300SOL     OW28798   0.691   4.845   5.523
 9300SOL    HW128799   0.648   4.828   5.611
 9300SOL    HW228800   0.649   4.787   5.453
 9301SOL     OW28801   4.948   4.651   3.605
 9301SOL    HW128802   4.949   4.566   3.553
 9301SOL    HW228803   5.013   4.716   3.565
 9302SOL     OW28804   2.168   3.275   3.953
 9302SOL    HW128805   2.187   3.352   3.892
 9302SOL    HW228806   2.080   3.233   3.928
 9303SOL     OW28807   2.948   5.138   0.798
 9303SOL    HW128808   2.901   5.156   0.712
 9303SOL    HW228809   2.881   5.142   0.873
 9304SOL     OW28810   4.186   4.751   2.258
 9304SOL    HW128811   4.134   4.684   2.311
 9304SOL    HW228812   4.283   4.725   2.257
 9305SOL     OW28813   3.348   1.013   0.796
 9305SOL    HW128814   3.428   0.953   0.796
 9305SOL    HW228815   3.338   1.055   0.887
 9306SOL     OW28816   0.378   4.598   4.581
 9306SOL    HW128817   0.335   4.651   4.508
 9306SOL    HW228818   0.310   4.538   4.624
 9307SOL     OW28819   1.948   3.448   1.958
 9307SOL    HW128820   1.907   3.522   2.012
 9307SOL    HW228821   2.044   3.439   1.984
 9308SOL     OW28822   1.754   3.805   0.346
 9308SOL    HW128823   1.822   3.841   0.282
 9308SOL    HW228824   1.742   3.869   0.422
 9309SOL     OW28825   3.489   4.669   5.960
 9309SOL    HW128826   3.426   4.591   5.966
 9309SOL    HW228827   3.476   4.715   5.872
 9310SOL     OW28828   4.573   4.849   6.509
 9310SOL    HW128829   4.575   4.924   6.442
 9310SOL    HW228830   4.656   4.851   6.565
 9311SOL     OW28831   4.461   5.017   2.542
 9311SOL    HW128832   4.376   4.983   2.503
 9311SOL    HW228833   4.449   5.111   2.573
 9312SOL     OW28834   1.202   3.518   1.248
 9312SOL    HW128835   1.126   3.497   1.187
 9312SOL    HW228836   1.190   3.468   1.334
 9313SOL     OW28837   0.594   0.535   1.145
 9313SOL    HW128838   0.678   0.524   1.092
 9313SOL    HW228839   0.618   0.544   1.242
 9314SOL     OW28840   5.097   5.369   6.573
 9314SOL    HW128841   5.192   5.361   6.604
 9314SOL    HW228842   5.094   5.418   6.486
 9315SOL     OW28843   5.986   0.360   4.779
 9315SOL    HW128844   5.937   0.428   4.834
 9315SOL    HW228845   6.072   0.336   4.824
 9316SOL     OW28846   4.233   5.784   5.439
 9316SOL    HW128847   4.206   5.688   5.430
 9316SOL    HW228848   4.297   5.793   5.515
 9317SOL     OW28849   5.543   5.104   3.445
 9317SOL    HW128850   5.633   5.065   3.424
 9317SOL    HW228851   5.501   5.052   3.520
 9318SOL     OW28852   6.245   0.726   5.484
 9318SOL    HW128853   6.273   0.673   5.404
 9318SOL    HW228854   6.194   0.666   5.546
 9319SOL     OW28855   1.908   3.109   0.043
 9319SOL    HW128856   1.900   3.099   0.143
 9319SOL    HW228857   1.934   3.203   0.022
 9320SOL     OW28858   3.968   0.115   5.085
 9320SOL    HW128859   4.031   0.091   5.012
 9320SOL    HW228860   4.004   0.191   5.138
 9321SOL     OW28861   0.017   0.326   3.891
 9321SOL    HW128862   0.116   0.317   3.898
 9321SOL    HW228863   6.993   0.249   3.939
 9322SOL     OW28864   0.688   4.322   6.953
 9322SOL    HW128865   0.787   4.323   6.968
 9322SOL    HW228866   0.641   4.320   0.023
 9323SOL     OW28867   1.224   0.532   5.490
 9323SOL    HW128868   1.275   0.531   5.576
 9323SOL    HW228869   1.129   0.557   5.509
 9324SOL     OW28870   1.335   4.255   0.701
 9324SOL    HW128871   1.285   4.309   0.633
 9324SOL    HW228872   1.378   4.316   0.767
 9325SOL     OW28873   4.912   0.507   0.315
 9325SOL    HW128874   4.890   0.565   0.393
 9325SOL    HW228875   4.870   0.544   0.232
 9326SOL     OW28876   2.116   5.533   0.166
 9326SOL    HW128877   2.140   5.437   0.176
 9326SOL    HW228878   2.114   5.576   0.257
 9327SOL     OW28879   5.635   0.487   3.147
 9327SOL    HW128880   5.584   0.428   3.084
 9327SOL    HW228881   5.574   0.525   3.215
 9328SOL     OW28882   2.715   0.866   5.421
 9328SOL    HW128883   2.656   0.940   5.454
 9328SOL    HW228884   2.798   0.862   5.476
 9329SOL     OW28885   6.201   3.808   1.403
 9329SOL    HW128886   6.120   3.848   1.445
 9329SOL    HW228887   6.174   3.729   1.347
 9330SOL     OW28888   6.089   6.605   6.354
 9330SOL    HW128889   6.162   6.580   6.418
 9330SOL    HW228890   6.015   6.651   6.404
 9331SOL     OW28891   2.548   0.964   0.013
 9331SOL    HW128892   2.460   0.929   7.000
 9331SOL    HW228893   2.594   1.012   6.957
 9332SOL     OW28894   4.121   3.889   1.728
 9332SOL    HW128895   4.079   3.848   1.647
 9332SOL    HW228896   4.073   3.973   1.752
 9333SOL     OW28897   4.510   3.891   0.480
 9333SOL    HW128898   4.467   3.942   0.405
 9333SOL    HW228899   4.568   3.953   0.533
 9334SOL     OW28900   6.146   5.833   3.349
 9334SOL    HW128901   6.132   5.916   3.402
 9334SOL    HW228902   6.157   5.755   3.410
 9335SOL     OW28903   1.068   1.382   6.693
 9335SOL    HW128904   1.017   1.314   6.746
 9335SOL    HW228905   1.136   1.336   6.636
 9336SOL     OW28906   3.122   5.783   5.628
 9336SOL    HW128907   3.081   5.693   5.612
 9336SOL    HW228908   3.182   5.778   5.708
 9337SOL     OW28909   4.336   1.975   4.545
 9337SOL    HW128910   4.403   1.904   4.567
 9337SOL    HW228911   4.276   1.943   4.471
 9338SOL     OW28912   5.172   0.488   2.276
 9338SOL    HW128913   5.189   0.584   2.253
 9338SOL    HW228914   5.256   0.446   2.309
 9339SOL     OW28915   5.922   6.921   1.555
 9339SOL    HW128916   5.888   6.919   1.649
 9339SOL    HW228917   5.852   6.888   1.492
 9340SOL     OW28918   5.429   4.422   4.452
 9340SOL    HW128919   5.443   4.360   4.375
 9340SOL    HW228920   5.484   4.391   4.530
 9341SOL     OW28921   6.930   5.818   0.590
 9341SOL    HW128922   6.985   5.741   0.622
 9341SOL    HW228923   6.973   5.856   0.507
 9342SOL     OW28924   1.960   6.561   4.083
 9342SOL    HW128925   1.952   6.464   4.106
 9342SOL    HW228926   2.055   6.590   4.096
 9343SOL     OW28927   6.019   4.096   2.873
 9343SOL    HW128928   6.094   4.104   2.939
 9343SOL    HW228929   6.041   4.026   2.805
 9344SOL     OW28930   4.797   6.454   2.819
 9344SOL    HW128931   4.792   6.554   2.818
 9344SOL    HW228932   4.868   6.425   2.883
 9345SOL     OW28933   5.973   5.238   2.515
 9345SOL    HW128934   6.033   5.236   2.435
 9345SOL    HW228935   6.017   5.289   2.589
 9346SOL     OW28936   6.127   1.260   1.397
 9346SOL    HW128937   6.042   1.311   1.392
 9346SOL    HW228938   6.195   1.313   1.448
 9347SOL     OW28939   2.687   3.549   0.737
 9347SOL    HW128940   2.715   3.613   0.665
 9347SOL    HW228941   2.590   3.527   0.726
 9348SOL     OW28942   3.225   6.157   2.139
 9348SOL    HW128943   3.282   6.237   2.156
 9348SOL    HW228944   3.282   6.080   2.112
 9349SOL     OW28945   6.199   5.686   3.800
 9349SOL    HW128946   6.168   5.682   3.706
 9349SOL    HW228947   6.220   5.594   3.833
 9350SOL     OW28948   0.689   3.126   5.009
 9350SOL    HW128949   0.665   3.153   5.103
 9350SOL    HW228950   0.730   3.204   4.962
 9351SOL     OW28951   2.875   0.328   0.104
 9351SOL    HW128952   2.820   0.377   0.037
 9351SOL    HW228953   2.934   0.393   0.152
 9352SOL     OW28954   3.652   1.507   6.545
 9352SOL    HW128955   3.716   1.561   6.490
 9352SOL    HW228956   3.579   1.472   6.488
 9353SOL     OW28957   0.508   4.615   0.696
 9353SOL    HW128958   0.504   4.611   0.596
 9353SOL    HW228959   0.597   4.652   0.724
 9354SOL     OW28960   0.097   1.993   6.325
 9354SOL    HW128961   0.153   1.932   6.380
 9354SOL    HW228962   0.109   2.087   6.355
 9355SOL     OW28963   0.468   2.029   4.541
 9355SOL    HW128964   0.498   2.122   4.519
 9355SOL    HW228965   0.368   2.024   4.537
 9356SOL     OW28966   4.742   0.371   2.074
 9356SOL    HW128967   4.707   0.394   1.983
 9356SOL    HW228968   4.672   0.321   2.125
 9357SOL     OW28969   2.034   2.813   5.934
 9357SOL    HW128970   2.110   2.754   5.906
 9357SOL    HW228971   1.952   2.757   5.948
 9358SOL     OW28972   6.269   3.201   2.025
 9358SOL    HW128973   6.333   3.170   1.955
 9358SOL    HW228974   6.257   3.300   2.018
 9359SOL     OW28975   1.912   4.430   6.003
 9359SOL    HW128976   1.908   4.372   6.084
 9359SOL    HW228977   1.933   4.373   5.923
 9360SOL     OW28978   1.106   4.655   6.352
 9360SOL    HW128979   1.121   4.685   6.446
 9360SOL    HW228980   1.193   4.643   6.305
 9361SOL     OW28981   1.863   5.272   2.758
 9361SOL    HW128982   1.862   5.327   2.841
 9361SOL    HW228983   1.785   5.209   2.759
 9362SOL     OW28984   1.591   1.186   2.515
 9362SOL    HW128985   1.599   1.279   2.480
 9362SOL    HW228986   1.571   1.189   2.613
 9363SOL     OW28987   3.014   5.137   1.776
 9363SOL    HW128988   3.039   5.041   1.764
 9363SOL    HW228989   3.064   5.193   1.711
 9364SOL     OW28990   2.675   2.002   6.931
 9364SOL    HW128991   2.625   2.028   7.014
 9364SOL    HW228992   2.708   2.084   6.885
 9365SOL     OW28993   3.435   2.023   3.612
 9365SOL    HW128994   3.517   2.039   3.557
 9365SOL    HW228995   3.456   1.958   3.685
 9366SOL     OW28996   2.943   5.462   6.424
 9366SOL    HW128997   2.857   5.499   6.458
 9366SOL    HW228998   3.015   5.477   6.491
 9367SOL     OW28999   6.443   6.416   2.481
 9367SOL    HW129000   6.533   6.419   2.524
 9367SOL    HW229001   6.446   6.353   2.403
 9368SOL     OW29002   3.181   0.787   2.924
 9368SOL    HW129003   3.234   0.792   2.839
 9368SOL    HW229004   3.125   0.704   2.923
 9369SOL     OW29005   6.666   6.811   3.964
 9369SOL    HW129006   6.714   6.828   3.877
 9369SOL    HW229007   6.718   6.746   4.018
 9370SOL     OW29008   5.339   0.337   4.648
 9370SOL    HW129009   5.405   0.410   4.634
 9370SOL    HW229010   5.322   0.290   4.561
 9371SOL     OW29011   2.316   5.895   0.562
 9371SOL    HW129012   2.244   5.897   0.492
 9371SOL    HW229013   2.340   5.800   0.581
 9372SOL     OW29014   5.294   6.579   1.415
 9372SOL    HW129015   5.237   6.586   1.334
 9372SOL    HW229016   5.369   6.515   1.399
 9373SOL     OW29017   4.748   2.773   1.562
 9373SOL    HW129018   4.802   2.856   1.551
 9373SOL    HW229019   4.661   2.783   1.514
 9374SOL     OW29020   0.399   2.975   6.611
 9374SOL    HW129021   0.475   2.911   6.597
 9374SOL    HW229022   0.430   3.051   6.669
 9375SOL     OW29023   0.406   2.463   1.227
 9375SOL    HW129024   0.405   2.533   1.155
 9375SOL    HW229025   0.406   2.372   1.185
 9376SOL     OW29026   2.101   3.599   1.110
 9376SOL    HW129027   2.046   3.669   1.156
 9376SOL    HW229028   2.117   3.523   1.173
 9377SOL     OW29029   2.084   5.076   2.742
 9377SOL    HW129030   2.012   5.145   2.740
 9377SOL    HW229031   2.059   5.002   2.804
 9378SOL     OW29032   3.188   1.013   3.048
 9378SOL    HW129033   3.131   1.069   2.987
 9378SOL    HW229034   3.191   0.919   3.014
 9379SOL     OW29035   5.125   0.207   5.157
 9379SOL    HW129036   5.079   0.261   5.228
 9379SOL    HW229037   5.085   0.229   5.068
 9380SOL     OW29038   3.564   5.413   5.248
 9380SOL    HW129039   3.491   5.410   5.316
 9380SOL    HW229040   3.524   5.426   5.157
 9381SOL     OW29041   5.452   3.064   5.670
 9381SOL    HW129042   5.519   3.021   5.609
 9381SOL    HW229043   5.387   3.117   5.616
 9382SOL     OW29044   4.195   0.497   3.423
 9382SOL    HW129045   4.111   0.454   3.389
 9382SOL    HW229046   4.184   0.596   3.424
 9383SOL     OW29047   5.518   4.602   3.921
 9383SOL    HW129048   5.500   4.515   3.967
 9383SOL    HW229049   5.435   4.657   3.920
 9384SOL     OW29050   3.860   0.212   1.942
 9384SOL    HW129051   3.794   0.222   2.017
 9384SOL    HW229052   3.871   0.299   1.895
 9385SOL     OW29053   4.445   1.329   4.227
 9385SOL    HW129054   4.498   1.248   4.199
 9385SOL    HW229055   4.506   1.408   4.233
 9386SOL     OW29056   3.375   5.823   5.498
 9386SOL    HW129057   3.404   5.758   5.428
 9386SOL    HW229058   3.277   5.812   5.516
 9387SOL     OW29059   2.911   2.397   0.679
 9387SOL    HW129060   2.840   2.450   0.631
 9387SOL    HW229061   2.970   2.352   0.611
 9388SOL     OW29062   2.082   6.103   3.663
 9388SOL    HW129063   2.092   6.033   3.734
 9388SOL    HW229064   2.147   6.085   3.589
 9389SOL     OW29065   2.945   0.178   2.834
 9389SOL    HW129066   2.980   0.263   2.797
 9389SOL    HW229067   2.974   0.101   2.777
 9390SOL     OW29068   5.681   5.322   5.772
 9390SOL    HW129069   5.753   5.367   5.718
 9390SOL    HW229070   5.666   5.374   5.856
 9391SOL     OW29071   0.033   6.980   6.081
 9391SOL    HW129072   6.995   6.901   6.104
 9391SOL    HW229073   0.102   6.993   6.151
 9392SOL     OW29074   5.115   4.437   5.224
 9392SOL    HW129075   5.186   4.502   5.249
 9392SOL    HW229076   5.043   4.437   5.294
 9393SOL     OW29077   2.741   0.194   5.673
 9393SOL    HW129078   2.783   0.273   5.628
 9393SOL    HW229079   2.669   0.226   5.735
 9394SOL     OW29080   6.272   0.378   0.899
 9394SOL    HW129081   6.218   0.341   0.975
 9394SOL    HW229082   6.343   0.312   0.874
 9395SOL     OW29083   2.314   1.017   0.659
 9395SOL    HW129084   2.366   1.032   0.743
 9395SOL    HW229085   2.238   0.955   0.678
 9396SOL     OW29086   1.575   4.674   4.454
 9396SOL    HW129087   1.514   4.682   4.533
 9396SOL    HW229088   1.658   4.626   4.482
 9397SOL     OW29089   3.049   6.506   6.117
 9397SOL    HW129090   3.010   6.583   6.169
 9397SOL    HW229091   3.062   6.428   6.178
 9398SOL     OW29092   5.992   0.956   6.022
 9398SOL    HW129093   5.913   0.911   6.063
 9398SOL    HW229094   5.984   1.055   6.034
 9399SOL     OW29095   0.860   3.449   4.396
 9399SOL    HW129096   0.876   3.360   4.354
 9399SOL    HW229097   0.784   3.494   4.351
 9400SOL     OW29098   4.564   0.654   1.229
 9400SOL    HW129099   4.574   0.567   1.277
 9400SOL    HW229100   4.499   0.644   1.154
 9401SOL     OW29101   0.018   1.975   2.833
 9401SOL    HW129102   6.990   1.896   2.872
 9401SOL    HW229103   0.018   1.967   2.733
 9402SOL     OW29104   1.293   3.800   2.690
 9402SOL    HW129105   1.252   3.891   2.691
 9402SOL    HW229106   1.231   3.735   2.734
 9403SOL     OW29107   6.377   1.573   1.968
 9403SOL    HW129108   6.342   1.639   2.034
 9403SOL    HW229109   6.341   1.593   1.877
 9404SOL     OW29110   0.539   2.038   1.550
 9404SOL    HW129111   0.457   2.049   1.606
 9404SOL    HW229112   0.513   2.036   1.454
 9405SOL     OW29113   1.652   4.254   3.858
 9405SOL    HW129114   1.727   4.295   3.806
 9405SOL    HW229115   1.673   4.158   3.877
 9406SOL     OW29116   0.792   3.193   6.651
 9406SOL    HW129117   0.693   3.201   6.654
 9406SOL    HW229118   0.827   3.175   6.744
 9407SOL     OW29119   2.364   5.484   4.504
 9407SOL    HW129120   2.394   5.490   4.600
 9407SOL    HW229121   2.416   5.550   4.450
 9408SOL     OW29122   0.197   2.362   6.085
 9408SOL    HW129123   0.229   2.300   6.156
 9408SOL    HW229124   0.224   2.456   6.108
 9409SOL     OW29125   6.218   5.634   1.799
 9409SOL    HW129126   6.235   5.733   1.802
 9409SOL    HW229127   6.283   5.587   1.858
 9410SOL     OW29128   3.540   0.925   1.790
 9410SOL    HW129129   3.606   0.851   1.776
 9410SOL    HW229130   3.469   0.895   1.854
 9411SOL     OW29131   4.095   3.243   3.266
 9411SOL    HW129132   4.119   3.318   3.328
 9411SOL    HW229133   4.089   3.279   3.173
 9412SOL     OW29134   1.688   0.605   2.061
 9412SOL    HW129135   1.730   0.675   2.118
 9412SOL    HW229136   1.629   0.547   2.116
 9413SOL     OW29137   4.625   5.207   4.134
 9413SOL    HW129138   4.657   5.287   4.185
 9413SOL    HW229139   4.639   5.125   4.189
 9414SOL     OW29140   3.283   1.517   3.845
 9414SOL    HW129141   3.284   1.424   3.807
 9414SOL    HW229142   3.369   1.563   3.822
 9415SOL     OW29143   2.221   6.972   1.743
 9415SOL    HW129144   2.223   6.875   1.767
 9415SOL    HW229145   2.243   6.983   1.646
 9416SOL     OW29146   0.052   0.667   5.656
 9416SOL    HW129147   7.005   0.741   5.650
 9416SOL    HW229148   0.011   0.582   5.622
 9417SOL     OW29149   3.687   6.516   0.984
 9417SOL    HW129150   3.605   6.461   0.998
 9417SOL    HW229151   3.665   6.613   0.995
 9418SOL     OW29152   2.349   1.268   2.270
 9418SOL    HW129153   2.423   1.215   2.229
 9418SOL    HW229154   2.302   1.320   2.199
 9419SOL     OW29155   1.371   3.464   6.737
 9419SOL    HW129156   1.400   3.498   6.827
 9419SOL    HW229157   1.290   3.513   6.707
 9420SOL     OW29158   5.412   4.289   0.238
 9420SOL    HW129159   5.387   4.320   0.146
 9420SOL    HW229160   5.352   4.332   0.305
 9421SOL     OW29161   3.041   5.186   4.456
 9421SOL    HW129162   2.955   5.135   4.453
 9421SOL    HW229163   3.117   5.124   4.477
 9422SOL     OW29164   2.820   6.115   3.775
 9422SOL    HW129165   2.867   6.072   3.698
 9422SOL    HW229166   2.757   6.049   3.817
 9423SOL     OW29167   3.851   6.393   2.873
 9423SOL    HW129168   3.947   6.368   2.881
 9423SOL    HW229169   3.797   6.342   2.940
 9424SOL     OW29170   5.139   1.889   4.187
 9424SOL    HW129171   5.205   1.956   4.219
 9424SOL    HW229172   5.151   1.873   4.089
 9425SOL     OW29173   5.607   5.240   0.998
 9425SOL    HW129174   5.672   5.307   1.034
 9425SOL    HW229175   5.541   5.285   0.939
 9426SOL     OW29176   2.530   1.796   5.915
 9426SOL    HW129177   2.619   1.798   5.870
 9426SOL    HW229178   2.542   1.818   6.012
 9427SOL     OW29179   2.466   5.826   3.148
 9427SOL    HW129180   2.462   5.751   3.214
 9427SOL    HW229181   2.560   5.860   3.142
 9428SOL     OW29182   6.881   0.103   0.613
 9428SOL    HW129183   6.856   0.027   0.674
 9428SOL    HW229184   6.818   0.180   0.628
 9429SOL     OW29185   2.501   2.503   3.668
 9429SOL    HW129186   2.472   2.547   3.583
 9429SOL    HW229187   2.433   2.521   3.739
 9430SOL     OW29188   0.406   2.206   4.840
 9430SOL    HW129189   0.370   2.232   4.750
 9430SOL    HW229190   0.494   2.252   4.855
 9431SOL     OW29191   6.656   4.920   1.086
 9431SOL    HW129192   6.616   4.995   1.035
 9431SOL    HW229193   6.728   4.954   1.146
 9432SOL     OW29194   6.099   1.552   4.467
 9432SOL    HW129195   6.194   1.560   4.435
 9432SOL    HW229196   6.088   1.465   4.515
 9433SOL     OW29197   3.863   6.716   3.152
 9433SOL    HW129198   3.808   6.799   3.138
 9433SOL    HW229199   3.826   6.663   3.228
 9434SOL     OW29200   6.093   5.554   3.455
 9434SOL    HW129201   6.134   5.557   3.364
 9434SOL    HW229202   6.135   5.482   3.509
 9435SOL     OW29203   0.425   1.980   2.943
 9435SOL    HW129204   0.418   1.994   2.844
 9435SOL    HW229205   0.341   2.011   2.987
 9436SOL     OW29206   1.507   1.289   2.766
 9436SOL    HW129207   1.440   1.227   2.806
 9436SOL    HW229208   1.484   1.383   2.791
 9437SOL     OW29209   0.537   5.074   3.283
 9437SOL    HW129210   0.514   5.093   3.188
 9437SOL    HW229211   0.622   5.122   3.306
 9438SOL     OW29212   1.519   6.886   2.115
 9438SOL    HW129213   1.619   6.889   2.104
 9438SOL    HW229214   1.494   6.940   2.196
 9439SOL     OW29215   0.610   3.314   1.433
 9439SOL    HW129216   0.554   3.391   1.403
 9439SOL    HW229217   0.622   3.250   1.357
 9440SOL     OW29218   3.761   4.898   3.737
 9440SOL    HW129219   3.678   4.889   3.682
 9440SOL    HW229220   3.841   4.874   3.681
 9441SOL     OW29221   6.489   6.016   5.730
 9441SOL    HW129222   6.425   5.995   5.656
 9441SOL    HW229223   6.569   5.957   5.722
 9442SOL     OW29224   4.737   3.323   1.691
 9442SOL    HW129225   4.639   3.339   1.705
 9442SOL    HW229226   4.775   3.277   1.771
 9443SOL     OW29227   2.736   5.402   0.608
 9443SOL    HW129228   2.708   5.428   0.700
 9443SOL    HW229229   2.701   5.470   0.542
 9444SOL     OW29230   1.712   4.300   0.700
 9444SOL    HW129231   1.736   4.318   0.604
 9444SOL    HW229232   1.796   4.283   0.752
 9445SOL     OW29233   0.078   2.506   3.095
 9445SOL    HW129234   0.070   2.532   2.999
 9445SOL    HW229235   0.084   2.589   3.152
 9446SOL     OW29236   0.171   5.336   4.523
 9446SOL    HW129237   0.087   5.306   4.570
 9446SOL    HW229238   0.203   5.263   4.463
 9447SOL     OW29239   5.494   5.038   3.710
 9447SOL    HW129240   5.464   4.958   3.763
 9447SOL    HW229241   5.575   5.078   3.753
 9448SOL     OW29242   6.669   0.138   6.100
 9448SOL    HW129243   6.680   0.141   6.200
 9448SOL    HW229244   6.749   0.178   6.057
 9449SOL     OW29245   6.202   6.492   6.825
 9449SOL    HW129246   6.293   6.453   6.809
 9449SOL    HW229247   6.209   6.563   6.896
 9450SOL     OW29248   2.212   5.354   3.397
 9450SOL    HW129249   2.119   5.388   3.379
 9450SOL    HW229250   2.227   5.349   3.496
 9451SOL     OW29251   3.890   5.941   5.878
 9451SOL    HW129252   3.908   6.038   5.861
 9451SOL    HW229253   3.834   5.904   5.803
 9452SOL     OW29254   1.243   4.400   6.885
 9452SOL    HW129255   1.288   4.389   6.973
 9452SOL    HW229256   1.200   4.313   6.859
 9453SOL     OW29257   3.021   4.943   2.612
 9453SOL    HW129258   2.978   5.025   2.649
 9453SOL    HW229259   2.951   4.886   2.568
 9454SOL     OW29260   3.645   2.814   6.159
 9454SOL    HW129261   3.713   2.868   6.108
 9454SOL    HW229262   3.553   2.842   6.131
 9455SOL     OW29263   2.388   2.322   2.691
 9455SOL    HW129264   2.340   2.309   2.604
 9455SOL    HW229265   2.484   2.343   2.674
 9456SOL     OW29266   5.925   4.169   1.456
 9456SOL    HW129267   5.839   4.216   1.473
 9456SOL    HW229268   5.984   4.226   1.399
 9457SOL     OW29269   0.159   5.084   4.103
 9457SOL    HW129270   0.066   5.119   4.088
 9457SOL    HW229271   0.193   5.045   4.017
 9458SOL     OW29272   7.006   4.069   0.134
 9458SOL    HW129273   6.981   4.037   0.043
 9458SOL    HW229274   0.065   4.131   0.128
 9459SOL     OW29275   5.357   4.867   3.858
 9459SOL    HW129276   5.360   4.882   3.957
 9459SOL    HW229277   5.263   4.851   3.830
 9460SOL     OW29278   2.079   3.391   4.742
 9460SOL    HW129279   2.113   3.320   4.802
 9460SOL    HW229280   2.120   3.381   4.651
 9461SOL     OW29281   0.529   1.681   2.106
 9461SOL    HW129282   0.466   1.691   2.029
 9461SOL    HW229283   0.478   1.671   2.191
 9462SOL     OW29284   1.664   2.861   3.658
 9462SOL    HW129285   1.715   2.805   3.592
 9462SOL    HW229286   1.706   2.952   3.663
 9463SOL     OW29287   5.576   6.453   1.415
 9463SOL    HW129288   5.612   6.449   1.322
 9463SOL    HW229289   5.602   6.370   1.465
 9464SOL     OW29290   5.904   6.740   0.557
 9464SOL    HW129291   5.877   6.773   0.648
 9464SOL    HW229292   5.965   6.661   0.567
 9465SOL     OW29293   6.955   4.041   1.670
 9465SOL    HW129294   6.882   3.993   1.718
 9465SOL    HW229295   7.010   4.092   1.736
 9466SOL     OW29296   3.626   4.132   5.916
 9466SOL    HW129297   3.687   4.210   5.933
 9466SOL    HW229298   3.567   4.153   5.839
 9467SOL     OW29299   0.866   2.659   1.401
 9467SOL    HW129300   0.834   2.565   1.414
 9467SOL    HW229301   0.914   2.665   1.313
 9468SOL     OW29302   6.788   3.506   6.198
 9468SOL    HW129303   6.696   3.543   6.195
 9468SOL    HW229304   6.831   3.530   6.285
 9469SOL     OW29305   7.001   5.786   1.476
 9469SOL    HW129306   6.981   5.859   1.541
 9469SOL    HW229307   0.047   5.723   1.517
 9470SOL     OW29308   4.502   3.465   6.790
 9470SOL    HW129309   4.484   3.488   6.886
 9470SOL    HW229310   4.543   3.374   6.785
 9471SOL     OW29311   6.356   1.772   5.248
 9471SOL    HW129312   6.341   1.768   5.149
 9471SOL    HW229313   6.268   1.769   5.295
 9472SOL     OW29314   0.615   3.872   5.460
 9472SOL    HW129315   0.712   3.895   5.458
 9472SOL    HW229316   0.567   3.935   5.521
 9473SOL     OW29317   3.271   4.195   6.560
 9473SOL    HW129318   3.231   4.169   6.648
 9473SOL    HW229319   3.200   4.198   6.490
 9474SOL     OW29320   5.829   3.352   2.181
 9474SOL    HW129321   5.853   3.298   2.262
 9474SOL    HW229322   5.757   3.305   2.130
 9475SOL     OW29323   4.553   3.462   0.327
 9475SOL    HW129324   4.604   3.510   0.399
 9475SOL    HW229325   4.462   3.437   0.361
 9476SOL     OW29326   3.869   3.748   4.962
 9476SOL    HW129327   3.941   3.682   4.985
 9476SOL    HW229328   3.906   3.817   4.901
 9477SOL     OW29329   0.499   2.681   1.402
 9477SOL    HW129330   0.449   2.599   1.374
 9477SOL    HW229331   0.475   2.703   1.497
 9478SOL     OW29332   5.324   3.170   1.083
 9478SOL    HW129333   5.357   3.247   1.029
 9478SOL    HW229334   5.234   3.192   1.122
 9479SOL     OW29335   4.492   6.420   0.792
 9479SOL    HW129336   4.574   6.434   0.847
 9479SOL    HW229337   4.412   6.420   0.852
 9480SOL     OW29338   5.812   5.360   0.714
 9480SOL    HW129339   5.723   5.371   0.669
 9480SOL    HW229340   5.811   5.407   0.803
 9481SOL     OW29341   5.140   2.372   2.690
 9481SOL    HW129342   5.151   2.277   2.718
 9481SOL    HW229343   5.047   2.402   2.709
 9482SOL     OW29344   6.807   0.575   2.745
 9482SOL    HW129345   6.795   0.652   2.681
 9482SOL    HW229346   6.864   0.604   2.822
 9483SOL     OW29347   1.557   1.049   0.524
 9483SOL    HW129348   1.477   1.102   0.498
 9483SOL    HW229349   1.634   1.110   0.541
 9484SOL     OW29350   3.231   6.920   4.695
 9484SOL    HW129351   3.238   7.014   4.731
 9484SOL    HW229352   3.289   6.911   4.615
 9485SOL     OW29353   0.152   1.976   0.754
 9485SOL    HW129354   0.250   1.971   0.771
 9485SOL    HW229355   0.112   1.885   0.761
 9486SOL     OW29356   4.410   6.394   1.210
 9486SOL    HW129357   4.346   6.383   1.286
 9486SOL    HW229358   4.502   6.372   1.241
 9487SOL     OW29359   3.420   4.019   4.227
 9487SOL    HW129360   3.362   4.029   4.308
 9487SOL    HW229361   3.365   4.034   4.144
 9488SOL     OW29362   2.551   0.265   1.295
 9488SOL    HW129363   2.594   0.345   1.254
 9488SOL    HW229364   2.453   0.266   1.276
 9489SOL     OW29365   5.058   4.617   1.312
 9489SOL    HW129366   5.101   4.572   1.233
 9489SOL    HW229367   4.977   4.566   1.340
 9490SOL     OW29368   6.884   6.222   3.480
 9490SOL    HW129369   6.971   6.272   3.481
 9490SOL    HW229370   6.896   6.136   3.430
 9491SOL     OW29371   5.739   5.525   4.238
 9491SOL    HW129372   5.805   5.497   4.168
 9491SOL    HW229373   5.698   5.613   4.213
 9492SOL     OW29374   3.393   3.118   5.087
 9492SOL    HW129375   3.467   3.059   5.120
 9492SOL    HW229376   3.378   3.102   4.989
 9493SOL     OW29377   3.230   5.665   4.828
 9493SOL    HW129378   3.278   5.730   4.887
 9493SOL    HW229379   3.151   5.710   4.787
 9494SOL     OW29380   5.633   3.161   2.319
 9494SOL    HW129381   5.690   3.102   2.376
 9494SOL    HW229382   5.584   3.226   2.377
 9495SOL     OW29383   0.005   1.500   2.543
 9495SOL    HW129384   0.097   1.470   2.569
 9495SOL    HW229385   0.011   1.586   2.493
 9496SOL     OW29386   5.136   2.532   1.700
 9496SOL    HW129387   5.154   2.630   1.691
 9496SOL    HW229388   5.162   2.502   1.792
 9497SOL     OW29389   4.885   6.095   5.029
 9497SOL    HW129390   4.862   6.088   4.932
 9497SOL    HW229391   4.926   6.185   5.047
 9498SOL     OW29392   6.378   4.583   5.001
 9498SOL    HW129393   6.300   4.541   5.047
 9498SOL    HW229394   6.368   4.571   4.902
 9499SOL     OW29395   0.925   6.088   4.971
 9499SOL    HW129396   0.955   6.091   4.875
 9499SOL    HW229397   0.973   6.158   5.023
 9500SOL     OW29398   4.098   6.454   0.556
 9500SOL    HW129399   4.183   6.454   0.503
 9500SOL    HW229400   4.021   6.435   0.496
 9501SOL     OW29401   1.897   1.442   4.139
 9501SOL    HW129402   1.952   1.362   4.161
 9501SOL    HW229403   1.860   1.482   4.222
 9502SOL     OW29404   6.398   3.707   5.028
 9502SOL    HW129405   6.398   3.645   4.949
 9502SOL    HW229406   6.440   3.660   5.107
 9503SOL     OW29407   6.775   2.804   0.355
 9503SOL    HW129408   6.809   2.835   0.266
 9503SOL    HW229409   6.820   2.719   0.380
 9504SOL     OW29410   6.872   4.089   2.045
 9504SOL    HW129411   6.858   3.991   2.060
 9504SOL    HW229412   6.785   4.137   2.058
 9505SOL     OW29413   5.335   4.156   5.462
 9505SOL    HW129414   5.403   4.151   5.389
 9505SOL    HW229415   5.349   4.240   5.515
 9506SOL     OW29416   1.382   2.553   0.990
 9506SOL    HW129417   1.461   2.532   0.933
 9506SOL    HW229418   1.379   2.491   1.068
 9507SOL     OW29419   6.800   0.750   1.457
 9507SOL    HW129420   6.763   0.842   1.443
 9507SOL    HW229421   6.762   0.688   1.389
 9508SOL     OW29422   5.866   1.373   2.808
 9508SOL    HW129423   5.862   1.273   2.804
 9508SOL    HW229424   5.781   1.411   2.772
 9509SOL     OW29425   0.010   0.989   3.387
 9509SOL    HW129426   6.972   0.971   3.468
 9509SOL    HW229427   6.977   0.969   3.304
 9510SOL     OW29428   1.552   3.661   3.149
 9510SOL    HW129429   1.514   3.573   3.120
 9510SOL    HW229430   1.502   3.696   3.228
 9511SOL     OW29431   1.843   0.601   1.527
 9511SOL    HW129432   1.775   0.532   1.552
 9511SOL    HW229433   1.806   0.692   1.546
 9512SOL     OW29434   6.576   2.305   0.450
 9512SOL    HW129435   6.488   2.336   0.486
 9512SOL    HW229436   6.560   2.255   0.364
 9513SOL     OW29437   2.918   4.582   6.295
 9513SOL    HW129438   2.848   4.511   6.302
 9513SOL    HW229439   2.874   4.671   6.290
 9514SOL     OW29440   2.953   4.732   6.731
 9514SOL    HW129441   2.930   4.774   6.643
 9514SOL    HW229442   3.048   4.700   6.727
 9515SOL     OW29443   2.147   5.969   2.498
 9515SOL    HW129444   2.192   5.992   2.584
 9515SOL    HW229445   2.068   5.911   2.516
 9516SOL     OW29446   5.545   4.702   0.318
 9516SOL    HW129447   5.514   4.794   0.342
 9516SOL    HW229448   5.591   4.660   0.397
 9517SOL     OW29449   1.942   3.810   1.193
 9517SOL    HW129450   1.850   3.839   1.218
 9517SOL    HW229451   1.986   3.882   1.138
 9518SOL     OW29452   2.158   1.754   0.894
 9518SOL    HW129453   2.112   1.779   0.808
 9518SOL    HW229454   2.194   1.661   0.887
 9519SOL     OW29455   2.947   3.134   5.164
 9519SOL    HW129456   2.961   3.158   5.068
 9519SOL    HW229457   3.035   3.128   5.211
 9520SOL     OW29458   2.613   0.602   2.976
 9520SOL    HW129459   2.664   0.667   3.032
 9520SOL    HW229460   2.643   0.509   2.997
 9521SOL     OW29461   5.826   5.510   2.692
 9521SOL    HW129462   5.918   5.473   2.681
 9521SOL    HW229463   5.760   5.444   2.657
 9522SOL     OW29464   3.335   5.246   1.326
 9522SOL    HW129465   3.394   5.206   1.256
 9522SOL    HW229466   3.264   5.301   1.283
 9523SOL     OW29467   3.171   5.460   5.132
 9523SOL    HW129468   3.095   5.443   5.069
 9523SOL    HW229469   3.149   5.539   5.190
 9524SOL     OW29470   4.186   2.779   1.703
 9524SOL    HW129471   4.111   2.714   1.697
 9524SOL    HW229472   4.167   2.845   1.776
 9525SOL     OW29473   2.621   2.769   6.087
 9525SOL    HW129474   2.625   2.787   5.988
 9525SOL    HW229475   2.699   2.812   6.132
 9526SOL     OW29476   4.882   5.830   1.611
 9526SOL    HW129477   4.813   5.762   1.638
 9526SOL    HW229478   4.972   5.802   1.645
 9527SOL     OW29479   0.857   0.426   1.534
 9527SOL    HW129480   0.849   0.369   1.616
 9527SOL    HW229481   0.766   0.459   1.508
 9528SOL     OW29482   6.586   0.897   7.004
 9528SOL    HW129483   6.558   0.803   6.987
 9528SOL    HW229484   6.538   0.933   0.065
 9529SOL     OW29485   0.076   2.976   5.310
 9529SOL    HW129486   7.011   2.922   5.316
 9529SOL    HW229487   0.144   2.939   5.373
 9530SOL     OW29488   1.323   3.107   3.551
 9530SOL    HW129489   1.409   3.158   3.542
 9530SOL    HW229490   1.340   3.019   3.594
 9531SOL     OW29491   3.667   5.270   3.375
 9531SOL    HW129492   3.644   5.212   3.297
 9531SOL    HW229493   3.638   5.364   3.357
 9532SOL     OW29494   0.062   6.206   2.260
 9532SOL    HW129495   0.045   6.292   2.212
 9532SOL    HW229496   0.071   6.224   2.358
 9533SOL     OW29497   0.145   0.637   5.046
 9533SOL    HW129498   0.126   0.711   5.110
 9533SOL    HW229499   0.223   0.583   5.079
 9534SOL     OW29500   6.277   2.651   5.455
 9534SOL    HW129501   6.244   2.723   5.394
 9534SOL    HW229502   6.321   2.693   5.535
 9535SOL     OW29503   2.371   1.475   6.013
 9535SOL    HW129504   2.456   1.519   5.982
 9535SOL    HW229505   2.297   1.542   6.012
 9536SOL     OW29506   2.698   5.048   5.108
 9536SOL    HW129507   2.663   4.970   5.159
 9536SOL    HW229508   2.755   5.104   5.169
 9537SOL     OW29509   2.555   0.178   2.301
 9537SOL    HW129510   2.555   0.257   2.240
 9537SOL    HW229511   2.629   0.187   2.367
 9538SOL     OW29512   6.411   1.856   4.740
 9538SOL    HW129513   6.351   1.911   4.682
 9538SOL    HW229514   6.370   1.766   4.755
 9539SOL     OW29515   2.411   4.280   6.539
 9539SOL    HW129516   2.434   4.325   6.453
 9539SOL    HW229517   2.336   4.328   6.583
 9540SOL     OW29518   4.611   4.372   5.265
 9540SOL    HW129519   4.635   4.280   5.297
 9540SOL    HW229520   4.649   4.386   5.173
 9541SOL     OW29521   2.132   2.204   6.027
 9541SOL    HW129522   2.161   2.134   6.092
 9541SOL    HW229523   2.199   2.212   5.954
 9542SOL     OW29524   4.765   3.809   5.279
 9542SOL    HW129525   4.751   3.728   5.222
 9542SOL    HW229526   4.863   3.819   5.300
 9543SOL     OW29527   4.556   0.381   4.380
 9543SOL    HW129528   4.490   0.307   4.394
 9543SOL    HW229529   4.624   0.380   4.454
 9544SOL     OW29530   5.712   0.822   2.329
 9544SOL    HW129531   5.664   0.765   2.262
 9544SOL    HW229532   5.739   0.908   2.286
 9545SOL     OW29533   6.815   5.268   2.968
 9545SOL    HW129534   6.849   5.277   3.062
 9545SOL    HW229535   6.743   5.199   2.965
 9546SOL     OW29536   2.592   3.786   6.813
 9546SOL    HW129537   2.548   3.781   6.724
 9546SOL    HW229538   2.546   3.855   6.869
 9547SOL     OW29539   2.820   6.267   4.352
 9547SOL    HW129540   2.809   6.356   4.307
 9547SOL    HW229541   2.892   6.215   4.307
 9548SOL     OW29542   0.093   5.385   4.962
 9548SOL    HW129543   0.125   5.451   5.031
 9548SOL    HW229544   0.033   5.319   5.005
 9549SOL     OW29545   3.083   5.020   1.057
 9549SOL    HW129546   3.150   5.018   1.132
 9549SOL    HW229547   3.130   5.008   0.970
 9550SOL     OW29548   0.008   1.158   6.160
 9550SOL    HW129549   6.963   1.194   6.228
 9550SOL    HW229550   6.976   1.120   6.083
 9551SOL     OW29551   0.218   7.011   4.303
 9551SOL    HW129552   0.196   6.977   4.212
 9551SOL    HW229553   0.136   7.007   4.361
 9552SOL     OW29554   1.516   6.260   2.385
 9552SOL    HW129555   1.464   6.344   2.400
 9552SOL    HW229556   1.460   6.195   2.333
 9553SOL     OW29557   5.870   4.495   6.571
 9553SOL    HW129558   5.955   4.521   6.524
 9553SOL    HW229559   5.813   4.576   6.585
 9554SOL     OW29560   2.943   1.160   1.491
 9554SOL    HW129561   3.014   1.092   1.475
 9554SOL    HW229562   2.945   1.228   1.418
 9555SOL     OW29563   6.744   2.339   1.065
 9555SOL    HW129564   6.694   2.425   1.074
 9555SOL    HW229565   6.815   2.334   1.135
 9556SOL     OW29566   2.306   1.971   1.277
 9556SOL    HW129567   2.235   1.967   1.207
 9556SOL    HW229568   2.384   2.023   1.242
 9557SOL     OW29569   6.027   0.771   2.652
 9557SOL    HW129570   6.029   0.829   2.570
 9557SOL    HW229571   6.105   0.708   2.651
 9558SOL     OW29572   6.702   5.620   4.026
 9558SOL    HW129573   6.754   5.557   3.969
 9558SOL    HW229574   6.639   5.672   3.968
 9559SOL     OW29575   6.816   4.234   2.382
 9559SOL    HW129576   6.840   4.153   2.435
 9559SOL    HW229577   6.899   4.277   2.347
 9560SOL     OW29578   1.739   1.781   2.587
 9560SOL    HW129579   1.739   1.871   2.630
 9560SOL    HW229580   1.737   1.792   2.488
 9561SOL     OW29581   3.001   0.022   0.709
 9561SOL    HW129582   2.980   0.118   0.728
 9561SOL    HW229583   3.029   0.013   0.613
 9562SOL     OW29584   3.439   5.987   4.599
 9562SOL    HW129585   3.349   6.025   4.577
 9562SOL    HW229586   3.435   5.887   4.591
 9563SOL     OW29587   6.387   6.070   6.879
 9563SOL    HW129588   6.311   6.034   6.825
 9563SOL    HW229589   6.361   6.069   6.976
 9564SOL     OW29590   2.383   0.356   6.851
 9564SOL    HW129591   2.444   0.316   6.782
 9564SOL    HW229592   2.297   0.382   6.807
 9565SOL     OW29593   4.225   5.921   5.206
 9565SOL    HW129594   4.270   6.011   5.209
 9565SOL    HW229595   4.243   5.872   5.291
 9566SOL     OW29596   3.377   4.678   6.954
 9566SOL    HW129597   3.350   4.716   0.023
 9566SOL    HW229598   3.362   4.579   6.954
 9567SOL     OW29599   6.148   5.203   6.340
 9567SOL    HW129600   6.204   5.171   6.263
 9567SOL    HW229601   6.184   5.290   6.373
 9568SOL     OW29602   4.146   3.323   6.795
 9568SOL    HW129603   4.143   3.423   6.803
 9568SOL    HW229604   4.220   3.296   6.734
 9569SOL     OW29605   6.114   0.747   0.780
 9569SOL    HW129606   6.086   0.660   0.740
 9569SOL    HW229607   6.121   0.816   0.707
 9570SOL     OW29608   0.733   1.516   2.035
 9570SOL    HW129609   0.831   1.537   2.029
 9570SOL    HW229610   0.682   1.599   2.056
 9571SOL     OW29611   3.101   3.098   0.451
 9571SOL    HW129612   3.165   3.174   0.451
 9571SOL    HW229613   3.024   3.118   0.512
 9572SOL     OW29614   1.312   4.984   0.782
 9572SOL    HW129615   1.261   5.058   0.826
 9572SOL    HW229616   1.349   4.923   0.852
 9573SOL     OW29617   0.558   1.001   6.794
 9573SOL    HW129618   0.631   0.933   6.781
 9573SOL    HW229619   0.583   1.086   6.747
 9574SOL     OW29620   3.251   3.349   5.047
 9574SOL    HW129621   3.305   3.425   5.083
 9574SOL    HW229622   3.298   3.263   5.064
 9575SOL     OW29623   5.758   0.979   1.040
 9575SOL    HW129624   5.760   1.053   0.974
 9575SOL    HW229625   5.750   1.017   1.132
 9576SOL     OW29626   3.692   0.941   3.087
 9576SOL    HW129627   3.613   1.001   3.099
 9576SOL    HW229628   3.694   0.906   2.994
 9577SOL     OW29629   1.264   0.591   2.422
 9577SOL    HW129630   1.213   0.644   2.490
 9577SOL    HW229631   1.350   0.638   2.401
 9578SOL     OW29632   5.886   3.000   2.782
 9578SOL    HW129633   5.787   2.982   2.786
 9578SOL    HW229634   5.929   2.964   2.866
 9579SOL     OW29635   1.190   6.646   2.298
 9579SOL    HW129636   1.155   6.735   2.328
 9579SOL    HW229637   1.289   6.651   2.285
 9580SOL     OW29638   5.502   3.692   6.681
 9580SOL    HW129639   5.503   3.592   6.683
 9580SOL    HW229640   5.456   3.726   6.763
 9581SOL     OW29641   2.498   4.461   6.363
 9581SOL    HW129642   2.529   4.501   6.277
 9581SOL    HW229643   2.561   4.486   6.436
 9582SOL     OW29644   4.468   4.609   3.984
 9582SOL    HW129645   4.470   4.570   4.076
 9582SOL    HW229646   4.551   4.582   3.935
 9583SOL     OW29647   2.179   3.297   1.742
 9583SOL    HW129648   2.105   3.320   1.678
 9583SOL    HW229649   2.207   3.380   1.791
 9584SOL     OW29650   5.886   5.708   6.797
 9584SOL    HW129651   5.822   5.699   6.873
 9584SOL    HW229652   5.867   5.637   6.729
 9585SOL     OW29653   6.063   0.135   2.614
 9585SOL    HW129654   6.133   0.138   2.543
 9585SOL    HW229655   6.095   0.077   2.690
 9586SOL     OW29656   5.441   3.635   3.557
 9586SOL    HW129657   5.441   3.652   3.656
 9586SOL    HW229658   5.348   3.641   3.522
 9587SOL     OW29659   5.988   0.217   1.560
 9587SOL    HW129660   5.941   0.130   1.544
 9587SOL    HW229661   5.952   0.286   1.497
 9588SOL     OW29662   0.356   1.072   1.221
 9588SOL    HW129663   0.323   1.166   1.229
 9588SOL    HW229664   0.330   1.021   1.303
 9589SOL     OW29665   2.234   6.400   6.383
 9589SOL    HW129666   2.140   6.399   6.347
 9589SOL    HW229667   2.260   6.307   6.410
 9590SOL     OW29668   0.350   3.736   2.176
 9590SOL    HW129669   0.424   3.803   2.172
 9590SOL    HW229670   0.381   3.648   2.140
 9591SOL     OW29671   2.201   6.475   0.650
 9591SOL    HW129672   2.209   6.375   0.640
 9591SOL    HW229673   2.140   6.496   0.725
 9592SOL     OW29674   4.251   5.348   2.802
 9592SOL    HW129675   4.247   5.396   2.890
 9592SOL    HW229676   4.160   5.315   2.777
 9593SOL     OW29677   5.291   2.115   4.341
 9593SOL    HW129678   5.299   2.209   4.307
 9593SOL    HW229679   5.378   2.068   4.329
 9594SOL     OW29680   6.852   6.642   2.987
 9594SOL    HW129681   6.849   6.607   3.080
 9594SOL    HW229682   6.945   6.671   2.965
 9595SOL     OW29683   2.296   5.775   5.113
 9595SOL    HW129684   2.293   5.764   5.013
 9595SOL    HW229685   2.338   5.863   5.135
 9596SOL     OW29686   6.993   5.060   5.923
 9596SOL    HW129687   6.957   5.128   5.858
 9596SOL    HW229688   0.004   4.979   5.873
 9597SOL     OW29689   0.286   4.162   1.911
 9597SOL    HW129690   0.309   4.066   1.896
 9597SOL    HW229691   0.259   4.175   2.007
 9598SOL     OW29692   0.194   3.959   5.578
 9598SOL    HW129693   0.112   3.939   5.631
 9598SOL    HW229694   0.178   4.040   5.522
 9599SOL     OW29695   3.503   0.071   5.418
 9599SOL    HW129696   3.450   7.006   5.429
 9599SOL    HW229697   3.566   0.061   5.341
 9600SOL     OW29698   1.607   0.342   5.302
 9600SOL    HW129699   1.536   0.322   5.370
 9600SOL    HW229700   1.633   0.438   5.307
 9601SOL     OW29701   6.942   4.201   6.117
 9601SOL    HW129702   6.866   4.227   6.058
 9601SOL    HW229703   6.947   4.262   6.196
 9602SOL     OW29704   6.624   5.078   5.938
 9602SOL    HW129705   6.528   5.060   5.917
 9602SOL    HW229706   6.676   4.993   5.935
 9603SOL     OW29707   2.717   6.664   4.707
 9603SOL    HW129708   2.699   6.744   4.649
 9603SOL    HW229709   2.763   6.594   4.653
 9604SOL     OW29710   4.896   1.153   0.880
 9604SOL    HW129711   4.848   1.065   0.878
 9604SOL    HW229712   4.829   1.227   0.877
 9605SOL     OW29713   1.271   4.651   5.651
 9605SOL    HW129714   1.256   4.629   5.555
 9605SOL    HW229715   1.265   4.568   5.706
 9606SOL     OW29716   1.107   6.900   3.174
 9606SOL    HW129717   1.132   6.997   3.181
 9606SOL    HW229718   1.154   6.849   3.246
 9607SOL     OW29719   0.771   1.186   1.695
 9607SOL    HW129720   0.747   1.283   1.692
 9607SOL    HW229721   0.721   1.137   1.623
 9608SOL     OW29722   6.629   6.939   2.118
 9608SOL    HW129723   6.682   6.871   2.068
 9608SOL    HW229724   6.687   6.984   2.186
 9609SOL     OW29725   1.818   4.373   4.666
 9609SOL    HW129726   1.818   4.449   4.602
 9609SOL    HW229727   1.804   4.287   4.616
 9610SOL     OW29728   1.828   2.612   5.976
 9610SOL    HW129729   1.864   2.530   6.019
 9610SOL    HW229730   1.728   2.611   5.980
 9611SOL     OW29731   6.566   0.322   1.076
 9611SOL    HW129732   6.487   0.269   1.046
 9611SOL    HW229733   6.537   0.415   1.098
 9612SOL     OW29734   6.536   2.847   1.084
 9612SOL    HW129735   6.482   2.928   1.104
 9612SOL    HW229736   6.626   2.875   1.049
 9613SOL     OW29737   5.414   6.970   4.074
 9613SOL    HW129738   5.355   6.944   3.997
 9613SOL    HW229739   5.510   6.960   4.048
 9614SOL     OW29740   3.967   3.976   2.274
 9614SOL    HW129741   4.049   4.028   2.296
 9614SOL    HW229742   3.888   4.015   2.322
 9615SOL     OW29743   2.548   5.372   3.102
 9615SOL    HW129744   2.573   5.291   3.154
 9615SOL    HW229745   2.512   5.344   3.013
 9616SOL     OW29746   3.986   3.115   1.485
 9616SOL    HW129747   3.964   3.033   1.431
 9616SOL    HW229748   4.019   3.087   1.575
 9617SOL     OW29749   1.420   3.680   3.661
 9617SOL    HW129750   1.362   3.609   3.701
 9617SOL    HW229751   1.379   3.770   3.678
 9618SOL     OW29752   3.816   6.536   6.205
 9618SOL    HW129753   3.740   6.473   6.194
 9618SOL    HW229754   3.898   6.486   6.232
 9619SOL     OW29755   1.792   5.978   0.319
 9619SOL    HW129756   1.779   6.065   0.272
 9619SOL    HW229757   1.721   5.914   0.291
 9620SOL     OW29758   4.140   0.316   6.357
 9620SOL    HW129759   4.049   0.291   6.392
 9620SOL    HW229760   4.130   0.361   6.268
 9621SOL     OW29761   1.175   0.110   2.288
 9621SOL    HW129762   1.213   0.197   2.318
 9621SOL    HW229763   1.089   0.125   2.240
 9622SOL     OW29764   0.065   1.324   6.913
 9622SOL    HW129765   0.072   1.286   7.005
 9622SOL    HW229766   0.050   1.423   6.920
 9623SOL     OW29767   4.842   5.813   6.385
 9623SOL    HW129768   4.774   5.746   6.353
 9623SOL    HW229769   4.848   5.887   6.318
 9624SOL     OW29770   5.255   5.457   5.318
 9624SOL    HW129771   5.345   5.428   5.351
 9624SOL    HW229772   5.260   5.475   5.220
 9625SOL     OW29773   5.352   4.591   6.652
 9625SOL    HW129774   5.374   4.582   6.556
 9625SOL    HW229775   5.292   4.516   6.680
 9626SOL     OW29776   1.828   4.550   4.459
 9626SOL    HW129777   1.907   4.608   4.482
 9626SOL    HW229778   1.846   4.503   4.372
 9627SOL     OW29779   1.871   4.035   5.482
 9627SOL    HW129780   1.819   4.094   5.545
 9627SOL    HW229781   1.813   3.959   5.453
 9628SOL     OW29782   5.963   4.058   0.025
 9628SOL    HW129783   5.990   4.043   0.120
 9628SOL    HW229784   5.948   4.155   0.009
 9629SOL     OW29785   6.717   6.293   3.149
 9629SOL    HW129786   6.654   6.241   3.206
 9629SOL    HW229787   6.737   6.380   3.194
 9630SOL     OW29788   6.107   6.193   5.621
 9630SOL    HW129789   6.159   6.252   5.558
 9630SOL    HW229790   6.110   6.232   5.713
 9631SOL     OW29791   4.650   1.258   1.283
 9631SOL    HW129792   4.748   1.258   1.305
 9631SOL    HW229793   4.635   1.206   1.199
 9632SOL     OW29794   1.898   5.474   1.558
 9632SOL    HW129795   1.851   5.523   1.632
 9632SOL    HW229796   1.958   5.404   1.597
 9633SOL     OW29797   3.763   2.868   2.277
 9633SOL    HW129798   3.801   2.906   2.192
 9633SOL    HW229799   3.836   2.861   2.345
 9634SOL     OW29800   5.747   4.124   2.784
 9634SOL    HW129801   5.836   4.110   2.828
 9634SOL    HW229802   5.696   4.194   2.834
 9635SOL     OW29803   0.283   3.993   3.952
 9635SOL    HW129804   0.378   3.995   3.982
 9635SOL    HW229805   0.234   4.071   3.989
 9636SOL     OW29806   4.240   1.437   5.534
 9636SOL    HW129807   4.309   1.379   5.576
 9636SOL    HW229808   4.246   1.430   5.434
 9637SOL     OW29809   2.374   3.269   1.553
 9637SOL    HW129810   2.301   3.252   1.619
 9637SOL    HW229811   2.437   3.337   1.590
 9638SOL     OW29812   6.777   4.435   6.324
 9638SOL    HW129813   6.862   4.389   6.351
 9638SOL    HW229814   6.775   4.446   6.225
 9639SOL     OW29815   4.585   2.501   1.903
 9639SOL    HW129816   4.496   2.510   1.859
 9639SOL    HW229817   4.636   2.587   1.892
 9640SOL     OW29818   4.109   1.210   2.218
 9640SOL    HW129819   4.021   1.201   2.264
 9640SOL    HW229820   4.103   1.170   2.126
 9641SOL     OW29821   5.519   5.536   3.090
 9641SOL    HW129822   5.423   5.559   3.081
 9641SOL    HW229823   5.532   5.438   3.072
 9642SOL     OW29824   1.460   0.194   4.216
 9642SOL    HW129825   1.522   0.157   4.286
 9642SOL    HW229826   1.512   0.248   4.150
 9643SOL     OW29827   4.666   4.222   3.629
 9643SOL    HW129828   4.646   4.126   3.610
 9643SOL    HW229829   4.678   4.236   3.727
 9644SOL     OW29830   2.213   6.084   4.872
 9644SOL    HW129831   2.170   6.174   4.878
 9644SOL    HW229832   2.143   6.012   4.881
 9645SOL     OW29833   1.378   4.361   5.017
 9645SOL    HW129834   1.449   4.393   5.081
 9645SOL    HW229835   1.392   4.404   4.928
 9646SOL     OW29836   2.861   6.457   4.162
 9646SOL    HW129837   2.902   6.380   4.114
 9646SOL    HW229838   2.915   6.539   4.147
 9647SOL     OW29839   6.550   5.955   3.415
 9647SOL    HW129840   6.517   5.957   3.320
 9647SOL    HW229841   6.537   5.863   3.453
 9648SOL     OW29842   5.551   3.114   1.705
 9648SOL    HW129843   5.628   3.118   1.641
 9648SOL    HW229844   5.517   3.020   1.710
 9649SOL     OW29845   2.153   3.684   6.253
 9649SOL    HW129846   2.178   3.622   6.327
 9649SOL    HW229847   2.123   3.631   6.173
 9650SOL     OW29848   6.360   5.027   3.633
 9650SOL    HW129849   6.268   5.043   3.667
 9650SOL    HW229850   6.426   5.059   3.701
 9651SOL     OW29851   3.499   1.253   0.757
 9651SOL    HW129852   3.569   1.229   0.689
 9651SOL    HW229853   3.441   1.173   0.773
 9652SOL     OW29854   0.680   4.449   1.104
 9652SOL    HW129855   0.736   4.530   1.087
 9652SOL    HW229856   0.626   4.428   1.022
 9653SOL     OW29857   4.294   4.817   5.655
 9653SOL    HW129858   4.391   4.826   5.677
 9653SOL    HW229859   4.251   4.756   5.721
 9654SOL     OW29860   3.261   2.985   3.064
 9654SOL    HW129861   3.253   2.888   3.040
 9654SOL    HW229862   3.170   3.022   3.083
 9655SOL     OW29863   0.056   1.474   0.829
 9655SOL    HW129864   0.028   1.422   0.910
 9655SOL    HW229865   0.024   1.427   0.747
 9656SOL     OW29866   4.625   2.386   0.138
 9656SOL    HW129867   4.591   2.399   0.231
 9656SOL    HW229868   4.583   2.454   0.078
 9657SOL     OW29869   5.213   4.187   3.617
 9657SOL    HW129870   5.277   4.197   3.693
 9657SOL    HW229871   5.201   4.090   3.596
 9658SOL     OW29872   5.103   1.741   2.397
 9658SOL    HW129873   5.197   1.729   2.429
 9658SOL    HW229874   5.074   1.658   2.349
 9659SOL     OW29875   2.777   1.515   0.018
 9659SOL    HW129876   2.729   1.598   7.009
 9659SOL    HW229877   2.856   1.500   6.979
 9660SOL     OW29878   0.627   6.812   1.293
 9660SOL    HW129879   0.706   6.852   1.340
 9660SOL    HW229880   0.564   6.773   1.360
 9661SOL     OW29881   4.384   5.634   1.089
 9661SOL    HW129882   4.318   5.680   1.030
 9661SOL    HW229883   4.353   5.541   1.109
 9662SOL     OW29884   5.270   4.344   7.013
 9662SOL    HW129885   5.181   4.372   6.978
 9662SOL    HW229886   5.319   4.293   6.942
 9663SOL     OW29887   0.630   4.566   2.444
 9663SOL    HW129888   0.664   4.498   2.379
 9663SOL    HW229889   0.658   4.541   2.536
 9664SOL     OW29890   5.056   4.184   4.010
 9664SOL    HW129891   5.056   4.268   3.956
 9664SOL    HW229892   5.120   4.118   3.969
 9665SOL     OW29893   6.547   6.295   5.644
 9665SOL    HW129894   6.545   6.202   5.679
 9665SOL    HW229895   6.526   6.359   5.718
 9666SOL     OW29896   6.495   4.634   1.372
 9666SOL    HW129897   6.478   4.623   1.470
 9666SOL    HW229898   6.551   4.558   1.339
 9667SOL     OW29899   4.584   4.164   0.878
 9667SOL    HW129900   4.505   4.140   0.935
 9667SOL    HW229901   4.624   4.082   0.839
 9668SOL     OW29902   1.330   0.966   6.129
 9668SOL    HW129903   1.269   0.897   6.090
 9668SOL    HW229904   1.280   1.051   6.144
 9669SOL     OW29905   2.860   0.264   0.768
 9669SOL    HW129906   2.825   0.251   0.676
 9669SOL    HW229907   2.793   0.315   0.822
 9670SOL     OW29908   0.498   6.220   5.478
 9670SOL    HW129909   0.424   6.282   5.503
 9670SOL    HW229910   0.461   6.134   5.443
 9671SOL     OW29911   0.763   4.782   0.483
 9671SOL    HW129912   0.814   4.788   0.398
 9671SOL    HW229913   0.667   4.764   0.463
 9672SOL     OW29914   1.662   5.095   2.777
 9672SOL    HW129915   1.642   5.002   2.744
 9672SOL    HW229916   1.691   5.091   2.872
 9673SOL     OW29917   3.535   3.960   1.049
 9673SOL    HW129918   3.548   4.059   1.051
 9673SOL    HW229919   3.451   3.939   0.999
 9674SOL     OW29920   3.881   6.291   2.586
 9674SOL    HW129921   3.937   6.281   2.668
 9674SOL    HW229922   3.841   6.202   2.562
 9675SOL     OW29923   5.298   4.009   0.102
 9675SOL    HW129924   5.306   4.085   0.167
 9675SOL    HW229925   5.212   3.960   0.119
 9676SOL     OW29926   1.321   3.286   6.546
 9676SOL    HW129927   1.370   3.359   6.595
 9676SOL    HW229928   1.321   3.306   6.448
 9677SOL     OW29929   6.352   5.315   6.637
 9677SOL    HW129930   6.321   5.350   6.726
 9677SOL    HW229931   6.296   5.353   6.564
 9678SOL     OW29932   3.236   3.722   4.505
 9678SOL    HW129933   3.140   3.749   4.512
 9678SOL    HW229934   3.278   3.769   4.427
 9679SOL     OW29935   2.704   1.660   4.609
 9679SOL    HW129936   2.755   1.603   4.544
 9679SOL    HW229937   2.758   1.673   4.692
 9680SOL     OW29938   5.092   6.958   5.203
 9680SOL    HW129939   5.171   6.900   5.217
 9680SOL    HW229940   5.122   0.034   5.191
 9681SOL     OW29941   3.020   1.694   1.502
 9681SOL    HW129942   3.097   1.755   1.525
 9681SOL    HW229943   3.056   1.604   1.478
 9682SOL     OW29944   4.851   4.415   3.391
 9682SOL    HW129945   4.758   4.424   3.427
 9682SOL    HW229946   4.850   4.354   3.311
 9683SOL     OW29947   2.628   6.566   0.556
 9683SOL    HW129948   2.666   6.658   0.558
 9683SOL    HW229949   2.632   6.530   0.463
 9684SOL     OW29950   0.807   3.720   4.812
 9684SOL    HW129951   0.879   3.777   4.772
 9684SOL    HW229952   0.732   3.778   4.843
 9685SOL     OW29953   4.633   3.654   0.558
 9685SOL    HW129954   4.584   3.738   0.535
 9685SOL    HW229955   4.727   3.659   0.523
 9686SOL     OW29956   0.491   3.008   0.569
 9686SOL    HW129957   0.446   3.095   0.590
 9686SOL    HW229958   0.482   2.989   0.471
 9687SOL     OW29959   6.237   0.119   2.389
 9687SOL    HW129960   6.247   0.049   2.318
 9687SOL    HW229961   6.311   0.185   2.381
 9688SOL     OW29962   0.760   3.912   0.772
 9688SOL    HW129963   0.733   3.856   0.851
 9688SOL    HW229964   0.781   4.004   0.803
 9689SOL     OW29965   0.932   4.548   6.179
 9689SOL    HW129966   0.935   4.604   6.097
 9689SOL    HW229967   1.008   4.572   6.239
 9690SOL     OW29968   4.124   5.846   6.009
 9690SOL    HW129969   4.106   5.776   6.079
 9690SOL    HW229970   4.040   5.862   5.957
 9691SOL     OW29971   3.274   4.069   2.589
 9691SOL    HW129972   3.197   4.077   2.525
 9691SOL    HW229973   3.257   3.994   2.653
 9692SOL     OW29974   4.873   5.390   0.762
 9692SOL    HW129975   4.857   5.419   0.668
 9692SOL    HW229976   4.797   5.422   0.820
 9693SOL     OW29977   5.532   4.337   3.727
 9693SOL    HW129978   5.507   4.363   3.634
 9693SOL    HW229979   5.608   4.393   3.759
 9694SOL     OW29980   4.201   0.749   1.532
 9694SOL    HW129981   4.225   0.846   1.538
 9694SOL    HW229982   4.280   0.693   1.558
 9695SOL     OW29983   0.311   2.980   3.034
 9695SOL    HW129984   0.353   3.047   2.973
 9695SOL    HW229985   0.238   2.932   2.985
 9696SOL     OW29986   5.881   1.652   2.494
 9696SOL    HW129987   5.939   1.572   2.481
 9696SOL    HW229988   5.931   1.721   2.546
 9697SOL     OW29989   0.400   6.792   0.745
 9697SOL    HW129990   0.374   6.717   0.806
 9697SOL    HW229991   0.497   6.784   0.722
 9698SOL     OW29992   5.814   3.146   6.257
 9698SOL    HW129993   5.901   3.194   6.250
 9698SOL    HW229994   5.824   3.053   6.220
 9699SOL     OW29995   0.680   5.769   6.682
 9699SOL    HW129996   0.585   5.754   6.710
 9699SOL    HW229997   0.718   5.845   6.734
 9700SOL     OW29998   6.271   5.436   3.820
 9700SOL    HW129999   6.221   5.352   3.842
 9700SOL    HW230000   6.361   5.434   3.863
 9701SOL     OW30001   4.275   4.000   5.873
 9701SOL    HW130002   4.259   3.941   5.794
 9701SOL    HW230003   4.293   3.943   5.954
 9702SOL     OW30004   3.873   2.634   0.057
 9702SOL    HW130005   3.953   2.652   7.019
 9702SOL    HW230006   3.799   2.696   0.033
 9703SOL     OW30007   5.527   3.684   4.459
 9703SOL    HW130008   5.521   3.719   4.553
 9703SOL    HW230009   5.474   3.600   4.450
 9704SOL     OW30010   3.329   5.459   2.402
 9704SOL    HW130011   3.327   5.391   2.476
 9704SOL    HW230012   3.407   5.440   2.342
 9705SOL     OW30013   6.182   4.137   5.727
 9705SOL    HW130014   6.093   4.161   5.686
 9705SOL    HW230015   6.169   4.110   5.822
 9706SOL     OW30016   2.220   2.240   1.384
 9706SOL    HW130017   2.316   2.238   1.412
 9706SOL    HW230018   2.214   2.265   1.287
 9707SOL     OW30019   5.512   5.020   2.347
 9707SOL    HW130020   5.518   4.971   2.434
 9707SOL    HW230021   5.463   4.965   2.280
 9708SOL     OW30022   1.477   1.548   2.850
 9708SOL    HW130023   1.530   1.563   2.934
 9708SOL    HW230024   1.383   1.525   2.874
 9709SOL     OW30025   4.961   4.538   2.097
 9709SOL    HW130026   4.919   4.450   2.117
 9709SOL    HW230027   4.974   4.548   1.999
 9710SOL     OW30028   6.502   0.352   0.528
 9710SOL    HW130029   6.499   0.425   0.597
 9710SOL    HW230030   6.518   0.264   0.574
 9711SOL     OW30031   3.546   5.897   6.477
 9711SOL    HW130032   3.492   5.848   6.545
 9711SOL    HW230033   3.563   5.836   6.399
 9712SOL     OW30034   6.303   3.324   0.357
 9712SOL    HW130035   6.208   3.349   0.375
 9712SOL    HW230036   6.324   3.340   0.261
 9713SOL     OW30037   2.864   5.831   3.673
 9713SOL    HW130038   2.873   5.811   3.771
 9713SOL    HW230039   2.770   5.813   3.644
 9714SOL     OW30040   3.961   6.346   5.680
 9714SOL    HW130041   3.907   6.276   5.633
 9714SOL    HW230042   4.017   6.303   5.750
 9715SOL     OW30043   5.840   5.172   6.793
 9715SOL    HW130044   5.912   5.239   6.813
 9715SOL    HW230045   5.879   5.096   6.740
 9716SOL     OW30046   3.837   4.204   6.792
 9716SOL    HW130047   3.836   4.254   6.705
 9716SOL    HW230048   3.928   4.207   6.831
 9717SOL     OW30049   4.843   6.588   0.076
 9717SOL    HW130050   4.802   6.502   0.045
 9717SOL    HW230051   4.809   6.610   0.168
 9718SOL     OW30052   4.252   2.864   0.959
 9718SOL    HW130053   4.272   2.918   1.041
 9718SOL    HW230054   4.191   2.789   0.982
 9719SOL     OW30055   5.397   7.006   5.739
 9719SOL    HW130056   5.335   0.054   5.778
 9719SOL    HW230057   5.381   6.998   5.641
 9720SOL     OW30058   0.878   3.302   2.445
 9720SOL    HW130059   0.851   3.343   2.358
 9720SOL    HW230060   0.797   3.284   2.500
 9721SOL     OW30061   0.431   1.478   6.722
 9721SOL    HW130062   0.516   1.531   6.728
 9721SOL    HW230063   0.376   1.512   6.645
 9722SOL     OW30064   3.447   1.092   5.023
 9722SOL    HW130065   3.458   1.069   4.926
 9722SOL    HW230066   3.485   1.020   5.079
 9723SOL     OW30067   5.517   5.757   4.217
 9723SOL    HW130068   5.451   5.718   4.281
 9723SOL    HW230069   5.469   5.797   4.140
 9724SOL     OW30070   2.429   4.684   6.931
 9724SOL    HW130071   2.377   4.603   6.905
 9724SOL    HW230072   2.492   4.708   6.857
 9725SOL     OW30073   4.460   5.787   5.688
 9725SOL    HW130074   4.391   5.859   5.698
 9725SOL    HW230075   4.532   5.800   5.757
 9726SOL     OW30076   4.538   2.066   4.771
 9726SOL    HW130077   4.557   1.971   4.749
 9726SOL    HW230078   4.461   2.072   4.835
 9727SOL     OW30079   1.005   2.384   0.365
 9727SOL    HW130080   1.063   2.404   0.286
 9727SOL    HW230081   1.032   2.442   0.442
 9728SOL     OW30082   6.963   1.914   5.829
 9728SOL    HW130083   0.019   1.949   5.885
 9728SOL    HW230084   6.881   1.969   5.846
 9729SOL     OW30085   1.084   4.278   3.697
 9729SOL    HW130086   1.135   4.204   3.653
 9729SOL    HW230087   0.989   4.250   3.711
 9730SOL     OW30088   0.899   4.236   2.766
 9730SOL    HW130089   0.913   4.172   2.690
 9730SOL    HW230090   0.877   4.327   2.730
 9731SOL     OW30091   4.486   5.255   1.524
 9731SOL    HW130092   4.414   5.209   1.472
 9731SOL    HW230093   4.496   5.212   1.613
 9732SOL     OW30094   0.096   3.200   1.994
 9732SOL    HW130095   0.093   3.175   1.897
 9732SOL    HW230096   0.067   3.122   2.050
 9733SOL     OW30097   5.561   6.059   1.292
 9733SOL    HW130098   5.597   6.093   1.379
 9733SOL    HW230099   5.469   6.096   1.276
 9734SOL     OW30100   6.544   0.224   0.266
 9734SOL    HW130101   6.499   0.271   0.341
 9734SOL    HW230102   6.625   0.176   0.300
 9735SOL     OW30103   1.599   3.085   3.244
 9735SOL    HW130104   1.582   3.029   3.325
 9735SOL    HW230105   1.513   3.125   3.212
 9736SOL     OW30106   5.432   1.686   6.101
 9736SOL    HW130107   5.358   1.624   6.075
 9736SOL    HW230108   5.394   1.768   6.144
 9737SOL     OW30109   5.619   2.120   2.762
 9737SOL    HW130110   5.552   2.146   2.832
 9737SOL    HW230111   5.590   2.155   2.673
 9738SOL     OW30112   1.456   0.221   0.921
 9738SOL    HW130113   1.420   0.167   0.997
 9738SOL    HW230114   1.451   0.318   0.943
 9739SOL     OW30115   5.172   6.198   0.110
 9739SOL    HW130116   5.208   6.291   0.105
 9739SOL    HW230117   5.082   6.195   0.065
 9740SOL     OW30118   6.257   1.061   2.995
 9740SOL    HW130119   6.189   0.996   2.959
 9740SOL    HW230120   6.289   1.119   2.920
 9741SOL     OW30121   2.605   0.571   3.603
 9741SOL    HW130122   2.664   0.493   3.621
 9741SOL    HW230123   2.642   0.653   3.647
 9742SOL     OW30124   4.092   0.875   0.283
 9742SOL    HW130125   3.994   0.873   0.306
 9742SOL    HW230126   4.103   0.854   0.186
 9743SOL     OW30127   0.104   4.396   2.730
 9743SOL    HW130128   0.150   4.484   2.726
 9743SOL    HW230129   0.170   4.326   2.758
 9744SOL     OW30130   2.526   0.019   2.920
 9744SOL    HW130131   2.538   0.065   3.008
 9744SOL    HW230132   2.436   6.995   2.918
 9745SOL     OW30133   5.368   3.128   6.667
 9745SOL    HW130134   5.399   3.135   6.572
 9745SOL    HW230135   5.447   3.117   6.727
 9746SOL     OW30136   5.540   6.279   5.913
 9746SOL    HW130137   5.541   6.379   5.919
 9746SOL    HW230138   5.608   6.241   5.976
 9747SOL     OW30139   3.100   2.198   1.789
 9747SOL    HW130140   3.130   2.141   1.865
 9747SOL    HW230141   3.057   2.281   1.825
 9748SOL     OW30142   0.079   6.742   2.995
 9748SOL    HW130143   0.098   6.754   2.898
 9748SOL    HW230144   0.135   6.668   3.031
 9749SOL     OW30145   0.698   1.267   3.012
 9749SOL    HW130146   0.735   1.176   3.028
 9749SOL    HW230147   0.757   1.335   3.055
 9750SOL     OW30148   6.357   5.930   3.772
 9750SOL    HW130149   6.280   5.867   3.778
 9750SOL    HW230150   6.353   5.978   3.684
 9751SOL     OW30151   1.765   0.044   0.481
 9751SOL    HW130152   1.844   7.003   0.486
 9751SOL    HW230153   1.691   0.008   0.538
 9752SOL     OW30154   3.796   1.659   5.401
 9752SOL    HW130155   3.733   1.589   5.369
 9752SOL    HW230156   3.873   1.617   5.449
 9753SOL     OW30157   1.267   5.651   6.311
 9753SOL    HW130158   1.190   5.712   6.330
 9753SOL    HW230159   1.233   5.567   6.268
 9754SOL     OW30160   2.684   0.426   0.898
 9754SOL    HW130161   2.630   0.445   0.980
 9754SOL    HW230162   2.710   0.512   0.855
 9755SOL     OW30163   3.505   3.927   4.955
 9755SOL    HW130164   3.431   3.922   4.888
 9755SOL    HW230165   3.549   3.838   4.964
 9756SOL     OW30166   6.057   2.348   6.510
 9756SOL    HW130167   6.053   2.304   6.420
 9756SOL    HW230168   6.052   2.447   6.498
 9757SOL     OW30169   5.623   4.350   5.047
 9757SOL    HW130170   5.561   4.315   5.117
 9757SOL    HW230171   5.717   4.332   5.073
 9758SOL     OW30172   2.119   0.967   0.156
 9758SOL    HW130173   2.109   1.066   0.162
 9758SOL    HW230174   2.194   0.937   0.214
 9759SOL     OW30175   1.107   1.618   0.728
 9759SOL    HW130176   1.136   1.612   0.823
 9759SOL    HW230177   1.064   1.531   0.701
 9760SOL     OW30178   4.750   3.595   6.083
 9760SOL    HW130179   4.741   3.575   6.181
 9760SOL    HW230180   4.665   3.636   6.050
 9761SOL     OW30181   1.336   2.587   2.429
 9761SOL    HW130182   1.386   2.589   2.515
 9761SOL    HW230183   1.302   2.679   2.408
 9762SOL     OW30184   3.370   1.448   4.619
 9762SOL    HW130185   3.417   1.516   4.674
 9762SOL    HW230186   3.287   1.487   4.580
 9763SOL     OW30187   5.896   0.599   3.286
 9763SOL    HW130188   5.955   0.576   3.208
 9763SOL    HW230189   5.802   0.573   3.265
 9764SOL     OW30190   6.538   2.522   2.186
 9764SOL    HW130191   6.599   2.447   2.160
 9764SOL    HW230192   6.522   2.519   2.285
 9765SOL     OW30193   6.769   6.900   2.910
 9765SOL    HW130194   6.732   6.906   2.818
 9765SOL    HW230195   6.791   6.805   2.932
 9766SOL     OW30196   2.020   6.513   3.075
 9766SOL    HW130197   2.074   6.574   3.017
 9766SOL    HW230198   1.972   6.566   3.144
 9767SOL     OW30199   2.538   2.781   5.301
 9767SOL    HW130200   2.495   2.862   5.263
 9767SOL    HW230201   2.574   2.802   5.392
 9768SOL     OW30202   4.534   1.384   1.486
 9768SOL    HW130203   4.577   1.325   1.418
 9768SOL    HW230204   4.603   1.419   1.549
 9769SOL     OW30205   3.739   0.902   4.490
 9769SOL    HW130206   3.790   0.942   4.566
 9769SOL    HW230207   3.718   0.973   4.423
 9770SOL     OW30208   3.956   1.403   5.183
 9770SOL    HW130209   3.921   1.354   5.103
 9770SOL    HW230210   3.880   1.423   5.245
 9771SOL     OW30211   2.444   5.775   1.149
 9771SOL    HW130212   2.348   5.751   1.164
 9771SOL    HW230213   2.457   5.800   1.053
 9772SOL     OW30214   1.880   6.294   1.240
 9772SOL    HW130215   1.818   6.266   1.313
 9772SOL    HW230216   1.937   6.217   1.213
 9773SOL     OW30217   5.315   5.459   3.744
 9773SOL    HW130218   5.291   5.362   3.755
 9773SOL    HW230219   5.244   5.504   3.690
 9774SOL     OW30220   0.629   5.591   2.959
 9774SOL    HW130221   0.708   5.623   3.010
 9774SOL    HW230222   0.629   5.491   2.957
 9775SOL     OW30223   3.220   0.074   3.790
 9775SOL    HW130224   3.241   0.092   3.886
 9775SOL    HW230225   3.238   0.157   3.736
 9776SOL     OW30226   0.993   4.162   5.599
 9776SOL    HW130227   1.050   4.211   5.533
 9776SOL    HW230228   1.037   4.162   5.689
 9777SOL     OW30229   5.318   5.874   0.806
 9777SOL    HW130230   5.248   5.813   0.768
 9777SOL    HW230231   5.305   5.882   0.904
 9778SOL     OW30232   6.839   1.688   5.213
 9778SOL    HW130233   6.758   1.684   5.271
 9778SOL    HW230234   6.847   1.602   5.162
 9779SOL     OW30235   0.525   2.376   3.787
 9779SOL    HW130236   0.452   2.353   3.723
 9779SOL    HW230237   0.508   2.330   3.875
 9780SOL     OW30238   2.369   2.067   0.881
 9780SOL    HW130239   2.287   2.091   0.933
 9780SOL    HW230240   2.420   1.997   0.930
 9781SOL     OW30241   1.900   3.517   4.357
 9781SOL    HW130242   1.885   3.558   4.447
 9781SOL    HW230243   1.813   3.507   4.310
 9782SOL     OW30244   0.594   1.837   0.339
 9782SOL    HW130245   0.692   1.821   0.324
 9782SOL    HW230246   0.562   1.907   0.275
 9783SOL     OW30247   4.303   2.383   3.320
 9783SOL    HW130248   4.287   2.344   3.410
 9783SOL    HW230249   4.246   2.337   3.252
 9784SOL     OW30250   3.805   0.536   5.735
 9784SOL    HW130251   3.894   0.493   5.719
 9784SOL    HW230252   3.770   0.506   5.824
 9785SOL     OW30253   6.594   2.051   5.429
 9785SOL    HW130254   6.543   2.082   5.348
 9785SOL    HW230255   6.530   2.009   5.493
 9786SOL     OW30256   2.889   3.145   0.616
 9786SOL    HW130257   2.799   3.151   0.658
 9786SOL    HW230258   2.923   3.236   0.595
 9787SOL     OW30259   3.221   3.597   3.243
 9787SOL    HW130260   3.232   3.599   3.342
 9787SOL    HW230261   3.296   3.545   3.202
 9788SOL     OW30262   0.829   0.288   1.761
 9788SOL    HW130263   0.928   0.274   1.763
 9788SOL    HW230264   0.788   0.251   1.844
 9789SOL     OW30265   1.879   6.467   7.016
 9789SOL    HW130266   1.878   6.563   0.026
 9789SOL    HW230267   1.896   6.408   0.076
 9790SOL     OW30268   6.816   4.467   6.069
 9790SOL    HW130269   6.750   4.410   6.021
 9790SOL    HW230270   6.850   4.538   6.007
 9791SOL     OW30271   0.107   0.539   6.804
 9791SOL    HW130272   0.109   0.631   6.844
 9791SOL    HW230273   0.086   0.546   6.706
 9792SOL     OW30274   3.352   5.129   0.812
 9792SOL    HW130275   3.278   5.062   0.808
 9792SOL    HW230276   3.409   5.110   0.892
 9793SOL     OW30277   4.192   0.009   2.626
 9793SOL    HW130278   4.181   0.009   2.726
 9793SOL    HW230279   4.288   0.024   2.603
 9794SOL     OW30280   6.445   4.478   5.485
 9794SOL    HW130281   6.469   4.508   5.393
 9794SOL    HW230282   6.468   4.549   5.551
 9795SOL     OW30283   1.268   3.171   4.431
 9795SOL    HW130284   1.343   3.220   4.385
 9795SOL    HW230285   1.289   3.163   4.528
 9796SOL     OW30286   4.137   3.622   3.008
 9796SOL    HW130287   4.197   3.632   3.087
 9796SOL    HW230288   4.098   3.711   2.983
 9797SOL     OW30289   1.914   5.325   6.845
 9797SOL    HW130290   1.980   5.276   6.903
 9797SOL    HW230291   1.960   5.402   6.800
 9798SOL     OW30292   2.681   0.777   1.772
 9798SOL    HW130293   2.620   0.757   1.848
 9798SOL    HW230294   2.649   0.729   1.690
 9799SOL     OW30295   2.647   3.738   5.973
 9799SOL    HW130296   2.732   3.786   5.954
 9799SOL    HW230297   2.614   3.694   5.889
 9800SOL     OW30298   4.947   4.374   4.473
 9800SOL    HW130299   5.002   4.456   4.489
 9800SOL    HW230300   5.004   4.293   4.483
 9801SOL     OW30301   4.746   4.601   0.163
 9801SOL    HW130302   4.724   4.611   0.066
 9801SOL    HW230303   4.690   4.664   0.217
 9802SOL     OW30304   5.109   5.152   0.706
 9802SOL    HW130305   5.172   5.144   0.628
 9802SOL    HW230306   5.015   5.157   0.673
 9803SOL     OW30307   1.611   3.219   6.286
 9803SOL    HW130308   1.621   3.129   6.329
 9803SOL    HW230309   1.671   3.224   6.206
 9804SOL     OW30310   0.580   6.004   3.156
 9804SOL    HW130311   0.510   6.015   3.227
 9804SOL    HW230312   0.618   6.094   3.133
 9805SOL     OW30313   0.411   6.850   3.113
 9805SOL    HW130314   0.473   6.817   3.042
 9805SOL    HW230315   0.402   6.949   3.106
 9806SOL     OW30316   1.484   1.491   6.842
 9806SOL    HW130317   1.491   1.493   6.742
 9806SOL    HW230318   1.566   1.451   6.881
 9807SOL     OW30319   3.206   3.928   1.045
 9807SOL    HW130320   3.116   3.932   1.000
 9807SOL    HW230321   3.261   3.857   1.003
 9808SOL     OW30322   3.598   5.760   4.769
 9808SOL    HW130323   3.528   5.763   4.841
 9808SOL    HW230324   3.553   5.751   4.680
 9809SOL     OW30325   0.366   3.890   0.195
 9809SOL    HW130326   0.427   3.829   0.144
 9809SOL    HW230327   0.274   3.852   0.197
 9810SOL     OW30328   3.227   2.120   4.802
 9810SOL    HW130329   3.210   2.193   4.868
 9810SOL    HW230330   3.262   2.039   4.849
 9811SOL     OW30331   6.205   4.549   3.739
 9811SOL    HW130332   6.138   4.620   3.762
 9811SOL    HW230333   6.224   4.494   3.821
 9812SOL     OW30334   3.497   1.603   5.570
 9812SOL    HW130335   3.443   1.674   5.525
 9812SOL    HW230336   3.589   1.638   5.587
 9813SOL     OW30337   5.312   1.870   0.884
 9813SOL    HW130338   5.333   1.965   0.908
 9813SOL    HW230339   5.228   1.867   0.830
 9814SOL     OW30340   6.099   0.952   0.120
 9814SOL    HW130341   6.002   0.933   0.108
 9814SOL    HW230342   6.116   0.985   0.213
 9815SOL     OW30343   4.826   3.009   4.523
 9815SOL    HW130344   4.758   2.948   4.483
 9815SOL    HW230345   4.844   3.085   4.460
 9816SOL     OW30346   0.468   1.450   6.139
 9816SOL    HW130347   0.419   1.382   6.085
 9816SOL    HW230348   0.496   1.526   6.081
 9817SOL     OW30349   1.253   0.121   3.243
 9817SOL    HW130350   1.312   0.182   3.190
 9817SOL    HW230351   1.287   0.115   3.337
 9818SOL     OW30352   6.552   2.111   4.231
 9818SOL    HW130353   6.481   2.114   4.302
 9818SOL    HW230354   6.531   2.180   4.161
 9819SOL     OW30355   4.775   3.068   3.640
 9819SOL    HW130356   4.722   3.127   3.700
 9819SOL    HW230357   4.873   3.084   3.656
 9820SOL     OW30358   3.561   3.143   6.693
 9820SOL    HW130359   3.562   3.213   6.764
 9820SOL    HW230360   3.633   3.163   6.626
 9821SOL     OW30361   5.678   1.177   6.703
 9821SOL    HW130362   5.649   1.233   6.781
 9821SOL    HW230363   5.624   1.201   6.622
 9822SOL     OW30364   1.461   6.693   3.639
 9822SOL    HW130365   1.441   6.595   3.647
 9822SOL    HW230366   1.479   6.730   3.730
 9823SOL     OW30367   3.594   0.150   0.674
 9823SOL    HW130368   3.638   0.222   0.620
 9823SOL    HW230369   3.621   0.159   0.770
 9824SOL     OW30370   1.917   4.515   5.090
 9824SOL    HW130371   1.937   4.590   5.152
 9824SOL    HW230372   1.975   4.436   5.114
 9825SOL     OW30373   3.674   5.130   6.076
 9825SOL    HW130374   3.638   5.058   6.017
 9825SOL    HW230375   3.621   5.134   6.161
 9826SOL     OW30376   5.027   5.039   6.183
 9826SOL    HW130377   4.946   5.019   6.128
 9826SOL    HW230378   5.060   5.132   6.161
 9827SOL     OW30379   2.141   3.448   3.743
 9827SOL    HW130380   2.060   3.479   3.791
 9827SOL    HW230381   2.118   3.368   3.687
 9828SOL     OW30382   2.129   3.141   6.262
 9828SOL    HW130383   2.193   3.110   6.333
 9828SOL    HW230384   2.062   3.202   6.303
 9829SOL     OW30385   2.695   5.958   0.061
 9829SOL    HW130386   2.746   6.036   0.096
 9829SOL    HW230387   2.629   5.927   0.129
 9830SOL     OW30388   5.594   2.705   1.584
 9830SOL    HW130389   5.557   2.767   1.653
 9830SOL    HW230390   5.540   2.620   1.583
 9831SOL     OW30391   1.797   6.001   0.864
 9831SOL    HW130392   1.892   5.986   0.836
 9831SOL    HW230393   1.793   6.011   0.963
 9832SOL     OW30394   5.146   5.691   2.760
 9832SOL    HW130395   5.173   5.634   2.682
 9832SOL    HW230396   5.161   5.787   2.737
 9833SOL     OW30397   3.845   2.954   5.041
 9833SOL    HW130398   3.762   2.899   5.036
 9833SOL    HW230399   3.919   2.900   5.083
 9834SOL     OW30400   3.378   4.160   5.619
 9834SOL    HW130401   3.425   4.203   5.542
 9834SOL    HW230402   3.345   4.231   5.682
 9835SOL     OW30403   3.398   2.448   5.836
 9835SOL    HW130404   3.470   2.450   5.905
 9835SOL    HW230405   3.331   2.377   5.860
 9836SOL     OW30406   6.154   4.382   3.955
 9836SOL    HW130407   6.066   4.358   3.916
 9836SOL    HW230408   6.204   4.299   3.979
 9837SOL     OW30409   3.063   0.365   2.666
 9837SOL    HW130410   2.984   0.401   2.617
 9837SOL    HW230411   3.129   0.327   2.601
 9838SOL     OW30412   0.764   6.801   6.318
 9838SOL    HW130413   0.762   6.703   6.304
 9838SOL    HW230414   0.769   6.821   6.416
 9839SOL     OW30415   5.654   1.549   3.494
 9839SOL    HW130416   5.562   1.565   3.459
 9839SOL    HW230417   5.716   1.526   3.418
 9840SOL     OW30418   0.656   1.437   1.642
 9840SOL    HW130419   0.587   1.448   1.714
 9840SOL    HW230420   0.611   1.413   1.556
 9841SOL     OW30421   2.030   4.124   4.473
 9841SOL    HW130422   2.089   4.156   4.398
 9841SOL    HW230423   2.082   4.064   4.533
 9842SOL     OW30424   4.033   3.587   2.729
 9842SOL    HW130425   4.112   3.606   2.787
 9842SOL    HW230426   4.019   3.488   2.722
 9843SOL     OW30427   5.813   0.699   1.051
 9843SOL    HW130428   5.813   0.646   0.965
 9843SOL    HW230429   5.784   0.793   1.032
 9844SOL     OW30430   5.805   1.088   2.225
 9844SOL    HW130431   5.809   1.026   2.147
 9844SOL    HW230432   5.779   1.179   2.194
 9845SOL     OW30433   3.008   1.495   3.332
 9845SOL    HW130434   2.939   1.483   3.261
 9845SOL    HW230435   3.075   1.564   3.302
 9846SOL     OW30436   3.978   3.437   1.997
 9846SOL    HW130437   4.014   3.527   1.972
 9846SOL    HW230438   3.882   3.447   2.024
 9847SOL     OW30439   3.212   3.037   4.902
 9847SOL    HW130440   3.282   3.044   4.831
 9847SOL    HW230441   3.224   2.953   4.954
 9848SOL     OW30442   3.369   2.787   6.141
 9848SOL    HW130443   3.304   2.835   6.200
 9848SOL    HW230444   3.324   2.762   6.056
 9849SOL     OW30445   0.296   0.317   0.461
 9849SOL    HW130446   0.224   0.384   0.446
 9849SOL    HW230447   0.332   0.285   0.374
 9850SOL     OW30448   5.892   0.195   3.959
 9850SOL    HW130449   5.849   0.124   3.903
 9850SOL    HW230450   5.885   0.283   3.913
 9851SOL     OW30451   5.131   1.858   5.379
 9851SOL    HW130452   5.059   1.831   5.315
 9851SOL    HW230453   5.165   1.777   5.427
 9852SOL     OW30454   4.084   2.229   2.735
 9852SOL    HW130455   4.127   2.257   2.821
 9852SOL    HW230456   4.140   2.258   2.658
 9853SOL     OW30457   5.098   4.639   4.310
 9853SOL    HW130458   5.091   4.734   4.281
 9853SOL    HW230459   5.122   4.634   4.407
 9854SOL     OW30460   0.691   5.841   4.481
 9854SOL    HW130461   0.686   5.840   4.581
 9854SOL    HW230462   0.637   5.766   4.444
 9855SOL     OW30463   2.322   3.300   0.778
 9855SOL    HW130464   2.325   3.275   0.681
 9855SOL    HW230465   2.229   3.326   0.803
 9856SOL     OW30466   5.008   3.638   5.977
 9856SOL    HW130467   4.999   3.694   5.895
 9856SOL    HW230468   4.929   3.653   6.036
 9857SOL     OW30469   4.511   2.176   3.843
 9857SOL    HW130470   4.425   2.207   3.885
 9857SOL    HW230471   4.572   2.254   3.831
 9858SOL     OW30472   0.218   1.012   0.833
 9858SOL    HW130473   0.312   0.999   0.864
 9858SOL    HW230474   0.172   0.923   0.825
 9859SOL     OW30475   5.717   6.849   2.037
 9859SOL    HW130476   5.688   6.769   2.091
 9859SOL    HW230477   5.648   6.921   2.046
 9860SOL     OW30478   0.533   1.398   3.538
 9860SOL    HW130479   0.627   1.433   3.531
 9860SOL    HW230480   0.533   1.319   3.599
 9861SOL     OW30481   3.280   0.182   2.988
 9861SOL    HW130482   3.323   0.217   2.905
 9861SOL    HW230483   3.328   0.099   3.018
 9862SOL     OW30484   3.644   4.358   0.399
 9862SOL    HW130485   3.610   4.435   0.346
 9862SOL    HW230486   3.599   4.274   0.368
 9863SOL     OW30487   3.471   6.987   3.141
 9863SOL    HW130488   3.428   6.900   3.119
 9863SOL    HW230489   3.428   0.006   3.222
 9864SOL     OW30490   3.765   6.113   3.949
 9864SOL    HW130491   3.679   6.146   3.910
 9864SOL    HW230492   3.752   6.093   4.046
 9865SOL     OW30493   1.328   1.071   4.006
 9865SOL    HW130494   1.364   1.103   4.094
 9865SOL    HW230495   1.300   0.976   4.014
 9866SOL     OW30496   4.752   4.751   5.858
 9866SOL    HW130497   4.672   4.788   5.811
 9866SOL    HW230498   4.723   4.677   5.920
 9867SOL     OW30499   5.869   0.722   0.553
 9867SOL    HW130500   5.841   0.773   0.471
 9867SOL    HW230501   5.915   0.784   0.616
 9868SOL     OW30502   0.816   4.022   5.215
 9868SOL    HW130503   0.771   4.111   5.215
 9868SOL    HW230504   0.837   3.995   5.309
 9869SOL     OW30505   1.642   3.044   2.586
 9869SOL    HW130506   1.731   3.016   2.620
 9869SOL    HW230507   1.595   2.965   2.547
 9870SOL     OW30508   3.742   5.889   2.835
 9870SOL    HW130509   3.678   5.965   2.822
 9870SOL    HW230510   3.791   5.901   2.921
 9871SOL     OW30511   0.290   6.338   6.322
 9871SOL    HW130512   0.337   6.312   6.406
 9871SOL    HW230513   0.214   6.276   6.305
 9872SOL     OW30514   2.333   4.735   4.162
 9872SOL    HW130515   2.271   4.669   4.204
 9872SOL    HW230516   2.292   4.772   4.079
 9873SOL     OW30517   2.586   2.219   0.400
 9873SOL    HW130518   2.571   2.318   0.401
 9873SOL    HW230519   2.683   2.200   0.385
 9874SOL     OW30520   0.333   3.242   4.447
 9874SOL    HW130521   0.412   3.253   4.507
 9874SOL    HW230522   0.363   3.242   4.351
 9875SOL     OW30523   6.149   7.012   1.874
 9875SOL    HW130524   6.140   0.042   1.787
 9875SOL    HW230525   6.238   6.967   1.878
 9876SOL     OW30526   6.817   0.569   3.220
 9876SOL    HW130527   6.752   0.501   3.255
 9876SOL    HW230528   6.769   0.656   3.205
 9877SOL     OW30529   0.225   6.141   3.869
 9877SOL    HW130530   0.309   6.087   3.859
 9877SOL    HW230531   0.246   6.226   3.917
 9878SOL     OW30532   2.691   4.756   5.169
 9878SOL    HW130533   2.617   4.690   5.156
 9878SOL    HW230534   2.779   4.710   5.157
 9879SOL     OW30535   5.474   5.426   4.773
 9879SOL    HW130536   5.468   5.350   4.708
 9879SOL    HW230537   5.422   5.504   4.739
 9880SOL     OW30538   2.875   0.763   5.675
 9880SOL    HW130539   2.885   0.861   5.694
 9880SOL    HW230540   2.782   0.735   5.695
 9881SOL     OW30541   1.062   1.474   4.700
 9881SOL    HW130542   1.139   1.423   4.741
 9881SOL    HW230543   1.096   1.530   4.625
 9882SOL     OW30544   1.187   3.514   3.781
 9882SOL    HW130545   1.137   3.597   3.802
 9882SOL    HW230546   1.123   3.443   3.751
 9883SOL     OW30547   1.087   6.553   6.858
 9883SOL    HW130548   1.164   6.590   6.911
 9883SOL    HW230549   1.033   6.491   6.916
 9884SOL     OW30550   4.791   2.196   2.277
 9884SOL    HW130551   4.734   2.275   2.254
 9884SOL    HW230552   4.783   2.127   2.205
 9885SOL     OW30553   6.634   2.341   4.814
 9885SOL    HW130554   6.729   2.338   4.843
 9885SOL    HW230555   6.574   2.338   4.894
 9886SOL     OW30556   1.240   4.373   2.150
 9886SOL    HW130557   1.249   4.449   2.085
 9886SOL    HW230558   1.315   4.309   2.137
 9887SOL     OW30559   3.466   0.288   5.808
 9887SOL    HW130560   3.436   0.198   5.840
 9887SOL    HW230561   3.448   0.296   5.710
 9888SOL     OW30562   6.063   4.426   2.758
 9888SOL    HW130563   6.052   4.411   2.856
 9888SOL    HW230564   6.161   4.428   2.735
 9889SOL     OW30565   0.046   4.845   1.415
 9889SOL    HW130566   0.031   4.749   1.439
 9889SOL    HW230567   0.134   4.854   1.368
 9890SOL     OW30568   1.937   2.292   0.932
 9890SOL    HW130569   1.982   2.379   0.917
 9890SOL    HW230570   2.004   2.218   0.924
 9891SOL     OW30571   4.975   3.970   2.169
 9891SOL    HW130572   4.940   3.902   2.233
 9891SOL    HW230573   5.044   3.928   2.110
 9892SOL     OW30574   7.004   4.629   0.718
 9892SOL    HW130575   0.023   4.541   0.747
 9892SOL    HW230576   6.968   4.677   0.797
 9893SOL     OW30577   0.859   0.691   0.900
 9893SOL    HW130578   0.915   0.612   0.927
 9893SOL    HW230579   0.917   0.771   0.889
 9894SOL     OW30580   2.787   2.378   1.415
 9894SOL    HW130581   2.690   2.397   1.432
 9894SOL    HW230582   2.830   2.346   1.499
 9895SOL     OW30583   6.396   4.817   4.538
 9895SOL    HW130584   6.464   4.764   4.488
 9895SOL    HW230585   6.441   4.864   4.615
 9896SOL     OW30586   6.849   0.794   6.432
 9896SOL    HW130587   6.762   0.815   6.477
 9896SOL    HW230588   6.918   0.861   6.461
 9897SOL     OW30589   5.463   5.899   2.536
 9897SOL    HW130590   5.447   5.922   2.632
 9897SOL    HW230591   5.455   5.800   2.524
 9898SOL     OW30592   1.850   6.055   4.707
 9898SOL    HW130593   1.901   5.972   4.729
 9898SOL    HW230594   1.754   6.032   4.693
 9899SOL     OW30595   1.305   5.959   0.744
 9899SOL    HW130596   1.225   5.941   0.800
 9899SOL    HW230597   1.388   5.953   0.801
 9900SOL     OW30598   1.821   2.898   2.932
 9900SOL    HW130599   1.788   2.858   3.018
 9900SOL    HW230600   1.920   2.913   2.939
 9901SOL     OW30601   2.367   0.629   6.882
 9901SOL    HW130602   2.357   0.670   6.791
 9901SOL    HW230603   2.402   0.536   6.873
 9902SOL     OW30604   3.516   4.894   1.316
 9902SOL    HW130605   3.585   4.953   1.274
 9902SOL    HW230606   3.432   4.895   1.260
 9903SOL     OW30607   5.417   2.584   1.333
 9903SOL    HW130608   5.385   2.518   1.266
 9903SOL    HW230609   5.428   2.540   1.422
 9904SOL     OW30610   0.625   3.871   6.407
 9904SOL    HW130611   0.624   3.829   6.498
 9904SOL    HW230612   0.535   3.860   6.365
 9905SOL     OW30613   1.761   0.347   6.292
 9905SOL    HW130614   1.661   0.347   6.295
 9905SOL    HW230615   1.796   0.258   6.323
 9906SOL     OW30616   1.970   3.500   1.642
 9906SOL    HW130617   2.063   3.536   1.640
 9906SOL    HW230618   1.923   3.532   1.724
 9907SOL     OW30619   0.709   0.028   1.526
 9907SOL    HW130620   0.753   0.078   1.600
 9907SOL    HW230621   0.774   6.983   1.486
 9908SOL     OW30622   6.173   1.444   5.270
 9908SOL    HW130623   6.178   1.485   5.179
 9908SOL    HW230624   6.090   1.476   5.316
 9909SOL     OW30625   4.449   1.445   2.881
 9909SOL    HW130626   4.408   1.465   2.792
 9909SOL    HW230627   4.393   1.378   2.930
 9910SOL     OW30628   1.312   5.283   1.955
 9910SOL    HW130629   1.253   5.205   1.933
 9910SOL    HW230630   1.270   5.335   2.030
 9911SOL     OW30631   2.280   6.219   1.773
 9911SOL    HW130632   2.306   6.306   1.730
 9911SOL    HW230633   2.257   6.234   1.869
 9912SOL     OW30634   3.786   7.019   1.600
 9912SOL    HW130635   3.777   6.920   1.590
 9912SOL    HW230636   3.841   0.035   1.524
 9913SOL     OW30637   6.480   4.225   0.883
 9913SOL    HW130638   6.390   4.194   0.850
 9913SOL    HW230639   6.545   4.222   0.808
 9914SOL     OW30640   6.172   1.139   5.064
 9914SOL    HW130641   6.183   1.134   4.965
 9914SOL    HW230642   6.262   1.128   5.108
 9915SOL     OW30643   5.810   1.283   3.741
 9915SOL    HW130644   5.828   1.233   3.656
 9915SOL    HW230645   5.793   1.379   3.720
 9916SOL     OW30646   2.121   2.048   2.537
 9916SOL    HW130647   2.123   1.998   2.450
 9916SOL    HW230648   2.126   2.146   2.519
 9917SOL     OW30649   4.969   4.450   6.537
 9917SOL    HW130650   4.896   4.383   6.553
 9917SOL    HW230651   5.039   4.409   6.479
 9918SOL     OW30652   2.918   1.939   3.430
 9918SOL    HW130653   3.008   1.897   3.418
 9918SOL    HW230654   2.930   2.032   3.464
 9919SOL     OW30655   0.780   5.198   0.755
 9919SOL    HW130656   0.812   5.134   0.685
 9919SOL    HW230657   0.752   5.146   0.836
 9920SOL     OW30658   5.505   1.654   2.384
 9920SOL    HW130659   5.428   1.661   2.448
 9920SOL    HW230660   5.542   1.561   2.386
 9921SOL     OW30661   4.123   6.511   5.154
 9921SOL    HW130662   4.046   6.484   5.097
 9921SOL    HW230663   4.154   6.431   5.206
 9922SOL     OW30664   2.158   3.949   0.889
 9922SOL    HW130665   2.109   3.922   0.807
 9922SOL    HW230666   2.099   4.006   0.946
 9923SOL     OW30667   5.460   5.019   6.947
 9923SOL    HW130668   5.504   4.966   7.019
 9923SOL    HW230669   5.516   5.017   6.864
 9924SOL     OW30670   6.506   1.597   3.539
 9924SOL    HW130671   6.454   1.515   3.563
 9924SOL    HW230672   6.466   1.639   3.457
 9925SOL     OW30673   0.526   3.967   4.128
 9925SOL    HW130674   0.519   4.049   4.186
 9925SOL    HW230675   0.477   3.892   4.172
 9926SOL     OW30676   4.354   3.074   1.489
 9926SOL    HW130677   4.312   2.984   1.481
 9926SOL    HW230678   4.378   3.108   1.398
 9927SOL     OW30679   1.210   0.439   0.502
 9927SOL    HW130680   1.209   0.351   0.549
 9927SOL    HW230681   1.128   0.491   0.526
 9928SOL     OW30682   4.933   5.041   3.102
 9928SOL    HW130683   5.009   5.050   3.166
 9928SOL    HW230684   4.945   4.958   3.047
 9929SOL     OW30685   3.408   4.100   5.151
 9929SOL    HW130686   3.475   4.055   5.091
 9929SOL    HW230687   3.324   4.045   5.153
 9930SOL     OW30688   6.489   6.256   5.326
 9930SOL    HW130689   6.559   6.297   5.385
 9930SOL    HW230690   6.512   6.160   5.309
 9931SOL     OW30691   0.318   5.655   4.245
 9931SOL    HW130692   0.355   5.658   4.153
 9931SOL    HW230693   0.248   5.583   4.251
 9932SOL     OW30694   3.025   3.128   6.205
 9932SOL    HW130695   3.058   3.158   6.116
 9932SOL    HW230696   2.938   3.080   6.194
 9933SOL     OW30697   0.740   6.010   3.513
 9933SOL    HW130698   0.651   6.045   3.544
 9933SOL    HW230699   0.784   6.079   3.455
 9934SOL     OW30700   6.629   1.752   5.650
 9934SOL    HW130701   6.619   1.783   5.744
 9934SOL    HW230702   6.724   1.765   5.621
 9935SOL     OW30703   3.035   6.395   0.239
 9935SOL    HW130704   3.115   6.373   0.295
 9935SOL    HW230705   3.026   6.494   0.233
 9936SOL     OW30706   6.856   4.502   6.936
 9936SOL    HW130707   6.785   4.546   6.880
 9936SOL    HW230708   6.945   4.541   6.912
 9937SOL     OW30709   0.031   1.557   1.698
 9937SOL    HW130710   0.071   1.648   1.686
 9937SOL    HW230711   6.959   1.555   1.657
 9938SOL     OW30712   6.726   5.073   3.437
 9938SOL    HW130713   6.755   5.049   3.529
 9938SOL    HW230714   6.711   4.990   3.384
 9939SOL     OW30715   4.421   2.376   1.519
 9939SOL    HW130716   4.367   2.303   1.478
 9939SOL    HW230717   4.516   2.368   1.488
 9940SOL     OW30718   1.064   0.641   1.507
 9940SOL    HW130719   1.133   0.589   1.457
 9940SOL    HW230720   0.996   0.578   1.544
 9941SOL     OW30721   3.565   3.181   4.764
 9941SOL    HW130722   3.646   3.143   4.808
 9941SOL    HW230723   3.572   3.169   4.665
 9942SOL     OW30724   2.683   5.541   2.785
 9942SOL    HW130725   2.682   5.457   2.839
 9942SOL    HW230726   2.616   5.533   2.711
 9943SOL     OW30727   0.402   4.275   5.483
 9943SOL    HW130728   0.324   4.254   5.541
 9943SOL    HW230729   0.410   4.374   5.473
 9944SOL     OW30730   0.980   4.151   6.288
 9944SOL    HW130731   0.904   4.120   6.232
 9944SOL    HW230732   0.947   4.219   6.354
 9945SOL     OW30733   4.646   5.377   6.578
 9945SOL    HW130734   4.670   5.285   6.610
 9945SOL    HW230735   4.622   5.372   6.481
 9946SOL     OW30736   6.253   0.431   3.645
 9946SOL    HW130737   6.235   0.359   3.713
 9946SOL    HW230738   6.351   0.433   3.625
 9947SOL     OW30739   2.450   2.079   4.912
 9947SOL    HW130740   2.378   2.046   4.973
 9947SOL    HW230741   2.491   2.001   4.864
 9948SOL     OW30742   5.855   4.563   5.756
 9948SOL    HW130743   5.808   4.643   5.793
 9948SOL    HW230744   5.821   4.481   5.800
 9949SOL     OW30745   6.904   5.159   4.053
 9949SOL    HW130746   6.807   5.166   4.030
 9949SOL    HW230747   6.955   5.227   4.000
 9950SOL     OW30748   5.684   6.183   5.682
 9950SOL    HW130749   5.626   6.204   5.761
 9950SOL    HW230750   5.753   6.115   5.707
 9951SOL     OW30751   0.365   1.416   3.949
 9951SOL    HW130752   0.378   1.509   3.916
 9951SOL    HW230753   0.361   1.417   4.049
 9952SOL     OW30754   1.209   4.626   0.418
 9952SOL    HW130755   1.166   4.546   0.460
 9952SOL    HW230756   1.192   4.707   0.474
 9953SOL     OW30757   5.457   2.582   4.692
 9953SOL    HW130758   5.380   2.528   4.659
 9953SOL    HW230759   5.543   2.539   4.665
 9954SOL     OW30760   0.404   0.438   5.913
 9954SOL    HW130761   0.342   0.407   5.841
 9954SOL    HW230762   0.441   0.528   5.889
 9955SOL     OW30763   6.003   2.968   5.595
 9955SOL    HW130764   5.931   3.011   5.649
 9955SOL    HW230765   6.077   2.938   5.655
 9956SOL     OW30766   1.371   6.232   1.706
 9956SOL    HW130767   1.361   6.245   1.607
 9956SOL    HW230768   1.295   6.277   1.753
 9957SOL     OW30769   5.192   6.042   2.461
 9957SOL    HW130770   5.166   5.998   2.376
 9957SOL    HW230771   5.265   5.989   2.505
 9958SOL     OW30772   2.586   5.478   6.947
 9958SOL    HW130773   2.561   5.574   6.956
 9958SOL    HW230774   2.541   5.424   7.018
 9959SOL     OW30775   4.133   3.597   4.887
 9959SOL    HW130776   4.224   3.602   4.847
 9959SOL    HW230777   4.122   3.672   4.953
 9960SOL     OW30778   0.117   0.381   2.075
 9960SOL    HW130779   0.058   0.435   2.134
 9960SOL    HW230780   0.212   0.388   2.107
 9961SOL     OW30781   1.630   5.519   4.467
 9961SOL    HW130782   1.559   5.449   4.460
 9961SOL    HW230783   1.601   5.588   4.534
 9962SOL     OW30784   5.478   5.847   1.580
 9962SOL    HW130785   5.568   5.820   1.614
 9962SOL    HW230786   5.456   5.939   1.613
 9963SOL     OW30787   2.561   3.351   6.742
 9963SOL    HW130788   2.524   3.270   6.788
 9963SOL    HW230789   2.487   3.417   6.729
 9964SOL     OW30790   5.144   4.333   6.330
 9964SOL    HW130791   5.106   4.268   6.265
 9964SOL    HW230792   5.163   4.419   6.283
 9965SOL     OW30793   4.029   6.163   6.200
 9965SOL    HW130794   4.111   6.172   6.143
 9965SOL    HW230795   4.032   6.230   6.273
 9966SOL     OW30796   2.324   5.775   2.420
 9966SOL    HW130797   2.342   5.873   2.430
 9966SOL    HW230798   2.238   5.753   2.465
 9967SOL     OW30799   5.813   6.955   1.794
 9967SOL    HW130800   5.761   6.910   1.866
 9967SOL    HW230801   5.797   0.034   1.797
 9968SOL     OW30802   3.011   3.489   6.746
 9968SOL    HW130803   2.982   3.472   6.652
 9968SOL    HW230804   2.931   3.514   6.801
 9969SOL     OW30805   1.789   2.568   3.372
 9969SOL    HW130806   1.697   2.544   3.403
 9969SOL    HW230807   1.822   2.647   3.424
 9970SOL     OW30808   5.609   4.311   2.941
 9970SOL    HW130809   5.594   4.369   3.021
 9970SOL    HW230810   5.539   4.241   2.937
 9971SOL     OW30811   2.871   5.181   0.547
 9971SOL    HW130812   2.872   5.161   0.449
 9971SOL    HW230813   2.813   5.261   0.564
 9972SOL     OW30814   4.144   4.320   1.317
 9972SOL    HW130815   4.173   4.400   1.371
 9972SOL    HW230816   4.050   4.297   1.340
 9973SOL     OW30817   4.338   2.358   4.435
 9973SOL    HW130818   4.275   2.324   4.504
 9973SOL    HW230819   4.420   2.301   4.433
 9974SOL     OW30820   6.511   2.963   3.503
 9974SOL    HW130821   6.480   3.033   3.567
 9974SOL    HW230822   6.431   2.919   3.460
 9975SOL     OW30823   6.320   4.980   6.833
 9975SOL    HW130824   6.325   4.903   6.896
 9975SOL    HW230825   6.366   5.059   6.874
 9976SOL     OW30826   0.961   6.335   5.300
 9976SOL    HW130827   1.000   6.356   5.211
 9976SOL    HW230828   0.980   6.409   5.364
 9977SOL     OW30829   0.098   5.353   5.289
 9977SOL    HW130830   0.157   5.292   5.343
 9977SOL    HW230831   0.155   5.420   5.242
 9978SOL     OW30832   6.245   3.080   3.059
 9978SOL    HW130833   6.288   2.990   3.070
 9978SOL    HW230834   6.192   3.081   2.974
 9979SOL     OW30835   6.047   4.756   5.702
 9979SOL    HW130836   5.974   4.821   5.683
 9979SOL    HW230837   6.007   4.668   5.731
 9980SOL     OW30838   1.874   1.492   5.902
 9980SOL    HW130839   1.895   1.526   5.811
 9980SOL    HW230840   1.780   1.457   5.903
 9981SOL     OW30841   2.498   1.939   1.649
 9981SOL    HW130842   2.558   2.017   1.633
 9981SOL    HW230843   2.509   1.872   1.575
 9982SOL     OW30844   0.289   0.473   3.478
 9982SOL    HW130845   0.193   0.469   3.450
 9982SOL    HW230846   0.320   0.383   3.508
 9983SOL     OW30847   0.606   2.755   3.647
 9983SOL    HW130848   0.556   2.693   3.586
 9983SOL    HW230849   0.634   2.836   3.597
 9984SOL     OW30850   2.010   0.767   0.363
 9984SOL    HW130851   2.082   0.812   0.309
 9984SOL    HW230852   2.000   0.672   0.332
 9985SOL     OW30853   2.164   1.353   1.417
 9985SOL    HW130854   2.217   1.379   1.336
 9985SOL    HW230855   2.218   1.370   1.499
 9986SOL     OW30856   4.920   4.419   5.812
 9986SOL    HW130857   4.928   4.467   5.899
 9986SOL    HW230858   4.953   4.478   5.738
 9987SOL     OW30859   0.018   2.622   3.631
 9987SOL    HW130860   0.044   2.641   3.726
 9987SOL    HW230861   0.101   2.615   3.576
 9988SOL     OW30862   0.279   5.216   5.438
 9988SOL    HW130863   0.377   5.234   5.428
 9988SOL    HW230864   0.266   5.130   5.487
 9989SOL     OW30865   6.787   4.233   3.132
 9989SOL    HW130866   6.697   4.234   3.177
 9989SOL    HW230867   6.778   4.272   3.041
 9990SOL     OW30868   2.186   5.609   1.913
 9990SOL    HW130869   2.232   5.585   1.828
 9990SOL    HW230870   2.242   5.673   1.965
 9991SOL     OW30871   1.994   2.848   4.073
 9991SOL    HW130872   1.955   2.768   4.027
 9991SOL    HW230873   1.926   2.887   4.135
 9992SOL     OW30874   5.189   4.890   0.381
 9992SOL    HW130875   5.148   4.858   0.466
 9992SOL    HW230876   5.218   4.811   0.326
 9993SOL     OW30877   3.827   0.806   0.999
 9993SOL    HW130878   3.824   0.887   0.940
 9993SOL    HW230879   3.752   0.811   1.066
 9994SOL     OW30880   0.039   5.015   3.337
 9994SOL    HW130881   7.010   4.928   3.328
 9994SOL    HW230882   7.003   5.088   3.298
 9995SOL     OW30883   4.231   1.258   2.861
 9995SOL    HW130884   4.274   1.171   2.882
 9995SOL    HW230885   4.179   1.250   2.776
 9996SOL     OW30886   2.256   3.050   1.482
 9996SOL    HW130887   2.314   2.968   1.483
 9996SOL    HW230888   2.308   3.128   1.515
 9997SOL     OW30889   3.547   1.974   0.694
 9997SOL    HW130890   3.626   1.935   0.739
 9997SOL    HW230891   3.561   2.073   0.681
 9998SOL     OW30892   5.669   4.377   6.967
 9998SOL    HW130893   5.598   4.319   6.927
 9998SOL    HW230894   5.755   4.326   6.969
 9999SOL     OW30895   0.159   2.702   5.588
 9999SOL    HW130896   0.235   2.731   5.529
 9999SOL    HW230897   0.195   2.674   5.677
10000SOL     OW30898   6.785   3.838   6.763
10000SOL    HW130899   6.785   3.820   6.665
10000SOL    HW230900   6.708   3.791   6.806
10001SOL     OW30901   4.638   0.209   2.320
10001SOL    HW130902   4.716   0.232   2.379
10001SOL    HW230903   4.597   0.123   2.352
10002SOL     OW30904   1.739   0.167   2.248
10002SOL    HW130905   1.736   0.082   2.300
10002SOL    HW230906   1.795   0.235   2.297
10003SOL     OW30907   3.510   1.263   3.299
10003SOL    HW130908   3.467   1.337   3.247
10003SOL    HW230909   3.610   1.273   3.293
10004SOL     OW30910   5.319   2.400   3.835
10004SOL    HW130911   5.320   2.350   3.748
10004SOL    HW230912   5.400   2.459   3.840
10005SOL     OW30913   5.128   0.735   4.415
10005SOL    HW130914   5.057   0.794   4.377
10005SOL    HW230915   5.100   0.704   4.506
10006SOL     OW30916   5.516   6.550   4.421
10006SOL    HW130917   5.518   6.598   4.509
10006SOL    HW230918   5.485   6.613   4.350
10007SOL     OW30919   0.278   4.942   5.829
10007SOL    HW130920   0.321   4.942   5.738
10007SOL    HW230921   0.341   4.983   5.895
10008SOL     OW30922   4.572   1.316   4.662
10008SOL    HW130923   4.610   1.390   4.608
10008SOL    HW230924   4.476   1.335   4.683
10009SOL     OW30925   1.973   3.924   1.663
10009SOL    HW130926   1.881   3.950   1.694
10009SOL    HW230927   2.015   3.865   1.732
10010SOL     OW30928   1.961   0.934   5.674
10010SOL    HW130929   1.921   0.987   5.748
10010SOL    HW230930   1.909   0.949   5.590
10011SOL     OW30931   5.384   1.577   4.936
10011SOL    HW130932   5.445   1.611   4.864
10011SOL    HW230933   5.417   1.609   5.025
10012SOL     OW30934   5.691   0.815   3.368
10012SOL    HW130935   5.658   0.862   3.286
10012SOL    HW230936   5.790   0.822   3.372
10013SOL     OW30937   0.478   1.199   3.792
10013SOL    HW130938   0.454   1.103   3.800
10013SOL    HW230939   0.405   1.255   3.831
10014SOL     OW30940   6.757   4.154   0.680
10014SOL    HW130941   6.767   4.066   0.725
10014SOL    HW230942   6.667   4.161   0.639
10015SOL     OW30943   2.044   4.344   0.398
10015SOL    HW130944   2.085   4.322   0.486
10015SOL    HW230945   1.972   4.277   0.377
10016SOL     OW30946   1.479   0.902   6.348
10016SOL    HW130947   1.530   0.818   6.329
10016SOL    HW230948   1.420   0.923   6.271
10017SOL     OW30949   2.802   1.591   3.063
10017SOL    HW130950   2.724   1.653   3.071
10017SOL    HW230951   2.771   1.497   3.073
10018SOL     OW30952   4.362   0.196   5.643
10018SOL    HW130953   4.448   0.226   5.685
10018SOL    HW230954   4.326   0.269   5.585
10019SOL     OW30955   6.852   2.162   2.827
10019SOL    HW130956   6.923   2.107   2.870
10019SOL    HW230957   6.847   2.252   2.871
10020SOL     OW30958   1.515   2.194   1.671
10020SOL    HW130959   1.484   2.249   1.748
10020SOL    HW230960   1.478   2.232   1.586
10021SOL     OW30961   6.662   2.899   1.622
10021SOL    HW130962   6.681   2.910   1.525
10021SOL    HW230963   6.742   2.928   1.675
10022SOL     OW30964   2.684   0.514   5.872
10022SOL    HW130965   2.663   0.481   5.964
10022SOL    HW230966   2.600   0.540   5.825
10023SOL     OW30967   1.241   5.447   6.932
10023SOL    HW130968   1.277   5.379   6.869
10023SOL    HW230969   1.263   5.539   6.899
10024SOL     OW30970   2.287   6.020   2.199
10024SOL    HW130971   2.319   6.028   2.293
10024SOL    HW230972   2.234   6.101   2.174
10025SOL     OW30973   1.444   2.037   1.316
10025SOL    HW130974   1.466   2.128   1.350
10025SOL    HW230975   1.427   1.975   1.392
10026SOL     OW30976   5.799   6.624   3.683
10026SOL    HW130977   5.837   6.619   3.591
10026SOL    HW230978   5.863   6.582   3.747
10027SOL     OW30979   6.352   3.829   4.706
10027SOL    HW130980   6.302   3.845   4.791
10027SOL    HW230981   6.291   3.843   4.628
10028SOL     OW30982   1.590   1.044   2.278
10028SOL    HW130983   1.644   1.080   2.353
10028SOL    HW230984   1.498   1.084   2.279
10029SOL     OW30985   5.161   1.453   4.638
10029SOL    HW130986   5.129   1.377   4.694
10029SOL    HW230987   5.090   1.477   4.571
10030SOL     OW30988   2.491   6.786   3.799
10030SOL    HW130989   2.566   6.852   3.806
10030SOL    HW230990   2.529   6.694   3.786
10031SOL     OW30991   5.844   5.056   4.874
10031SOL    HW130992   5.769   5.122   4.882
10031SOL    HW230993   5.807   4.963   4.886
10032SOL     OW30994   2.127   1.351   5.208
10032SOL    HW130995   2.195   1.423   5.193
10032SOL    HW230996   2.053   1.361   5.143
10033SOL     OW30997   6.494   2.769   4.324
10033SOL    HW130998   6.566   2.805   4.383
10033SOL    HW230999   6.481   2.830   4.247
10034SOL     OW31000   3.474   0.355   4.037
10034SOL    HW131001   3.496   0.270   4.084
10034SOL    HW231002   3.495   0.433   4.096
10035SOL     OW31003   6.298   4.862   1.664
10035SOL    HW131004   6.250   4.947   1.642
10035SOL    HW231005   6.393   4.883   1.686
10036SOL     OW31006   6.056   2.347   1.210
10036SOL    HW131007   6.133   2.407   1.232
10036SOL    HW231008   5.980   2.367   1.271
10037SOL     OW31009   0.498   1.553   0.419
10037SOL    HW131010   0.414   1.562   0.474
10037SOL    HW231011   0.524   1.643   0.384
10038SOL     OW31012   5.509   0.636   0.211
10038SOL    HW131013   5.578   0.585   0.261
10038SOL    HW231014   5.417   0.605   0.237
10039SOL     OW31015   3.616   0.541   3.403
10039SOL    HW131016   3.669   0.561   3.486
10039SOL    HW231017   3.676   0.503   3.333
10040SOL     OW31018   5.408   5.278   6.599
10040SOL    HW131019   5.374   5.257   6.690
10040SOL    HW231020   5.489   5.337   6.606
10041SOL     OW31021   4.402   5.934   6.681
10041SOL    HW131022   4.491   5.966   6.647
10041SOL    HW231023   4.359   5.876   6.611
10042SOL     OW31024   0.755   1.910   3.929
10042SOL    HW131025   0.776   1.998   3.973
10042SOL    HW231026   0.792   1.836   3.985
10043SOL     OW31027   6.814   1.795   4.750
10043SOL    HW131028   6.829   1.805   4.652
10043SOL    HW231029   6.866   1.717   4.784
10044SOL     OW31030   2.397   2.585   4.787
10044SOL    HW131031   2.404   2.606   4.689
10044SOL    HW231032   2.488   2.578   4.826
10045SOL     OW31033   3.825   0.554   1.487
10045SOL    HW131034   3.905   0.495   1.485
10045SOL    HW231035   3.852   0.648   1.464
10046SOL     OW31036   1.647   3.489   0.600
10046SOL    HW131037   1.568   3.479   0.539
10046SOL    HW231038   1.710   3.413   0.585
10047SOL     OW31039   0.777   3.412   5.199
10047SOL    HW131040   0.871   3.376   5.200
10047SOL    HW231041   0.749   3.430   5.105
10048SOL     OW31042   0.269   6.897   2.608
10048SOL    HW131043   0.329   6.817   2.610
10048SOL    HW231044   0.310   6.968   2.550
10049SOL     OW31045   1.386   1.266   5.831
10049SOL    HW131046   1.468   1.210   5.821
10049SOL    HW231047   1.306   1.215   5.799
10050SOL     OW31048   5.491   3.401   4.772
10050SOL    HW131049   5.395   3.392   4.745
10050SOL    HW231050   5.546   3.335   4.721
10051SOL     OW31051   0.469   4.054   4.751
10051SOL    HW131052   0.476   4.151   4.771
10051SOL    HW231053   0.466   4.002   4.837
10052SOL     OW31054   1.997   1.196   3.093
10052SOL    HW131055   2.070   1.152   3.146
10052SOL    HW231056   1.920   1.133   3.086
10053SOL     OW31057   4.201   5.936   4.459
10053SOL    HW131058   4.181   5.995   4.537
10053SOL    HW231059   4.115   5.901   4.421
10054SOL     OW31060   5.500   4.299   5.289
10054SOL    HW131061   5.475   4.395   5.288
10054SOL    HW231062   5.586   4.287   5.340
10055SOL     OW31063   6.413   2.268   5.778
10055SOL    HW131064   6.417   2.334   5.702
10055SOL    HW231065   6.427   2.176   5.743
10056SOL     OW31066   5.080   4.781   3.851
10056SOL    HW131067   5.016   4.735   3.789
10056SOL    HW231068   5.105   4.719   3.925
10057SOL     OW31069   5.435   3.650   5.413
10057SOL    HW131070   5.366   3.711   5.451
10057SOL    HW231071   5.406   3.555   5.426
10058SOL     OW31072   6.607   3.902   4.634
10058SOL    HW131073   6.681   3.846   4.672
10058SOL    HW231074   6.519   3.866   4.665
10059SOL     OW31075   6.943   2.371   0.548
10059SOL    HW131076   6.921   2.435   0.621
10059SOL    HW231077   6.873   2.300   0.543
10060SOL     OW31078   2.382   2.249   2.311
10060SOL    HW131079   2.397   2.265   2.214
10060SOL    HW231080   2.451   2.186   2.346
10061SOL     OW31081   4.469   0.935   3.922
10061SOL    HW131082   4.449   0.889   3.836
10061SOL    HW231083   4.403   0.906   3.991
10062SOL     OW31084   6.392   0.074   4.593
10062SOL    HW131085   6.480   0.122   4.600
10062SOL    HW231086   6.344   0.105   4.511
10063SOL     OW31087   2.954   1.708   4.478
10063SOL    HW131088   2.923   1.783   4.537
10063SOL    HW231089   2.925   1.726   4.384
10064SOL     OW31090   4.416   5.778   6.390
10064SOL    HW131091   4.424   5.839   6.311
10064SOL    HW231092   4.323   5.740   6.393
10065SOL     OW31093   1.786   0.943   1.761
10065SOL    HW131094   1.744   1.005   1.827
10065SOL    HW231095   1.882   0.930   1.783
10066SOL     OW31096   0.493   2.789   4.916
10066SOL    HW131097   0.403   2.812   4.880
10066SOL    HW231098   0.499   2.815   5.012
10067SOL     OW31099   0.345   2.850   6.365
10067SOL    HW131100   0.351   2.888   6.458
10067SOL    HW231101   0.417   2.782   6.352
10068SOL     OW31102   1.129   4.033   2.694
10068SOL    HW131103   1.142   4.066   2.601
10068SOL    HW231104   1.138   4.109   2.758
10069SOL     OW31105   3.389   4.905   1.550
10069SOL    HW131106   3.392   4.994   1.595
10069SOL    HW231107   3.451   4.904   1.471
10070SOL     OW31108   0.820   5.240   5.171
10070SOL    HW131109   0.842   5.251   5.268
10070SOL    HW231110   0.789   5.327   5.133
10071SOL     OW31111   1.221   0.269   3.975
10071SOL    HW131112   1.290   0.197   3.971
10071SOL    HW231113   1.156   0.249   4.048
10072SOL     OW31114   0.605   1.360   2.781
10072SOL    HW131115   0.556   1.286   2.734
10072SOL    HW231116   0.645   1.324   2.866
10073SOL     OW31117   6.288   3.428   3.681
10073SOL    HW131118   6.230   3.384   3.750
10073SOL    HW231119   6.362   3.477   3.727
10074SOL     OW31120   1.537   5.862   0.862
10074SOL    HW131121   1.485   5.891   0.942
10074SOL    HW231122   1.635   5.879   0.878
10075SOL     OW31123   1.860   0.367   2.356
10075SOL    HW131124   1.808   0.392   2.438
10075SOL    HW231125   1.957   0.385   2.372
10076SOL     OW31126   4.716   5.207   3.231
10076SOL    HW131127   4.673   5.293   3.206
10076SOL    HW231128   4.799   5.194   3.177
10077SOL     OW31129   5.565   2.645   0.372
10077SOL    HW131130   5.471   2.679   0.377
10077SOL    HW231131   5.572   2.559   0.423
10078SOL     OW31132   0.362   6.479   4.981
10078SOL    HW131133   0.330   6.564   5.025
10078SOL    HW231134   0.453   6.456   5.015
10079SOL     OW31135   5.361   2.489   3.189
10079SOL    HW131136   5.278   2.443   3.157
10079SOL    HW231137   5.417   2.514   3.111
10080SOL     OW31138   5.475   1.235   6.200
10080SOL    HW131139   5.555   1.281   6.163
10080SOL    HW231140   5.423   1.193   6.125
10081SOL     OW31141   0.906   1.763   0.278
10081SOL    HW131142   0.903   1.694   0.205
10081SOL    HW231143   0.987   1.747   0.336
10082SOL     OW31144   1.445   5.348   3.605
10082SOL    HW131145   1.444   5.260   3.653
10082SOL    HW231146   1.482   5.335   3.513
10083SOL     OW31147   3.537   6.253   3.599
10083SOL    HW131148   3.490   6.167   3.581
10083SOL    HW231149   3.625   6.235   3.642
10084SOL     OW31150   0.023   7.011   5.083
10084SOL    HW131151   6.979   6.954   5.030
10084SOL    HW231152   6.994   0.073   5.115
10085SOL     OW31153   4.467   6.801   0.365
10085SOL    HW131154   4.560   6.836   0.355
10085SOL    HW231155   4.412   6.868   0.414
10086SOL     OW31156   5.873   6.165   2.651
10086SOL    HW131157   5.821   6.182   2.734
10086SOL    HW231158   5.971   6.160   2.673
10087SOL     OW31159   0.437   6.639   4.277
10087SOL    HW131160   0.365   6.697   4.315
10087SOL    HW231161   0.499   6.694   4.222
10088SOL     OW31162   6.794   1.254   0.088
10088SOL    HW131163   6.794   1.312   0.007
10088SOL    HW231164   6.779   1.159   0.061
10089SOL     OW31165   3.437   1.054   2.801
10089SOL    HW131166   3.372   1.129   2.818
10089SOL    HW231167   3.387   0.968   2.794
10090SOL     OW31168   0.870   4.838   2.084
10090SOL    HW131169   0.798   4.871   2.145
10090SOL    HW231170   0.914   4.759   2.126
10091SOL     OW31171   6.750   5.939   6.819
10091SOL    HW131172   6.812   6.014   6.801
10091SOL    HW231173   6.794   5.852   6.795
10092SOL     OW31174   1.346   3.458   5.556
10092SOL    HW131175   1.387   3.422   5.472
10092SOL    HW231176   1.260   3.505   5.534
10093SOL     OW31177   5.041   3.481   4.942
10093SOL    HW131178   5.019   3.385   4.955
10093SOL    HW231179   4.959   3.537   4.954
10094SOL     OW31180   2.551   6.471   1.466
10094SOL    HW131181   2.645   6.456   1.437
10094SOL    HW231182   2.549   6.537   1.541
10095SOL     OW31183   5.332   1.926   4.660
10095SOL    HW131184   5.260   1.902   4.595
10095SOL    HW231185   5.408   1.862   4.652
10096SOL     OW31186   5.191   0.769   2.140
10096SOL    HW131187   5.117   0.817   2.186
10096SOL    HW231188   5.244   0.833   2.085
10097SOL     OW31189   1.869   2.141   6.723
10097SOL    HW131190   1.857   2.170   6.818
10097SOL    HW231191   1.963   2.158   6.694
10098SOL     OW31192   3.005   5.798   4.662
10098SOL    HW131193   2.948   5.813   4.581
10098SOL    HW231194   2.958   5.834   4.743
10099SOL     OW31195   6.683   4.874   1.439
10099SOL    HW131196   6.601   4.819   1.422
10099SOL    HW231197   6.736   4.833   1.514
10100SOL     OW31198   5.497   4.912   5.484
10100SOL    HW131199   5.587   4.873   5.501
10100SOL    HW231200   5.465   4.885   5.393
10101SOL     OW31201   6.653   3.185   1.938
10101SOL    HW131202   6.704   3.181   1.853
10101SOL    HW231203   6.585   3.111   1.941
10102SOL     OW31204   5.617   0.440   0.658
10102SOL    HW131205   5.593   0.441   0.755
10102SOL    HW231206   5.543   0.398   0.606
10103SOL     OW31207   0.899   0.196   5.496
10103SOL    HW131208   0.906   0.250   5.580
10103SOL    HW231209   0.933   0.251   5.419
10104SOL     OW31210   2.385   1.239   5.878
10104SOL    HW131211   2.293   1.258   5.844
10104SOL    HW231212   2.424   1.322   5.918
10105SOL     OW31213   2.979   1.354   5.693
10105SOL    HW131214   3.065   1.334   5.739
10105SOL    HW231215   2.994   1.420   5.620
10106SOL     OW31216   4.653   6.117   1.197
10106SOL    HW131217   4.566   6.075   1.175
10106SOL    HW231218   4.684   6.087   1.287
10107SOL     OW31219   4.959   3.907   6.818
10107SOL    HW131220   4.992   3.901   6.913
10107SOL    HW231221   4.899   3.986   6.809
10108SOL     OW31222   1.178   2.783   0.695
10108SOL    HW131223   1.272   2.819   0.692
10108SOL    HW231224   1.172   2.711   0.764
10109SOL     OW31225   0.874   0.932   0.222
10109SOL    HW131226   0.805   0.993   0.261
10109SOL    HW231227   0.938   0.986   0.167
10110SOL     OW31228   4.736   4.991   2.543
10110SOL    HW131229   4.761   5.086   2.525
10110SOL    HW231230   4.639   4.986   2.565
10111SOL     OW31231   0.862   2.956   2.129
10111SOL    HW131232   0.841   3.015   2.051
10111SOL    HW231233   0.949   2.911   2.114
10112SOL     OW31234   6.668   3.246   3.001
10112SOL    HW131235   6.667   3.174   2.931
10112SOL    HW231236   6.577   3.287   3.007
10113SOL     OW31237   4.493   1.091   6.531
10113SOL    HW131238   4.497   1.180   6.485
10113SOL    HW231239   4.397   1.068   6.549
10114SOL     OW31240   3.860   2.191   3.253
10114SOL    HW131241   3.930   2.227   3.192
10114SOL    HW231242   3.899   2.177   3.344
10115SOL     OW31243   3.937   1.384   4.257
10115SOL    HW131244   4.024   1.334   4.263
10115SOL    HW231245   3.885   1.368   4.341
10116SOL     OW31246   5.596   0.394   5.571
10116SOL    HW131247   5.624   0.298   5.567
10116SOL    HW231248   5.646   0.446   5.502
10117SOL     OW31249   6.845   5.337   5.267
10117SOL    HW131250   6.829   5.251   5.314
10117SOL    HW231251   6.941   5.364   5.278
10118SOL     OW31252   2.763   5.128   4.607
10118SOL    HW131253   2.702   5.207   4.596
10118SOL    HW231254   2.709   5.046   4.625
10119SOL     OW31255   0.055   5.315   3.909
10119SOL    HW131256   0.060   5.349   3.815
10119SOL    HW231257   0.134   5.349   3.960
10120SOL     OW31258   1.310   2.945   2.777
10120SOL    HW131259   1.403   2.969   2.806
10120SOL    HW231260   1.280   3.007   2.705
10121SOL     OW31261   5.670   4.932   0.780
10121SOL    HW131262   5.675   4.956   0.877
10121SOL    HW231263   5.609   4.854   0.768
10122SOL     OW31264   6.372   1.728   3.345
10122SOL    HW131265   6.315   1.680   3.279
10122SOL    HW231266   6.341   1.823   3.352
10123SOL     OW31267   5.753   6.244   1.033
10123SOL    HW131268   5.789   6.190   1.109
10123SOL    HW231269   5.814   6.235   0.954
10124SOL     OW31270   1.176   5.238   2.463
10124SOL    HW131271   1.151   5.239   2.366
10124SOL    HW231272   1.094   5.223   2.518
10125SOL     OW31273   2.439   1.271   1.722
10125SOL    HW131274   2.522   1.321   1.748
10125SOL    HW231275   2.374   1.335   1.682
10126SOL     OW31276   6.455   0.330   6.350
10126SOL    HW131277   6.395   0.357   6.275
10126SOL    HW231278   6.520   0.404   6.369
10127SOL     OW31279   1.049   4.196   5.961
10127SOL    HW131280   1.052   4.171   6.058
10127SOL    HW231281   1.138   4.181   5.919
10128SOL     OW31282   2.842   0.802   6.854
10128SOL    HW131283   2.882   0.894   6.850
10128SOL    HW231284   2.759   0.800   6.798
10129SOL     OW31285   6.681   1.660   2.796
10129SOL    HW131286   6.584   1.678   2.814
10129SOL    HW231287   6.690   1.572   2.749
10130SOL     OW31288   1.195   2.437   2.055
10130SOL    HW131289   1.150   2.420   1.967
10130SOL    HW231290   1.126   2.446   2.126
10131SOL     OW31291   2.246   0.734   4.298
10131SOL    HW131292   2.183   0.705   4.370
10131SOL    HW231293   2.236   0.673   4.219
10132SOL     OW31294   6.864   6.719   2.314
10132SOL    HW131295   6.851   6.625   2.347
10132SOL    HW231296   6.959   6.746   2.327
10133SOL     OW31297   4.580   5.479   0.909
10133SOL    HW131298   4.605   5.414   0.981
10133SOL    HW231299   4.494   5.523   0.932
10134SOL     OW31300   6.023   1.190   2.388
10134SOL    HW131301   6.018   1.145   2.477
10134SOL    HW231302   5.953   1.153   2.328
10135SOL     OW31303   5.699   0.920   3.973
10135SOL    HW131304   5.726   0.887   4.064
10135SOL    HW231305   5.668   1.015   3.981
10136SOL     OW31306   4.934   2.517   2.848
10136SOL    HW131307   4.837   2.540   2.855
10136SOL    HW231308   4.980   2.541   2.933
10137SOL     OW31309   0.454   5.500   5.686
10137SOL    HW131310   0.488   5.579   5.737
10137SOL    HW231311   0.360   5.515   5.658
10138SOL     OW31312   5.808   1.668   0.114
10138SOL    HW131313   5.736   1.696   0.051
10138SOL    HW231314   5.778   1.683   0.208
10139SOL     OW31315   3.358   3.376   5.683
10139SOL    HW131316   3.434   3.437   5.662
10139SOL    HW231317   3.335   3.382   5.780
10140SOL     OW31318   6.644   6.028   6.114
10140SOL    HW131319   6.557   6.017   6.067
10140SOL    HW231320   6.719   6.000   6.054
10141SOL     OW31321   3.713   1.334   3.762
10141SOL    HW131322   3.793   1.275   3.770
10141SOL    HW231323   3.630   1.278   3.770
10142SOL     OW31324   6.094   6.351   4.666
10142SOL    HW131325   6.043   6.289   4.606
10142SOL    HW231326   6.177   6.305   4.699
10143SOL     OW31327   5.605   3.275   0.337
10143SOL    HW131328   5.671   3.276   0.263
10143SOL    HW231329   5.581   3.181   0.360
10144SOL     OW31330   4.037   6.819   5.403
10144SOL    HW131331   4.115   6.868   5.443
10144SOL    HW231332   4.038   6.832   5.304
10145SOL     OW31333   4.748   5.990   1.436
10145SOL    HW131334   4.656   5.970   1.471
10145SOL    HW231335   4.814   5.930   1.480
10146SOL     OW31336   0.210   3.760   3.838
10146SOL    HW131337   0.236   3.850   3.873
10146SOL    HW231338   0.203   3.695   3.913
10147SOL     OW31339   4.273   5.239   6.370
10147SOL    HW131340   4.280   5.179   6.449
10147SOL    HW231341   4.212   5.316   6.391
10148SOL     OW31342   0.467   4.986   0.412
10148SOL    HW131343   0.396   4.983   0.483
10148SOL    HW231344   0.535   5.054   0.436
10149SOL     OW31345   4.581   5.080   1.716
10149SOL    HW131346   4.669   5.066   1.671
10149SOL    HW231347   4.536   4.991   1.729
10150SOL     OW31348   5.071   3.544   0.930
10150SOL    HW131349   5.028   3.631   0.907
10150SOL    HW231350   5.016   3.469   0.893
10151SOL     OW31351   0.014   0.002   5.642
10151SOL    HW131352   6.947   7.003   5.689
10151SOL    HW231353   0.081   0.036   5.708
10152SOL     OW31354   6.068   6.156   3.203
10152SOL    HW131355   6.011   6.095   3.148
10152SOL    HW231356   6.163   6.124   3.200
10153SOL     OW31357   4.633   5.633   4.084
10153SOL    HW131358   4.602   5.567   4.015
10153SOL    HW231359   4.652   5.584   4.170
10154SOL     OW31360   4.275   5.113   5.576
10154SOL    HW131361   4.202   5.179   5.559
10154SOL    HW231362   4.245   5.047   5.645
10155SOL     OW31363   4.931   2.223   5.692
10155SOL    HW131364   4.861   2.293   5.704
10155SOL    HW231365   4.983   2.214   5.777
10156SOL     OW31366   4.724   0.216   1.481
10156SOL    HW131367   4.772   0.218   1.569
10156SOL    HW231368   4.781   0.170   1.413
10157SOL     OW31369   0.138   2.447   0.798
10157SOL    HW131370   0.055   2.502   0.808
10157SOL    HW231371   0.114   2.350   0.795
10158SOL     OW31372   4.856   0.008   2.600
10158SOL    HW131373   4.885   7.012   2.694
10158SOL    HW231374   4.856   0.106   2.581
10159SOL     OW31375   3.714   3.230   3.158
10159SOL    HW131376   3.638   3.169   3.138
10159SOL    HW231377   3.793   3.177   3.189
10160SOL     OW31378   1.930   4.385   2.734
10160SOL    HW131379   1.961   4.435   2.654
10160SOL    HW231380   1.940   4.287   2.718
10161SOL     OW31381   3.366   4.941   6.204
10161SOL    HW131382   3.412   5.004   6.266
10161SOL    HW231383   3.371   4.976   6.110
10162SOL     OW31384   1.660   4.672   1.292
10162SOL    HW131385   1.733   4.609   1.319
10162SOL    HW231386   1.633   4.727   1.371
10163SOL     OW31387   1.798   5.943   5.204
10163SOL    HW131388   1.883   5.891   5.192
10163SOL    HW231389   1.818   6.028   5.254
10164SOL     OW31390   6.481   3.220   3.670
10164SOL    HW131391   6.573   3.222   3.629
10164SOL    HW231392   6.428   3.297   3.634
10165SOL     OW31393   5.537   2.556   3.732
10165SOL    HW131394   5.482   2.640   3.724
10165SOL    HW231395   5.607   2.556   3.661
10166SOL     OW31396   0.768   2.451   1.151
10166SOL    HW131397   0.733   2.428   1.242
10166SOL    HW231398   0.821   2.375   1.115
10167SOL     OW31399   0.126   5.027   6.547
10167SOL    HW131400   0.046   5.033   6.607
10167SOL    HW231401   0.150   5.118   6.513
10168SOL     OW31402   6.005   1.673   6.668
10168SOL    HW131403   5.989   1.772   6.677
10168SOL    HW231404   6.080   1.646   6.728
10169SOL     OW31405   0.008   3.994   2.929
10169SOL    HW131406   0.047   4.038   3.010
10169SOL    HW231407   6.961   3.925   2.958
10170SOL     OW31408   6.264   5.915   0.327
10170SOL    HW131409   6.320   5.933   0.408
10170SOL    HW231410   6.277   5.988   0.260
10171SOL     OW31411   1.557   2.448   5.746
10171SOL    HW131412   1.547   2.518   5.676
10171SOL    HW231413   1.562   2.491   5.836
10172SOL     OW31414   6.776   6.975   3.353
10172SOL    HW131415   6.836   6.913   3.302
10172SOL    HW231416   6.776   0.045   3.309
10173SOL     OW31417   3.730   4.742   6.782
10173SOL    HW131418   3.742   4.656   6.831
10173SOL    HW231419   3.725   4.817   6.847
10174SOL     OW31420   5.064   0.172   3.288
10174SOL    HW131421   5.038   0.079   3.315
10174SOL    HW231422   4.984   0.232   3.293
10175SOL     OW31423   0.176   2.025   3.033
10175SOL    HW131424   0.196   1.953   3.099
10175SOL    HW231425   0.106   1.993   2.969
10176SOL     OW31426   6.174   3.167   5.798
10176SOL    HW131427   6.267   3.187   5.830
10176SOL    HW231428   6.146   3.077   5.831
10177SOL     OW31429   2.345   0.170   1.565
10177SOL    HW131430   2.363   0.239   1.494
10177SOL    HW231431   2.337   0.080   1.522
10178SOL     OW31432   1.749   1.743   0.983
10178SOL    HW131433   1.741   1.736   0.883
10178SOL    HW231434   1.667   1.704   1.025
10179SOL     OW31435   6.780   4.217   0.152
10179SOL    HW131436   6.860   4.159   0.136
10179SOL    HW231437   6.723   4.217   0.069
10180SOL     OW31438   4.595   6.984   0.111
10180SOL    HW131439   4.638   6.911   0.165
10180SOL    HW231440   4.647   0.049   0.120
10181SOL     OW31441   6.297   3.783   1.649
10181SOL    HW131442   6.266   3.779   1.554
10181SOL    HW231443   6.385   3.830   1.654
10182SOL     OW31444   5.403   1.353   0.255
10182SOL    HW131445   5.383   1.291   0.331
10182SOL    HW231446   5.494   1.333   0.219
10183SOL     OW31447   6.559   2.727   6.187
10183SOL    HW131448   6.606   2.639   6.194
10183SOL    HW231449   6.617   2.791   6.137
10184SOL     OW31450   5.882   3.082   6.872
10184SOL    HW131451   5.957   3.025   6.903
10184SOL    HW231452   5.889   3.173   6.913
10185SOL     OW31453   4.064   6.079   2.736
10185SOL    HW131454   4.128   6.004   2.751
10185SOL    HW231455   4.011   6.062   2.653
10186SOL     OW31456   4.571   3.761   5.963
10186SOL    HW131457   4.580   3.841   6.023
10186SOL    HW231458   4.561   3.792   5.869
10187SOL     OW31459   2.516   4.382   5.852
10187SOL    HW131460   2.554   4.289   5.848
10187SOL    HW231461   2.493   4.412   5.759
10188SOL     OW31462   2.495   6.620   6.936
10188SOL    HW131463   2.563   6.691   6.956
10188SOL    HW231464   2.464   6.579   0.003
10189SOL     OW31465   1.260   1.325   6.904
10189SOL    HW131466   1.169   1.344   6.942
10189SOL    HW231467   1.305   1.412   6.881
10190SOL     OW31468   3.050   3.947   1.509
10190SOL    HW131469   2.977   3.937   1.440
10190SOL    HW231470   3.011   3.985   1.593
10191SOL     OW31471   6.181   5.563   1.029
10191SOL    HW131472   6.105   5.512   1.070
10191SOL    HW231473   6.249   5.499   0.995
10192SOL     OW31474   2.371   1.514   5.228
10192SOL    HW131475   2.384   1.603   5.185
10192SOL    HW231476   2.364   1.526   5.327
10193SOL     OW31477   3.265   3.073   2.600
10193SOL    HW131478   3.355   3.030   2.592
10193SOL    HW231479   3.221   3.075   2.511
10194SOL     OW31480   3.790   0.100   4.361
10194SOL    HW131481   3.844   0.175   4.399
10194SOL    HW231482   3.797   0.020   4.420
10195SOL     OW31483   5.648   0.196   1.435
10195SOL    HW131484   5.721   0.251   1.394
10195SOL    HW231485   5.622   0.236   1.523
10196SOL     OW31486   5.339   2.260   3.592
10196SOL    HW131487   5.419   2.303   3.550
10196SOL    HW231488   5.276   2.230   3.521
10197SOL     OW31489   5.871   6.983   3.139
10197SOL    HW131490   5.949   6.932   3.176
10197SOL    HW231491   5.787   6.949   3.181
10198SOL     OW31492   3.544   6.008   0.998
10198SOL    HW131493   3.606   5.934   0.972
10198SOL    HW231494   3.544   6.077   0.926
10199SOL     OW31495   0.887   1.596   0.028
10199SOL    HW131496   0.916   1.667   6.983
10199SOL    HW231497   0.791   1.573   0.012
10200SOL     OW31498   5.487   3.479   6.001
10200SOL    HW131499   5.463   3.395   5.953
10200SOL    HW231500   5.567   3.463   6.059
10201SOL     OW31501   0.325   5.858   2.070
10201SOL    HW131502   0.331   5.788   2.142
10201SOL    HW231503   0.284   5.818   1.988
10202SOL     OW31504   0.243   3.793   1.056
10202SOL    HW131505   0.278   3.811   0.964
10202SOL    HW231506   0.179   3.865   1.081
10203SOL     OW31507   1.865   2.940   2.674
10203SOL    HW131508   1.939   2.882   2.641
10203SOL    HW231509   1.841   2.913   2.768
10204SOL     OW31510   2.969   4.030   6.108
10204SOL    HW131511   2.926   4.109   6.064
10204SOL    HW231512   3.025   4.062   6.185
10205SOL     OW31513   4.538   1.054   3.395
10205SOL    HW131514   4.467   1.026   3.458
10205SOL    HW231515   4.585   1.135   3.431
10206SOL     OW31516   5.190   6.374   5.573
10206SOL    HW131517   5.172   6.471   5.559
10206SOL    HW231518   5.279   6.362   5.617
10207SOL     OW31519   2.064   0.433   1.490
10207SOL    HW131520   2.008   0.516   1.497
10207SOL    HW231521   2.010   0.360   1.447
10208SOL     OW31522   6.221   5.592   5.364
10208SOL    HW131523   6.232   5.668   5.429
10208SOL    HW231524   6.294   5.597   5.296
10209SOL     OW31525   0.246   1.022   5.910
10209SOL    HW131526   0.326   0.963   5.920
10209SOL    HW231527   0.168   0.968   5.877
10210SOL     OW31528   5.243   0.092   1.919
10210SOL    HW131529   5.174   0.164   1.913
10210SOL    HW231530   5.208   0.008   1.877
10211SOL     OW31531   3.570   6.487   5.799
10211SOL    HW131532   3.594   6.533   5.713
10211SOL    HW231533   3.612   6.397   5.802
10212SOL     OW31534   0.647   1.367   4.002
10212SOL    HW131535   0.563   1.353   3.950
10212SOL    HW231536   0.723   1.323   3.954
10213SOL     OW31537   5.427   1.411   2.689
10213SOL    HW131538   5.501   1.475   2.709
10213SOL    HW231539   5.424   1.340   2.759
10214SOL     OW31540   6.718   0.802   2.052
10214SOL    HW131541   6.681   0.715   2.022
10214SOL    HW231542   6.661   0.840   2.124
10215SOL     OW31543   2.918   3.128   5.771
10215SOL    HW131544   2.830   3.168   5.795
10215SOL    HW231545   2.932   3.133   5.672
10216SOL     OW31546   6.747   6.961   0.829
10216SOL    HW131547   6.846   6.967   0.840
10216SOL    HW231548   6.714   6.875   0.868
10217SOL     OW31549   2.704   1.263   3.977
10217SOL    HW131550   2.792   1.310   3.971
10217SOL    HW231551   2.713   1.183   4.035
10218SOL     OW31552   1.392   1.554   1.581
10218SOL    HW131553   1.491   1.547   1.576
10218SOL    HW231554   1.351   1.510   1.502
10219SOL     OW31555   0.510   2.224   2.238
10219SOL    HW131556   0.587   2.259   2.185
10219SOL    HW231557   0.453   2.165   2.181
10220SOL     OW31558   4.219   1.284   1.701
10220SOL    HW131559   4.239   1.280   1.603
10220SOL    HW231560   4.301   1.314   1.749
10221SOL     OW31561   1.599   1.867   4.573
10221SOL    HW131562   1.647   1.954   4.581
10221SOL    HW231563   1.660   1.792   4.599
10222SOL     OW31564   1.516   3.602   5.199
10222SOL    HW131565   1.450   3.664   5.242
10222SOL    HW231566   1.599   3.653   5.176
10223SOL     OW31567   1.742   5.264   6.236
10223SOL    HW131568   1.840   5.248   6.242
10223SOL    HW231569   1.700   5.253   6.326
10224SOL     OW31570   1.208   1.357   4.380
10224SOL    HW131571   1.242   1.362   4.474
10224SOL    HW231572   1.139   1.428   4.365
10225SOL     OW31573   1.020   6.027   5.278
10225SOL    HW131574   0.997   6.119   5.310
10225SOL    HW231575   0.940   5.967   5.289
10226SOL     OW31576   3.040   1.022   6.756
10226SOL    HW131577   3.134   1.058   6.759
10226SOL    HW231578   2.975   1.098   6.762
10227SOL     OW31579   4.620   4.719   0.740
10227SOL    HW131580   4.523   4.736   0.750
10227SOL    HW231581   4.650   4.652   0.808
10228SOL     OW31582   0.766   5.351   2.053
10228SOL    HW131583   0.782   5.447   2.031
10228SOL    HW231584   0.796   5.333   2.147
10229SOL     OW31585   0.944   0.944   3.354
10229SOL    HW131586   1.027   0.988   3.320
10229SOL    HW231587   0.911   0.878   3.287
10230SOL     OW31588   0.018   0.536   3.372
10230SOL    HW131589   6.946   0.538   3.330
10230SOL    HW231590   0.087   0.521   3.301
10231SOL     OW31591   0.003   6.600   5.314
10231SOL    HW131592   6.971   6.682   5.342
10231SOL    HW231593   0.095   6.627   5.285
10232SOL     OW31594   4.458   0.637   4.409
10232SOL    HW131595   4.501   0.548   4.395
10232SOL    HW231596   4.365   0.635   4.372
10233SOL     OW31597   4.832   2.822   5.531
10233SOL    HW131598   4.822   2.759   5.453
10233SOL    HW231599   4.857   2.913   5.497
10234SOL     OW31600   5.465   0.449   0.892
10234SOL    HW131601   5.500   0.409   0.977
10234SOL    HW231602   5.366   0.439   0.889
10235SOL     OW31603   4.483   1.269   0.435
10235SOL    HW131604   4.553   1.335   0.409
10235SOL    HW231605   4.505   1.180   0.397
10236SOL     OW31606   2.013   6.485   1.647
10236SOL    HW131607   2.009   6.566   1.590
10236SOL    HW231608   2.108   6.456   1.659
10237SOL     OW31609   6.052   4.112   1.083
10237SOL    HW131610   6.053   4.017   1.052
10237SOL    HW231611   6.110   4.122   1.164
10238SOL     OW31612   3.612   3.698   4.974
10238SOL    HW131613   3.596   3.662   4.882
10238SOL    HW231614   3.707   3.729   4.981
10239SOL     OW31615   1.107   4.324   5.416
10239SOL    HW131616   1.136   4.411   5.375
10239SOL    HW231617   1.106   4.253   5.346
10240SOL     OW31618   1.316   4.725   2.210
10240SOL    HW131619   1.283   4.779   2.288
10240SOL    HW231620   1.390   4.665   2.239
10241SOL     OW31621   0.408   0.783   1.319
10241SOL    HW131622   0.373   0.714   1.255
10241SOL    HW231623   0.363   0.770   1.408
10242SOL     OW31624   0.458   2.180   6.182
10242SOL    HW131625   0.516   2.189   6.101
10242SOL    HW231626   0.506   2.218   6.261
10243SOL     OW31627   0.031   5.472   1.181
10243SOL    HW131628   6.971   5.412   1.190
10243SOL    HW231629   0.042   5.526   1.265
10244SOL     OW31630   2.173   4.499   0.213
10244SOL    HW131631   2.128   4.438   0.279
10244SOL    HW231632   2.173   4.592   0.248
10245SOL     OW31633   2.461   3.673   0.134
10245SOL    HW131634   2.392   3.646   0.067
10245SOL    HW231635   2.518   3.745   0.097
10246SOL     OW31636   3.030   3.936   4.723
10246SOL    HW131637   3.068   4.016   4.769
10246SOL    HW231638   3.015   3.863   4.790
10247SOL     OW31639   0.641   5.041   5.141
10247SOL    HW131640   0.624   4.982   5.220
10247SOL    HW231641   0.712   5.108   5.165
10248SOL     OW31642   3.041   0.356   2.169
10248SOL    HW131643   2.962   0.415   2.151
10248SOL    HW231644   3.125   0.405   2.147
10249SOL     OW31645   2.826   0.757   6.002
10249SOL    HW131646   2.767   0.705   5.940
10249SOL    HW231647   2.784   0.845   6.022
10250SOL     OW31648   0.087   2.147   0.957
10250SOL    HW131649   0.115   2.080   0.887
10250SOL    HW231650   0.014   2.204   0.921
10251SOL     OW31651   1.907   3.016   5.826
10251SOL    HW131652   1.962   3.096   5.800
10251SOL    HW231653   1.965   2.950   5.873
10252SOL     OW31654   6.543   6.609   0.394
10252SOL    HW131655   6.536   6.657   0.306
10252SOL    HW231656   6.524   6.512   0.380
10253SOL     OW31657   4.697   5.540   6.959
10253SOL    HW131658   4.773   5.550   6.895
10253SOL    HW231659   4.630   5.612   6.943
10254SOL     OW31660   3.442   1.953   4.744
10254SOL    HW131661   3.402   2.025   4.689
10254SOL    HW231662   3.438   1.978   4.841
10255SOL     OW31663   2.016   5.947   1.334
10255SOL    HW131664   2.100   5.978   1.380
10255SOL    HW231665   1.951   5.914   1.403
10256SOL     OW31666   5.398   6.818   1.289
10256SOL    HW131667   5.403   6.724   1.321
10256SOL    HW231668   5.373   6.878   1.366
10257SOL     OW31669   1.258   4.836   5.059
10257SOL    HW131670   1.171   4.852   5.106
10257SOL    HW231671   1.325   4.801   5.124
10258SOL     OW31672   5.143   0.105   3.709
10258SOL    HW131673   5.187   0.033   3.656
10258SOL    HW231674   5.211   0.151   3.766
10259SOL     OW31675   1.101   4.791   3.253
10259SOL    HW131676   1.124   4.886   3.274
10259SOL    HW231677   1.103   4.737   3.337
10260SOL     OW31678   6.893   0.113   2.983
10260SOL    HW131679   6.870   0.018   2.962
10260SOL    HW231680   6.981   0.116   3.030
10261SOL     OW31681   6.783   6.370   2.200
10261SOL    HW131682   6.857   6.417   2.152
10261SOL    HW231683   6.777   6.405   2.294
10262SOL     OW31684   2.781   5.582   4.739
10262SOL    HW131685   2.835   5.499   4.725
10262SOL    HW231686   2.836   5.651   4.784
10263SOL     OW31687   5.207   1.435   6.286
10263SOL    HW131688   5.214   1.434   6.187
10263SOL    HW231689   5.181   1.344   6.319
10264SOL     OW31690   6.269   1.631   6.762
10264SOL    HW131691   6.322   1.708   6.797
10264SOL    HW231692   6.326   1.577   6.700
10265SOL     OW31693   3.357   2.073   2.667
10265SOL    HW131694   3.371   2.096   2.763
10265SOL    HW231695   3.356   1.974   2.655
10266SOL     OW31696   3.428   3.112   5.532
10266SOL    HW131697   3.353   3.170   5.500
10266SOL    HW231698   3.472   3.154   5.611
10267SOL     OW31699   6.414   1.811   6.916
10267SOL    HW131700   6.512   1.793   6.930
10267SOL    HW231701   6.401   1.905   6.887
10268SOL     OW31702   4.950   6.595   1.572
10268SOL    HW131703   4.860   6.590   1.615
10268SOL    HW231704   5.000   6.510   1.589
10269SOL     OW31705   1.906   1.519   5.625
10269SOL    HW131706   1.999   1.513   5.588
10269SOL    HW231707   1.841   1.523   5.550
10270SOL     OW31708   1.941   5.975   1.722
10270SOL    HW131709   1.953   5.935   1.631
10270SOL    HW231710   1.948   6.075   1.715
10271SOL     OW31711   3.312   3.300   0.407
10271SOL    HW131712   3.305   3.348   0.320
10271SOL    HW231713   3.317   3.366   0.482
10272SOL     OW31714   1.222   0.809   4.012
10272SOL    HW131715   1.309   0.785   3.967
10272SOL    HW231716   1.225   0.778   4.107
10273SOL     OW31717   4.103   5.932   4.114
10273SOL    HW131718   4.193   5.889   4.113
10273SOL    HW231719   4.049   5.899   4.036
10274SOL     OW31720   1.514   4.446   5.731
10274SOL    HW131721   1.493   4.532   5.779
10274SOL    HW231722   1.472   4.370   5.779
10275SOL     OW31723   1.582   0.338   2.065
10275SOL    HW131724   1.651   0.290   2.119
10275SOL    HW231725   1.495   0.336   2.113
10276SOL     OW31726   6.825   5.277   6.623
10276SOL    HW131727   6.908   5.332   6.622
10276SOL    HW231728   6.746   5.335   6.603
10277SOL     OW31729   2.597   6.302   3.735
10277SOL    HW131730   2.682   6.268   3.776
10277SOL    HW231731   2.522   6.288   3.800
10278SOL     OW31732   6.218   1.034   5.448
10278SOL    HW131733   6.150   0.973   5.406
10278SOL    HW231734   6.181   1.126   5.456
10279SOL     OW31735   3.196   0.306   3.657
10279SOL    HW131736   3.275   0.330   3.601
10279SOL    HW231737   3.149   0.390   3.685
10280SOL     OW31738   2.293   4.288   1.222
10280SOL    HW131739   2.384   4.249   1.231
10280SOL    HW231740   2.261   4.320   1.311
10281SOL     OW31741   5.384   2.407   2.813
10281SOL    HW131742   5.369   2.495   2.859
10281SOL    HW231743   5.382   2.420   2.714
10282SOL     OW31744   6.432   3.278   4.272
10282SOL    HW131745   6.488   3.280   4.189
10282SOL    HW231746   6.492   3.267   4.352
10283SOL     OW31747   0.955   2.910   1.068
10283SOL    HW131748   0.872   2.856   1.084
10283SOL    HW231749   1.014   2.906   1.149
10284SOL     OW31750   5.256   4.321   5.918
10284SOL    HW131751   5.277   4.232   5.877
10284SOL    HW231752   5.242   4.388   5.846
10285SOL     OW31753   5.087   0.306   1.825
10285SOL    HW131754   5.102   0.345   1.735
10285SOL    HW231755   5.057   0.377   1.888
10286SOL     OW31756   3.197   1.835   3.479
10286SOL    HW131757   3.163   1.810   3.570
10286SOL    HW231758   3.279   1.892   3.489
10287SOL     OW31759   1.573   6.655   1.904
10287SOL    HW131760   1.664   6.628   1.872
10287SOL    HW231761   1.574   6.752   1.929
10288SOL     OW31762   5.044   5.875   2.253
10288SOL    HW131763   4.966   5.935   2.275
10288SOL    HW231764   5.100   5.919   2.183
10289SOL     OW31765   3.644   0.737   1.160
10289SOL    HW131766   3.609   0.664   1.101
10289SOL    HW231767   3.597   0.734   1.248
10290SOL     OW31768   3.653   4.014   2.933
10290SOL    HW131769   3.685   4.062   3.014
10290SOL    HW231770   3.597   4.076   2.878
10291SOL     OW31771   4.109   0.082   4.145
10291SOL    HW131772   4.074   0.044   4.059
10291SOL    HW231773   4.202   0.116   4.130
10292SOL     OW31774   0.758   2.223   4.499
10292SOL    HW131775   0.773   2.300   4.561
10292SOL    HW231776   0.706   2.254   4.419
10293SOL     OW31777   1.578   6.053   3.092
10293SOL    HW131778   1.653   6.045   3.027
10293SOL    HW231779   1.537   6.144   3.086
10294SOL     OW31780   4.822   3.125   3.285
10294SOL    HW131781   4.753   3.133   3.358
10294SOL    HW231782   4.882   3.204   3.288
10295SOL     OW31783   5.385   4.402   5.597
10295SOL    HW131784   5.312   4.444   5.652
10295SOL    HW231785   5.470   4.454   5.610
10296SOL     OW31786   5.430   4.386   6.430
10296SOL    HW131787   5.467   4.351   6.344
10296SOL    HW231788   5.336   4.353   6.442
10297SOL     OW31789   2.464   6.517   3.954
10297SOL    HW131790   2.443   6.473   4.041
10297SOL    HW231791   2.558   6.553   3.958
10298SOL     OW31792   4.257   4.798   3.505
10298SOL    HW131793   4.252   4.782   3.406
10298SOL    HW231794   4.297   4.717   3.549
10299SOL     OW31795   4.336   4.605   3.184
10299SOL    HW131796   4.392   4.677   3.225
10299SOL    HW231797   4.289   4.641   3.104
10300SOL     OW31798   1.636   4.291   1.975
10300SOL    HW131799   1.725   4.249   1.955
10300SOL    HW231800   1.645   4.390   1.975
10301SOL     OW31801   5.763   2.290   2.935
10301SOL    HW131802   5.741   2.303   3.031
10301SOL    HW231803   5.681   2.264   2.885
10302SOL     OW31804   1.410   6.071   2.800
10302SOL    HW131805   1.505   6.082   2.830
10302SOL    HW231806   1.349   6.108   2.870
10303SOL     OW31807   3.990   4.087   1.088
10303SOL    HW131808   4.085   4.119   1.084
10303SOL    HW231809   3.955   4.077   0.995
10304SOL     OW31810   5.812   0.559   4.047
10304SOL    HW131811   5.812   0.652   4.084
10304SOL    HW231812   5.858   0.498   4.111
10305SOL     OW31813   1.064   6.130   6.595
10305SOL    HW131814   1.086   6.062   6.525
10305SOL    HW231815   1.074   6.090   6.686
10306SOL     OW31816   4.523   5.630   6.636
10306SOL    HW131817   4.570   5.542   6.636
10306SOL    HW231818   4.511   5.661   6.542
10307SOL     OW31819   1.697   1.566   5.458
10307SOL    HW131820   1.697   1.666   5.455
10307SOL    HW231821   1.749   1.530   5.381
10308SOL     OW31822   3.316   5.221   4.276
10308SOL    HW131823   3.237   5.280   4.257
10308SOL    HW231824   3.317   5.197   4.373
10309SOL     OW31825   6.595   0.300   3.726
10309SOL    HW131826   6.571   0.366   3.656
10309SOL    HW231827   6.525   0.228   3.730
10310SOL     OW31828   3.160   3.706   1.603
10310SOL    HW131829   3.253   3.697   1.567
10310SOL    HW231830   3.124   3.796   1.582
10311SOL     OW31831   0.540   5.745   1.161
10311SOL    HW131832   0.472   5.779   1.096
10311SOL    HW231833   0.521   5.649   1.181
10312SOL     OW31834   3.489   5.148   1.141
10312SOL    HW131835   3.538   5.213   1.082
10312SOL    HW231836   3.489   5.057   1.098
10313SOL     OW31837   4.217   6.826   2.245
10313SOL    HW131838   4.214   6.836   2.146
10313SOL    HW231839   4.124   6.824   2.282
10314SOL     OW31840   6.360   0.633   0.875
10314SOL    HW131841   6.289   0.694   0.841
10314SOL    HW231842   6.323   0.541   0.888
10315SOL     OW31843   6.704   6.139   4.823
10315SOL    HW131844   6.641   6.200   4.776
10315SOL    HW231845   6.651   6.072   4.876
10316SOL     OW31846   6.961   3.080   4.323
10316SOL    HW131847   6.984   3.070   4.226
10316SOL    HW231848   6.912   2.998   4.354
10317SOL     OW31849   3.999   4.617   6.030
10317SOL    HW131850   3.946   4.681   6.086
10317SOL    HW231851   4.001   4.528   6.076
10318SOL     OW31852   6.136   5.379   1.829
10318SOL    HW131853   6.142   5.471   1.789
10318SOL    HW231854   6.111   5.386   1.925
10319SOL     OW31855   0.282   4.942   4.728
10319SOL    HW131856   0.380   4.947   4.708
10319SOL    HW231857   0.246   5.035   4.740
10320SOL     OW31858   0.730   0.531   0.730
10320SOL    HW131859   0.784   0.566   0.806
10320SOL    HW231860   0.682   0.606   0.685
10321SOL     OW31861   4.039   6.219   4.528
10321SOL    HW131862   4.003   6.181   4.443
10321SOL    HW231863   4.122   6.271   4.509
10322SOL     OW31864   6.677   5.888   0.721
10322SOL    HW131865   6.618   5.814   0.752
10322SOL    HW231866   6.768   5.852   0.699
10323SOL     OW31867   6.625   3.243   6.598
10323SOL    HW131868   6.634   3.144   6.610
10323SOL    HW231869   6.528   3.268   6.600
10324SOL     OW31870   3.146   2.978   3.684
10324SOL    HW131871   3.232   3.019   3.714
10324SOL    HW231872   3.134   2.889   3.729
10325SOL     OW31873   6.815   4.554   4.156
10325SOL    HW131874   6.819   4.577   4.059
10325SOL    HW231875   6.833   4.636   4.211
10326SOL     OW31876   4.714   2.625   6.637
10326SOL    HW131877   4.799   2.579   6.611
10326SOL    HW231878   4.731   2.686   6.714
10327SOL     OW31879   2.371   1.410   3.154
10327SOL    HW131880   2.365   1.463   3.069
10327SOL    HW231881   2.408   1.320   3.134
10328SOL     OW31882   5.817   3.628   2.169
10328SOL    HW131883   5.813   3.529   2.183
10328SOL    HW231884   5.737   3.670   2.211
10329SOL     OW31885   2.517   0.688   4.031
10329SOL    HW131886   2.468   0.775   4.032
10329SOL    HW231887   2.601   0.697   3.979
10330SOL     OW31888   3.318   4.988   3.288
10330SOL    HW131889   3.377   4.963   3.211
10330SOL    HW231890   3.353   5.071   3.332
10331SOL     OW31891   5.657   0.935   3.022
10331SOL    HW131892   5.625   1.030   3.012
10331SOL    HW231893   5.580   0.873   3.012
10332SOL     OW31894   6.891   2.243   0.846
10332SOL    HW131895   6.854   2.191   0.769
10332SOL    HW231896   6.818   2.299   0.886
10333SOL     OW31897   5.727   4.583   4.115
10333SOL    HW131898   5.703   4.631   4.199
10333SOL    HW231899   5.649   4.582   4.053
10334SOL     OW31900   1.813   5.285   3.680
10334SOL    HW131901   1.907   5.259   3.701
10334SOL    HW231902   1.776   5.338   3.757
10335SOL     OW31903   2.265   4.904   6.964
10335SOL    HW131904   2.310   4.970   0.005
10335SOL    HW231905   2.331   4.835   6.935
10336SOL     OW31906   4.628   6.369   2.544
10336SOL    HW131907   4.716   6.395   2.584
10336SOL    HW231908   4.643   6.303   2.470
10337SOL     OW31909   0.045   5.042   5.216
10337SOL    HW131910   0.033   5.134   5.253
10337SOL    HW231911   0.029   5.043   5.118
10338SOL     OW31912   3.679   6.616   0.702
10338SOL    HW131913   3.677   6.710   0.667
10338SOL    HW231914   3.712   6.617   0.796
10339SOL     OW31915   3.827   5.534   0.844
10339SOL    HW131916   3.840   5.464   0.774
10339SOL    HW231917   3.841   5.493   0.935
10340SOL     OW31918   1.895   5.620   0.009
10340SOL    HW131919   1.951   5.572   0.077
10340SOL    HW231920   1.947   5.629   6.944
10341SOL     OW31921   2.380   2.696   1.981
10341SOL    HW131922   2.388   2.787   2.023
10341SOL    HW231923   2.295   2.691   1.929
10342SOL     OW31924   1.963   6.439   6.255
10342SOL    HW131925   1.879   6.433   6.308
10342SOL    HW231926   1.981   6.351   6.210
10343SOL     OW31927   2.107   4.120   0.132
10343SOL    HW131928   2.166   4.163   0.064
10343SOL    HW231929   2.013   4.118   0.098
10344SOL     OW31930   4.122   3.647   4.322
10344SOL    HW131931   4.076   3.640   4.234
10344SOL    HW231932   4.205   3.592   4.322
10345SOL     OW31933   1.994   1.513   6.699
10345SOL    HW131934   1.994   1.582   6.772
10345SOL    HW231935   1.909   1.460   6.704
10346SOL     OW31936   5.574   0.072   0.598
10346SOL    HW131937   5.525   0.141   0.545
10346SOL    HW231938   5.670   0.072   0.571
10347SOL     OW31939   4.935   1.499   0.842
10347SOL    HW131940   4.838   1.492   0.863
10347SOL    HW231941   4.950   1.481   0.745
10348SOL     OW31942   6.236   0.739   6.403
10348SOL    HW131943   6.294   0.744   6.322
10348SOL    HW231944   6.283   0.783   6.480
10349SOL     OW31945   5.836   0.553   0.806
10349SOL    HW131946   5.901   0.585   0.738
10349SOL    HW231947   5.784   0.476   0.768
10350SOL     OW31948   3.705   6.003   4.224
10350SOL    HW131949   3.614   6.041   4.207
10350SOL    HW231950   3.696   5.915   4.272
10351SOL     OW31951   6.102   4.857   5.249
10351SOL    HW131952   6.194   4.843   5.286
10351SOL    HW231953   6.067   4.946   5.279
10352SOL     OW31954   5.494   2.284   6.685
10352SOL    HW131955   5.453   2.372   6.662
10352SOL    HW231956   5.454   2.250   6.770
10353SOL     OW31957   0.136   3.101   3.559
10353SOL    HW131958   0.112   3.086   3.656
10353SOL    HW231959   0.088   3.182   3.525
10354SOL     OW31960   0.584   4.380   0.854
10354SOL    HW131961   0.526   4.298   0.845
10354SOL    HW231962   0.561   4.444   0.781
10355SOL     OW31963   1.126   1.697   1.307
10355SOL    HW131964   1.171   1.771   1.257
10355SOL    HW231965   1.182   1.614   1.301
10356SOL     OW31966   0.563   3.032   6.975
10356SOL    HW131967   0.474   3.023   0.001
10356SOL    HW231968   0.621   2.954   6.999
10357SOL     OW31969   2.162   2.248   6.556
10357SOL    HW131970   2.201   2.294   6.637
10357SOL    HW231971   2.201   2.288   6.473
10358SOL     OW31972   1.772   2.535   2.498
10358SOL    HW131973   1.773   2.496   2.406
10358SOL    HW231974   1.860   2.521   2.542
10359SOL     OW31975   4.871   2.498   2.110
10359SOL    HW131976   4.907   2.421   2.056
10359SOL    HW231977   4.787   2.470   2.155
10360SOL     OW31978   5.464   5.059   3.148
10360SOL    HW131979   5.517   4.985   3.107
10360SOL    HW231980   5.496   5.076   3.241
10361SOL     OW31981   2.223   1.071   1.416
10361SOL    HW131982   2.219   1.165   1.384
10361SOL    HW231983   2.312   1.053   1.459
10362SOL     OW31984   0.037   5.170   2.154
10362SOL    HW131985   0.044   5.118   2.239
10362SOL    HW231986   7.013   5.113   2.084
10363SOL     OW31987   4.296   3.001   0.052
10363SOL    HW131988   4.211   2.999   7.019
10363SOL    HW231989   4.351   3.079   0.024
10364SOL     OW31990   5.426   5.432   0.901
10364SOL    HW131991   5.491   5.508   0.907
10364SOL    HW231992   5.340   5.459   0.944
10365SOL     OW31993   5.808   5.441   0.397
10365SOL    HW131994   5.907   5.446   0.411
10365SOL    HW231995   5.765   5.408   0.481
10366SOL     OW31996   4.431   6.972   3.242
10366SOL    HW131997   4.396   0.026   3.184
10366SOL    HW231998   4.513   6.933   3.200
10367SOL     OW31999   6.215   2.171   1.986
10367SOL    HW132000   6.276   2.094   2.001
10367SOL    HW232001   6.242   2.247   2.046
10368SOL     OW32002   2.784   0.986   1.920
10368SOL    HW132003   2.769   0.895   1.882
10368SOL    HW232004   2.751   1.054   1.854
10369SOL     OW32005   2.904   6.335   5.749
10369SOL    HW132006   2.840   6.362   5.677
10369SOL    HW232007   2.890   6.239   5.773
10370SOL     OW32008   6.271   1.866   4.158
10370SOL    HW132009   6.359   1.829   4.188
10370SOL    HW232010   6.288   1.942   4.095
10371SOL     OW32011   3.594   6.488   3.060
10371SOL    HW132012   3.665   6.422   3.038
10371SOL    HW232013   3.505   6.443   3.062
10372SOL     OW32014   3.199   0.717   1.259
10372SOL    HW132015   3.132   0.785   1.227
10372SOL    HW232016   3.229   0.741   1.351
10373SOL     OW32017   0.497   0.215   4.613
10373SOL    HW132018   0.430   0.239   4.683
10373SOL    HW232019   0.589   0.228   4.651
10374SOL     OW32020   2.634   6.752   4.145
10374SOL    HW132021   2.545   6.765   4.100
10374SOL    HW232022   2.637   6.661   4.187
10375SOL     OW32023   3.165   2.036   6.155
10375SOL    HW132024   3.090   1.978   6.123
10375SOL    HW232025   3.244   1.979   6.177
10376SOL     OW32026   1.781   6.211   3.623
10376SOL    HW132027   1.871   6.169   3.636
10376SOL    HW232028   1.791   6.310   3.619
10377SOL     OW32029   0.378   1.717   1.902
10377SOL    HW132030   0.295   1.664   1.919
10377SOL    HW232031   0.391   1.727   1.803
10378SOL     OW32032   0.171   5.745   5.774
10378SOL    HW132033   0.212   5.769   5.686
10378SOL    HW232034   0.078   5.713   5.761
10379SOL     OW32035   2.816   6.011   4.074
10379SOL    HW132036   2.784   6.104   4.057
10379SOL    HW232037   2.843   5.968   3.988
10380SOL     OW32038   1.311   1.783   4.821
10380SOL    HW132039   1.407   1.812   4.814
10380SOL    HW232040   1.253   1.850   4.774
10381SOL     OW32041   3.862   4.507   0.871
10381SOL    HW132042   3.930   4.440   0.839
10381SOL    HW232043   3.879   4.595   0.825
10382SOL     OW32044   3.088   5.441   1.782
10382SOL    HW132045   3.078   5.500   1.702
10382SOL    HW232046   3.000   5.432   1.828
10383SOL     OW32047   2.010   3.862   0.638
10383SOL    HW132048   2.088   3.889   0.582
10383SOL    HW232049   1.974   3.774   0.605
10384SOL     OW32050   6.566   6.539   1.215
10384SOL    HW132051   6.562   6.451   1.168
10384SOL    HW232052   6.607   6.607   1.154
10385SOL     OW32053   3.541   5.554   6.036
10385SOL    HW132054   3.598   5.500   5.975
10385SOL    HW232055   3.453   5.508   6.050
10386SOL     OW32056   0.387   1.003   5.497
10386SOL    HW132057   0.367   1.075   5.564
10386SOL    HW232058   0.464   0.948   5.529
10387SOL     OW32059   5.221   3.086   3.476
10387SOL    HW132060   5.141   3.044   3.519
10387SOL    HW232061   5.303   3.061   3.528
10388SOL     OW32062   2.729   0.178   0.544
10388SOL    HW132063   2.732   0.124   0.460
10388SOL    HW232064   2.698   0.121   0.620
10389SOL     OW32065   6.111   3.823   0.077
10389SOL    HW132066   6.085   3.913   0.043
10389SOL    HW232067   6.208   3.824   0.102
10390SOL     OW32068   1.991   2.523   0.549
10390SOL    HW132069   2.009   2.588   0.475
10390SOL    HW232070   2.048   2.442   0.537
10391SOL     OW32071   1.504   6.344   3.933
10391SOL    HW132072   1.530   6.429   3.981
10391SOL    HW232073   1.488   6.272   4.000
10392SOL     OW32074   5.917   5.018   5.637
10392SOL    HW132075   5.832   5.030   5.689
10392SOL    HW232076   5.992   5.065   5.685
10393SOL     OW32077   2.043   3.791   3.685
10393SOL    HW132078   2.074   3.780   3.779
10393SOL    HW232079   1.960   3.847   3.684
10394SOL     OW32080   2.887   5.840   4.418
10394SOL    HW132081   2.936   5.766   4.373
10394SOL    HW232082   2.792   5.841   4.387
10395SOL     OW32083   0.183   6.611   1.568
10395SOL    HW132084   0.191   6.675   1.492
10395SOL    HW232085   0.275   6.588   1.601
10396SOL     OW32086   4.105   1.593   3.895
10396SOL    HW132087   4.132   1.497   3.883
10396SOL    HW232088   4.006   1.599   3.904
10397SOL     OW32089   3.139   1.867   3.224
10397SOL    HW132090   3.172   1.845   3.315
10397SOL    HW232091   3.114   1.964   3.220
10398SOL     OW32092   5.689   2.274   0.983
10398SOL    HW132093   5.662   2.369   1.000
10398SOL    HW232094   5.789   2.268   0.984
10399SOL     OW32095   4.948   2.338   3.216
10399SOL    HW132096   5.041   2.301   3.216
10399SOL    HW232097   4.951   2.432   3.182
10400SOL     OW32098   4.413   6.633   0.113
10400SOL    HW132099   4.429   6.721   0.158
10400SOL    HW232100   4.421   6.559   0.179
10401SOL     OW32101   6.537   6.967   3.091
10401SOL    HW132102   6.623   6.932   3.054
10401SOL    HW232103   6.463   6.949   3.027
10402SOL     OW32104   6.287   2.402   5.291
10402SOL    HW132105   6.249   2.324   5.342
10402SOL    HW232106   6.254   2.487   5.332
10403SOL     OW32107   4.484   1.360   3.409
10403SOL    HW132108   4.510   1.384   3.502
10403SOL    HW232109   4.410   1.292   3.411
10404SOL     OW32110   6.145   6.525   5.012
10404SOL    HW132111   6.204   6.514   4.932
10404SOL    HW232112   6.077   6.452   5.013
10405SOL     OW32113   1.113   0.498   5.152
10405SOL    HW132114   1.201   0.458   5.128
10405SOL    HW232115   1.097   0.578   5.094
10406SOL     OW32116   2.603   4.690   3.214
10406SOL    HW132117   2.683   4.708   3.156
10406SOL    HW232118   2.595   4.762   3.283
10407SOL     OW32119   2.671   6.847   6.120
10407SOL    HW132120   2.699   6.927   6.174
10407SOL    HW232121   2.683   6.764   6.174
10408SOL     OW32122   4.598   0.417   1.790
10408SOL    HW132123   4.658   0.476   1.737
10408SOL    HW232124   4.576   0.335   1.737
10409SOL     OW32125   0.266   4.566   0.807
10409SOL    HW132126   0.352   4.581   0.758
10409SOL    HW232127   0.286   4.527   0.897
10410SOL     OW32128   5.387   1.883   1.367
10410SOL    HW132129   5.474   1.853   1.407
10410SOL    HW232130   5.315   1.876   1.436
10411SOL     OW32131   3.153   6.434   3.448
10411SOL    HW132132   3.168   6.480   3.361
10411SOL    HW232133   3.056   6.413   3.458
10412SOL     OW32134   0.388   0.968   0.110
10412SOL    HW132135   0.466   1.028   0.098
10412SOL    HW232136   0.371   0.918   0.025
10413SOL     OW32137   6.644   2.964   0.585
10413SOL    HW132138   6.697   3.047   0.604
10413SOL    HW232139   6.683   2.918   0.505
10414SOL     OW32140   4.058   4.516   5.777
10414SOL    HW132141   4.002   4.436   5.797
10414SOL    HW232142   4.051   4.581   5.853
10415SOL     OW32143   1.605   3.390   4.633
10415SOL    HW132144   1.684   3.394   4.694
10415SOL    HW232145   1.521   3.407   4.685
10416SOL     OW32146   5.954   0.121   4.973
10416SOL    HW132147   5.921   0.195   4.915
10416SOL    HW232148   5.969   0.038   4.919
10417SOL     OW32149   2.950   5.360   4.727
10417SOL    HW132150   2.902   5.276   4.702
10417SOL    HW232151   3.040   5.361   4.684
10418SOL     OW32152   0.127   4.389   6.690
10418SOL    HW132153   0.186   4.311   6.665
10418SOL    HW232154   0.174   4.474   6.668
10419SOL     OW32155   1.677   0.094   5.955
10419SOL    HW132156   1.761   0.043   5.976
10419SOL    HW232157   1.699   0.191   5.948
10420SOL     OW32158   6.971   3.459   3.350
10420SOL    HW132159   6.880   3.483   3.383
10420SOL    HW232160   7.006   3.533   3.293
10421SOL     OW32161   0.611   1.944   3.708
10421SOL    HW132162   0.647   1.961   3.800
10421SOL    HW232163   0.591   2.031   3.664
10422SOL     OW32164   6.999   3.243   5.233
10422SOL    HW132165   0.030   3.176   5.288
10422SOL    HW232166   0.035   3.268   5.153
10423SOL     OW32167   6.306   5.576   4.878
10423SOL    HW132168   6.211   5.578   4.909
10423SOL    HW232169   6.315   5.629   4.794
10424SOL     OW32170   5.215   2.908   0.623
10424SOL    HW132171   5.223   2.893   0.721
10424SOL    HW232172   5.121   2.933   0.601
10425SOL     OW32173   0.827   0.785   1.618
10425SOL    HW132174   0.912   0.773   1.566
10425SOL    HW232175   0.846   0.772   1.716
10426SOL     OW32176   5.929   5.004   0.699
10426SOL    HW132177   5.944   4.965   0.608
10426SOL    HW232178   5.837   4.982   0.730
10427SOL     OW32179   3.913   0.332   6.574
10427SOL    HW132180   3.921   0.234   6.591
10427SOL    HW232181   3.834   0.349   6.515
10428SOL     OW32182   3.879   0.724   3.788
10428SOL    HW132183   3.968   0.684   3.765
10428SOL    HW232184   3.808   0.680   3.733
10429SOL     OW32185   6.930   5.041   0.665
10429SOL    HW132186   6.841   5.082   0.645
10429SOL    HW232187   6.975   5.015   0.580
10430SOL     OW32188   5.035   6.898   4.329
10430SOL    HW132189   5.130   6.883   4.354
10430SOL    HW232190   4.976   6.860   4.401
10431SOL     OW32191   3.408   5.938   4.127
10431SOL    HW132192   3.369   5.871   4.190
10431SOL    HW232193   3.461   5.891   4.057
10432SOL     OW32194   5.666   6.709   4.855
10432SOL    HW132195   5.627   6.789   4.901
10432SOL    HW232196   5.705   6.736   4.767
10433SOL     OW32197   1.643   6.461   1.162
10433SOL    HW132198   1.605   6.484   1.073
10433SOL    HW232199   1.739   6.487   1.165
10434SOL     OW32200   4.208   6.629   3.443
10434SOL    HW132201   4.110   6.614   3.453
10434SOL    HW232202   4.258   6.561   3.497
10435SOL     OW32203   6.922   0.411   4.699
10435SOL    HW132204   6.826   0.408   4.672
10435SOL    HW232205   6.927   0.428   4.798
10436SOL     OW32206   0.755   5.261   6.014
10436SOL    HW132207   0.852   5.240   6.002
10436SOL    HW232208   0.708   5.179   6.048
10437SOL     OW32209   5.431   5.033   5.796
10437SOL    HW132210   5.370   5.075   5.729
10437SOL    HW232211   5.388   4.951   5.833
10438SOL     OW32212   6.294   6.562   0.789
10438SOL    HW132213   6.389   6.532   0.779
10438SOL    HW232214   6.284   6.655   0.753
10439SOL     OW32215   4.553   1.232   5.962
10439SOL    HW132216   4.477   1.203   6.020
10439SOL    HW232217   4.520   1.246   5.868
10440SOL     OW32218   1.243   7.018   0.327
10440SOL    HW132219   1.193   6.941   0.287
10440SOL    HW232220   1.181   0.075   0.341
10441SOL     OW32221   3.963   0.768   0.713
10441SOL    HW132222   3.915   0.856   0.719
10441SOL    HW232223   3.917   0.701   0.771
10442SOL     OW32224   3.109   6.277   6.265
10442SOL    HW132225   3.079   6.299   6.358
10442SOL    HW232226   3.204   6.303   6.253
10443SOL     OW32227   5.125   3.921   4.631
10443SOL    HW132228   5.216   3.893   4.601
10443SOL    HW232229   5.061   3.845   4.617
10444SOL     OW32230   3.985   5.837   4.636
10444SOL    HW132231   3.904   5.895   4.638
10444SOL    HW232232   3.974   5.761   4.700
10445SOL     OW32233   0.777   5.447   4.617
10445SOL    HW132234   0.753   5.369   4.559
10445SOL    HW232235   0.875   5.442   4.640
10446SOL     OW32236   1.223   2.879   5.293
10446SOL    HW132237   1.124   2.890   5.292
10446SOL    HW232238   1.258   2.890   5.200
10447SOL     OW32239   0.022   1.006   2.120
10447SOL    HW132240   0.001   0.976   2.026
10447SOL    HW232241   0.101   0.956   2.154
10448SOL     OW32242   3.626   1.181   1.955
10448SOL    HW132243   3.603   1.119   1.880
10448SOL    HW232244   3.577   1.152   2.038
10449SOL     OW32245   2.103   5.594   4.897
10449SOL    HW132246   2.116   5.516   4.835
10449SOL    HW232247   2.041   5.567   4.971
10450SOL     OW32248   0.423   1.988   0.850
10450SOL    HW132249   0.504   1.987   0.908
10450SOL    HW232250   0.450   1.986   0.754
10451SOL     OW32251   1.719   5.293   2.503
10451SOL    HW132252   1.779   5.275   2.581
10451SOL    HW232253   1.624   5.295   2.533
10452SOL     OW32254   5.872   3.655   2.795
10452SOL    HW132255   5.801   3.723   2.809
10452SOL    HW232256   5.847   3.596   2.718
10453SOL     OW32257   4.177   5.333   1.560
10453SOL    HW132258   4.240   5.295   1.627
10453SOL    HW232259   4.083   5.312   1.587
10454SOL     OW32260   4.597   3.101   0.759
10454SOL    HW132261   4.581   3.143   0.670
10454SOL    HW232262   4.532   3.025   0.772
10455SOL     OW32263   6.901   5.385   2.203
10455SOL    HW132264   6.895   5.383   2.303
10455SOL    HW232265   6.971   5.320   2.173
10456SOL     OW32266   2.972   6.174   0.943
10456SOL    HW132267   2.902   6.108   0.971
10456SOL    HW232268   2.948   6.211   0.853
10457SOL     OW32269   3.509   3.622   2.500
10457SOL    HW132270   3.473   3.603   2.591
10457SOL    HW232271   3.538   3.537   2.457
10458SOL     OW32272   0.282   1.300   5.963
10458SOL    HW132273   0.293   1.202   5.951
10458SOL    HW232274   0.220   1.318   6.039
10459SOL     OW32275   4.807   5.261   2.548
10459SOL    HW132276   4.739   5.332   2.566
10459SOL    HW232277   4.853   5.236   2.634
10460SOL     OW32278   1.473   5.061   1.152
10460SOL    HW132279   1.547   5.128   1.153
10460SOL    HW232280   1.443   5.043   1.245
10461SOL     OW32281   1.190   5.338   5.474
10461SOL    HW132282   1.152   5.286   5.550
10461SOL    HW232283   1.286   5.358   5.491
10462SOL     OW32284   6.061   1.650   3.442
10462SOL    HW132285   6.149   1.603   3.446
10462SOL    HW232286   5.989   1.583   3.423
10463SOL     OW32287   3.653   3.184   5.784
10463SOL    HW132288   3.663   3.246   5.706
10463SOL    HW232289   3.723   3.203   5.852
10464SOL     OW32290   5.987   6.306   1.382
10464SOL    HW132291   6.081   6.269   1.378
10464SOL    HW232292   5.924   6.239   1.343
10465SOL     OW32293   5.987   6.531   1.234
10465SOL    HW132294   6.010   6.448   1.285
10465SOL    HW232295   6.053   6.544   1.160
10466SOL     OW32296   4.740   5.034   5.516
10466SOL    HW132297   4.731   5.132   5.534
10466SOL    HW232298   4.835   5.006   5.527
10467SOL     OW32299   1.154   1.769   5.380
10467SOL    HW132300   1.124   1.825   5.458
10467SOL    HW232301   1.239   1.721   5.404
10468SOL     OW32302   3.814   4.930   3.104
10468SOL    HW132303   3.853   4.940   3.195
10468SOL    HW232304   3.884   4.894   3.042
10469SOL     OW32305   3.634   2.342   6.637
10469SOL    HW132306   3.723   2.298   6.632
10469SOL    HW232307   3.562   2.274   6.622
10470SOL     OW32308   2.961   1.833   2.988
10470SOL    HW132309   2.979   1.740   3.020
10470SOL    HW232310   3.036   1.893   3.017
10471SOL     OW32311   2.136   3.051   0.915
10471SOL    HW132312   2.081   3.130   0.945
10471SOL    HW232313   2.086   2.967   0.935
10472SOL     OW32314   3.202   5.621   1.014
10472SOL    HW132315   3.269   5.692   0.992
10472SOL    HW232316   3.211   5.546   0.948
10473SOL     OW32317   5.848   0.840   0.285
10473SOL    HW132318   5.828   0.922   0.233
10473SOL    HW232319   5.868   0.764   0.223
10474SOL     OW32320   4.512   1.557   4.919
10474SOL    HW132321   4.597   1.603   4.894
10474SOL    HW232322   4.532   1.461   4.940
10475SOL     OW32323   4.359   6.475   2.584
10475SOL    HW132324   4.292   6.403   2.567
10475SOL    HW232325   4.451   6.440   2.570
10476SOL     OW32326   6.848   5.702   6.718
10476SOL    HW132327   6.946   5.720   6.726
10476SOL    HW232328   6.824   5.626   6.779
10477SOL     OW32329   6.232   2.002   4.593
10477SOL    HW132330   6.153   1.941   4.590
10477SOL    HW232331   6.231   2.054   4.679
10478SOL     OW32332   0.335   0.615   1.091
10478SOL    HW132333   0.424   0.642   1.055
10478SOL    HW232334   0.338   0.519   1.118
10479SOL     OW32335   0.127   2.898   1.827
10479SOL    HW132336   0.109   2.820   1.887
10479SOL    HW232337   0.226   2.916   1.826
10480SOL     OW32338   5.901   0.419   1.388
10480SOL    HW132339   5.983   0.474   1.396
10480SOL    HW232340   5.877   0.408   1.291
10481SOL     OW32341   2.498   0.535   4.740
10481SOL    HW132342   2.543   0.583   4.815
10481SOL    HW232343   2.503   0.589   4.656
10482SOL     OW32344   0.772   5.795   4.762
10482SOL    HW132345   0.815   5.879   4.794
10482SOL    HW232346   0.802   5.718   4.818
10483SOL     OW32347   6.846   5.383   0.473
10483SOL    HW132348   6.860   5.350   0.379
10483SOL    HW232349   6.934   5.410   0.512
10484SOL     OW32350   6.283   0.963   1.485
10484SOL    HW132351   6.198   0.936   1.441
10484SOL    HW232352   6.360   0.923   1.436
10485SOL     OW32353   3.164   3.096   2.341
10485SOL    HW132354   3.194   3.163   2.273
10485SOL    HW232355   3.176   3.004   2.305
10486SOL     OW32356   6.492   0.358   5.889
10486SOL    HW132357   6.458   0.439   5.841
10486SOL    HW232358   6.476   0.277   5.833
10487SOL     OW32359   4.553   2.109   1.351
10487SOL    HW132360   4.596   2.199   1.360
10487SOL    HW232361   4.536   2.090   1.254
10488SOL     OW32362   1.632   1.681   6.247
10488SOL    HW132363   1.671   1.719   6.163
10488SOL    HW232364   1.691   1.608   6.281
10489SOL     OW32365   6.323   6.426   4.488
10489SOL    HW132366   6.295   6.330   4.491
10489SOL    HW232367   6.304   6.469   4.576
10490SOL     OW32368   6.093   1.160   0.649
10490SOL    HW132369   6.110   1.213   0.732
10490SOL    HW232370   6.039   1.079   0.671
10491SOL     OW32371   2.464   2.545   6.256
10491SOL    HW132372   2.449   2.644   6.254
10491SOL    HW232373   2.525   2.519   6.181
10492SOL     OW32374   4.278   5.505   0.810
10492SOL    HW132375   4.303   5.527   0.716
10492SOL    HW232376   4.306   5.411   0.831
10493SOL     OW32377   2.817   5.722   1.369
10493SOL    HW132378   2.772   5.633   1.370
10493SOL    HW232379   2.890   5.722   1.300
10494SOL     OW32380   6.452   4.246   5.646
10494SOL    HW132381   6.446   4.332   5.595
10494SOL    HW232382   6.362   4.225   5.685
10495SOL     OW32383   6.570   6.760   0.610
10495SOL    HW132384   6.557   6.699   0.532
10495SOL    HW232385   6.662   6.749   0.646
10496SOL     OW32386   6.222   4.368   5.135
10496SOL    HW132387   6.269   4.285   5.106
10496SOL    HW232388   6.155   4.394   5.065
10497SOL     OW32389   1.149   6.357   2.258
10497SOL    HW132390   1.229   6.314   2.216
10497SOL    HW232391   1.175   6.447   2.294
10498SOL     OW32392   5.842   6.116   1.259
10498SOL    HW132393   5.746   6.086   1.252
10498SOL    HW232394   5.901   6.044   1.222
10499SOL     OW32395   4.955   6.579   1.292
10499SOL    HW132396   4.986   6.580   1.387
10499SOL    HW232397   4.867   6.532   1.286
10500SOL     OW32398   5.636   2.423   5.907
10500SOL    HW132399   5.571   2.491   5.943
10500SOL    HW232400   5.610   2.399   5.814
10501SOL     OW32401   2.327   6.042   2.703
10501SOL    HW132402   2.265   6.090   2.765
10501SOL    HW232403   2.381   5.976   2.755
10502SOL     OW32404   2.458   4.002   1.283
10502SOL    HW132405   2.531   4.056   1.241
10502SOL    HW232406   2.458   3.909   1.246
10503SOL     OW32407   5.762   4.402   0.312
10503SOL    HW132408   5.848   4.365   0.278
10503SOL    HW232409   5.696   4.410   0.237
10504SOL     OW32410   0.223   2.372   5.565
10504SOL    HW132411   0.220   2.385   5.665
10504SOL    HW232412   0.294   2.432   5.527
10505SOL     OW32413   5.332   6.484   1.774
10505SOL    HW132414   5.322   6.570   1.724
10505SOL    HW232415   5.414   6.488   1.832
10506SOL     OW32416   0.447   3.574   0.394
10506SOL    HW132417   0.490   3.663   0.405
10506SOL    HW232418   0.348   3.585   0.385
10507SOL     OW32419   2.037   5.595   6.779
10507SOL    HW132420   2.013   5.651   6.700
10507SOL    HW232421   2.134   5.570   6.774
10508SOL     OW32422   1.111   6.045   4.390
10508SOL    HW132423   1.045   5.971   4.407
10508SOL    HW232424   1.184   6.011   4.331
10509SOL     OW32425   6.098   4.269   4.673
10509SOL    HW132426   6.120   4.190   4.730
10509SOL    HW232427   6.183   4.314   4.644
10510SOL     OW32428   4.844   6.612   0.359
10510SOL    HW132429   4.828   6.513   0.350
10510SOL    HW232430   4.916   6.628   0.426
10511SOL     OW32431   2.832   1.599   1.703
10511SOL    HW132432   2.928   1.578   1.688
10511SOL    HW232433   2.822   1.696   1.725
10512SOL     OW32434   3.955   6.640   5.889
10512SOL    HW132435   3.931   6.613   5.796
10512SOL    HW232436   3.884   6.701   5.924
10513SOL     OW32437   6.579   2.755   3.278
10513SOL    HW132438   6.566   2.678   3.216
10513SOL    HW232439   6.640   2.822   3.236
10514SOL     OW32440   1.492   1.873   1.928
10514SOL    HW132441   1.418   1.913   1.874
10514SOL    HW232442   1.575   1.867   1.871
10515SOL     OW32443   2.263   2.937   3.911
10515SOL    HW132444   2.274   3.034   3.889
10515SOL    HW232445   2.238   2.928   4.007
10516SOL     OW32446   2.603   1.748   0.276
10516SOL    HW132447   2.544   1.742   0.196
10516SOL    HW232448   2.546   1.754   0.358
10517SOL     OW32449   1.332   4.440   1.064
10517SOL    HW132450   1.358   4.343   1.063
10517SOL    HW232451   1.374   4.485   0.985
10518SOL     OW32452   0.027   5.929   1.930
10518SOL    HW132453   0.089   5.856   1.900
10518SOL    HW232454   7.008   5.905   2.019
10519SOL     OW32455   2.691   4.951   0.838
10519SOL    HW132456   2.765   4.910   0.785
10519SOL    HW232457   2.705   4.933   0.935
10520SOL     OW32458   6.741   1.895   6.274
10520SOL    HW132459   6.703   1.890   6.366
10520SOL    HW232460   6.819   1.833   6.267
10521SOL     OW32461   6.431   5.345   1.529
10521SOL    HW132462   6.464   5.403   1.603
10521SOL    HW232463   6.417   5.400   1.447
10522SOL     OW32464   0.468   2.612   2.933
10522SOL    HW132465   0.413   2.529   2.943
10522SOL    HW232466   0.456   2.669   3.014
10523SOL     OW32467   0.560   4.291   2.727
10523SOL    HW132468   0.579   4.379   2.684
10523SOL    HW232469   0.603   4.288   2.818
10524SOL     OW32470   0.646   5.388   4.036
10524SOL    HW132471   0.674   5.391   3.940
10524SOL    HW232472   0.626   5.481   4.067
10525SOL     OW32473   3.764   6.807   5.380
10525SOL    HW132474   3.733   6.884   5.323
10525SOL    HW232475   3.851   6.831   5.423
10526SOL     OW32476   0.539   6.412   1.852
10526SOL    HW132477   0.637   6.430   1.859
10526SOL    HW232478   0.502   6.397   1.944
10527SOL     OW32479   0.814   0.326   6.025
10527SOL    HW132480   0.796   0.404   6.084
10527SOL    HW232481   0.895   0.277   6.058
10528SOL     OW32482   0.955   4.403   6.437
10528SOL    HW132483   0.881   4.427   6.499
10528SOL    HW232484   0.933   4.433   6.345
10529SOL     OW32485   1.905   5.572   5.104
10529SOL    HW132486   1.818   5.522   5.106
10529SOL    HW232487   1.890   5.666   5.134
10530SOL     OW32488   1.195   6.326   6.150
10530SOL    HW132489   1.144   6.405   6.115
10530SOL    HW232490   1.130   6.255   6.178
10531SOL     OW32491   3.012   2.177   4.471
10531SOL    HW132492   2.990   2.206   4.378
10531SOL    HW232493   2.952   2.225   4.536
10532SOL     OW32494   6.830   6.711   6.676
10532SOL    HW132495   6.869   6.802   6.665
10532SOL    HW232496   6.828   6.687   6.773
10533SOL     OW32497   3.267   6.602   4.304
10533SOL    HW132498   3.304   6.509   4.305
10533SOL    HW232499   3.255   6.633   4.398
10534SOL     OW32500   6.940   5.539   1.970
10534SOL    HW132501   6.893   5.620   1.935
10534SOL    HW232502   6.921   5.529   2.068
10535SOL     OW32503   1.403   1.357   2.184
10535SOL    HW132504   1.380   1.350   2.087
10535SOL    HW232505   1.492   1.402   2.193
10536SOL     OW32506   4.495   6.903   3.979
10536SOL    HW132507   4.585   6.896   3.935
10536SOL    HW232508   4.443   6.977   3.937
10537SOL     OW32509   4.998   6.146   3.948
10537SOL    HW132510   4.985   6.220   3.883
10537SOL    HW232511   5.047   6.071   3.904
10538SOL     OW32512   5.958   4.260   2.039
10538SOL    HW132513   5.896   4.182   2.041
10538SOL    HW232514   5.933   4.325   2.110
10539SOL     OW32515   5.739   5.581   1.502
10539SOL    HW132516   5.703   5.649   1.438
10539SOL    HW232517   5.824   5.615   1.543
10540SOL     OW32518   2.046   4.042   6.007
10540SOL    HW132519   2.051   3.976   6.082
10540SOL    HW232520   2.130   4.097   6.005
10541SOL     OW32521   4.033   3.094   3.800
10541SOL    HW132522   4.008   3.123   3.708
10541SOL    HW232523   4.084   3.008   3.795
10542SOL     OW32524   6.521   0.096   5.025
10542SOL    HW132525   6.515   7.016   5.040
10542SOL    HW232526   6.500   0.143   5.111
10543SOL     OW32527   0.834   1.968   4.452
10543SOL    HW132528   0.813   2.066   4.451
10543SOL    HW232529   0.836   1.936   4.547
10544SOL     OW32530   2.219   6.148   3.244
10544SOL    HW132531   2.296   6.165   3.182
10544SOL    HW232532   2.136   6.186   3.204
10545SOL     OW32533   1.455   2.294   1.423
10545SOL    HW132534   1.355   2.293   1.426
10545SOL    HW232535   1.487   2.383   1.390
10546SOL     OW32536   3.781   6.311   1.427
10546SOL    HW132537   3.774   6.361   1.341
10546SOL    HW232538   3.877   6.300   1.451
10547SOL     OW32539   4.679   1.445   3.874
10547SOL    HW132540   4.718   1.511   3.938
10547SOL    HW232541   4.671   1.356   3.920
10548SOL     OW32542   0.750   3.986   3.810
10548SOL    HW132543   0.662   3.997   3.855
10548SOL    HW232544   0.822   3.979   3.880
10549SOL     OW32545   0.452   1.251   0.872
10549SOL    HW132546   0.545   1.278   0.846
10549SOL    HW232547   0.447   1.152   0.881
10550SOL     OW32548   4.289   6.892   3.479
10550SOL    HW132549   4.311   6.929   3.388
10550SOL    HW232550   4.271   6.794   3.472
10551SOL     OW32551   2.175   1.998   6.193
10551SOL    HW132552   2.099   1.932   6.192
10551SOL    HW232553   2.250   1.960   6.247
10552SOL     OW32554   2.552   0.729   4.931
10552SOL    HW132555   2.585   0.820   4.958
10552SOL    HW232556   2.539   0.673   5.012
10553SOL     OW32557   0.092   4.178   0.870
10553SOL    HW132558   0.030   4.173   0.948
10553SOL    HW232559   0.072   4.260   0.816
10554SOL     OW32560   5.316   5.400   2.819
10554SOL    HW132561   5.394   5.462   2.821
10554SOL    HW232562   5.272   5.403   2.729
10555SOL     OW32563   2.773   2.367   0.940
10555SOL    HW132564   2.812   2.322   1.019
10555SOL    HW232565   2.839   2.365   0.864
10556SOL     OW32566   3.104   1.175   3.899
10556SOL    HW132567   3.108   1.096   3.961
10556SOL    HW232568   3.130   1.147   3.807
10557SOL     OW32569   1.560   3.124   3.959
10557SOL    HW132570   1.532   3.199   3.900
10557SOL    HW232571   1.602   3.161   4.042
10558SOL     OW32572   3.530   5.833   6.027
10558SOL    HW132573   3.626   5.849   6.051
10558SOL    HW232574   3.514   5.735   6.015
10559SOL     OW32575   4.129   0.709   1.285
10559SOL    HW132576   4.155   0.726   1.380
10559SOL    HW232577   4.087   0.792   1.247
10560SOL     OW32578   4.218   6.270   2.439
10560SOL    HW132579   4.122   6.267   2.410
10560SOL    HW232580   4.265   6.188   2.407
10561SOL     OW32581   3.610   4.292   1.676
10561SOL    HW132582   3.558   4.210   1.653
10561SOL    HW232583   3.661   4.278   1.761
10562SOL     OW32584   4.331   5.959   0.279
10562SOL    HW132585   4.263   5.887   0.295
10562SOL    HW232586   4.315   6.000   0.189
10563SOL     OW32587   0.885   0.806   1.315
10563SOL    HW132588   0.895   0.710   1.339
10563SOL    HW232589   0.803   0.819   1.259
10564SOL     OW32590   6.206   6.476   3.967
10564SOL    HW132591   6.202   6.376   3.965
10564SOL    HW232592   6.239   6.507   4.056
10565SOL     OW32593   6.771   6.377   5.524
10565SOL    HW132594   6.685   6.337   5.555
10565SOL    HW232595   6.828   6.401   5.603
10566SOL     OW32596   3.191   2.024   6.733
10566SOL    HW132597   3.222   2.118   6.722
10566SOL    HW232598   3.219   1.970   6.653
10567SOL     OW32599   2.317   2.922   5.802
10567SOL    HW132600   2.243   2.892   5.741
10567SOL    HW232601   2.286   3.001   5.855
10568SOL     OW32602   6.069   2.626   0.223
10568SOL    HW132603   5.975   2.637   0.257
10568SOL    HW232604   6.094   2.530   0.226
10569SOL     OW32605   5.362   0.465   1.589
10569SOL    HW132606   5.337   0.426   1.501
10569SOL    HW232607   5.419   0.399   1.639
10570SOL     OW32608   1.807   4.791   3.469
10570SOL    HW132609   1.893   4.816   3.424
10570SOL    HW232610   1.772   4.869   3.520
10571SOL     OW32611   6.910   3.912   5.104
10571SOL    HW132612   6.936   3.947   5.194
10571SOL    HW232613   6.955   3.965   5.033
10572SOL     OW32614   0.073   5.023   2.388
10572SOL    HW132615   0.127   4.940   2.377
10572SOL    HW232616   0.085   5.058   2.481
10573SOL     OW32617   5.058   0.599   5.111
10573SOL    HW132618   5.058   0.545   5.027
10573SOL    HW232619   5.031   0.541   5.188
10574SOL     OW32620   6.701   1.406   3.828
10574SOL    HW132621   6.653   1.489   3.856
10574SOL    HW232622   6.797   1.413   3.854
10575SOL     OW32623   6.040   1.326   3.908
10575SOL    HW132624   6.108   1.253   3.904
10575SOL    HW232625   5.961   1.300   3.852
10576SOL     OW32626   1.527   5.360   2.787
10576SOL    HW132627   1.446   5.390   2.737
10576SOL    HW232628   1.539   5.261   2.775
10577SOL     OW32629   2.265   4.714   0.552
10577SOL    HW132630   2.220   4.752   0.633
10577SOL    HW232631   2.364   4.715   0.566
10578SOL     OW32632   4.718   0.834   3.355
10578SOL    HW132633   4.654   0.910   3.343
10578SOL    HW232634   4.679   0.751   3.314
10579SOL     OW32635   3.450   2.955   1.492
10579SOL    HW132636   3.455   2.855   1.489
10579SOL    HW232637   3.358   2.983   1.519
10580SOL     OW32638   6.544   6.198   6.466
10580SOL    HW132639   6.520   6.216   6.370
10580SOL    HW232640   6.494   6.262   6.524
10581SOL     OW32641   5.300   0.151   2.817
10581SOL    HW132642   5.359   0.122   2.892
10581SOL    HW232643   5.248   0.072   2.784
10582SOL     OW32644   5.134   4.625   6.229
10582SOL    HW132645   5.116   4.691   6.303
10582SOL    HW232646   5.087   4.657   6.146
10583SOL     OW32647   4.461   0.125   4.443
10583SOL    HW132648   4.361   0.126   4.450
10583SOL    HW232649   4.488   0.065   4.368
10584SOL     OW32650   6.624   0.020   6.648
10584SOL    HW132651   6.591   0.070   6.728
10584SOL    HW232652   6.724   0.008   6.654
10585SOL     OW32653   2.017   2.137   5.776
10585SOL    HW132654   2.068   2.189   5.708
10585SOL    HW232655   2.055   2.154   5.867
10586SOL     OW32656   5.011   4.953   5.539
10586SOL    HW132657   5.039   4.976   5.632
10586SOL    HW232658   4.962   4.866   5.539
10587SOL     OW32659   6.707   5.518   6.892
10587SOL    HW132660   6.714   5.421   6.916
10587SOL    HW232661   6.685   5.571   6.973
10588SOL     OW32662   2.024   1.840   5.167
10588SOL    HW132663   1.976   1.887   5.241
10588SOL    HW232664   1.962   1.826   5.090
10589SOL     OW32665   5.273   0.136   4.455
10589SOL    HW132666   5.316   0.046   4.444
10589SOL    HW232667   5.277   0.186   4.369
10590SOL     OW32668   0.027   6.678   1.780
10590SOL    HW132669   0.065   6.658   1.690
10590SOL    HW232670   6.996   6.599   1.814
10591SOL     OW32671   2.140   1.970   1.058
10591SOL    HW132672   2.054   1.933   1.093
10591SOL    HW232673   2.177   1.908   0.989
10592SOL     OW32674   5.826   2.806   4.567
10592SOL    HW132675   5.810   2.712   4.535
10592SOL    HW232676   5.750   2.864   4.539
10593SOL     OW32677   1.814   6.276   0.424
10593SOL    HW132678   1.753   6.263   0.502
10593SOL    HW232679   1.767   6.253   0.339
10594SOL     OW32680   4.164   1.824   2.922
10594SOL    HW132681   4.181   1.920   2.900
10594SOL    HW232682   4.198   1.804   3.014
10595SOL     OW32683   6.334   6.970   6.937
10595SOL    HW132684   6.395   6.890   6.933
10595SOL    HW232685   6.247   6.948   6.894
10596SOL     OW32686   5.030   0.550   6.693
10596SOL    HW132687   5.074   0.538   6.605
10596SOL    HW232688   5.087   0.607   6.752
10597SOL     OW32689   2.064   0.617   5.312
10597SOL    HW132690   2.104   0.698   5.268
10597SOL    HW232691   1.967   0.611   5.288
10598SOL     OW32692   2.765   2.431   6.636
10598SOL    HW132693   2.837   2.501   6.632
10598SOL    HW232694   2.679   2.470   6.604
10599SOL     OW32695   6.347   3.656   6.470
10599SOL    HW132696   6.291   3.737   6.452
10599SOL    HW232697   6.407   3.674   6.548
10600SOL     OW32698   3.861   1.986   1.076
10600SOL    HW132699   3.795   1.991   1.151
10600SOL    HW232700   3.944   1.940   1.109
10601SOL     OW32701   1.303   4.808   5.445
10601SOL    HW132702   1.307   4.829   5.543
10601SOL    HW232703   1.394   4.780   5.414
10602SOL     OW32704   1.135   1.529   0.985
10602SOL    HW132705   1.069   1.514   1.058
10602SOL    HW232706   1.151   1.444   0.936
10603SOL     OW32707   5.008   6.912   3.364
10603SOL    HW132708   5.018   6.816   3.336
10603SOL    HW232709   5.076   6.933   3.435
10604SOL     OW32710   0.295   5.728   4.965
10604SOL    HW132711   0.354   5.800   5.002
10604SOL    HW232712   0.283   5.742   4.866
10605SOL     OW32713   1.754   0.008   0.023
10605SOL    HW132714   1.770   6.933   7.013
10605SOL    HW232715   1.784   0.071   6.971
10606SOL     OW32716   6.642   1.313   1.700
10606SOL    HW132717   6.643   1.255   1.619
10606SOL    HW232718   6.650   1.257   1.782
10607SOL     OW32719   3.988   4.534   0.268
10607SOL    HW132720   3.927   4.557   0.193
10607SOL    HW232721   3.946   4.465   0.326
10608SOL     OW32722   0.170   3.309   3.397
10608SOL    HW132723   0.091   3.367   3.412
10608SOL    HW232724   0.150   3.243   3.324
10609SOL     OW32725   2.467   0.026   6.849
10609SOL    HW132726   2.482   0.078   6.766
10609SOL    HW232727   2.389   6.983   6.836
10610SOL     OW32728   0.112   1.800   4.442
10610SOL    HW132729   0.061   1.772   4.360
10610SOL    HW232730   0.102   1.730   4.512
10611SOL     OW32731   2.546   5.087   6.099
10611SOL    HW132732   2.627   5.040   6.065
10611SOL    HW232733   2.574   5.164   6.158
10612SOL     OW32734   4.940   2.323   4.229
10612SOL    HW132735   4.882   2.325   4.311
10612SOL    HW232736   4.911   2.247   4.170
10613SOL     OW32737   6.495   5.956   4.859
10613SOL    HW132738   6.399   5.963   4.884
10613SOL    HW232739   6.506   5.976   4.762
10614SOL     OW32740   5.279   1.228   4.278
10614SOL    HW132741   5.310   1.319   4.303
10614SOL    HW232742   5.351   1.180   4.227
10615SOL     OW32743   3.408   0.762   5.594
10615SOL    HW132744   3.459   0.843   5.621
10615SOL    HW232745   3.471   0.684   5.589
10616SOL     OW32746   3.009   6.358   6.479
10616SOL    HW132747   2.919   6.381   6.515
10616SOL    HW232748   3.054   6.294   6.541
10617SOL     OW32749   2.338   4.597   1.595
10617SOL    HW132750   2.379   4.584   1.686
10617SOL    HW232751   2.362   4.520   1.536
10618SOL     OW32752   0.837   5.196   5.697
10618SOL    HW132753   0.764   5.140   5.736
10618SOL    HW232754   0.900   5.225   5.770
10619SOL     OW32755   0.753   2.744   3.348
10619SOL    HW132756   0.765   2.709   3.255
10619SOL    HW232757   0.798   2.834   3.355
10620SOL     OW32758   1.102   6.834   5.312
10620SOL    HW132759   1.016   6.855   5.265
10620SOL    HW232760   1.151   6.762   5.261
10621SOL     OW32761   0.328   4.479   1.840
10621SOL    HW132762   0.314   4.380   1.846
10621SOL    HW232763   0.304   4.521   1.928
10622SOL     OW32764   4.598   2.231   1.802
10622SOL    HW132765   4.665   2.190   1.740
10622SOL    HW232766   4.612   2.330   1.804
10623SOL     OW32767   6.525   5.694   5.466
10623SOL    HW132768   6.528   5.626   5.539
10623SOL    HW232769   6.566   5.657   5.384
10624SOL     OW32770   0.408   2.559   5.518
10624SOL    HW132771   0.420   2.654   5.544
10624SOL    HW232772   0.370   2.554   5.425
10625SOL     OW32773   0.383   4.057   1.444
10625SOL    HW132774   0.302   4.107   1.413
10625SOL    HW232775   0.457   4.121   1.464
10626SOL     OW32776   3.038   2.546   1.042
10626SOL    HW132777   3.107   2.607   1.003
10626SOL    HW232778   2.951   2.595   1.050
10627SOL     OW32779   6.360   0.912   6.572
10627SOL    HW132780   6.280   0.906   6.631
10627SOL    HW232781   6.346   0.984   6.504
10628SOL     OW32782   4.524   0.052   1.333
10628SOL    HW132783   4.602   0.114   1.334
10628SOL    HW232784   4.547   6.988   1.383
10629SOL     OW32785   2.986   4.943   4.711
10629SOL    HW132786   2.974   4.878   4.785
10629SOL    HW232787   2.926   5.022   4.725
10630SOL     OW32788   5.546   1.368   2.420
10630SOL    HW132789   5.604   1.286   2.422
10630SOL    HW232790   5.525   1.397   2.513
10631SOL     OW32791   3.799   4.483   5.408
10631SOL    HW132792   3.790   4.483   5.508
10631SOL    HW232793   3.733   4.547   5.369
10632SOL     OW32794   4.987   6.302   3.733
10632SOL    HW132795   5.068   6.250   3.706
10632SOL    HW232796   4.905   6.248   3.717
10633SOL     OW32797   2.564   2.685   1.247
10633SOL    HW132798   2.642   2.728   1.200
10633SOL    HW232799   2.511   2.631   1.181
10634SOL     OW32800   1.694   5.505   0.392
10634SOL    HW132801   1.732   5.585   0.437
10634SOL    HW232802   1.621   5.466   0.449
10635SOL     OW32803   2.142   3.531   6.521
10635SOL    HW132804   2.108   3.618   6.560
10635SOL    HW232805   2.064   3.473   6.499
10636SOL     OW32806   6.925   2.605   1.662
10636SOL    HW132807   6.833   2.622   1.629
10636SOL    HW232808   6.925   2.522   1.718
10637SOL     OW32809   1.369   5.111   6.329
10637SOL    HW132810   1.409   5.029   6.289
10637SOL    HW232811   1.353   5.179   6.257
10638SOL     OW32812   5.138   6.261   2.908
10638SOL    HW132813   5.044   6.254   2.942
10638SOL    HW232814   5.201   6.267   2.986
10639SOL     OW32815   1.821   3.626   2.161
10639SOL    HW132816   1.765   3.590   2.236
10639SOL    HW232817   1.847   3.721   2.181
10640SOL     OW32818   4.766   0.531   3.725
10640SOL    HW132819   4.761   0.444   3.774
10640SOL    HW232820   4.739   0.605   3.786
10641SOL     OW32821   2.144   1.666   3.230
10641SOL    HW132822   2.192   1.596   3.282
10641SOL    HW232823   2.210   1.734   3.197
10642SOL     OW32824   6.300   1.759   0.601
10642SOL    HW132825   6.316   1.689   0.532
10642SOL    HW232826   6.383   1.770   0.657
10643SOL     OW32827   2.246   6.322   5.526
10643SOL    HW132828   2.231   6.232   5.567
10643SOL    HW232829   2.344   6.339   5.518
10644SOL     OW32830   5.345   3.177   1.535
10644SOL    HW132831   5.367   3.139   1.445
10644SOL    HW232832   5.423   3.165   1.596
10645SOL     OW32833   2.277   2.744   4.127
10645SOL    HW132834   2.293   2.795   4.211
10645SOL    HW232835   2.186   2.764   4.092
10646SOL     OW32836   6.846   0.535   6.246
10646SOL    HW132837   6.817   0.613   6.301
10646SOL    HW232838   6.839   0.452   6.301
10647SOL     OW32839   3.441   5.485   5.042
10647SOL    HW132840   3.453   5.416   4.970
10647SOL    HW232841   3.344   5.499   5.059
10648SOL     OW32842   5.862   5.318   6.014
10648SOL    HW132843   5.868   5.257   5.935
10648SOL    HW232844   5.779   5.297   6.066
10649SOL     OW32845   0.631   3.496   2.955
10649SOL    HW132846   0.677   3.407   2.954
10649SOL    HW232847   0.535   3.483   2.980
10650SOL     OW32848   0.552   0.687   4.270
10650SOL    HW132849   0.468   0.693   4.324
10650SOL    HW232850   0.529   0.663   4.176
10651SOL     OW32851   6.314   5.618   5.803
10651SOL    HW132852   6.303   5.639   5.900
10651SOL    HW232853   6.225   5.623   5.758
10652SOL     OW32854   2.097   0.054   6.610
10652SOL    HW132855   2.048   0.045   6.524
10652SOL    HW232856   2.151   6.991   6.627
10653SOL     OW32857   3.987   6.077   5.182
10653SOL    HW132858   4.036   6.006   5.234
10653SOL    HW232859   3.952   6.038   5.097
10654SOL     OW32860   4.957   0.508   6.231
10654SOL    HW132861   4.895   0.474   6.302
10654SOL    HW232862   4.972   0.606   6.245
10655SOL     OW32863   1.729   4.815   0.152
10655SOL    HW132864   1.728   4.755   0.072
10655SOL    HW232865   1.747   4.909   0.123
10656SOL     OW32866   6.856   1.078   2.306
10656SOL    HW132867   6.893   1.168   2.330
10656SOL    HW232868   6.925   1.026   2.255
10657SOL     OW32869   5.460   0.599   4.617
10657SOL    HW132870   5.420   0.671   4.674
10657SOL    HW232871   5.559   0.609   4.615
10658SOL     OW32872   6.057   4.109   4.906
10658SOL    HW132873   6.054   4.017   4.867
10658SOL    HW232874   6.150   4.129   4.936
10659SOL     OW32875   1.080   5.174   0.547
10659SOL    HW132876   0.985   5.143   0.541
10659SOL    HW232877   1.132   5.135   0.472
10660SOL     OW32878   6.050   3.451   5.997
10660SOL    HW132879   5.953   3.437   5.974
10660SOL    HW232880   6.067   3.549   6.008
10661SOL     OW32881   1.531   6.529   0.907
10661SOL    HW132882   1.528   6.458   0.836
10661SOL    HW232883   1.475   6.607   0.878
10662SOL     OW32884   4.434   0.391   2.285
10662SOL    HW132885   4.390   0.371   2.373
10662SOL    HW232886   4.505   0.324   2.267
10663SOL     OW32887   0.592   0.890   2.693
10663SOL    HW132888   0.634   0.866   2.606
10663SOL    HW232889   0.534   0.814   2.724
10664SOL     OW32890   6.194   4.411   5.414
10664SOL    HW132891   6.272   4.439   5.470
10664SOL    HW232892   6.209   4.441   5.320
10665SOL     OW32893   1.471   1.752   0.163
10665SOL    HW132894   1.433   1.819   0.225
10665SOL    HW232895   1.400   1.720   0.099
10666SOL     OW32896   3.116   4.111   1.955
10666SOL    HW132897   3.120   4.200   2.000
10666SOL    HW232898   3.053   4.115   1.878
10667SOL     OW32899   4.507   2.527   3.232
10667SOL    HW132900   4.566   2.459   3.188
10667SOL    HW232901   4.430   2.480   3.275
10668SOL     OW32902   2.891   1.450   4.945
10668SOL    HW132903   2.898   1.514   4.869
10668SOL    HW232904   2.896   1.356   4.911
10669SOL     OW32905   5.928   0.746   1.284
10669SOL    HW132906   5.944   0.844   1.278
10669SOL    HW232907   5.882   0.715   1.201
10670SOL     OW32908   5.647   4.570   4.712
10670SOL    HW132909   5.638   4.471   4.722
10670SOL    HW232910   5.717   4.590   4.643
10671SOL     OW32911   1.971   2.161   4.522
10671SOL    HW132912   2.050   2.195   4.471
10671SOL    HW232913   1.887   2.195   4.479
10672SOL     OW32914   6.712   4.396   1.807
10672SOL    HW132915   6.808   4.366   1.808
10672SOL    HW232916   6.653   4.318   1.828
10673SOL     OW32917   0.561   1.136   0.011
10673SOL    HW132918   0.524   1.227   0.031
10673SOL    HW232919   0.553   1.118   6.932
10674SOL     OW32920   4.024   3.610   4.059
10674SOL    HW132921   4.029   3.515   4.027
10674SOL    HW232922   4.031   3.672   3.981
10675SOL     OW32923   1.848   0.109   6.810
10675SOL    HW132924   1.815   0.175   6.744
10675SOL    HW232925   1.935   0.070   6.778
10676SOL     OW32926   0.445   5.867   5.168
10676SOL    HW132927   0.399   5.948   5.205
10676SOL    HW232928   0.544   5.885   5.162
10677SOL     OW32929   1.426   0.656   1.803
10677SOL    HW132930   1.375   0.726   1.853
10677SOL    HW232931   1.524   0.666   1.823
10678SOL     OW32932   4.982   5.506   4.380
10678SOL    HW132933   4.897   5.558   4.378
10678SOL    HW232934   5.054   5.562   4.421
10679SOL     OW32935   4.123   5.631   6.759
10679SOL    HW132936   4.104   5.710   6.700
10679SOL    HW232937   4.128   5.661   6.854
10680SOL     OW32938   3.715   2.136   4.278
10680SOL    HW132939   3.753   2.095   4.196
10680SOL    HW232940   3.616   2.119   4.281
10681SOL     OW32941   0.042   3.879   0.683
10681SOL    HW132942   0.074   3.937   0.608
10681SOL    HW232943   0.101   3.893   0.763
10682SOL     OW32944   0.195   1.834   5.449
10682SOL    HW132945   0.145   1.898   5.392
10682SOL    HW232946   0.274   1.880   5.490
10683SOL     OW32947   4.913   1.128   3.873
10683SOL    HW132948   5.002   1.161   3.905
10683SOL    HW232949   4.918   1.107   3.775
10684SOL     OW32950   4.945   4.832   2.927
10684SOL    HW132951   4.857   4.787   2.908
10684SOL    HW232952   5.011   4.764   2.958
10685SOL     OW32953   0.718   5.924   1.570
10685SOL    HW132954   0.700   5.846   1.509
10685SOL    HW232955   0.657   5.917   1.649
10686SOL     OW32956   1.210   3.796   5.898
10686SOL    HW132957   1.280   3.739   5.942
10686SOL    HW232958   1.254   3.855   5.830
10687SOL     OW32959   5.955   5.394   4.370
10687SOL    HW132960   5.914   5.464   4.311
10687SOL    HW232961   6.028   5.347   4.320
10688SOL     OW32962   5.741   3.419   2.956
10688SOL    HW132963   5.829   3.399   2.914
10688SOL    HW232964   5.706   3.506   2.920
10689SOL     OW32965   0.130   0.087   3.244
10689SOL    HW132966   0.064   0.161   3.257
10689SOL    HW232967   0.220   0.126   3.224
10690SOL     OW32968   0.382   5.652   3.990
10690SOL    HW132969   0.326   5.576   3.956
10690SOL    HW232970   0.453   5.674   3.923
10691SOL     OW32971   1.515   1.666   2.613
10691SOL    HW132972   1.506   1.627   2.705
10691SOL    HW232973   1.610   1.694   2.598
10692SOL     OW32974   2.384   6.862   4.057
10692SOL    HW132975   2.296   6.904   4.079
10692SOL    HW232976   2.390   6.848   3.958
10693SOL     OW32977   1.406   6.062   1.038
10693SOL    HW132978   1.496   6.099   1.060
10693SOL    HW232979   1.353   6.131   0.988
10694SOL     OW32980   5.266   6.448   0.080
10694SOL    HW132981   5.337   6.519   0.073
10694SOL    HW232982   5.222   6.437   7.010
10695SOL     OW32983   0.879   2.392   2.737
10695SOL    HW132984   0.875   2.405   2.836
10695SOL    HW232985   0.973   2.369   2.710
10696SOL     OW32986   6.829   4.614   3.476
10696SOL    HW132987   6.766   4.563   3.416
10696SOL    HW232988   6.921   4.575   3.468
10697SOL     OW32989   0.444   6.609   5.421
10697SOL    HW132990   0.366   6.567   5.468
10697SOL    HW232991   0.512   6.539   5.401
10698SOL     OW32992   5.502   4.604   6.880
10698SOL    HW132993   5.424   4.600   6.816
10698SOL    HW232994   5.551   4.517   6.878
10699SOL     OW32995   3.952   4.398   1.699
10699SOL    HW132996   3.952   4.300   1.721
10699SOL    HW232997   3.910   4.411   1.609
10700SOL     OW32998   5.721   6.554   0.769
10700SOL    HW132999   5.805   6.604   0.752
10700SOL    HW233000   5.672   6.596   0.846
10701SOL     OW33001   2.590   6.730   6.539
10701SOL    HW133002   2.609   6.809   6.598
10701SOL    HW233003   2.509   6.682   6.573
10702SOL     OW33004   5.038   3.049   1.270
10702SOL    HW133005   4.985   3.041   1.186
10702SOL    HW233006   5.128   3.006   1.258
10703SOL     OW33007   2.731   3.033   5.277
10703SOL    HW133008   2.651   3.012   5.222
10703SOL    HW233009   2.802   3.073   5.219
10704SOL     OW33010   5.640   5.575   2.287
10704SOL    HW133011   5.609   5.482   2.309
10704SOL    HW233012   5.667   5.580   2.191
10705SOL     OW33013   6.155   4.916   1.908
10705SOL    HW133014   6.099   4.972   1.847
10705SOL    HW233015   6.133   4.819   1.894
10706SOL     OW33016   4.443   0.696   2.448
10706SOL    HW133017   4.383   0.618   2.469
10706SOL    HW233018   4.538   0.666   2.443
10707SOL     OW33019   7.005   0.064   4.468
10707SOL    HW133020   7.013   0.154   4.425
10707SOL    HW233021   0.031   0.065   4.557
10708SOL     OW33022   3.873   1.191   1.655
10708SOL    HW133023   3.966   1.181   1.688
10708SOL    HW233024   3.838   1.281   1.680
10709SOL     OW33025   5.377   5.154   5.541
10709SOL    HW133026   5.380   5.203   5.453
10709SOL    HW233027   5.383   5.056   5.524
10710SOL     OW33028   6.862   0.517   4.286
10710SOL    HW133029   6.874   0.521   4.187
10710SOL    HW233030   6.924   0.583   4.330
10711SOL     OW33031   1.931   6.708   4.635
10711SOL    HW133032   1.926   6.651   4.716
10711SOL    HW233033   1.906   6.802   4.659
10712SOL     OW33034   2.962   0.606   1.446
10712SOL    HW133035   2.945   0.694   1.491
10712SOL    HW233036   2.882   0.547   1.457
10713SOL     OW33037   0.416   3.491   2.380
10713SOL    HW133038   0.384   3.417   2.321
10713SOL    HW233039   0.391   3.579   2.339
10714SOL     OW33040   5.678   3.526   5.071
10714SOL    HW133041   5.743   3.567   5.135
10714SOL    HW233042   5.588   3.567   5.083
10715SOL     OW33043   5.474   0.729   2.940
10715SOL    HW133044   5.421   0.658   2.892
10715SOL    HW233045   5.426   0.755   3.024
10716SOL     OW33046   5.851   2.158   3.602
10716SOL    HW133047   5.818   2.139   3.695
10716SOL    HW233048   5.855   2.073   3.550
10717SOL     OW33049   1.079   2.157   1.662
10717SOL    HW133050   1.041   2.204   1.582
10717SOL    HW233051   1.018   2.081   1.687
10718SOL     OW33052   1.482   3.074   6.701
10718SOL    HW133053   1.475   3.073   6.601
10718SOL    HW233054   1.558   3.132   6.729
10719SOL     OW33055   6.658   5.749   2.692
10719SOL    HW133056   6.729   5.760   2.762
10719SOL    HW233057   6.580   5.808   2.715
10720SOL     OW33058   0.738   4.274   4.564
10720SOL    HW133059   0.735   4.175   4.549
10720SOL    HW233060   0.650   4.304   4.603
10721SOL     OW33061   5.629   3.810   4.942
10721SOL    HW133062   5.726   3.809   4.966
10721SOL    HW233063   5.574   3.789   5.023
10722SOL     OW33064   0.790   5.123   6.965
10722SOL    HW133065   0.822   5.029   6.953
10722SOL    HW233066   0.690   5.124   6.966
10723SOL     OW33067   0.349   3.176   5.704
10723SOL    HW133068   0.282   3.236   5.661
10723SOL    HW233069   0.302   3.097   5.744
10724SOL     OW33070   5.948   1.267   6.720
10724SOL    HW133071   6.008   1.213   6.778
10724SOL    HW233072   5.869   1.213   6.693
10725SOL     OW33073   1.245   5.746   4.467
10725SOL    HW133074   1.147   5.762   4.478
10725SOL    HW233075   1.269   5.657   4.506
10726SOL     OW33076   5.584   0.202   5.328
10726SOL    HW133077   5.606   0.218   5.424
10726SOL    HW233078   5.665   0.171   5.280
10727SOL     OW33079   0.110   4.819   5.372
10727SOL    HW133080   0.085   4.891   5.307
10727SOL    HW233081   0.123   4.733   5.322
10728SOL     OW33082   0.071   5.805   6.740
10728SOL    HW133083   0.113   5.758   6.818
10728SOL    HW233084   0.135   5.874   6.705
10729SOL     OW33085   5.400   1.428   1.637
10729SOL    HW133086   5.371   1.447   1.543
10729SOL    HW233087   5.498   1.412   1.639
10730SOL     OW33088   2.344   0.577   1.421
10730SOL    HW133089   2.291   0.554   1.503
10730SOL    HW233090   2.318   0.516   1.346
10731SOL     OW33091   2.950   6.068   0.629
10731SOL    HW133092   2.877   6.126   0.667
10731SOL    HW233093   2.937   6.059   0.531
10732SOL     OW33094   6.087   5.158   4.232
10732SOL    HW133095   6.102   5.139   4.329
10732SOL    HW233096   6.026   5.088   4.194
10733SOL     OW33097   6.702   1.728   0.977
10733SOL    HW133098   6.770   1.797   1.002
10733SOL    HW233099   6.722   1.643   1.025
10734SOL     OW33100   1.113   0.694   0.209
10734SOL    HW133101   1.062   0.699   0.123
10734SOL    HW233102   1.058   0.645   0.277
10735SOL     OW33103   0.964   3.017   2.888
10735SOL    HW133104   0.991   3.058   2.975
10735SOL    HW233105   0.991   2.921   2.887
10736SOL     OW33106   1.551   0.281   2.861
10736SOL    HW133107   1.606   0.228   2.797
10736SOL    HW233108   1.490   0.343   2.811
10737SOL     OW33109   1.898   1.871   1.171
10737SOL    HW133110   1.850   1.946   1.215
10737SOL    HW233111   1.841   1.834   1.097
10738SOL     OW33112   2.600   0.232   3.499
10738SOL    HW133113   2.523   0.274   3.450
10738SOL    HW233114   2.680   0.291   3.490
10739SOL     OW33115   0.911   1.813   0.744
10739SOL    HW133116   0.990   1.765   0.706
10739SOL    HW233117   0.827   1.769   0.711
10740SOL     OW33118   0.014   4.093   4.936
10740SOL    HW133119   0.112   4.105   4.952
10740SOL    HW233120   6.992   4.182   4.916
10741SOL     OW33121   5.754   6.911   1.122
10741SOL    HW133122   5.665   6.954   1.141
10741SOL    HW233123   5.826   6.981   1.122
10742SOL     OW33124   5.181   0.891   0.809
10742SOL    HW133125   5.201   0.894   0.907
10742SOL    HW233126   5.149   0.982   0.779
10743SOL     OW33127   2.603   1.350   5.222
10743SOL    HW133128   2.517   1.399   5.231
10743SOL    HW233129   2.639   1.328   5.312
10744SOL     OW33130   3.592   1.596   0.847
10744SOL    HW133131   3.537   1.522   0.885
10744SOL    HW233132   3.540   1.681   0.848
10745SOL     OW33133   0.238   5.302   6.553
10745SOL    HW133134   0.323   5.269   6.593
10745SOL    HW233135   0.260   5.363   6.476
10746SOL     OW33136   1.816   4.349   1.151
10746SOL    HW133137   1.807   4.429   1.093
10746SOL    HW233138   1.735   4.291   1.141
10747SOL     OW33139   4.461   0.769   3.676
10747SOL    HW133140   4.449   0.670   3.688
10747SOL    HW233141   4.556   0.793   3.695
10748SOL     OW33142   4.958   1.273   1.140
10748SOL    HW133143   4.945   1.372   1.141
10748SOL    HW233144   4.946   1.239   1.047
10749SOL     OW33145   0.724   5.792   2.794
10749SOL    HW133146   0.679   5.728   2.857
10749SOL    HW233147   0.817   5.808   2.825
10750SOL     OW33148   4.568   5.918   5.249
10750SOL    HW133149   4.663   5.949   5.250
10750SOL    HW233150   4.508   5.997   5.237
10751SOL     OW33151   1.831   4.356   4.221
10751SOL    HW133152   1.832   4.256   4.233
10751SOL    HW233153   1.911   4.383   4.167
10752SOL     OW33154   6.024   3.794   6.500
10752SOL    HW133155   5.943   3.851   6.513
10752SOL    HW233156   6.015   3.741   6.415
10753SOL     OW33157   5.024   5.793   4.431
10753SOL    HW133158   5.061   5.826   4.518
10753SOL    HW233159   4.928   5.766   4.445
10754SOL     OW33160   0.813   1.490   3.160
10754SOL    HW133161   0.844   1.544   3.081
10754SOL    HW233162   0.780   1.551   3.231
10755SOL     OW33163   6.881   1.059   6.554
10755SOL    HW133164   6.928   1.097   6.634
10755SOL    HW233165   6.786   1.038   6.578
10756SOL     OW33166   6.924   4.769   0.094
10756SOL    HW133167   6.923   4.675   0.060
10756SOL    HW233168   6.995   4.821   0.048
10757SOL     OW33169   1.369   3.120   0.171
10757SOL    HW133170   1.374   3.087   0.266
10757SOL    HW233171   1.462   3.135   0.136
10758SOL     OW33172   0.684   0.095   3.888
10758SOL    HW133173   0.633   0.094   3.974
10758SOL    HW233174   0.775   0.135   3.904
10759SOL     OW33175   1.319   3.139   0.737
10759SOL    HW133176   1.342   3.209   0.804
10759SOL    HW233177   1.237   3.090   0.767
10760SOL     OW33178   6.342   1.787   2.159
10760SOL    HW133179   6.387   1.836   2.234
10760SOL    HW233180   6.330   1.849   2.081
10761SOL     OW33181   0.712   0.555   6.116
10761SOL    HW133182   0.630   0.527   6.167
10761SOL    HW233183   0.747   0.640   6.155
10762SOL     OW33184   4.170   1.763   4.695
10762SOL    HW133185   4.077   1.798   4.679
10762SOL    HW233186   4.231   1.839   4.716
10763SOL     OW33187   5.126   6.442   2.682
10763SOL    HW133188   5.155   6.364   2.737
10763SOL    HW233189   5.062   6.411   2.612
10764SOL     OW33190   5.433   2.628   5.981
10764SOL    HW133191   5.427   2.611   6.079
10764SOL    HW233192   5.436   2.727   5.965
10765SOL     OW33193   5.337   2.080   0.350
10765SOL    HW133194   5.379   1.991   0.364
10765SOL    HW233195   5.238   2.069   0.342
10766SOL     OW33196   4.884   3.690   0.506
10766SOL    HW133197   4.924   3.774   0.544
10766SOL    HW233198   4.945   3.614   0.523
10767SOL     OW33199   1.290   0.918   0.235
10767SOL    HW133200   1.344   0.905   0.318
10767SOL    HW233201   1.230   0.839   0.222
10768SOL     OW33202   4.636   4.218   1.674
10768SOL    HW133203   4.557   4.239   1.731
10768SOL    HW233204   4.680   4.135   1.709
10769SOL     OW33205   2.645   4.655   4.731
10769SOL    HW133206   2.647   4.638   4.632
10769SOL    HW233207   2.686   4.577   4.779
10770SOL     OW33208   5.603   0.687   4.999
10770SOL    HW133209   5.658   0.768   5.017
10770SOL    HW233210   5.523   0.711   4.946
10771SOL     OW33211   5.989   0.767   3.466
10771SOL    HW133212   6.018   0.741   3.558
10771SOL    HW233213   5.948   0.688   3.421
10772SOL     OW33214   6.583   6.498   4.343
10772SOL    HW133215   6.528   6.415   4.353
10772SOL    HW233216   6.633   6.515   4.428
10773SOL     OW33217   6.397   5.465   0.107
10773SOL    HW133218   6.410   5.399   0.181
10773SOL    HW233219   6.335   5.538   0.138
10774SOL     OW33220   2.151   1.475   0.374
10774SOL    HW133221   2.115   1.499   0.464
10774SOL    HW233222   2.102   1.526   0.303
10775SOL     OW33223   0.098   4.891   0.886
10775SOL    HW133224   0.018   4.933   0.844
10775SOL    HW233225   0.138   4.825   0.822
10776SOL     OW33226   0.236   0.960   6.605
10776SOL    HW133227   0.233   1.058   6.626
10776SOL    HW233228   0.321   0.921   6.642
10777SOL     OW33229   3.253   5.328   3.257
10777SOL    HW133230   3.317   5.329   3.180
10777SOL    HW233231   3.217   5.420   3.271
10778SOL     OW33232   5.838   0.424   4.440
10778SOL    HW133233   5.896   0.440   4.360
10778SOL    HW233234   5.842   0.503   4.501
10779SOL     OW33235   6.681   3.750   3.732
10779SOL    HW133236   6.678   3.752   3.632
10779SOL    HW233237   6.650   3.838   3.767
10780SOL     OW33238   1.938   0.679   3.947
10780SOL    HW133239   1.841   0.698   3.927
10780SOL    HW233240   1.995   0.727   3.881
10781SOL     OW33241   4.337   0.942   3.523
10781SOL    HW133242   4.392   0.872   3.568
10781SOL    HW233243   4.249   0.903   3.496
10782SOL     OW33244   5.533   1.808   1.816
10782SOL    HW133245   5.454   1.783   1.761
10782SOL    HW233246   5.602   1.736   1.812
10783SOL     OW33247   0.809   3.404   3.214
10783SOL    HW133248   0.847   3.355   3.135
10783SOL    HW233249   0.735   3.463   3.184
10784SOL     OW33250   3.870   6.663   4.245
10784SOL    HW133251   3.931   6.742   4.248
10784SOL    HW233252   3.785   6.688   4.199
10785SOL     OW33253   0.338   4.462   1.079
10785SOL    HW133254   0.380   4.375   1.105
10785SOL    HW233255   0.259   4.479   1.137
10786SOL     OW33256   5.821   4.570   3.336
10786SOL    HW133257   5.746   4.631   3.360
10786SOL    HW233258   5.897   4.625   3.300
10787SOL     OW33259   1.945   1.449   4.641
10787SOL    HW133260   1.980   1.510   4.570
10787SOL    HW233261   2.022   1.400   4.684
10788SOL     OW33262   1.923   4.300   6.232
10788SOL    HW133263   1.855   4.246   6.282
10788SOL    HW233264   2.013   4.256   6.241
10789SOL     OW33265   0.246   2.833   6.855
10789SOL    HW133266   0.289   2.911   6.899
10789SOL    HW233267   0.296   2.749   6.877
10790SOL     OW33268   1.342   0.434   1.694
10790SOL    HW133269   1.376   0.521   1.732
10790SOL    HW233270   1.377   0.358   1.748
10791SOL     OW33271   0.010   0.221   1.154
10791SOL    HW133272   6.942   0.185   1.121
10791SOL    HW233273   0.030   0.182   1.244
10792SOL     OW33274   3.254   4.090   4.026
10792SOL    HW133275   3.237   4.165   4.089
10792SOL    HW233276   3.167   4.048   3.999
10793SOL     OW33277   5.392   3.463   4.454
10793SOL    HW133278   5.344   3.436   4.538
10793SOL    HW233279   5.338   3.435   4.375
10794SOL     OW33280   2.967   3.785   3.668
10794SOL    HW133281   2.915   3.756   3.587
10794SOL    HW233282   3.018   3.869   3.646
10795SOL     OW33283   6.498   5.046   2.247
10795SOL    HW133284   6.491   5.139   2.284
10795SOL    HW233285   6.514   5.049   2.149
10796SOL     OW33286   5.486   0.165   6.574
10796SOL    HW133287   5.428   0.121   6.643
10796SOL    HW233288   5.502   0.101   6.499
10797SOL     OW33289   4.093   3.083   1.742
10797SOL    HW133290   4.062   3.177   1.748
10797SOL    HW233291   4.193   3.081   1.734
10798SOL     OW33292   3.179   0.237   0.561
10798SOL    HW133293   3.266   0.207   0.598
10798SOL    HW233294   3.159   0.329   0.593
10799SOL     OW33295   3.850   0.837   1.535
10799SOL    HW133296   3.769   0.896   1.532
10799SOL    HW233297   3.893   0.845   1.625
10800SOL     OW33298   0.430   6.954   6.440
10800SOL    HW133299   0.340   6.961   6.484
10800SOL    HW233300   0.440   6.863   6.399
10801SOL     OW33301   0.748   6.056   6.184
10801SOL    HW133302   0.677   6.110   6.228
10801SOL    HW233303   0.706   5.983   6.130
10802SOL     OW33304   1.109   0.873   2.976
10802SOL    HW133305   1.062   0.863   2.888
10802SOL    HW233306   1.205   0.896   2.960
10803SOL     OW33307   2.571   4.259   6.123
10803SOL    HW133308   2.500   4.198   6.087
10803SOL    HW233309   2.538   4.354   6.118
10804SOL     OW33310   5.264   3.368   2.146
10804SOL    HW133311   5.307   3.447   2.102
10804SOL    HW233312   5.189   3.400   2.204
10805SOL     OW33313   4.184   6.465   6.827
10805SOL    HW133314   4.154   6.389   6.769
10805SOL    HW233315   4.115   6.537   6.826
10806SOL     OW33316   3.939   4.019   5.765
10806SOL    HW133317   3.844   4.046   5.750
10806SOL    HW233318   3.992   4.036   5.681
10807SOL     OW33319   1.448   7.014   2.335
10807SOL    HW133320   1.518   0.033   2.395
10807SOL    HW233321   1.365   0.051   2.341
10808SOL     OW33322   0.485   2.757   5.734
10808SOL    HW133323   0.570   2.808   5.726
10808SOL    HW233324   0.492   2.692   5.809
10809SOL     OW33325   2.888   4.843   3.431
10809SOL    HW133326   2.968   4.899   3.455
10809SOL    HW233327   2.909   4.788   3.350
10810SOL     OW33328   1.332   0.022   3.989
10810SOL    HW133329   1.395   6.968   3.961
10810SOL    HW233330   1.359   0.055   4.079
10811SOL     OW33331   3.828   3.998   6.604
10811SOL    HW133332   3.856   4.063   6.674
10811SOL    HW233333   3.785   4.047   6.528
10812SOL     OW33334   0.378   3.879   6.921
10812SOL    HW133335   0.457   3.831   6.959
10812SOL    HW233336   0.297   3.823   6.932
10813SOL     OW33337   1.720   4.555   6.281
10813SOL    HW133338   1.638   4.506   6.313
10813SOL    HW233339   1.782   4.491   6.236
10814SOL     OW33340   1.254   6.986   6.434
10814SOL    HW133341   1.330   6.937   6.392
10814SOL    HW233342   1.168   6.939   6.412
10815SOL     OW33343   4.532   4.426   3.312
10815SOL    HW133344   4.451   4.479   3.285
10815SOL    HW233345   4.536   4.342   3.258
10816SOL     OW33346   2.934   3.238   2.401
10816SOL    HW133347   2.859   3.173   2.388
10816SOL    HW233348   3.018   3.201   2.363
10817SOL     OW33349   4.585   0.633   2.843
10817SOL    HW133350   4.601   0.731   2.828
10817SOL    HW233351   4.496   0.608   2.804
10818SOL     OW33352   4.437   4.614   5.462
10818SOL    HW133353   4.405   4.568   5.544
10818SOL    HW233354   4.416   4.712   5.468
10819SOL     OW33355   6.732   4.840   6.262
10819SOL    HW133356   6.778   4.814   6.177
10819SOL    HW233357   6.701   4.935   6.256
10820SOL     OW33358   6.828   5.466   3.823
10820SOL    HW133359   6.833   5.548   3.765
10820SOL    HW233360   6.920   5.436   3.847
10821SOL     OW33361   4.941   0.369   2.833
10821SOL    HW133362   5.037   0.352   2.857
10821SOL    HW233363   4.884   0.299   2.875
10822SOL     OW33364   6.716   2.652   3.033
10822SOL    HW133365   6.789   2.718   3.052
10822SOL    HW233366   6.665   2.681   2.953
10823SOL     OW33367   1.694   0.698   1.814
10823SOL    HW133368   1.689   0.684   1.913
10823SOL    HW233369   1.716   0.794   1.795
10824SOL     OW33370   6.808   1.255   3.005
10824SOL    HW133371   6.878   1.305   3.056
10824SOL    HW233372   6.723   1.307   3.003
10825SOL     OW33373   2.363   1.880   6.370
10825SOL    HW133374   2.377   1.956   6.433
10825SOL    HW233375   2.310   1.809   6.416
10826SOL     OW33376   1.294   2.836   3.633
10826SOL    HW133377   1.242   2.802   3.554
10826SOL    HW233378   1.230   2.864   3.705
10827SOL     OW33379   0.085   2.862   4.024
10827SOL    HW133380   0.184   2.874   4.012
10827SOL    HW233381   0.037   2.913   3.952
10828SOL     OW33382   1.227   4.056   0.921
10828SOL    HW133383   1.240   4.109   0.837
10828SOL    HW233384   1.244   3.959   0.901
10829SOL     OW33385   4.464   2.584   0.010
10829SOL    HW133386   4.416   2.621   6.950
10829SOL    HW233387   4.446   2.642   0.089
10830SOL     OW33388   5.338   1.686   2.915
10830SOL    HW133389   5.346   1.761   2.981
10830SOL    HW233390   5.407   1.616   2.935
10831SOL     OW33391   3.079   6.193   3.124
10831SOL    HW133392   3.095   6.098   3.100
10831SOL    HW233393   3.064   6.247   3.040
10832SOL     OW33394   1.013   2.884   6.476
10832SOL    HW133395   1.097   2.935   6.492
10832SOL    HW233396   0.945   2.945   6.435
10833SOL     OW33397   0.609   0.633   1.960
10833SOL    HW133398   0.600   0.731   1.940
10833SOL    HW233399   0.697   0.617   2.005
10834SOL     OW33400   0.500   1.479   1.035
10834SOL    HW133401   0.483   1.392   0.988
10834SOL    HW233402   0.455   1.553   0.984
10835SOL     OW33403   5.583   2.467   0.587
10835SOL    HW133404   5.508   2.401   0.574
10835SOL    HW233405   5.548   2.548   0.634
10836SOL     OW33406   6.335   1.358   4.701
10836SOL    HW133407   6.273   1.286   4.732
10836SOL    HW233408   6.373   1.334   4.612
10837SOL     OW33409   6.408   5.451   1.258
10837SOL    HW133410   6.480   5.493   1.204
10837SOL    HW233411   6.415   5.351   1.252
10838SOL     OW33412   6.586   5.822   3.846
10838SOL    HW133413   6.497   5.868   3.852
10838SOL    HW233414   6.651   5.883   3.801
10839SOL     OW33415   4.391   3.104   1.740
10839SOL    HW133416   4.406   3.091   1.642
10839SOL    HW233417   4.469   3.067   1.791
10840SOL     OW33418   2.722   5.609   3.052
10840SOL    HW133419   2.697   5.667   2.974
10840SOL    HW233420   2.648   5.545   3.071
10841SOL     OW33421   6.344   5.265   5.487
10841SOL    HW133422   6.245   5.272   5.476
10841SOL    HW233423   6.377   5.341   5.542
10842SOL     OW33424   4.792   2.514   1.594
10842SOL    HW133425   4.767   2.604   1.557
10842SOL    HW233426   4.834   2.526   1.684
10843SOL     OW33427   1.038   1.816   1.731
10843SOL    HW133428   1.129   1.858   1.725
10843SOL    HW233429   1.028   1.770   1.819
10844SOL     OW33430   0.617   6.482   3.436
10844SOL    HW133431   0.628   6.573   3.396
10844SOL    HW233432   0.574   6.490   3.526
10845SOL     OW33433   3.164   6.681   5.532
10845SOL    HW133434   3.216   6.603   5.568
10845SOL    HW233435   3.111   6.651   5.453
10846SOL     OW33436   5.453   0.919   0.277
10846SOL    HW133437   5.473   0.825   0.306
10846SOL    HW233438   5.506   0.941   0.195
10847SOL     OW33439   3.729   2.869   6.461
10847SOL    HW133440   3.794   2.944   6.449
10847SOL    HW233441   3.686   2.849   6.373
10848SOL     OW33442   2.863   3.743   0.220
10848SOL    HW133443   2.863   3.675   0.147
10848SOL    HW233444   2.829   3.830   0.184
10849SOL     OW33445   2.123   4.909   4.041
10849SOL    HW133446   2.059   4.901   3.964
10849SOL    HW233447   2.084   4.862   4.120
10850SOL     OW33448   2.287   6.155   6.441
10850SOL    HW133449   2.279   6.104   6.355
10850SOL    HW233450   2.379   6.142   6.479
10851SOL     OW33451   1.726   3.394   0.172
10851SOL    HW133452   1.706   3.489   0.193
10851SOL    HW233453   1.674   3.334   0.233
10852SOL     OW33454   0.916   0.335   6.902
10852SOL    HW133455   0.992   0.335   6.837
10852SOL    HW233456   0.919   0.251   6.957
10853SOL     OW33457   1.821   2.082   5.581
10853SOL    HW133458   1.790   1.991   5.609
10853SOL    HW233459   1.861   2.129   5.659
10854SOL     OW33460   4.473   4.935   5.445
10854SOL    HW133461   4.563   4.960   5.481
10854SOL    HW233462   4.404   4.998   5.481
10855SOL     OW33463   3.961   0.567   0.984
10855SOL    HW133464   3.950   0.498   1.056
10855SOL    HW233465   3.918   0.653   1.014
10856SOL     OW33466   5.359   1.154   0.445
10856SOL    HW133467   5.381   1.080   0.383
10856SOL    HW233468   5.264   1.145   0.475
10857SOL     OW33469   6.882   2.190   3.171
10857SOL    HW133470   6.942   2.178   3.250
10857SOL    HW233471   6.834   2.105   3.152
10858SOL     OW33472   0.682   1.590   6.742
10858SOL    HW133473   0.740   1.555   6.668
10858SOL    HW233474   0.665   1.688   6.727
10859SOL     OW33475   1.310   4.178   4.290
10859SOL    HW133476   1.321   4.235   4.209
10859SOL    HW233477   1.373   4.100   4.285
10860SOL     OW33478   0.432   1.895   5.583
10860SOL    HW133479   0.502   1.829   5.555
10860SOL    HW233480   0.406   1.879   5.678
10861SOL     OW33481   3.519   3.660   3.351
10861SOL    HW133482   3.559   3.663   3.260
10861SOL    HW233483   3.445   3.728   3.357
10862SOL     OW33484   2.165   1.711   6.577
10862SOL    HW133485   2.241   1.649   6.597
10862SOL    HW233486   2.079   1.668   6.604
10863SOL     OW33487   3.958   0.575   4.003
10863SOL    HW133488   3.893   0.632   3.953
10863SOL    HW233489   3.952   0.597   4.101
10864SOL     OW33490   2.311   6.209   0.648
10864SOL    HW133491   2.314   6.144   0.725
10864SOL    HW233492   2.396   6.262   0.646
10865SOL     OW33493   0.106   1.313   1.757
10865SOL    HW133494   0.121   1.301   1.855
10865SOL    HW233495   0.055   1.398   1.741
10866SOL     OW33496   5.061   4.490   1.056
10866SOL    HW133497   5.006   4.486   0.973
10866SOL    HW233498   5.155   4.517   1.034
10867SOL     OW33499   3.578   4.125   6.756
10867SOL    HW133500   3.585   4.042   6.700
10867SOL    HW233501   3.670   4.157   6.779
10868SOL     OW33502   4.454   1.800   4.239
10868SOL    HW133503   4.415   1.732   4.301
10868SOL    HW233504   4.549   1.818   4.265
10869NA      NA33505   6.816   2.180   5.448
10870NA      NA33506   4.447   4.544   5.242
10871NA      NA33507   1.959   3.100   2.152
10872NA      NA33508   5.097   3.881   4.880
10873NA      NA33509   4.282   2.642   5.387
10874NA      NA33510   3.371   4.705   1.660
10875NA      NA33511   6.783   4.703   0.300
10876NA      NA33512   3.507   3.630   3.865
10877NA      NA33513   5.173   6.133   0.333
10878NA      NA33514   2.997   6.801   5.644
10879NA      NA33515   5.597   5.225   1.704
10880NA      NA33516   2.291   0.411   4.167
10881NA      NA33517   3.627   5.325   2.990
10882NA      NA33518   3.967   3.753   2.361
   7.01937   7.01937   7.01937
