Generated by trjconv : CNT in water t= 418.00000
33518
    1C        C    1   2.844   2.771   4.746
    1C        C    2   2.898   2.719   4.866
    1C        C    3   2.843   2.773   4.982
    1C        C    4   2.850   2.777   4.260
    1C        C    5   2.904   2.729   4.382
    1C        C    6   2.844   2.773   4.502
    1C        C    7   3.007   2.637   4.624
    1C        C    8   2.894   2.721   4.624
    1C        C    9   3.076   2.603   4.743
    1C        C   10   3.007   2.629   4.863
    1C        C   11   3.178   2.493   4.975
    1C        C   12   3.052   2.555   4.973
    1C        C   13   2.854   2.774   3.772
    1C        C   14   2.902   2.723   3.895
    1C        C   15   2.851   2.772   4.016
    1C        C   16   3.017   2.643   4.138
    1C        C   17   2.904   2.727   4.139
    1C        C   18   3.079   2.608   4.260
    1C        C   19   3.022   2.652   4.381
    1C        C   20   3.207   2.554   4.505
    1C        C   21   3.078   2.613   4.505
    1C        C   22   3.277   2.535   4.626
    1C        C   23   3.207   2.547   4.748
    1C        C   24   3.413   2.481   4.868
    1C        C   25   3.271   2.503   4.867
    1C        C   26   3.490   2.486   4.984
    1C        C   27   2.851   2.769   3.283
    1C        C   28   2.905   2.725   3.406
    1C        C   29   2.855   2.774   3.528
    1C        C   30   3.019   2.639   3.651
    1C        C   31   2.906   2.724   3.650
    1C        C   32   3.080   2.603   3.773
    1C        C   33   3.017   2.640   3.894
    1C        C   34   3.208   2.548   4.016
    1C        C   35   3.078   2.604   4.016
    1C        C   36   3.275   2.528   4.138
    1C        C   37   3.210   2.554   4.261
    1C        C   38   3.414   2.509   4.383
    1C        C   39   3.275   2.530   4.384
    1C        C   40   3.487   2.502   4.504
    1C        C   41   3.414   2.503   4.624
    1C        C   42   3.626   2.485   4.746
    1C        C   43   3.484   2.483   4.745
    1C        C   44   3.703   2.487   4.865
    1C        C   45   3.629   2.479   4.984
    1C        C   46   2.839   2.755   2.794
    1C        C   47   2.894   2.708   2.915
    1C        C   48   2.845   2.763   3.036
    1C        C   49   3.017   2.643   3.162
    1C        C   50   2.898   2.720   3.159
    1C        C   51   3.081   2.609   3.284
    1C        C   52   3.021   2.644   3.407
    1C        C   53   3.210   2.549   3.525
    1C        C   54   3.080   2.605   3.529
    1C        C   55   3.277   2.530   3.648
    1C        C   56   3.210   2.547   3.771
    1C        C   57   3.415   2.504   3.896
    1C        C   58   3.275   2.526   3.894
    1C        C   59   3.486   2.497   4.018
    1C        C   60   3.414   2.498   4.139
    1C        C   61   3.626   2.498   4.259
    1C        C   62   3.485   2.494   4.261
    1C        C   63   3.696   2.510   4.381
    1C        C   64   3.628   2.508   4.505
    1C        C   65   3.835   2.545   4.622
    1C        C   66   3.699   2.507   4.627
    1C        C   67   3.903   2.568   4.744
    1C        C   68   3.837   2.529   4.863
    1C        C   69   4.050   2.590   4.979
    1C        C   70   3.919   2.542   4.976
    1C        C   71   2.821   2.732   2.307
    1C        C   72   2.880   2.691   2.429
    1C        C   73   2.832   2.746   2.550
    1C        C   74   3.005   2.624   2.671
    1C        C   75   2.890   2.706   2.672
    1C        C   76   3.070   2.590   2.792
    1C        C   77   3.011   2.628   2.914
    1C        C   78   3.202   2.547   3.036
    1C        C   79   3.072   2.603   3.039
    1C        C   80   3.271   2.525   3.157
    1C        C   81   3.208   2.547   3.282
    1C        C   82   3.416   2.499   3.403
    1C        C   83   3.277   2.523   3.403
    1C        C   84   3.485   2.493   3.526
    1C        C   85   3.416   2.505   3.648
    1C        C   86   3.623   2.499   3.768
    1C        C   87   3.482   2.493   3.773
    1C        C   88   3.693   2.514   3.890
    1C        C   89   3.627   2.505   4.014
    1C        C   90   3.832   2.551   4.135
    1C        C   91   3.696   2.513   4.137
    1C        C   92   3.900   2.573   4.257
    1C        C   93   3.834   2.542   4.378
    1C        C   94   4.024   2.637   4.497
    1C        C   95   3.902   2.567   4.499
    1C        C   96   4.087   2.676   4.618
    1C        C   97   4.029   2.633   4.739
    1C        C   98   4.196   2.760   4.861
    1C        C   99   4.097   2.657   4.862
    1C        C  100   4.215   2.841   4.974
    1C        C  101   2.821   2.729   2.070
    1C        C  102   2.991   2.591   2.190
    1C        C  103   2.876   2.677   2.188
    1C        C  104   3.062   2.570   2.312
    1C        C  105   2.998   2.614   2.430
    1C        C  106   3.199   2.534   2.551
    1C        C  107   3.068   2.587   2.550
    1C        C  108   3.270   2.521   2.672
    1C        C  109   3.202   2.539   2.795
    1C        C  110   3.409   2.491   2.915
    1C        C  111   3.269   2.513   2.916
    1C        C  112   3.482   2.491   3.036
    1C        C  113   3.410   2.500   3.157
    1C        C  114   3.623   2.498   3.277
    1C        C  115   3.482   2.493   3.278
    1C        C  116   3.692   2.509   3.399
    1C        C  117   3.627   2.500   3.524
    1C        C  118   3.833   2.544   3.645
    1C        C  119   3.696   2.509   3.647
    1C        C  120   3.896   2.574   3.768
    1C        C  121   3.829   2.553   3.891
    1C        C  122   4.022   2.643   4.011
    1C        C  123   3.898   2.575   4.012
    1C        C  124   4.085   2.677   4.133
    1C        C  125   4.023   2.642   4.255
    1C        C  126   4.194   2.768   4.374
    1C        C  127   4.079   2.687   4.377
    1C        C  128   4.243   2.820   4.497
    1C        C  129   4.193   2.769   4.619
    1C        C  130   4.325   2.936   4.738
    1C        C  131   4.242   2.821   4.741
    1C        C  132   4.360   2.998   4.860
    1C        C  133   4.291   2.958   4.975
    1C        C  134   3.169   2.463   2.082
    1C        C  135   3.036   2.507   2.084
    1C        C  136   3.257   2.475   2.191
    1C        C  137   3.194   2.518   2.310
    1C        C  138   3.404   2.476   2.427
    1C        C  139   3.265   2.502   2.431
    1C        C  140   3.479   2.479   2.546
    1C        C  141   3.410   2.499   2.668
    1C        C  142   3.618   2.488   2.790
    1C        C  143   3.477   2.488   2.792
    1C        C  144   3.692   2.500   2.911
    1C        C  145   3.623   2.496   3.034
    1C        C  146   3.832   2.540   3.154
    1C        C  147   3.695   2.506   3.155
    1C        C  148   3.895   2.567   3.278
    1C        C  149   3.829   2.545   3.400
    1C        C  150   4.022   2.635   3.522
    1C        C  151   3.898   2.567   3.522
    1C        C  152   4.080   2.677   3.644
    1C        C  153   4.019   2.642   3.767
    1C        C  154   4.189   2.772   3.888
    1C        C  155   4.079   2.684   3.888
    1C        C  156   4.244   2.817   4.010
    1C        C  157   4.193   2.767   4.132
    1C        C  158   4.342   2.922   4.251
    1C        C  159   4.248   2.816   4.253
    1C        C  160   4.379   2.984   4.373
    1C        C  161   4.333   2.929   4.494
    1C        C  162   4.440   3.114   4.615
    1C        C  163   4.368   2.992   4.616
    1C        C  164   4.471   3.179   4.736
    1C        C  165   4.434   3.119   4.858
    1C        C  166   4.513   3.318   4.973
    1C        C  167   4.474   3.184   4.975
    1C        C  168   3.471   2.436   2.071
    1C        C  169   3.397   2.459   2.187
    1C        C  170   3.617   2.465   2.305
    1C        C  171   3.475   2.462   2.305
    1C        C  172   3.691   2.481   2.424
    1C        C  173   3.620   2.485   2.546
    1C        C  174   3.825   2.537   2.669
    1C        C  175   3.689   2.501   2.669
    1C        C  176   3.898   2.556   2.788
    1C        C  177   3.829   2.533   2.910
    1C        C  178   4.024   2.622   3.031
    1C        C  179   3.898   2.560   3.030
    1C        C  180   4.082   2.666   3.153
    1C        C  181   4.019   2.635   3.275
    1C        C  182   4.190   2.758   3.396
    1C        C  183   4.078   2.673   3.398
    1C        C  184   4.247   2.804   3.517
    1C        C  185   4.194   2.760   3.641
    1C        C  186   4.338   2.916   3.763
    1C        C  187   4.241   2.813   3.763
    1C        C  188   4.378   2.978   3.884
    1C        C  189   4.338   2.922   4.007
    1C        C  190   4.455   3.099   4.130
    1C        C  191   4.387   2.976   4.128
    1C        C  192   4.476   3.172   4.250
    1C        C  193   4.448   3.108   4.372
    1C        C  194   4.513   3.311   4.492
    1C        C  195   4.478   3.174   4.493
    1C        C  196   4.530   3.383   4.612
    1C        C  197   4.514   3.315   4.735
    1C        C  198   4.554   3.532   4.852
    1C        C  199   4.530   3.391   4.854
    1C        C  200   4.587   3.619   4.961
    1C        C  201   3.610   2.419   2.074
    1C        C  202   3.824   2.516   2.182
    1C        C  203   3.692   2.460   2.184
    1C        C  204   3.896   2.537   2.303
    1C        C  205   3.828   2.515   2.425
    1C        C  206   4.016   2.621   2.541
    1C        C  207   3.889   2.558   2.545
    1C        C  208   4.079   2.660   2.661
    1C        C  209   4.021   2.626   2.785
    1C        C  210   4.194   2.747   2.908
    1C        C  211   4.081   2.661   2.908
    1C        C  212   4.246   2.800   3.027
    1C        C  213   4.193   2.753   3.150
    1C        C  214   4.336   2.907   3.272
    1C        C  215   4.244   2.800   3.273
    1C        C  216   4.373   2.970   3.394
    1C        C  217   4.335   2.914   3.518
    1C        C  218   4.438   3.099   3.638
    1C        C  219   4.379   2.971   3.639
    1C        C  220   4.467   3.165   3.760
    1C        C  221   4.447   3.101   3.884
    1C        C  222   4.508   3.303   4.002
    1C        C  223   4.479   3.165   4.007
    1C        C  224   4.517   3.377   4.122
    1C        C  225   4.509   3.309   4.246
    1C        C  226   4.520   3.521   4.366
    1C        C  227   4.519   3.380   4.368
    1C        C  228   4.515   3.593   4.487
    1C        C  229   4.532   3.524   4.609
    1C        C  230   4.496   3.736   4.725
    1C        C  231   4.537   3.599   4.729
    1C        C  232   4.487   3.814   4.843
    1C        C  233   4.548   3.754   4.954
    1C        C  234   4.015   2.609   2.063
    1C        C  235   3.893   2.543   2.064
    1C        C  236   4.085   2.646   2.180
    1C        C  237   4.021   2.605   2.299
    1C        C  238   4.195   2.733   2.422
    1C        C  239   4.083   2.644   2.419
    1C        C  240   4.248   2.787   2.540
    1C        C  241   4.191   2.746   2.663
    1C        C  242   4.334   2.903   2.783
    1C        C  243   4.245   2.794   2.784
    1C        C  244   4.378   2.961   2.904
    1C        C  245   4.338   2.907   3.028
    1C        C  246   4.439   3.093   3.146
    1C        C  247   4.378   2.966   3.151
    1C        C  248   4.467   3.157   3.270
    1C        C  249   4.439   3.095   3.393
    1C        C  250   4.500   3.299   3.513
    1C        C  251   4.465   3.162   3.515
    1C        C  252   4.512   3.370   3.635
    1C        C  253   4.500   3.303   3.758
    1C        C  254   4.525   3.514   3.876
    1C        C  255   4.514   3.373   3.880
    1C        C  256   4.521   3.587   3.996
    1C        C  257   4.516   3.518   4.120
    1C        C  258   4.493   3.729   4.240
    1C        C  259   4.514   3.589   4.242
    1C        C  260   4.471   3.798   4.360
    1C        C  261   4.487   3.732   4.484
    1C        C  262   4.424   3.937   4.603
    1C        C  263   4.471   3.804   4.604
    1C        C  264   4.398   4.009   4.722
    1C        C  265   4.428   3.942   4.842
    1C        C  266   4.318   4.126   4.957
    1C        C  267   4.397   4.011   4.960
    1C        C  268   4.259   2.777   2.065
    1C        C  269   4.196   2.732   2.182
    1C        C  270   4.344   2.890   2.299
    1C        C  271   4.252   2.782   2.302
    1C        C  272   4.389   2.950   2.418
    1C        C  273   4.338   2.896   2.539
    1C        C  274   4.447   3.081   2.659
    1C        C  275   4.374   2.960   2.660
    1C        C  276   4.476   3.149   2.779
    1C        C  277   4.443   3.086   2.901
    1C        C  278   4.509   3.289   3.023
    1C        C  279   4.468   3.154   3.022
    1C        C  280   4.517   3.361   3.145
    1C        C  281   4.505   3.293   3.268
    1C        C  282   4.514   3.507   3.386
    1C        C  283   4.513   3.366   3.389
    1C        C  284   4.514   3.579   3.508
    1C        C  285   4.520   3.511   3.632
    1C        C  286   4.499   3.723   3.750
    1C        C  287   4.520   3.584   3.753
    1C        C  288   4.474   3.790   3.872
    1C        C  289   4.492   3.725   3.996
    1C        C  290   4.424   3.928   4.113
    1C        C  291   4.477   3.797   4.117
    1C        C  292   4.396   3.993   4.235
    1C        C  293   4.422   3.931   4.360
    1C        C  294   4.321   4.121   4.479
    1C        C  295   4.394   4.000   4.480
    1C        C  296   4.281   4.185   4.598
    1C        C  297   4.326   4.132   4.721
    1C        C  298   4.201   4.313   4.837
    1C        C  299   4.281   4.195   4.841
    1C        C  300   4.170   4.400   4.947
    1C        C  301   4.350   2.881   2.062
    1C        C  302   4.468   3.069   2.175
    1C        C  303   4.397   2.945   2.178
    1C        C  304   4.482   3.141   2.296
    1C        C  305   4.454   3.075   2.419
    1C        C  306   4.512   3.284   2.535
    1C        C  307   4.478   3.147   2.538
    1C        C  308   4.523   3.354   2.657
    1C        C  309   4.507   3.287   2.780
    1C        C  310   4.520   3.500   2.897
    1C        C  311   4.521   3.359   2.901
    1C        C  312   4.509   3.571   3.019
    1C        C  313   4.517   3.503   3.142
    1C        C  314   4.488   3.714   3.262
    1C        C  315   4.517   3.576   3.263
    1C        C  316   4.469   3.786   3.382
    1C        C  317   4.489   3.718   3.504
    1C        C  318   4.418   3.917   3.626
    1C        C  319   4.477   3.788   3.626
    1C        C  320   4.386   3.980   3.748
    1C        C  321   4.421   3.921   3.872
    1C        C  322   4.318   4.112   3.989
    1C        C  323   4.389   3.990   3.991
    1C        C  324   4.275   4.165   4.113
    1C        C  325   4.323   4.114   4.235
    1C        C  326   4.189   4.282   4.352
    1C        C  327   4.285   4.179   4.355
    1C        C  328   4.134   4.334   4.471
    1C        C  329   4.189   4.291   4.594
    1C        C  330   4.026   4.433   4.711
    1C        C  331   4.139   4.347   4.714
    1C        C  332   3.968   4.487   4.828
    1C        C  333   4.050   4.472   4.941
    1C        C  334   4.548   3.268   2.056
    1C        C  335   4.531   3.129   2.061
    1C        C  336   4.537   3.348   2.170
    1C        C  337   4.516   3.279   2.291
    1C        C  338   4.526   3.494   2.410
    1C        C  339   4.523   3.353   2.411
    1C        C  340   4.524   3.567   2.531
    1C        C  341   4.533   3.495   2.652
    1C        C  342   4.491   3.706   2.773
    1C        C  343   4.521   3.568   2.773
    1C        C  344   4.475   3.777   2.894
    1C        C  345   4.492   3.711   3.018
    1C        C  346   4.420   3.912   3.137
    1C        C  347   4.471   3.781   3.139
    1C        C  348   4.385   3.978   3.257
    1C        C  349   4.418   3.918   3.380
    1C        C  350   4.313   4.099   3.500
    1C        C  351   4.389   3.980   3.503
    1C        C  352   4.271   4.157   3.622
    1C        C  353   4.317   4.103   3.744
    1C        C  354   4.178   4.266   3.866
    1C        C  355   4.276   4.164   3.865
    1C        C  356   4.124   4.313   3.988
    1C        C  357   4.177   4.266   4.110
    1C        C  358   4.013   4.404   4.229
    1C        C  359   4.129   4.323   4.230
    1C        C  360   3.953   4.442   4.351
    1C        C  361   4.016   4.411   4.473
    1C        C  362   3.826   4.516   4.593
    1C        C  363   3.957   4.462   4.591
    1C        C  364   3.762   4.549   4.714
    1C        C  365   3.838   4.540   4.833
    1C        C  366   3.630   4.598   4.947
    1C        C  367   3.766   4.570   4.950
    1C        C  368   4.505   3.563   2.051
    1C        C  369   4.519   3.488   2.169
    1C        C  370   4.499   3.704   2.287
    1C        C  371   4.521   3.565   2.288
    1C        C  372   4.486   3.775   2.408
    1C        C  373   4.500   3.706   2.530
    1C        C  374   4.416   3.903   2.650
    1C        C  375   4.477   3.776   2.651
    1C        C  376   4.389   3.971   2.771
    1C        C  377   4.425   3.909   2.893
    1C        C  378   4.318   4.096   3.011
    1C        C  379   4.393   3.976   3.013
    1C        C  380   4.270   4.153   3.130
    1C        C  381   4.309   4.098   3.254
    1C        C  382   4.174   4.258   3.377
    1C        C  383   4.272   4.156   3.378
    1C        C  384   4.120   4.305   3.499
    1C        C  385   4.171   4.257   3.622
    1C        C  386   4.010   4.395   3.741
    1C        C  387   4.123   4.310   3.744
    1C        C  388   3.948   4.431   3.863
    1C        C  389   4.008   4.393   3.985
    1C        C  390   3.821   4.492   4.108
    1C        C  391   3.951   4.437   4.106
    1C        C  392   3.751   4.512   4.229
    1C        C  393   3.821   4.494   4.350
    1C        C  394   3.617   4.555   4.471
    1C        C  395   3.756   4.529   4.471
    1C        C  396   3.547   4.567   4.593
    1C        C  397   3.621   4.563   4.713
    1C        C  398   3.411   4.553   4.837
    1C        C  399   3.550   4.577   4.834
    1C        C  400   3.346   4.516   4.955
    1C        C  401   4.499   3.702   2.050
    1C        C  402   4.451   3.914   2.166
    1C        C  403   4.490   3.779   2.167
    1C        C  404   4.408   3.974   2.287
    1C        C  405   4.431   3.906   2.408
    1C        C  406   4.320   4.091   2.527
    1C        C  407   4.391   3.969   2.528
    1C        C  408   4.271   4.145   2.647
    1C        C  409   4.308   4.087   2.771
    1C        C  410   4.171   4.253   2.890
    1C        C  411   4.268   4.150   2.890
    1C        C  412   4.118   4.302   3.011
    1C        C  413   4.171   4.254   3.133
    1C        C  414   4.004   4.384   3.254
    1C        C  415   4.121   4.305   3.255
    1C        C  416   3.944   4.421   3.376
    1C        C  417   4.007   4.389   3.498
    1C        C  418   3.818   4.487   3.620
    1C        C  419   3.949   4.433   3.620
    1C        C  420   3.751   4.508   3.742
    1C        C  421   3.819   4.489   3.864
    1C        C  422   3.612   4.534   3.986
    1C        C  423   3.751   4.511   3.986
    1C        C  424   3.540   4.538   4.107
    1C        C  425   3.613   4.541   4.229
    1C        C  426   3.403   4.543   4.354
    1C        C  427   3.544   4.556   4.351
    1C        C  428   3.333   4.543   4.476
    1C        C  429   3.405   4.561   4.596
    1C        C  430   3.196   4.516   4.720
    1C        C  431   3.335   4.546   4.718
    1C        C  432   3.128   4.491   4.842
    1C        C  433   3.209   4.490   4.957
    1C        C  434   4.382   4.123   2.050
    1C        C  435   4.441   3.996   2.053
    1C        C  436   4.300   4.159   2.162
    1C        C  437   4.329   4.093   2.284
    1C        C  438   4.181   4.249   2.401
    1C        C  439   4.281   4.150   2.404
    1C        C  440   4.122   4.292   2.522
    1C        C  441   4.174   4.249   2.645
    1C        C  442   4.005   4.380   2.765
    1C        C  443   4.121   4.299   2.766
    1C        C  444   3.941   4.412   2.887
    1C        C  445   4.004   4.386   3.010
    1C        C  446   3.808   4.467   3.131
    1C        C  447   3.941   4.418   3.132
    1C        C  448   3.744   4.494   3.254
    1C        C  449   3.815   4.480   3.376
    1C        C  450   3.610   4.526   3.497
    1C        C  451   3.749   4.506   3.498
    1C        C  452   3.541   4.537   3.620
    1C        C  453   3.612   4.535   3.742
    1C        C  454   3.400   4.545   3.864
    1C        C  455   3.541   4.541   3.864
    1C        C  456   3.329   4.536   3.986
    1C        C  457   3.399   4.537   4.109
    1C        C  458   3.193   4.503   4.233
    1C        C  459   3.331   4.532   4.233
    1C        C  460   3.127   4.486   4.357
    1C        C  461   3.196   4.508   4.479
    1C        C  462   2.999   4.429   4.601
    1C        C  463   3.127   4.488   4.600
    1C        C  464   2.934   4.394   4.722
    1C        C  465   2.993   4.445   4.841
    1C        C  466   2.800   4.338   4.957
    1C        C  467   2.906   4.430   4.954
    1C        C  468   4.123   4.288   2.041
    1C        C  469   4.185   4.244   2.159
    1C        C  470   4.009   4.374   2.279
    1C        C  471   4.127   4.295   2.279
    1C        C  472   3.944   4.409   2.399
    1C        C  473   4.003   4.369   2.521
    1C        C  474   3.813   4.467   2.642
    1C        C  475   3.942   4.409   2.642
    1C        C  476   3.748   4.498   2.763
    1C        C  477   3.813   4.471   2.885
    1C        C  478   3.606   4.518   3.010
    1C        C  479   3.744   4.489   3.007
    1C        C  480   3.534   4.529   3.131
    1C        C  481   3.605   4.519   3.253
    1C        C  482   3.396   4.528   3.376
    1C        C  483   3.537   4.532   3.376
    1C        C  484   3.329   4.523   3.500
    1C        C  485   3.399   4.539   3.621
    1C        C  486   3.191   4.498   3.742
    1C        C  487   3.328   4.532   3.743
    1C        C  488   3.128   4.476   3.867
    1C        C  489   3.194   4.495   3.991
    1C        C  490   3.003   4.406   4.113
    1C        C  491   3.125   4.478   4.113
    1C        C  492   2.943   4.375   4.237
    1C        C  493   3.003   4.418   4.358
    1C        C  494   2.826   4.302   4.480
    1C        C  495   2.941   4.384   4.480
    1C        C  496   2.775   4.252   4.602
    1C        C  497   2.824   4.305   4.724
    1C        C  498   2.661   4.166   4.843
    1C        C  499   2.758   4.269   4.843
    1C        C  500   2.591   4.117   4.954
    1C        C  501   4.006   4.363   2.041
    1C        C  502   3.816   4.467   2.152
    1C        C  503   3.945   4.411   2.158
    1C        C  504   3.747   4.480   2.274
    1C        C  505   3.813   4.462   2.398
    1C        C  506   3.607   4.513   2.520
    1C        C  507   3.746   4.489   2.519
    1C        C  508   3.536   4.522   2.641
    1C        C  509   3.607   4.515   2.763
    1C        C  510   3.397   4.522   2.884
    1C        C  511   3.538   4.522   2.886
    1C        C  512   3.323   4.514   3.005
    1C        C  513   3.393   4.525   3.127
    1C        C  514   3.190   4.488   3.253
    1C        C  515   3.327   4.524   3.252
    1C        C  516   3.124   4.465   3.375
    1C        C  517   3.192   4.488   3.496
    1C        C  518   3.004   4.398   3.622
    1C        C  519   3.127   4.467   3.620
    1C        C  520   2.946   4.363   3.745
    1C        C  521   3.005   4.408   3.866
    1C        C  522   2.835   4.283   3.993
    1C        C  523   2.948   4.367   3.989
    1C        C  524   2.786   4.234   4.116
    1C        C  525   2.830   4.291   4.238
    1C        C  526   2.695   4.131   4.361
    1C        C  527   2.776   4.246   4.360
    1C        C  528   2.655   4.074   4.484
    1C        C  529   2.692   4.139   4.604
    1C        C  530   2.583   3.960   4.732
    1C        C  531   2.639   4.091   4.726
    1C        C  532   2.543   3.900   4.855
    1C        C  533   2.524   3.994   4.961
    1C        C  534   3.613   4.553   2.036
    1C        C  535   3.747   4.514   2.039
    1C        C  536   3.537   4.534   2.156
    1C        C  537   3.607   4.506   2.277
    1C        C  538   3.395   4.515   2.398
    1C        C  539   3.536   4.521   2.398
    1C        C  540   3.323   4.505   2.518
    1C        C  541   3.395   4.516   2.639
    1C        C  542   3.189   4.481   2.764
    1C        C  543   3.325   4.518   2.762
    1C        C  544   3.121   4.457   2.885
    1C        C  545   3.186   4.482   3.008
    1C        C  546   2.996   4.396   3.134
    1C        C  547   3.122   4.459   3.133
    1C        C  548   2.937   4.359   3.257
    1C        C  549   2.997   4.402   3.378
    1C        C  550   2.827   4.278   3.503
    1C        C  551   2.939   4.364   3.501
    1C        C  552   2.778   4.229   3.626
    1C        C  553   2.835   4.276   3.747
    1C        C  554   2.698   4.120   3.874
    1C        C  555   2.785   4.231   3.871
    1C        C  556   2.657   4.063   3.996
    1C        C  557   2.697   4.124   4.117
    1C        C  558   2.591   3.943   4.245
    1C        C  559   2.659   4.067   4.240
    1C        C  560   2.565   3.882   4.369
    1C        C  561   2.593   3.948   4.492
    1C        C  562   2.526   3.749   4.616
    1C        C  563   2.558   3.887   4.614
    1C        C  564   2.510   3.681   4.738
    1C        C  565   2.519   3.759   4.857
    1C        C  566   2.518   3.543   4.979
    1C        C  567   2.528   3.682   4.973
    1C        C  568   3.327   4.480   2.040
    1C        C  569   3.397   4.507   2.158
    1C        C  570   3.184   4.468   2.280
    1C        C  571   3.322   4.503   2.278
    1C        C  572   3.116   4.446   2.402
    1C        C  573   3.185   4.473   2.522
    1C        C  574   2.989   4.396   2.648
    1C        C  575   3.118   4.455   2.645
    1C        C  576   2.930   4.356   2.770
    1C        C  577   2.994   4.395   2.890
    1C        C  578   2.823   4.271   3.014
    1C        C  579   2.933   4.360   3.013
    1C        C  580   2.773   4.222   3.136
    1C        C  581   2.829   4.269   3.257
    1C        C  582   2.694   4.112   3.383
    1C        C  583   2.779   4.225   3.382
    1C        C  584   2.659   4.053   3.507
    1C        C  585   2.693   4.116   3.629
    1C        C  586   2.590   3.935   3.754
    1C        C  587   2.658   4.058   3.753
    1C        C  588   2.564   3.872   3.878
    1C        C  589   2.594   3.936   4.000
    1C        C  590   2.530   3.738   4.125
    1C        C  591   2.565   3.875   4.124
    1C        C  592   2.518   3.674   4.250
    1C        C  593   2.530   3.745   4.372
    1C        C  594   2.507   3.536   4.496
    1C        C  595   2.521   3.677   4.495
    1C        C  596   2.504   3.465   4.618
    1C        C  597   2.507   3.539   4.738
    1C        C  598   2.536   3.329   4.861
    1C        C  599   2.522   3.469   4.860
    1C        C  600   2.531   3.249   4.976
    1C        C  601   3.197   4.433   2.043
    1C        C  602   2.982   4.392   2.158
    1C        C  603   3.117   4.440   2.158
    1C        C  604   2.925   4.352   2.282
    1C        C  605   2.988   4.386   2.403
    1C        C  606   2.817   4.268   2.526
    1C        C  607   2.930   4.353   2.527
    1C        C  608   2.769   4.217   2.649
    1C        C  609   2.820   4.268   2.770
    1C        C  610   2.686   4.106   2.894
    1C        C  611   2.770   4.220   2.893
    1C        C  612   2.646   4.050   3.017
    1C        C  613   2.686   4.111   3.138
    1C        C  614   2.588   3.926   3.265
    1C        C  615   2.652   4.052   3.262
    1C        C  616   2.561   3.863   3.389
    1C        C  617   2.594   3.928   3.511
    1C        C  618   2.521   3.731   3.636
    1C        C  619   2.564   3.865   3.634
    1C        C  620   2.510   3.665   3.761
    1C        C  621   2.522   3.737   3.882
    1C        C  622   2.507   3.526   4.008
    1C        C  623   2.513   3.667   4.004
    1C        C  624   2.508   3.460   4.133
    1C        C  625   2.510   3.533   4.254
    1C        C  626   2.529   3.321   4.378
    1C        C  627   2.511   3.461   4.376
    1C        C  628   2.549   3.253   4.501
    1C        C  629   2.534   3.327   4.620
    1C        C  630   2.594   3.121   4.742
    1C        C  631   2.550   3.256   4.741
    1C        C  632   2.616   3.051   4.864
    1C        C  633   2.562   3.112   4.981
    1C        C  634   2.782   4.301   2.051
    1C        C  635   2.889   4.391   2.049
    1C        C  636   2.751   4.224   2.164
    1C        C  637   2.810   4.268   2.284
    1C        C  638   2.675   4.106   2.407
    1C        C  639   2.758   4.221   2.407
    1C        C  640   2.639   4.047   2.530
    1C        C  641   2.686   4.103   2.650
    1C        C  642   2.577   3.922   2.779
    1C        C  643   2.645   4.045   2.773
    1C        C  644   2.547   3.858   2.901
    1C        C  645   2.581   3.925   3.021
    1C        C  646   2.517   3.725   3.147
    1C        C  647   2.558   3.860   3.144
    1C        C  648   2.507   3.655   3.270
    1C        C  649   2.522   3.728   3.390
    1C        C  650   2.506   3.520   3.517
    1C        C  651   2.512   3.661   3.514
    1C        C  652   2.511   3.453   3.641
    1C        C  653   2.510   3.524   3.763
    1C        C  654   2.539   3.316   3.888
    1C        C  655   2.510   3.454   3.886
    1C        C  656   2.558   3.253   4.013
    1C        C  657   2.536   3.322   4.135
    1C        C  658   2.607   3.122   4.254
    1C        C  659   2.555   3.253   4.257
    1C        C  660   2.637   3.061   4.378
    1C        C  661   2.606   3.124   4.500
    1C        C  662   2.711   2.940   4.625
    1C        C  663   2.634   3.058   4.622
    1C        C  664   2.753   2.881   4.746
    1C        C  665   2.696   2.932   4.866
    1C        C  666   2.749   2.876   4.982
    1C        C  667   2.677   4.023   2.049
    1C        C  668   2.682   4.101   2.166
    1C        C  669   2.584   3.910   2.289
    1C        C  670   2.644   4.039   2.287
    1C        C  671   2.558   3.848   2.413
    1C        C  672   2.574   3.921   2.533
    1C        C  673   2.515   3.719   2.656
    1C        C  674   2.551   3.856   2.656
    1C        C  675   2.505   3.651   2.780
    1C        C  676   2.515   3.720   2.903
    1C        C  677   2.500   3.512   3.028
    1C        C  678   2.505   3.653   3.026
    1C        C  679   2.497   3.441   3.150
    1C        C  680   2.497   3.514   3.271
    1C        C  681   2.530   3.308   3.400
    1C        C  682   2.510   3.448   3.395
    1C        C  683   2.558   3.244   3.523
    1C        C  684   2.540   3.315   3.644
    1C        C  685   2.608   3.115   3.770
    1C        C  686   2.556   3.246   3.766
    1C        C  687   2.640   3.054   3.893
    1C        C  688   2.607   3.121   4.013
    1C        C  689   2.715   2.936   4.138
    1C        C  690   2.639   3.055   4.134
    1C        C  691   2.759   2.885   4.261
    1C        C  692   2.713   2.942   4.382
    1C        C  693   2.753   2.881   4.503
    1C        C  694   2.636   3.890   2.057
    1C        C  695   2.522   3.704   2.175
    1C        C  696   2.577   3.834   2.171
    1C        C  697   2.502   3.637   2.297
    1C        C  698   2.517   3.713   2.415
    1C        C  699   2.484   3.505   2.539
    1C        C  700   2.495   3.646   2.538
    1C        C  701   2.494   3.437   2.663
    1C        C  702   2.496   3.510   2.784
    1C        C  703   2.528   3.301   2.908
    1C        C  704   2.502   3.440   2.906
    1C        C  705   2.546   3.236   3.032
    1C        C  706   2.528   3.304   3.154
    1C        C  707   2.605   3.109   3.276
    1C        C  708   2.548   3.238   3.278
    1C        C  709   2.641   3.052   3.400
    1C        C  710   2.612   3.114   3.524
    1C        C  711   2.713   2.931   3.649
    1C        C  712   2.636   3.049   3.648
    1C        C  713   2.761   2.880   3.771
    1C        C  714   2.719   2.936   3.894
    1C        C  715   2.755   2.876   4.016
    1C        C  716   2.446   3.495   2.057
    1C        C  717   2.486   3.630   2.061
    1C        C  718   2.457   3.421   2.179
    1C        C  719   2.480   3.496   2.298
    1C        C  720   2.514   3.289   2.424
    1C        C  721   2.486   3.428   2.421
    1C        C  722   2.540   3.226   2.547
    1C        C  723   2.523   3.299   2.667
    1C        C  724   2.589   3.095   2.787
    1C        C  725   2.537   3.227   2.788
    1C        C  726   2.624   3.036   2.910
    1C        C  727   2.595   3.103   3.031
    1C        C  728   2.714   2.929   3.159
    1C        C  729   2.631   3.044   3.154
    1C        C  730   2.758   2.876   3.282
    1C        C  731   2.712   2.930   3.404
    1C        C  732   2.757   2.875   3.526
    1C        C  733   2.484   3.195   2.074
    1C        C  734   2.485   3.281   2.185
    1C        C  735   2.589   3.088   2.303
    1C        C  736   2.523   3.214   2.304
    1C        C  737   2.621   3.024   2.425
    1C        C  738   2.591   3.094   2.544
    1C        C  739   2.695   2.910   2.670
    1C        C  740   2.618   3.028   2.666
    1C        C  741   2.739   2.855   2.793
    1C        C  742   2.702   2.918   2.913
    1C        C  743   2.753   2.870   3.036
    1C        C  744   2.544   3.070   2.070
    1C        C  745   2.685   2.899   2.184
    1C        C  746   2.605   3.015   2.184
    1C        C  747   2.727   2.839   2.305
    1C        C  748   2.689   2.901   2.426
    1C        C  749   2.736   2.850   2.549
    1C        C  750   2.738   2.840   2.069
    1C        C  751   3.672   2.343   1.963
    1C        O  752   3.667   2.217   1.966
    1C        O  753   3.666   2.410   1.840
    1C        C  754   4.592   3.060   1.945
    1C        O  755   4.530   3.049   1.837
    1C        O  756   4.702   2.975   1.963
    1C        C  757   4.450   4.232   1.978
    1C        O  758   4.541   4.304   2.026
    1C        O  759   4.436   4.262   1.842
    1C        C  760   3.576   4.670   1.954
    1C        O  761   3.626   4.785   1.968
    1C        O  762   3.534   4.652   1.821
    1C        C  763   2.877   4.484   1.934
    1C        O  764   2.875   4.436   1.817
    1C        O  765   2.842   4.618   1.951
    1C        C  766   2.334   3.462   1.966
    1C        O  767   2.337   3.497   1.845
    1C        O  768   2.203   3.488   2.007
    1C        C  769   4.716   3.606   5.031
    1C        O  770   4.715   3.574   5.153
    1C        O  771   4.830   3.573   4.956
    1C        C  772   4.283   4.469   5.014
    1C        O  773   4.340   4.425   5.117
    1C        O  774   4.328   4.598   4.982
    1C        C  775   4.135   2.541   5.090
    1C        O  776   4.175   2.422   5.086
    1C        O  777   4.113   2.571   5.225
    1C        C  778   2.891   4.540   5.051
    1C        O  779   2.809   4.635   5.042
    1C        O  780   2.911   4.508   5.186
    1C        C  781   2.460   3.036   5.057
    1C        O  782   2.343   3.016   5.015
    1C        O  783   2.476   3.014   5.194
    1C        C  784   2.404   3.996   5.048
    1C        O  785   2.304   4.071   5.030
    1C        O  786   2.411   3.957   5.182
    1C        C  787   2.941   2.433   1.997
    1C        O  788   2.926   2.468   1.877
    1C        O  789   2.935   2.294   2.001
    1C        C  790   3.187   2.374   5.064
    1C        O  791   3.101   2.285   5.043
    1C        O  792   3.227   2.382   5.198
    1C        H  793   4.299   3.006   5.070
    1C        H  794   4.156   2.821   5.061
    1C        H  795   4.506   3.122   5.057
    1C        H  796   4.478   3.377   5.054
    1C        H  797   4.591   3.821   5.025
    1C        H  798   4.476   4.021   5.031
    1C        H  799   4.236   4.126   5.026
    1C        H  800   4.023   4.527   5.029
    1C        H  801   3.816   4.582   5.044
    1C        H  802   3.594   4.659   5.027
    1C        H  803   3.398   4.441   5.011
    1C        H  804   3.158   4.484   5.051
    1C        H  805   3.868   2.528   5.069
    1C        H  806   3.675   2.428   5.065
    1C        H  807   2.986   2.540   5.056
    1C        H  808   3.444   2.514   5.077
    1C        H  809   2.865   2.724   5.075
    1C        H  810   2.699   2.896   5.075
    1C        H  811   2.504   3.298   5.068
    1C        H  812   2.443   3.509   5.048
    1C        H  813   2.533   3.730   5.069
    1C        H  814   2.619   4.154   5.051
    1C        H  815   2.761   4.317   5.055
    1C        H  816   2.717   2.886   1.974
    1C        H  817   2.849   2.689   1.974
    1C        H  818   3.208   2.429   1.989
    1C        H  819   3.432   2.480   1.981
    1C        H  820   3.844   2.544   1.968
    1C        H  821   4.075   2.579   1.980
    1C        H  822   4.218   2.743   1.972
    1C        H  823   4.335   2.951   1.983
    1C        H  824   4.517   3.307   1.962
    1C        H  825   4.544   3.522   1.961
    1C        H  826   4.544   3.753   1.967
    1C        H  827   3.806   4.524   1.950
    1C        H  828   3.986   4.409   1.946
    1C        H  829   4.147   4.236   1.952
    1C        H  830   4.444   3.947   1.957
    1C        H  831   2.685   3.822   1.991
    1C        H  832   2.649   4.074   1.959
    1C        H  833   2.699   4.326   1.987
    1C        H  834   3.385   4.452   1.954
    1C        H  835   3.166   4.366   1.966
    1C        H  836   2.521   3.007   1.986
    1C        H  837   2.413   3.216   1.997
    1C        H  838   2.472   3.688   1.972
    2V3OU   H29  839   2.794   3.557   5.042
    2V3OU   C27  840   2.778   3.505   5.140
    2V3OU   H27  841   2.724   3.575   5.209
    2V3OU   H28  842   2.727   3.407   5.123
    2V3OU   O11  843   2.907   3.468   5.189
    2V3OU   C15  844   2.919   3.386   5.299
    2V3OU   C13  845   3.052   3.369   5.344
    2V3OU   C14  846   3.079   3.265   5.434
    2V3OU   C16  847   2.970   3.190   5.476
    2V3OU    H6  848   2.989   3.098   5.534
    2V3OU   C12  849   3.218   3.227   5.467
    2V3OU    O2  850   3.240   3.129   5.541
    2V3OU   C10  851   3.326   3.314   5.419
    2V3OU    C8  852   3.459   3.273   5.420
    2V3OU   O10  853   3.491   3.152   5.472
    2V3OU   H26  854   3.406   3.110   5.491
    2V3OU    C6  855   3.568   3.350   5.368
    2V3OU    C5  856   3.541   3.466   5.297
    2V3OU    C4  857   3.706   3.294   5.358
    2V3OU    H4  858   3.726   3.230   5.449
    2V3OU    H5  859   3.709   3.225   5.269
    2V3OU    C2  860   3.817   3.398   5.350
    2V3OU    O6  861   3.802   3.473   5.471
    2V3OU   H21  862   3.757   3.555   5.444
    2V3OU    C3  863   3.784   3.499   5.240
    2V3OU    H2  864   3.867   3.574   5.235
    2V3OU    H3  865   3.780   3.436   5.148
    2V3OU   C25  866   3.952   3.327   5.332
    2V3OU    O7  867   4.000   3.295   5.224
    2V3OU   C26  868   4.030   3.294   5.458
    2V3OU   H22  869   4.056   3.388   5.512
    2V3OU   H23  870   4.117   3.227   5.435
    2V3OU    O8  871   3.955   3.212   5.546
    2V3OU   H24  872   3.923   3.267   5.620
    2V3OU    C1  873   3.647   3.564   5.258
    2V3OU    H1  874   3.623   3.620   5.163
    2V3OU    O3  875   3.659   3.655   5.368
    2V3OU   C19  876   3.619   3.792   5.357
    2V3OU    H9  877   3.520   3.805   5.303
    2V3OU    O4  878   3.712   3.851   5.268
    2V3OU   C20  879   3.845   3.875   5.314
    2V3OU   H10  880   3.903   3.779   5.326
    2V3OU   C24  881   3.611   3.859   5.494
    2V3OU   H16  882   3.542   3.797   5.557
    2V3OU   H17  883   3.569   3.961   5.480
    2V3OU   C23  884   3.752   3.877   5.550
    2V3OU   H15  885   3.796   3.773   5.568
    2V3OU    N1  886   3.736   3.952   5.673
    2V3OU   H19  887   3.812   3.920   5.731
    2V3OU   H20  888   3.650   3.933   5.720
    2V3OU   C21  889   3.851   3.945   5.450
    2V3OU   H11  890   3.952   3.923   5.497
    2V3OU    O5  891   3.831   4.085   5.448
    2V3OU   H18  892   3.783   4.109   5.529
    2V3OU   C22  893   3.912   3.950   5.200
    2V3OU   H12  894   3.863   4.050   5.189
    2V3OU   H13  895   3.908   3.891   5.105
    2V3OU   H14  896   4.022   3.964   5.218
    2V3OU   C11  897   3.160   3.466   5.323
    2V3OU    O1  898   3.130   3.586   5.301
    2V3OU    C9  899   3.303   3.430   5.340
    2V3OU    C7  900   3.404   3.506   5.283
    2V3OU    O9  901   3.385   3.609   5.193
    2V3OU   H25  902   3.289   3.629   5.193
    2V3OU   C17  903   2.813   3.306   5.347
    2V3OU    H7  904   2.711   3.340   5.329
    2V3OU   C18  905   2.836   3.209   5.443
    2V3OU    H8  906   2.758   3.154   5.497
    3SOL     OW  907   3.826   3.746   4.485
    3SOL    HW1  908   3.919   3.710   4.484
    3SOL    HW2  909   3.828   3.844   4.468
    4SOL     OW  910   6.320   0.102   0.214
    4SOL    HW1  911   6.288   0.008   0.227
    4SOL    HW2  912   6.284   0.138   0.128
    5SOL     OW  913   4.271   0.972   1.269
    5SOL    HW1  914   4.239   1.038   1.201
    5SOL    HW2  915   4.360   1.001   1.303
    6SOL     OW  916   5.582   6.927   2.393
    6SOL    HW1  917   5.509   6.987   2.425
    6SOL    HW2  918   5.671   6.967   2.415
    7SOL     OW  919   1.949   4.452   3.750
    7SOL    HW1  920   1.947   4.510   3.831
    7SOL    HW2  921   1.981   4.505   3.671
    8SOL     OW  922   2.315   3.177   5.656
    8SOL    HW1  923   2.260   3.203   5.577
    8SOL    HW2  924   2.303   3.080   5.674
    9SOL     OW  925   6.144   1.349   6.364
    9SOL    HW1  926   6.097   1.275   6.410
    9SOL    HW2  927   6.197   1.312   6.287
   10SOL     OW  928   4.800   4.641   3.307
   10SOL    HW1  929   4.790   4.719   3.369
   10SOL    HW2  930   4.743   4.566   3.338
   11SOL     OW  931   2.266   0.922   0.511
   11SOL    HW1  932   2.194   0.883   0.568
   11SOL    HW2  933   2.264   0.879   0.421
   12SOL     OW  934   3.146   5.206   3.340
   12SOL    HW1  935   3.104   5.153   3.414
   12SOL    HW2  936   3.196   5.284   3.379
   13SOL     OW  937   4.620   5.723   1.946
   13SOL    HW1  938   4.712   5.699   1.976
   13SOL    HW2  939   4.594   5.666   1.868
   14SOL     OW  940   4.549   5.071   4.918
   14SOL    HW1  941   4.513   5.102   4.830
   14SOL    HW2  942   4.647   5.053   4.910
   15SOL     OW  943   0.321   5.708   5.961
   15SOL    HW1  944   0.263   5.730   6.040
   15SOL    HW2  945   0.263   5.693   5.881
   16SOL     OW  946   0.161   3.266   5.329
   16SOL    HW1  947   0.161   3.259   5.229
   16SOL    HW2  948   0.241   3.318   5.359
   17SOL     OW  949   6.294   1.240   5.187
   17SOL    HW1  950   6.355   1.317   5.169
   17SOL    HW2  951   6.297   1.217   5.284
   18SOL     OW  952   3.535   0.495   5.523
   18SOL    HW1  953   3.587   0.462   5.444
   18SOL    HW2  954   3.511   0.591   5.510
   19SOL     OW  955   1.219   1.324   3.057
   19SOL    HW1  956   1.201   1.423   3.053
   19SOL    HW2  957   1.308   1.305   3.016
   20SOL     OW  958   5.824   1.805   5.183
   20SOL    HW1  959   5.890   1.866   5.141
   20SOL    HW2  960   5.764   1.766   5.113
   21SOL     OW  961   3.058   5.697   2.278
   21SOL    HW1  962   3.120   5.724   2.204
   21SOL    HW2  963   3.029   5.602   2.264
   22SOL     OW  964   2.521   6.628   5.222
   22SOL    HW1  965   2.615   6.593   5.229
   22SOL    HW2  966   2.498   6.676   5.306
   23SOL     OW  967   5.438   4.165   1.989
   23SOL    HW1  968   5.409   4.259   2.008
   23SOL    HW2  969   5.474   4.124   2.072
   24SOL     OW  970   4.464   0.476   1.287
   24SOL    HW1  971   4.410   0.558   1.268
   24SOL    HW2  972   4.495   0.478   1.382
   25SOL     OW  973   2.547   0.319   4.061
   25SOL    HW1  974   2.585   0.411   4.059
   25SOL    HW2  975   2.621   0.252   4.052
   26SOL     OW  976   0.856   2.853   6.995
   26SOL    HW1  977   0.795   2.929   6.974
   26SOL    HW2  978   0.949   2.876   6.966
   27SOL     OW  979   6.446   1.348   1.172
   27SOL    HW1  980   6.408   1.376   1.260
   27SOL    HW2  981   6.543   1.369   1.168
   28SOL     OW  982   2.658   0.505   4.811
   28SOL    HW1  983   2.695   0.504   4.718
   28SOL    HW2  984   2.582   0.441   4.818
   29SOL     OW  985   0.167   0.399   0.303
   29SOL    HW1  986   0.188   0.489   0.265
   29SOL    HW2  987   0.143   0.407   0.399
   30SOL     OW  988   4.139   0.754   5.116
   30SOL    HW1  989   4.209   0.773   5.185
   30SOL    HW2  990   4.165   0.672   5.064
   31SOL     OW  991   0.973   3.014   5.255
   31SOL    HW1  992   0.934   3.106   5.259
   31SOL    HW2  993   1.026   3.005   5.170
   32SOL     OW  994   1.869   0.293   1.420
   32SOL    HW1  995   1.770   0.306   1.420
   32SOL    HW2  996   1.913   0.378   1.393
   33SOL     OW  997   0.511   4.807   5.782
   33SOL    HW1  998   0.551   4.732   5.835
   33SOL    HW2  999   0.499   4.778   5.687
   34SOL     OW 1000   1.754   4.956   5.265
   34SOL    HW1 1001   1.668   4.996   5.298
   34SOL    HW2 1002   1.747   4.937   5.167
   35SOL     OW 1003   3.818   2.585   0.209
   35SOL    HW1 1004   3.818   2.620   0.116
   35SOL    HW2 1005   3.725   2.558   0.234
   36SOL     OW 1006   4.693   0.630   4.248
   36SOL    HW1 1007   4.677   0.547   4.301
   36SOL    HW2 1008   4.756   0.690   4.298
   37SOL     OW 1009   1.969   0.894   3.689
   37SOL    HW1 1010   1.969   0.801   3.653
   37SOL    HW2 1011   2.043   0.946   3.645
   38SOL     OW 1012   1.210   4.487   2.391
   38SOL    HW1 1013   1.234   4.498   2.295
   38SOL    HW2 1014   1.149   4.561   2.419
   39SOL     OW 1015   6.415   5.252   6.492
   39SOL    HW1 1016   6.510   5.232   6.470
   39SOL    HW2 1017   6.385   5.332   6.439
   40SOL     OW 1018   3.429   0.807   6.016
   40SOL    HW1 1019   3.424   0.707   6.007
   40SOL    HW2 1020   3.495   0.830   6.088
   41SOL     OW 1021   6.354   3.911   2.053
   41SOL    HW1 1022   6.279   3.958   2.007
   41SOL    HW2 1023   6.440   3.932   2.006
   42SOL     OW 1024   2.333   6.042   5.643
   42SOL    HW1 1025   2.355   6.056   5.547
   42SOL    HW2 1026   2.416   6.012   5.692
   43SOL     OW 1027   5.196   6.714   4.627
   43SOL    HW1 1028   5.135   6.640   4.657
   43SOL    HW2 1029   5.291   6.689   4.647
   44SOL     OW 1030   6.124   2.255   5.628
   44SOL    HW1 1031   6.151   2.164   5.597
   44SOL    HW2 1032   6.059   2.294   5.562
   45SOL     OW 1033   3.989   5.083   0.129
   45SOL    HW1 1034   3.996   5.016   0.055
   45SOL    HW2 1035   3.980   5.175   0.090
   46SOL     OW 1036   0.698   2.937   4.768
   46SOL    HW1 1037   0.670   2.941   4.673
   46SOL    HW2 1038   0.625   2.897   4.824
   47SOL     OW 1039   5.670   2.960   1.603
   47SOL    HW1 1040   5.595   2.960   1.669
   47SOL    HW2 1041   5.654   3.031   1.534
   48SOL     OW 1042   6.623   3.874   0.014
   48SOL    HW1 1043   6.594   3.917   6.950
   48SOL    HW2 1044   6.719   3.848   0.008
   49SOL     OW 1045   4.163   3.168   0.021
   49SOL    HW1 1046   4.209   3.199   6.959
   49SOL    HW2 1047   4.086   3.109   7.019
   50SOL     OW 1048   6.361   3.089   6.387
   50SOL    HW1 1049   6.292   3.066   6.455
   50SOL    HW2 1050   6.416   3.167   6.418
   51SOL     OW 1051   2.430   5.447   3.335
   51SOL    HW1 1052   2.477   5.461   3.248
   51SOL    HW2 1053   2.401   5.352   3.343
   52SOL     OW 1054   5.792   2.472   1.633
   52SOL    HW1 1055   5.866   2.472   1.700
   52SOL    HW2 1056   5.760   2.379   1.619
   53SOL     OW 1057   3.987   0.655   2.774
   53SOL    HW1 1058   4.037   0.729   2.728
   53SOL    HW2 1059   3.897   0.644   2.731
   54SOL     OW 1060   5.136   6.898   6.866
   54SOL    HW1 1061   5.059   6.862   6.918
   54SOL    HW2 1062   5.156   6.837   6.789
   55SOL     OW 1063   1.782   3.461   6.281
   55SOL    HW1 1064   1.748   3.377   6.239
   55SOL    HW2 1065   1.711   3.531   6.280
   56SOL     OW 1066   1.565   2.540   6.635
   56SOL    HW1 1067   1.571   2.594   6.719
   56SOL    HW2 1068   1.620   2.456   6.646
   57SOL     OW 1069   4.236   0.615   0.190
   57SOL    HW1 1070   4.189   0.693   0.232
   57SOL    HW2 1071   4.335   0.628   0.198
   58SOL     OW 1072   0.896   0.794   6.236
   58SOL    HW1 1073   0.812   0.784   6.288
   58SOL    HW2 1074   0.927   0.704   6.204
   59SOL     OW 1075   5.072   3.393   6.382
   59SOL    HW1 1076   5.148   3.417   6.443
   59SOL    HW2 1077   4.997   3.458   6.396
   60SOL     OW 1078   5.479   0.630   3.007
   60SOL    HW1 1079   5.450   0.574   2.929
   60SOL    HW2 1080   5.493   0.725   2.976
   61SOL     OW 1081   0.329   0.145   5.149
   61SOL    HW1 1082   0.356   0.104   5.062
   61SOL    HW2 1083   0.375   0.097   5.224
   62SOL     OW 1084   7.016   2.226   2.175
   62SOL    HW1 1085   6.983   2.234   2.081
   62SOL    HW2 1086   0.080   2.276   2.184
   63SOL     OW 1087   4.295   6.229   4.660
   63SOL    HW1 1088   4.366   6.160   4.669
   63SOL    HW2 1089   4.307   6.278   4.574
   64SOL     OW 1090   1.282   4.965   6.807
   64SOL    HW1 1091   1.274   4.925   6.716
   64SOL    HW2 1092   1.359   5.029   6.809
   65SOL     OW 1093   0.530   0.395   5.349
   65SOL    HW1 1094   0.513   0.493   5.338
   65SOL    HW2 1095   0.568   0.358   5.265
   66SOL     OW 1096   4.114   0.834   2.130
   66SOL    HW1 1097   4.127   0.740   2.098
   66SOL    HW2 1098   4.198   0.887   2.114
   67SOL     OW 1099   0.284   2.747   0.826
   67SOL    HW1 1100   0.247   2.664   0.785
   67SOL    HW2 1101   0.267   2.745   0.925
   68SOL     OW 1102   6.548   2.382   5.660
   68SOL    HW1 1103   6.485   2.347   5.590
   68SOL    HW2 1104   6.623   2.318   5.673
   69SOL     OW 1105   0.958   4.966   6.190
   69SOL    HW1 1106   0.874   4.913   6.203
   69SOL    HW2 1107   0.938   5.063   6.204
   70SOL     OW 1108   5.314   2.968   4.400
   70SOL    HW1 1109   5.321   3.058   4.443
   70SOL    HW2 1110   5.217   2.942   4.395
   71SOL     OW 1111   3.965   1.569   4.393
   71SOL    HW1 1112   3.933   1.663   4.378
   71SOL    HW2 1113   4.020   1.566   4.477
   72SOL     OW 1114   6.726   1.173   3.628
   72SOL    HW1 1115   6.782   1.181   3.546
   72SOL    HW2 1116   6.694   1.264   3.656
   73SOL     OW 1117   2.422   0.605   1.168
   73SOL    HW1 1118   2.374   0.636   1.087
   73SOL    HW2 1119   2.403   0.667   1.244
   74SOL     OW 1120   1.657   2.016   0.253
   74SOL    HW1 1121   1.644   1.985   0.347
   74SOL    HW2 1122   1.754   2.014   0.231
   75SOL     OW 1123   4.182   1.955   0.776
   75SOL    HW1 1124   4.150   1.936   0.683
   75SOL    HW2 1125   4.268   2.006   0.772
   76SOL     OW 1126   3.109   4.579   5.333
   76SOL    HW1 1127   3.034   4.543   5.278
   76SOL    HW2 1128   3.115   4.678   5.321
   77SOL     OW 1129   1.679   4.189   4.008
   77SOL    HW1 1130   1.595   4.224   3.966
   77SOL    HW2 1131   1.655   4.131   4.086
   78SOL     OW 1132   4.618   1.447   1.132
   78SOL    HW1 1133   4.628   1.538   1.093
   78SOL    HW2 1134   4.633   1.378   1.061
   79SOL     OW 1135   1.982   5.322   2.055
   79SOL    HW1 1136   2.022   5.285   2.139
   79SOL    HW2 1137   2.038   5.294   1.976
   80SOL     OW 1138   4.790   1.643   4.889
   80SOL    HW1 1139   4.758   1.561   4.842
   80SOL    HW2 1140   4.824   1.618   4.980
   81SOL     OW 1141   3.086   5.880   1.618
   81SOL    HW1 1142   3.110   5.973   1.646
   81SOL    HW2 1143   3.047   5.882   1.526
   82SOL     OW 1144   1.353   6.339   1.323
   82SOL    HW1 1145   1.291   6.393   1.266
   82SOL    HW2 1146   1.404   6.274   1.266
   83SOL     OW 1147   5.369   1.907   4.888
   83SOL    HW1 1148   5.386   1.809   4.894
   83SOL    HW2 1149   5.415   1.944   4.807
   84SOL     OW 1150   6.148   2.923   3.075
   84SOL    HW1 1151   6.075   2.885   3.019
   84SOL    HW2 1152   6.196   2.849   3.122
   85SOL     OW 1153   2.359   0.347   4.257
   85SOL    HW1 1154   2.415   0.306   4.185
   85SOL    HW2 1155   2.417   0.385   4.328
   86SOL     OW 1156   5.683   0.766   6.440
   86SOL    HW1 1157   5.692   0.710   6.522
   86SOL    HW2 1158   5.763   0.827   6.433
   87SOL     OW 1159   3.124   3.796   6.695
   87SOL    HW1 1160   3.191   3.828   6.628
   87SOL    HW2 1161   3.171   3.769   6.779
   88SOL     OW 1162   3.347   3.312   0.049
   88SOL    HW1 1163   3.416   3.341   7.005
   88SOL    HW2 1164   3.336   3.213   0.046
   89SOL     OW 1165   2.977   3.873   2.972
   89SOL    HW1 1166   2.916   3.911   2.903
   89SOL    HW2 1167   2.973   3.773   2.969
   90SOL     OW 1168   4.783   4.294   2.864
   90SOL    HW1 1169   4.760   4.208   2.819
   90SOL    HW2 1170   4.750   4.370   2.809
   91SOL     OW 1171   5.433   5.144   6.307
   91SOL    HW1 1172   5.378   5.146   6.390
   91SOL    HW2 1173   5.413   5.224   6.251
   92SOL     OW 1174   5.525   4.193   6.787
   92SOL    HW1 1175   5.585   4.193   6.867
   92SOL    HW2 1176   5.579   4.209   6.704
   93SOL     OW 1177   2.983   3.239   1.809
   93SOL    HW1 1178   3.072   3.255   1.766
   93SOL    HW2 1179   2.969   3.141   1.821
   94SOL     OW 1180   3.233   1.198   6.078
   94SOL    HW1 1181   3.289   1.240   6.007
   94SOL    HW2 1182   3.181   1.122   6.039
   95SOL     OW 1183   6.850   0.534   4.019
   95SOL    HW1 1184   6.838   0.553   4.117
   95SOL    HW2 1185   6.903   0.450   4.008
   96SOL     OW 1186   4.742   5.170   0.495
   96SOL    HW1 1187   4.649   5.207   0.499
   96SOL    HW2 1188   4.744   5.093   0.431
   97SOL     OW 1189   1.730   5.449   5.340
   97SOL    HW1 1190   1.746   5.387   5.417
   97SOL    HW2 1191   1.802   5.519   5.338
   98SOL     OW 1192   1.112   2.837   2.895
   98SOL    HW1 1193   1.073   2.882   2.974
   98SOL    HW2 1194   1.193   2.785   2.923
   99SOL     OW 1195   4.035   3.357   4.324
   99SOL    HW1 1196   4.079   3.346   4.235
   99SOL    HW2 1197   3.999   3.270   4.355
  100SOL     OW 1198   6.804   0.190   3.599
  100SOL    HW1 1199   6.816   0.275   3.547
  100SOL    HW2 1200   6.733   0.204   3.668
  101SOL     OW 1201   6.900   3.210   2.745
  101SOL    HW1 1202   6.803   3.194   2.732
  101SOL    HW2 1203   6.944   3.225   2.656
  102SOL     OW 1204   2.679   6.543   0.842
  102SOL    HW1 1205   2.587   6.517   0.813
  102SOL    HW2 1206   2.731   6.575   0.763
  103SOL     OW 1207   1.943   0.952   1.810
  103SOL    HW1 1208   2.040   0.975   1.802
  103SOL    HW2 1209   1.933   0.853   1.821
  104SOL     OW 1210   1.502   4.738   1.587
  104SOL    HW1 1211   1.531   4.824   1.544
  104SOL    HW2 1212   1.409   4.716   1.558
  105SOL     OW 1213   4.836   1.702   6.344
  105SOL    HW1 1214   4.855   1.800   6.342
  105SOL    HW2 1215   4.784   1.677   6.262
  106SOL     OW 1216   6.228   4.863   2.227
  106SOL    HW1 1217   6.203   4.832   2.135
  106SOL    HW2 1218   6.225   4.963   2.231
  107SOL     OW 1219   6.242   0.375   1.178
  107SOL    HW1 1220   6.206   0.314   1.248
  107SOL    HW2 1221   6.174   0.443   1.154
  108SOL     OW 1222   1.596   0.568   6.065
  108SOL    HW1 1223   1.529   0.549   5.993
  108SOL    HW2 1224   1.612   0.667   6.071
  109SOL     OW 1225   2.303   1.098   3.676
  109SOL    HW1 1226   2.303   1.008   3.719
  109SOL    HW2 1227   2.226   1.104   3.612
  110SOL     OW 1228   2.619   4.361   5.532
  110SOL    HW1 1229   2.526   4.323   5.522
  110SOL    HW2 1230   2.686   4.287   5.520
  111SOL     OW 1231   6.689   1.832   1.999
  111SOL    HW1 1232   6.718   1.854   2.092
  111SOL    HW2 1233   6.632   1.906   1.964
  112SOL     OW 1234   4.789   6.973   6.724
  112SOL    HW1 1235   4.705   7.002   6.678
  112SOL    HW2 1236   4.807   0.012   6.802
  113SOL     OW 1237   6.795   6.223   1.964
  113SOL    HW1 1238   6.728   6.289   1.998
  113SOL    HW2 1239   6.775   6.202   1.868
  114SOL     OW 1240   0.753   4.048   3.482
  114SOL    HW1 1241   0.789   4.079   3.570
  114SOL    HW2 1242   0.771   3.950   3.472
  115SOL     OW 1243   5.727   1.165   3.250
  115SOL    HW1 1244   5.703   1.207   3.162
  115SOL    HW2 1245   5.717   1.233   3.322
  116SOL     OW 1246   1.319   4.784   0.756
  116SOL    HW1 1247   1.266   4.738   0.827
  116SOL    HW2 1248   1.274   4.773   0.668
  117SOL     OW 1249   2.407   1.354   0.101
  117SOL    HW1 1250   2.470   1.430   0.082
  117SOL    HW2 1251   2.422   1.281   0.034
  118SOL     OW 1252   1.770   1.223   4.505
  118SOL    HW1 1253   1.686   1.223   4.450
  118SOL    HW2 1254   1.751   1.182   4.594
  119SOL     OW 1255   0.105   5.985   6.304
  119SOL    HW1 1256   0.078   6.028   6.391
  119SOL    HW2 1257   0.064   5.894   6.298
  120SOL     OW 1258   4.600   2.125   4.541
  120SOL    HW1 1259   4.683   2.111   4.596
  120SOL    HW2 1260   4.556   2.210   4.568
  121SOL     OW 1261   1.206   3.804   6.250
  121SOL    HW1 1262   1.141   3.836   6.319
  121SOL    HW2 1263   1.286   3.764   6.296
  122SOL     OW 1264   0.695   4.078   0.323
  122SOL    HW1 1265   0.697   3.984   0.290
  122SOL    HW2 1266   0.788   4.113   0.329
  123SOL     OW 1267   1.193   1.033   1.594
  123SOL    HW1 1268   1.106   1.002   1.631
  123SOL    HW2 1269   1.179   1.117   1.541
  124SOL     OW 1270   2.222   2.430   0.784
  124SOL    HW1 1271   2.147   2.438   0.717
  124SOL    HW2 1272   2.301   2.481   0.750
  125SOL     OW 1273   3.694   3.015   0.336
  125SOL    HW1 1274   3.695   2.956   0.416
  125SOL    HW2 1275   3.599   3.035   0.311
  126SOL     OW 1276   3.738   3.344   4.132
  126SOL    HW1 1277   3.815   3.280   4.132
  126SOL    HW2 1278   3.771   3.434   4.163
  127SOL     OW 1279   0.572   6.502   5.967
  127SOL    HW1 1280   0.627   6.473   6.045
  127SOL    HW2 1281   0.575   6.431   5.896
  128SOL     OW 1282   4.664   3.647   0.937
  128SOL    HW1 1283   4.594   3.619   1.003
  128SOL    HW2 1284   4.642   3.737   0.901
  129SOL     OW 1285   2.100   6.231   1.294
  129SOL    HW1 1286   2.024   6.247   1.358
  129SOL    HW2 1287   2.167   6.172   1.337
  130SOL     OW 1288   5.693   2.414   4.680
  130SOL    HW1 1289   5.673   2.338   4.742
  130SOL    HW2 1290   5.715   2.379   4.589
  131SOL     OW 1291   6.819   2.465   3.396
  131SOL    HW1 1292   6.749   2.395   3.407
  131SOL    HW2 1293   6.803   2.516   3.311
  132SOL     OW 1294   3.448   3.963   1.894
  132SOL    HW1 1295   3.349   3.954   1.879
  132SOL    HW2 1296   3.474   4.059   1.885
  133SOL     OW 1297   5.370   6.722   5.748
  133SOL    HW1 1298   5.369   6.657   5.825
  133SOL    HW2 1299   5.433   6.689   5.678
  134SOL     OW 1300   5.807   0.914   2.225
  134SOL    HW1 1301   5.840   0.861   2.147
  134SOL    HW2 1302   5.881   0.973   2.259
  135SOL     OW 1303   4.869   3.580   4.427
  135SOL    HW1 1304   4.930   3.616   4.356
  135SOL    HW2 1305   4.860   3.648   4.500
  136SOL     OW 1306   3.611   7.017   5.502
  136SOL    HW1 1307   3.628   0.091   5.529
  136SOL    HW2 1308   3.551   7.016   5.422
  137SOL     OW 1309   2.939   2.337   5.242
  137SOL    HW1 1310   2.995   2.299   5.315
  137SOL    HW2 1311   2.990   2.336   5.156
  138SOL     OW 1312   0.835   6.003   5.816
  138SOL    HW1 1313   0.929   5.985   5.785
  138SOL    HW2 1314   0.776   5.927   5.789
  139SOL     OW 1315   2.206   6.264   6.733
  139SOL    HW1 1316   2.126   6.305   6.688
  139SOL    HW2 1317   2.176   6.222   6.819
  140SOL     OW 1318   2.134   0.625   2.700
  140SOL    HW1 1319   2.086   0.622   2.612
  140SOL    HW2 1320   2.232   0.609   2.684
  141SOL     OW 1321   0.109   4.662   0.363
  141SOL    HW1 1322   0.178   4.644   0.433
  141SOL    HW2 1323   0.153   4.666   0.273
  142SOL     OW 1324   1.630   4.120   2.118
  142SOL    HW1 1325   1.644   4.022   2.112
  142SOL    HW2 1326   1.661   4.164   2.033
  143SOL     OW 1327   4.749   6.841   1.917
  143SOL    HW1 1328   4.788   6.788   1.842
  143SOL    HW2 1329   4.814   6.913   1.943
  144SOL     OW 1330   3.333   4.908   3.503
  144SOL    HW1 1331   3.383   4.960   3.433
  144SOL    HW2 1332   3.395   4.841   3.545
  145SOL     OW 1333   0.042   4.472   3.046
  145SOL    HW1 1334   7.021   4.542   2.989
  145SOL    HW2 1335   0.038   4.500   3.142
  146SOL     OW 1336   5.940   1.368   6.121
  146SOL    HW1 1337   5.923   1.463   6.097
  146SOL    HW2 1338   5.951   1.360   6.220
  147SOL     OW 1339   4.717   1.448   5.500
  147SOL    HW1 1340   4.680   1.358   5.480
  147SOL    HW2 1341   4.720   1.462   5.599
  148SOL     OW 1342   1.165   5.235   1.410
  148SOL    HW1 1343   1.214   5.317   1.439
  148SOL    HW2 1344   1.118   5.253   1.324
  149SOL     OW 1345   2.135   2.587   5.804
  149SOL    HW1 1346   2.036   2.581   5.807
  149SOL    HW2 1347   2.163   2.635   5.720
  150SOL     OW 1348   4.392   1.764   4.607
  150SOL    HW1 1349   4.462   1.799   4.669
  150SOL    HW2 1350   4.392   1.664   4.610
  151SOL     OW 1351   4.358   2.415   0.840
  151SOL    HW1 1352   4.379   2.503   0.798
  151SOL    HW2 1353   4.407   2.408   0.928
  152SOL     OW 1354   0.842   1.181   0.165
  152SOL    HW1 1355   0.842   1.212   0.260
  152SOL    HW2 1356   0.832   1.082   0.162
  153SOL     OW 1357   2.839   1.069   3.973
  153SOL    HW1 1358   2.939   1.069   3.967
  153SOL    HW2 1359   2.811   1.103   4.063
  154SOL     OW 1360   5.992   1.993   1.276
  154SOL    HW1 1361   5.968   1.927   1.205
  154SOL    HW2 1362   6.090   2.013   1.273
  155SOL     OW 1363   1.480   6.874   1.985
  155SOL    HW1 1364   1.533   6.878   2.070
  155SOL    HW2 1365   1.489   6.961   1.936
  156SOL     OW 1366   5.590   2.413   0.396
  156SOL    HW1 1367   5.536   2.381   0.318
  156SOL    HW2 1368   5.548   2.495   0.434
  157SOL     OW 1369   4.817   5.129   0.102
  157SOL    HW1 1370   4.881   5.055   0.123
  157SOL    HW2 1371   4.739   5.125   0.165
  158SOL     OW 1372   0.365   3.245   2.896
  158SOL    HW1 1373   0.342   3.148   2.886
  158SOL    HW2 1374   0.405   3.261   2.986
  159SOL     OW 1375   5.624   5.629   0.729
  159SOL    HW1 1376   5.659   5.553   0.675
  159SOL    HW2 1377   5.647   5.614   0.825
  160SOL     OW 1378   6.156   6.922   1.235
  160SOL    HW1 1379   6.134   6.966   1.322
  160SOL    HW2 1380   6.210   6.985   1.179
  161SOL     OW 1381   0.534   6.889   0.369
  161SOL    HW1 1382   0.485   6.862   0.451
  161SOL    HW2 1383   0.530   6.988   0.358
  162SOL     OW 1384   3.924   6.733   0.399
  162SOL    HW1 1385   3.979   6.649   0.404
  162SOL    HW2 1386   3.962   6.801   0.460
  163SOL     OW 1387   0.014   3.563   3.792
  163SOL    HW1 1388   7.008   3.511   3.711
  163SOL    HW2 1389   0.057   3.648   3.763
  164SOL     OW 1390   1.508   2.189   3.359
  164SOL    HW1 1391   1.458   2.226   3.438
  164SOL    HW2 1392   1.566   2.261   3.320
  165SOL     OW 1393   1.080   5.496   3.139
  165SOL    HW1 1394   1.083   5.560   3.062
  165SOL    HW2 1395   0.988   5.458   3.147
  166SOL     OW 1396   6.960   3.736   2.652
  166SOL    HW1 1397   6.932   3.655   2.599
  166SOL    HW2 1398   6.990   3.708   2.743
  167SOL     OW 1399   4.887   2.076   6.923
  167SOL    HW1 1400   4.873   2.134   7.004
  167SOL    HW2 1401   4.802   2.070   6.870
  168SOL     OW 1402   4.888   3.563   2.169
  168SOL    HW1 1403   4.871   3.568   2.071
  168SOL    HW2 1404   4.827   3.626   2.217
  169SOL     OW 1405   6.120   2.563   1.014
  169SOL    HW1 1406   6.078   2.581   1.102
  169SOL    HW2 1407   6.152   2.468   1.011
  170SOL     OW 1408   0.745   4.866   2.640
  170SOL    HW1 1409   0.803   4.825   2.710
  170SOL    HW2 1410   0.768   4.828   2.550
  171SOL     OW 1411   3.034   3.292   0.611
  171SOL    HW1 1412   2.977   3.372   0.593
  171SOL    HW2 1413   2.992   3.236   0.683
  172SOL     OW 1414   6.350   2.075   0.844
  172SOL    HW1 1415   6.300   2.031   0.769
  172SOL    HW2 1416   6.309   2.164   0.863
  173SOL     OW 1417   6.405   2.024   5.726
  173SOL    HW1 1418   6.351   1.963   5.784
  173SOL    HW2 1419   6.446   2.095   5.783
  174SOL     OW 1420   6.009   5.370   5.565
  174SOL    HW1 1421   5.963   5.285   5.592
  174SOL    HW2 1422   6.008   5.377   5.465
  175SOL     OW 1423   0.612   0.390   0.706
  175SOL    HW1 1424   0.620   0.373   0.804
  175SOL    HW2 1425   0.518   0.418   0.686
  176SOL     OW 1426   5.388   4.728   2.775
  176SOL    HW1 1427   5.409   4.676   2.858
  176SOL    HW2 1428   5.465   4.720   2.711
  177SOL     OW 1429   5.883   2.143   4.103
  177SOL    HW1 1430   5.920   2.084   4.175
  177SOL    HW2 1431   5.861   2.089   4.023
  178SOL     OW 1432   1.822   6.554   5.485
  178SOL    HW1 1433   1.909   6.597   5.462
  178SOL    HW2 1434   1.751   6.585   5.421
  179SOL     OW 1435   3.768   5.130   0.828
  179SOL    HW1 1436   3.857   5.100   0.795
  179SOL    HW2 1437   3.703   5.053   0.822
  180SOL     OW 1438   4.356   1.534   0.922
  180SOL    HW1 1439   4.405   1.482   0.992
  180SOL    HW2 1440   4.397   1.625   0.913
  181SOL     OW 1441   3.621   2.302   5.625
  181SOL    HW1 1442   3.674   2.264   5.549
  181SOL    HW2 1443   3.579   2.388   5.596
  182SOL     OW 1444   4.838   2.024   6.295
  182SOL    HW1 1445   4.827   2.095   6.226
  182SOL    HW2 1446   4.748   2.003   6.335
  183SOL     OW 1447   3.316   1.327   3.629
  183SOL    HW1 1448   3.314   1.268   3.709
  183SOL    HW2 1449   3.268   1.282   3.553
  184SOL     OW 1450   6.593   6.511   2.974
  184SOL    HW1 1451   6.582   6.419   3.012
  184SOL    HW2 1452   6.590   6.506   2.874
  185SOL     OW 1453   0.387   1.109   4.313
  185SOL    HW1 1454   0.404   1.186   4.251
  185SOL    HW2 1455   0.459   1.041   4.301
  186SOL     OW 1456   4.521   5.742   3.466
  186SOL    HW1 1457   4.470   5.796   3.533
  186SOL    HW2 1458   4.458   5.681   3.418
  187SOL     OW 1459   4.232   5.983   1.995
  187SOL    HW1 1460   4.320   6.030   2.000
  187SOL    HW2 1461   4.166   6.030   2.053
  188SOL     OW 1462   2.358   2.771   3.099
  188SOL    HW1 1463   2.298   2.836   3.146
  188SOL    HW2 1464   2.366   2.797   3.002
  189SOL     OW 1465   6.171   4.892   6.252
  189SOL    HW1 1466   6.119   4.900   6.337
  189SOL    HW2 1467   6.164   4.978   6.200
  190SOL     OW 1468   5.828   0.285   0.158
  190SOL    HW1 1469   5.856   0.262   0.252
  190SOL    HW2 1470   5.743   0.338   0.161
  191SOL     OW 1471   6.205   0.710   5.549
  191SOL    HW1 1472   6.288   0.699   5.493
  191SOL    HW2 1473   6.203   0.802   5.587
  192SOL     OW 1474   0.803   5.266   0.556
  192SOL    HW1 1475   0.799   5.166   0.557
  192SOL    HW2 1476   0.884   5.295   0.506
  193SOL     OW 1477   2.627   5.357   6.077
  193SOL    HW1 1478   2.549   5.296   6.063
  193SOL    HW2 1479   2.706   5.304   6.104
  194SOL     OW 1480   3.689   6.968   2.327
  194SOL    HW1 1481   3.699   0.018   2.258
  194SOL    HW2 1482   3.651   7.008   2.411
  195SOL     OW 1483   2.821   1.246   1.628
  195SOL    HW1 1484   2.894   1.304   1.664
  195SOL    HW2 1485   2.750   1.302   1.587
  196SOL     OW 1486   2.008   0.893   6.836
  196SOL    HW1 1487   2.051   0.983   6.841
  196SOL    HW2 1488   1.916   0.901   6.797
  197SOL     OW 1489   2.451   5.729   0.211
  197SOL    HW1 1490   2.405   5.733   0.122
  197SOL    HW2 1491   2.402   5.785   0.277
  198SOL     OW 1492   4.291   6.262   0.105
  198SOL    HW1 1493   4.265   6.331   0.037
  198SOL    HW2 1494   4.345   6.190   0.060
  199SOL     OW 1495   6.232   6.696   2.947
  199SOL    HW1 1496   6.207   6.609   2.905
  199SOL    HW2 1497   6.271   6.680   3.037
  200SOL     OW 1498   0.327   3.971   2.994
  200SOL    HW1 1499   0.417   4.008   3.015
  200SOL    HW2 1500   0.275   4.038   2.941
  201SOL     OW 1501   3.009   0.929   0.225
  201SOL    HW1 1502   2.956   0.852   0.260
  201SOL    HW2 1503   2.960   0.971   0.148
  202SOL     OW 1504   3.587   6.923   3.539
  202SOL    HW1 1505   3.637   6.836   3.542
  202SOL    HW2 1506   3.641   6.990   3.488
  203SOL     OW 1507   5.374   3.584   6.188
  203SOL    HW1 1508   5.363   3.541   6.277
  203SOL    HW2 1509   5.471   3.604   6.172
  204SOL     OW 1510   2.557   6.792   0.656
  204SOL    HW1 1511   2.494   6.724   0.619
  204SOL    HW2 1512   2.650   6.771   0.625
  205SOL     OW 1513   6.055   1.960   0.974
  205SOL    HW1 1514   6.133   1.954   1.037
  205SOL    HW2 1515   6.058   1.884   0.910
  206SOL     OW 1516   0.058   4.848   1.724
  206SOL    HW1 1517   0.087   4.885   1.812
  206SOL    HW2 1518   6.980   4.856   1.715
  207SOL     OW 1519   4.744   1.037   5.845
  207SOL    HW1 1520   4.655   1.084   5.847
  207SOL    HW2 1521   4.734   0.949   5.798
  208SOL     OW 1522   4.997   5.743   6.165
  208SOL    HW1 1523   4.982   5.699   6.076
  208SOL    HW2 1524   4.968   5.839   6.159
  209SOL     OW 1525   6.650   5.413   6.017
  209SOL    HW1 1526   6.668   5.325   6.061
  209SOL    HW2 1527   6.594   5.399   5.935
  210SOL     OW 1528   4.038   2.243   1.308
  210SOL    HW1 1529   3.987   2.175   1.256
  210SOL    HW2 1530   4.069   2.316   1.247
  211SOL     OW 1531   0.538   1.182   1.005
  211SOL    HW1 1532   0.633   1.155   0.989
  211SOL    HW2 1533   0.484   1.163   0.923
  212SOL     OW 1534   1.039   5.342   3.658
  212SOL    HW1 1535   1.070   5.318   3.750
  212SOL    HW2 1536   1.040   5.441   3.647
  213SOL     OW 1537   5.119   2.127   6.825
  213SOL    HW1 1538   5.177   2.053   6.792
  213SOL    HW2 1539   5.035   2.090   6.863
  214SOL     OW 1540   0.942   6.507   2.230
  214SOL    HW1 1541   0.867   6.458   2.187
  214SOL    HW2 1542   1.022   6.505   2.169
  215SOL     OW 1543   3.242   3.085   2.309
  215SOL    HW1 1544   3.319   3.080   2.246
  215SOL    HW2 1545   3.247   3.171   2.361
  216SOL     OW 1546   0.803   0.294   5.441
  216SOL    HW1 1547   0.803   0.393   5.455
  216SOL    HW2 1548   0.762   0.273   5.352
  217SOL     OW 1549   1.140   3.148   3.969
  217SOL    HW1 1550   1.053   3.181   4.007
  217SOL    HW2 1551   1.130   3.052   3.942
  218SOL     OW 1552   1.198   3.117   5.018
  218SOL    HW1 1553   1.143   3.055   4.962
  218SOL    HW2 1554   1.144   3.198   5.040
  219SOL     OW 1555   4.496   4.833   0.532
  219SOL    HW1 1556   4.481   4.761   0.600
  219SOL    HW2 1557   4.591   4.829   0.500
  220SOL     OW 1558   2.609   5.030   6.917
  220SOL    HW1 1559   2.588   5.125   6.937
  220SOL    HW2 1560   2.639   5.021   6.822
  221SOL     OW 1561   5.278   2.356   3.795
  221SOL    HW1 1562   5.268   2.312   3.706
  221SOL    HW2 1563   5.375   2.362   3.818
  222SOL     OW 1564   0.494   5.926   5.984
  222SOL    HW1 1565   0.440   5.979   6.050
  222SOL    HW2 1566   0.439   5.851   5.948
  223SOL     OW 1567   0.151   3.527   1.919
  223SOL    HW1 1568   0.231   3.560   1.969
  223SOL    HW2 1569   0.162   3.548   1.822
  224SOL     OW 1570   2.693   2.195   2.012
  224SOL    HW1 1571   2.789   2.223   2.004
  224SOL    HW2 1572   2.673   2.127   1.942
  225SOL     OW 1573   5.857   0.834   0.022
  225SOL    HW1 1574   5.843   0.932   0.037
  225SOL    HW2 1575   5.925   0.820   6.972
  226SOL     OW 1576   0.751   6.145   0.373
  226SOL    HW1 1577   0.759   6.241   0.398
  226SOL    HW2 1578   0.842   6.105   0.364
  227SOL     OW 1579   1.627   3.673   3.921
  227SOL    HW1 1580   1.725   3.686   3.903
  227SOL    HW2 1581   1.604   3.576   3.913
  228SOL     OW 1582   4.690   6.479   3.681
  228SOL    HW1 1583   4.758   6.522   3.740
  228SOL    HW2 1584   4.684   6.381   3.702
  229SOL     OW 1585   6.073   6.244   2.027
  229SOL    HW1 1586   6.099   6.148   2.021
  229SOL    HW2 1587   6.089   6.289   1.939
  230SOL     OW 1588   2.228   4.324   5.013
  230SOL    HW1 1589   2.299   4.389   4.987
  230SOL    HW2 1590   2.266   4.232   5.019
  231SOL     OW 1591   0.502   3.501   6.308
  231SOL    HW1 1592   0.537   3.593   6.322
  231SOL    HW2 1593   0.409   3.506   6.270
  232SOL     OW 1594   1.431   3.605   0.050
  232SOL    HW1 1595   1.464   3.689   0.006
  232SOL    HW2 1596   1.508   3.552   0.083
  233SOL     OW 1597   1.971   1.692   5.420
  233SOL    HW1 1598   2.058   1.741   5.406
  233SOL    HW2 1599   1.914   1.744   5.483
  234SOL     OW 1600   2.667   4.996   6.661
  234SOL    HW1 1601   2.719   5.042   6.589
  234SOL    HW2 1602   2.627   4.912   6.625
  235SOL     OW 1603   3.326   3.472   4.194
  235SOL    HW1 1604   3.322   3.542   4.265
  235SOL    HW2 1605   3.248   3.481   4.133
  236SOL     OW 1606   6.662   2.499   5.343
  236SOL    HW1 1607   6.659   2.475   5.440
  236SOL    HW2 1608   6.574   2.478   5.301
  237SOL     OW 1609   0.675   6.992   1.506
  237SOL    HW1 1610   0.599   0.005   1.561
  237SOL    HW2 1611   0.759   6.995   1.560
  238SOL     OW 1612   5.493   3.290   2.533
  238SOL    HW1 1613   5.542   3.257   2.614
  238SOL    HW2 1614   5.495   3.390   2.532
  239SOL     OW 1615   6.989   5.893   6.996
  239SOL    HW1 1616   0.021   5.978   6.994
  239SOL    HW2 1617   6.933   5.887   6.913
  240SOL     OW 1618   0.490   4.052   5.950
  240SOL    HW1 1619   0.527   3.961   5.935
  240SOL    HW2 1620   0.458   4.090   5.864
  241SOL     OW 1621   0.308   0.870   3.258
  241SOL    HW1 1622   0.325   0.944   3.323
  241SOL    HW2 1623   0.300   0.908   3.166
  242SOL     OW 1624   1.626   3.572   4.411
  242SOL    HW1 1625   1.630   3.670   4.431
  242SOL    HW2 1626   1.548   3.552   4.352
  243SOL     OW 1627   5.686   6.537   5.269
  243SOL    HW1 1628   5.660   6.537   5.172
  243SOL    HW2 1629   5.708   6.444   5.298
  244SOL     OW 1630   5.692   2.108   4.967
  244SOL    HW1 1631   5.715   2.117   4.870
  244SOL    HW2 1632   5.767   2.061   5.014
  245SOL     OW 1633   6.109   2.849   4.137
  245SOL    HW1 1634   6.166   2.864   4.057
  245SOL    HW2 1635   6.013   2.845   4.109
  246SOL     OW 1636   4.957   3.597   3.211
  246SOL    HW1 1637   4.933   3.598   3.309
  246SOL    HW2 1638   4.927   3.510   3.171
  247SOL     OW 1639   2.086   1.540   3.671
  247SOL    HW1 1640   2.122   1.512   3.582
  247SOL    HW2 1641   2.150   1.605   3.714
  248SOL     OW 1642   5.638   1.468   3.801
  248SOL    HW1 1643   5.592   1.468   3.712
  248SOL    HW2 1644   5.731   1.431   3.790
  249SOL     OW 1645   3.476   6.829   4.270
  249SOL    HW1 1646   3.500   6.851   4.175
  249SOL    HW2 1647   3.502   6.905   4.330
  250SOL     OW 1648   5.244   3.468   5.916
  250SOL    HW1 1649   5.148   3.442   5.920
  250SOL    HW2 1650   5.276   3.492   6.008
  251SOL     OW 1651   4.349   2.574   6.856
  251SOL    HW1 1652   4.367   2.649   6.919
  251SOL    HW2 1653   4.274   2.518   6.891
  252SOL     OW 1654   6.835   0.502   5.993
  252SOL    HW1 1655   6.751   0.475   5.945
  252SOL    HW2 1656   6.859   0.431   6.060
  253SOL     OW 1657   2.865   3.063   0.481
  253SOL    HW1 1658   2.814   3.015   0.410
  253SOL    HW2 1659   2.959   3.028   0.484
  254SOL     OW 1660   5.804   2.713   5.038
  254SOL    HW1 1661   5.766   2.704   4.946
  254SOL    HW2 1662   5.761   2.646   5.099
  255SOL     OW 1663   2.867   2.097   3.212
  255SOL    HW1 1664   2.874   2.145   3.124
  255SOL    HW2 1665   2.837   2.161   3.282
  256SOL     OW 1666   5.226   5.058   7.011
  256SOL    HW1 1667   5.145   5.062   6.952
  256SOL    HW2 1668   5.199   5.026   0.080
  257SOL     OW 1669   2.880   5.765   6.032
  257SOL    HW1 1670   2.901   5.677   6.075
  257SOL    HW2 1671   2.817   5.817   6.091
  258SOL     OW 1672   5.477   4.308   4.335
  258SOL    HW1 1673   5.524   4.372   4.395
  258SOL    HW2 1674   5.540   4.238   4.303
  259SOL     OW 1675   1.343   1.943   2.775
  259SOL    HW1 1676   1.343   2.038   2.806
  259SOL    HW2 1677   1.386   1.936   2.685
  260SOL     OW 1678   5.694   0.511   5.602
  260SOL    HW1 1679   5.691   0.580   5.529
  260SOL    HW2 1680   5.753   0.436   5.573
  261SOL     OW 1681   1.008   4.046   2.232
  261SOL    HW1 1682   0.953   4.126   2.255
  261SOL    HW2 1683   1.096   4.076   2.194
  262SOL     OW 1684   0.813   4.320   2.222
  262SOL    HW1 1685   0.858   4.385   2.160
  262SOL    HW2 1686   0.757   4.257   2.169
  263SOL     OW 1687   0.678   1.776   4.403
  263SOL    HW1 1688   0.667   1.689   4.450
  263SOL    HW2 1689   0.756   1.826   4.442
  264SOL     OW 1690   2.053   4.519   6.358
  264SOL    HW1 1691   1.998   4.522   6.442
  264SOL    HW2 1692   2.026   4.595   6.299
  265SOL     OW 1693   5.244   4.674   4.309
  265SOL    HW1 1694   5.262   4.750   4.245
  265SOL    HW2 1695   5.246   4.588   4.259
  266SOL     OW 1696   4.010   1.624   0.701
  266SOL    HW1 1697   4.039   1.595   0.793
  266SOL    HW2 1698   4.021   1.547   0.638
  267SOL     OW 1699   1.333   2.087   6.144
  267SOL    HW1 1700   1.414   2.142   6.161
  267SOL    HW2 1701   1.275   2.087   6.225
  268SOL     OW 1702   4.213   4.909   4.560
  268SOL    HW1 1703   4.247   4.854   4.484
  268SOL    HW2 1704   4.258   4.879   4.645
  269SOL     OW 1705   0.845   2.191   5.998
  269SOL    HW1 1706   0.817   2.252   5.923
  269SOL    HW2 1707   0.806   2.224   6.083
  270SOL     OW 1708   5.127   1.021   2.971
  270SOL    HW1 1709   5.063   1.003   2.897
  270SOL    HW2 1710   5.193   1.090   2.943
  271SOL     OW 1711   1.377   0.848   6.772
  271SOL    HW1 1712   1.363   0.944   6.796
  271SOL    HW2 1713   1.296   0.795   6.798
  272SOL     OW 1714   3.225   5.950   3.472
  272SOL    HW1 1715   3.245   6.023   3.407
  272SOL    HW2 1716   3.299   5.942   3.538
  273SOL     OW 1717   2.721   6.239   5.199
  273SOL    HW1 1718   2.805   6.200   5.237
  273SOL    HW2 1719   2.666   6.279   5.273
  274SOL     OW 1720   6.118   2.598   2.540
  274SOL    HW1 1721   6.180   2.665   2.582
  274SOL    HW2 1722   6.128   2.601   2.441
  275SOL     OW 1723   6.790   5.759   5.277
  275SOL    HW1 1724   6.806   5.692   5.204
  275SOL    HW2 1725   6.707   5.810   5.257
  276SOL     OW 1726   6.360   6.270   3.670
  276SOL    HW1 1727   6.399   6.360   3.651
  276SOL    HW2 1728   6.261   6.272   3.652
  277SOL     OW 1729   4.035   1.743   5.587
  277SOL    HW1 1730   4.050   1.644   5.578
  277SOL    HW2 1731   4.021   1.765   5.683
  278SOL     OW 1732   5.461   3.504   2.792
  278SOL    HW1 1733   5.363   3.512   2.775
  278SOL    HW2 1734   5.482   3.412   2.823
  279SOL     OW 1735   0.017   2.554   3.500
  279SOL    HW1 1736   6.942   2.561   3.472
  279SOL    HW2 1737   0.028   2.594   3.591
  280SOL     OW 1738   3.579   0.385   4.174
  280SOL    HW1 1739   3.613   0.291   4.169
  280SOL    HW2 1740   3.639   0.444   4.120
  281SOL     OW 1741   4.903   6.135   4.036
  281SOL    HW1 1742   4.813   6.160   4.072
  281SOL    HW2 1743   4.895   6.050   3.984
  282SOL     OW 1744   4.256   1.806   0.131
  282SOL    HW1 1745   4.350   1.826   0.103
  282SOL    HW2 1746   4.194   1.870   0.085
  283SOL     OW 1747   6.397   1.506   4.927
  283SOL    HW1 1748   6.442   1.449   4.858
  283SOL    HW2 1749   6.309   1.539   4.891
  284SOL     OW 1750   5.881   5.115   4.519
  284SOL    HW1 1751   5.799   5.076   4.561
  284SOL    HW2 1752   5.944   5.145   4.591
  285SOL     OW 1753   4.189   0.394   6.596
  285SOL    HW1 1754   4.254   0.326   6.562
  285SOL    HW2 1755   4.229   0.444   6.672
  286SOL     OW 1756   3.574   5.111   4.877
  286SOL    HW1 1757   3.632   5.134   4.956
  286SOL    HW2 1758   3.627   5.122   4.793
  287SOL     OW 1759   2.677   6.614   5.715
  287SOL    HW1 1760   2.607   6.562   5.765
  287SOL    HW2 1761   2.632   6.671   5.646
  288SOL     OW 1762   3.489   1.020   0.618
  288SOL    HW1 1763   3.408   0.963   0.599
  288SOL    HW2 1764   3.493   1.040   0.715
  289SOL     OW 1765   0.489   6.391   4.099
  289SOL    HW1 1766   0.548   6.472   4.100
  289SOL    HW2 1767   0.421   6.398   4.172
  290SOL     OW 1768   3.399   0.517   4.315
  290SOL    HW1 1769   3.444   0.597   4.353
  290SOL    HW2 1770   3.466   0.462   4.264
  291SOL     OW 1771   4.186   0.581   4.908
  291SOL    HW1 1772   4.202   0.483   4.899
  291SOL    HW2 1773   4.269   0.631   4.886
  292SOL     OW 1774   3.632   0.309   3.643
  292SOL    HW1 1775   3.552   0.354   3.683
  292SOL    HW2 1776   3.612   0.285   3.548
  293SOL     OW 1777   5.868   6.735   2.880
  293SOL    HW1 1778   5.909   6.802   2.818
  293SOL    HW2 1779   5.940   6.685   2.927
  294SOL     OW 1780   5.897   0.857   5.698
  294SOL    HW1 1781   5.976   0.912   5.673
  294SOL    HW2 1782   5.921   0.797   5.775
  295SOL     OW 1783   0.843   1.838   5.442
  295SOL    HW1 1784   0.789   1.904   5.494
  295SOL    HW2 1785   0.921   1.884   5.401
  296SOL     OW 1786   6.954   1.628   1.426
  296SOL    HW1 1787   0.018   1.598   1.467
  296SOL    HW2 1788   6.918   1.556   1.367
  297SOL     OW 1789   5.753   4.280   3.634
  297SOL    HW1 1790   5.740   4.182   3.615
  297SOL    HW2 1791   5.800   4.290   3.721
  298SOL     OW 1792   3.634   1.143   0.051
  298SOL    HW1 1793   3.664   1.075   0.119
  298SOL    HW2 1794   3.538   1.165   0.066
  299SOL     OW 1795   2.235   1.406   6.235
  299SOL    HW1 1796   2.257   1.495   6.276
  299SOL    HW2 1797   2.198   1.345   6.305
  300SOL     OW 1798   3.961   0.771   3.050
  300SOL    HW1 1799   3.969   0.721   2.964
  300SOL    HW2 1800   3.967   0.706   3.126
  301SOL     OW 1801   6.223   5.809   1.087
  301SOL    HW1 1802   6.207   5.775   1.180
  301SOL    HW2 1803   6.316   5.787   1.058
  302SOL     OW 1804   6.080   6.269   0.921
  302SOL    HW1 1805   6.168   6.315   0.912
  302SOL    HW2 1806   6.095   6.170   0.925
  303SOL     OW 1807   5.949   5.821   2.487
  303SOL    HW1 1808   6.042   5.812   2.451
  303SOL    HW2 1809   5.916   5.914   2.470
  304SOL     OW 1810   1.187   6.826   5.135
  304SOL    HW1 1811   1.220   6.829   5.229
  304SOL    HW2 1812   1.101   6.877   5.127
  305SOL     OW 1813   1.409   2.628   2.242
  305SOL    HW1 1814   1.468   2.708   2.252
  305SOL    HW2 1815   1.327   2.639   2.299
  306SOL     OW 1816   6.482   0.728   2.930
  306SOL    HW1 1817   6.486   0.631   2.905
  306SOL    HW2 1818   6.426   0.738   3.013
  307SOL     OW 1819   3.510   3.211   2.679
  307SOL    HW1 1820   3.507   3.260   2.766
  307SOL    HW2 1821   3.430   3.235   2.624
  308SOL     OW 1822   5.480   1.410   4.310
  308SOL    HW1 1823   5.494   1.428   4.407
  308SOL    HW2 1824   5.549   1.345   4.278
  309SOL     OW 1825   0.882   6.423   6.082
  309SOL    HW1 1826   0.924   6.491   6.023
  309SOL    HW2 1827   0.901   6.331   6.047
  310SOL     OW 1828   5.266   5.778   5.102
  310SOL    HW1 1829   5.213   5.809   5.024
  310SOL    HW2 1830   5.319   5.854   5.139
  311SOL     OW 1831   1.619   5.735   2.998
  311SOL    HW1 1832   1.686   5.701   2.932
  311SOL    HW2 1833   1.547   5.785   2.950
  312SOL     OW 1834   4.871   2.179   3.222
  312SOL    HW1 1835   4.817   2.260   3.198
  312SOL    HW2 1836   4.965   2.206   3.241
  313SOL     OW 1837   3.611   3.371   3.729
  313SOL    HW1 1838   3.539   3.439   3.717
  313SOL    HW2 1839   3.689   3.413   3.774
  314SOL     OW 1840   2.449   6.714   5.521
  314SOL    HW1 1841   2.366   6.764   5.496
  314SOL    HW2 1842   2.423   6.625   5.558
  315SOL     OW 1843   6.411   1.541   3.689
  315SOL    HW1 1844   6.346   1.466   3.701
  315SOL    HW2 1845   6.369   1.613   3.634
  316SOL     OW 1846   3.629   1.728   5.269
  316SOL    HW1 1847   3.531   1.749   5.264
  316SOL    HW2 1848   3.647   1.674   5.351
  317SOL     OW 1849   1.203   1.239   1.422
  317SOL    HW1 1850   1.243   1.326   1.393
  317SOL    HW2 1851   1.160   1.195   1.343
  318SOL     OW 1852   0.174   0.562   5.304
  318SOL    HW1 1853   0.261   0.603   5.332
  318SOL    HW2 1854   0.147   0.600   5.215
  319SOL     OW 1855   1.381   2.355   2.126
  319SOL    HW1 1856   1.413   2.446   2.154
  319SOL    HW2 1857   1.360   2.356   2.029
  320SOL     OW 1858   6.255   2.709   0.044
  320SOL    HW1 1859   6.353   2.708   0.068
  320SOL    HW2 1860   6.236   2.635   7.002
  321SOL     OW 1861   4.155   3.092   1.007
  321SOL    HW1 1862   4.096   3.073   0.929
  321SOL    HW2 1863   4.245   3.052   0.992
  322SOL     OW 1864   4.377   3.295   6.497
  322SOL    HW1 1865   4.451   3.285   6.430
  322SOL    HW2 1866   4.403   3.363   6.565
  323SOL     OW 1867   0.527   3.347   3.587
  323SOL    HW1 1868   0.589   3.416   3.625
  323SOL    HW2 1869   0.436   3.386   3.578
  324SOL     OW 1870   1.463   6.995   3.157
  324SOL    HW1 1871   1.378   7.015   3.107
  324SOL    HW2 1872   1.497   6.905   3.130
  325SOL     OW 1873   0.666   3.759   2.667
  325SOL    HW1 1874   0.568   3.774   2.678
  325SOL    HW2 1875   0.715   3.811   2.738
  326SOL     OW 1876   1.650   6.430   6.422
  326SOL    HW1 1877   1.667   6.333   6.409
  326SOL    HW2 1878   1.724   6.483   6.379
  327SOL     OW 1879   4.247   5.207   3.811
  327SOL    HW1 1880   4.291   5.265   3.880
  327SOL    HW2 1881   4.211   5.264   3.738
  328SOL     OW 1882   2.477   4.410   2.478
  328SOL    HW1 1883   2.481   4.342   2.551
  328SOL    HW2 1884   2.541   4.484   2.498
  329SOL     OW 1885   3.227   4.138   1.611
  329SOL    HW1 1886   3.232   4.044   1.577
  329SOL    HW2 1887   3.145   4.149   1.667
  330SOL     OW 1888   3.969   4.918   0.356
  330SOL    HW1 1889   3.991   4.987   0.287
  330SOL    HW2 1890   4.004   4.829   0.326
  331SOL     OW 1891   5.061   5.674   0.168
  331SOL    HW1 1892   5.096   5.767   0.158
  331SOL    HW2 1893   5.026   5.642   0.080
  332SOL     OW 1894   5.229   2.020   2.704
  332SOL    HW1 1895   5.195   2.112   2.686
  332SOL    HW2 1896   5.157   1.965   2.747
  333SOL     OW 1897   3.563   1.102   5.940
  333SOL    HW1 1898   3.647   1.054   5.964
  333SOL    HW2 1899   3.524   1.062   5.857
  334SOL     OW 1900   3.866   4.022   3.701
  334SOL    HW1 1901   3.950   4.042   3.750
  334SOL    HW2 1902   3.815   3.950   3.749
  335SOL     OW 1903   3.528   0.065   6.298
  335SOL    HW1 1904   3.513   0.061   6.397
  335SOL    HW2 1905   3.440   0.054   6.251
  336SOL     OW 1906   2.895   1.877   3.042
  336SOL    HW1 1907   2.875   1.961   3.092
  336SOL    HW2 1908   2.944   1.813   3.102
  337SOL     OW 1909   1.803   1.586   5.982
  337SOL    HW1 1910   1.848   1.517   5.926
  337SOL    HW2 1911   1.725   1.545   6.029
  338SOL     OW 1912   4.525   2.297   1.691
  338SOL    HW1 1913   4.471   2.323   1.771
  338SOL    HW2 1914   4.556   2.380   1.644
  339SOL     OW 1915   3.982   5.051   4.558
  339SOL    HW1 1916   4.073   5.013   4.545
  339SOL    HW2 1917   3.988   5.136   4.610
  340SOL     OW 1918   4.966   2.220   4.259
  340SOL    HW1 1919   4.890   2.158   4.279
  340SOL    HW2 1920   4.959   2.252   4.164
  341SOL     OW 1921   5.946   6.503   3.115
  341SOL    HW1 1922   5.998   6.478   3.034
  341SOL    HW2 1923   5.857   6.459   3.113
  342SOL     OW 1924   4.824   2.204   1.604
  342SOL    HW1 1925   4.740   2.203   1.658
  342SOL    HW2 1926   4.830   2.120   1.550
  343SOL     OW 1927   1.249   5.308   3.256
  343SOL    HW1 1928   1.212   5.382   3.200
  343SOL    HW2 1929   1.349   5.311   3.254
  344SOL     OW 1930   2.032   1.172   1.270
  344SOL    HW1 1931   1.972   1.252   1.280
  344SOL    HW2 1932   1.984   1.091   1.303
  345SOL     OW 1933   6.372   2.608   4.204
  345SOL    HW1 1934   6.311   2.617   4.125
  345SOL    HW2 1935   6.450   2.551   4.180
  346SOL     OW 1936   1.368   0.265   2.617
  346SOL    HW1 1937   1.385   0.275   2.519
  346SOL    HW2 1938   1.297   0.330   2.646
  347SOL     OW 1939   2.851   5.109   0.426
  347SOL    HW1 1940   2.874   5.192   0.375
  347SOL    HW2 1941   2.927   5.084   0.485
  348SOL     OW 1942   5.065   5.654   2.305
  348SOL    HW1 1943   5.142   5.610   2.351
  348SOL    HW2 1944   5.086   5.750   2.288
  349SOL     OW 1945   0.047   4.064   1.099
  349SOL    HW1 1946   6.972   4.060   1.124
  349SOL    HW2 1947   0.055   4.059   0.999
  350SOL     OW 1948   3.454   2.782   0.014
  350SOL    HW1 1949   3.449   2.762   6.938
  350SOL    HW2 1950   3.550   2.784   0.043
  351SOL     OW 1951   3.576   4.444   0.582
  351SOL    HW1 1952   3.528   4.458   0.495
  351SOL    HW2 1953   3.509   4.435   0.656
  352SOL     OW 1954   4.376   6.315   3.484
  352SOL    HW1 1955   4.281   6.303   3.455
  352SOL    HW2 1956   4.420   6.225   3.488
  353SOL     OW 1957   2.720   6.794   6.337
  353SOL    HW1 1958   2.730   6.787   6.237
  353SOL    HW2 1959   2.702   6.889   6.362
  354SOL     OW 1960   5.680   2.356   0.939
  354SOL    HW1 1961   5.639   2.313   0.859
  354SOL    HW2 1962   5.771   2.318   0.955
  355SOL     OW 1963   2.092   2.651   2.399
  355SOL    HW1 1964   2.167   2.684   2.342
  355SOL    HW2 1965   2.073   2.718   2.471
  356SOL     OW 1966   1.790   0.138   5.969
  356SOL    HW1 1967   1.828   0.190   5.892
  356SOL    HW2 1968   1.861   0.080   6.008
  357SOL     OW 1969   5.696   6.879   4.999
  357SOL    HW1 1970   5.682   6.952   4.933
  357SOL    HW2 1971   5.766   6.907   5.065
  358SOL     OW 1972   4.884   5.914   0.628
  358SOL    HW1 1973   4.894   5.911   0.728
  358SOL    HW2 1974   4.789   5.897   0.604
  359SOL     OW 1975   3.107   2.146   1.802
  359SOL    HW1 1976   3.045   2.185   1.870
  359SOL    HW2 1977   3.173   2.215   1.773
  360SOL     OW 1978   1.147   5.190   4.187
  360SOL    HW1 1979   1.235   5.237   4.199
  360SOL    HW2 1980   1.160   5.092   4.197
  361SOL     OW 1981   6.858   5.949   3.329
  361SOL    HW1 1982   6.886   6.007   3.253
  361SOL    HW2 1983   6.938   5.923   3.383
  362SOL     OW 1984   3.856   4.303   1.042
  362SOL    HW1 1985   3.908   4.310   0.956
  362SOL    HW2 1986   3.759   4.314   1.022
  363SOL     OW 1987   6.652   4.856   2.489
  363SOL    HW1 1988   6.723   4.851   2.419
  363SOL    HW2 1989   6.576   4.795   2.465
  364SOL     OW 1990   0.869   5.432   6.793
  364SOL    HW1 1991   0.946   5.477   6.839
  364SOL    HW2 1992   0.899   5.344   6.756
  365SOL     OW 1993   3.562   1.272   2.127
  365SOL    HW1 1994   3.550   1.365   2.091
  365SOL    HW2 1995   3.490   1.253   2.193
  366SOL     OW 1996   5.859   3.397   0.357
  366SOL    HW1 1997   5.824   3.325   0.417
  366SOL    HW2 1998   5.790   3.417   0.287
  367SOL     OW 1999   4.499   1.713   5.760
  367SOL    HW1 2000   4.503   1.630   5.816
  367SOL    HW2 2001   4.418   1.766   5.784
  368SOL     OW 2002   6.581   2.120   6.294
  368SOL    HW1 2003   6.680   2.123   6.302
  368SOL    HW2 2004   6.547   2.211   6.269
  369SOL     OW 2005   5.626   3.803   3.070
  369SOL    HW1 2006   5.666   3.808   2.978
  369SOL    HW2 2007   5.666   3.726   3.119
  370SOL     OW 2008   2.073   2.527   4.068
  370SOL    HW1 2009   2.053   2.449   4.127
  370SOL    HW2 2010   2.169   2.523   4.041
  371SOL     OW 2011   2.108   3.871   6.680
  371SOL    HW1 2012   2.203   3.840   6.669
  371SOL    HW2 2013   2.099   3.962   6.639
  372SOL     OW 2014   2.536   6.955   5.642
  372SOL    HW1 2015   2.486   6.869   5.653
  372SOL    HW2 2016   2.628   6.935   5.607
  373SOL     OW 2017   5.755   6.579   4.717
  373SOL    HW1 2018   5.746   6.673   4.683
  373SOL    HW2 2019   5.851   6.552   4.717
  374SOL     OW 2020   2.894   1.671   2.613
  374SOL    HW1 2021   2.884   1.756   2.665
  374SOL    HW2 2022   2.897   1.692   2.515
  375SOL     OW 2023   0.744   5.303   4.925
  375SOL    HW1 2024   0.829   5.276   4.970
  375SOL    HW2 2025   0.670   5.243   4.954
  376SOL     OW 2026   2.898   1.118   4.429
  376SOL    HW1 2027   2.862   1.210   4.449
  376SOL    HW2 2028   2.872   1.056   4.503
  377SOL     OW 2029   1.547   2.230   6.937
  377SOL    HW1 2030   1.523   2.163   6.868
  377SOL    HW2 2031   1.500   2.316   6.918
  378SOL     OW 2032   2.865   1.556   0.358
  378SOL    HW1 2033   2.864   1.456   0.366
  378SOL    HW2 2034   2.936   1.594   0.418
  379SOL     OW 2035   5.561   2.594   6.495
  379SOL    HW1 2036   5.495   2.556   6.431
  379SOL    HW2 2037   5.594   2.682   6.460
  380SOL     OW 2038   3.175   1.400   1.483
  380SOL    HW1 2039   3.231   1.423   1.562
  380SOL    HW2 2040   3.210   1.448   1.402
  381SOL     OW 2041   1.204   4.626   3.733
  381SOL    HW1 2042   1.192   4.694   3.806
  381SOL    HW2 2043   1.119   4.619   3.680
  382SOL     OW 2044   6.114   1.021   0.085
  382SOL    HW1 2045   6.105   0.942   0.024
  382SOL    HW2 2046   6.189   1.005   0.150
  383SOL     OW 2047   3.814   2.884   1.083
  383SOL    HW1 2048   3.846   2.914   0.994
  383SOL    HW2 2049   3.800   2.963   1.142
  384SOL     OW 2050   6.725   3.908   4.239
  384SOL    HW1 2051   6.689   3.815   4.247
  384SOL    HW2 2052   6.815   3.912   4.282
  385SOL     OW 2053   3.985   5.230   6.237
  385SOL    HW1 2054   3.954   5.285   6.314
  385SOL    HW2 2055   3.992   5.288   6.155
  386SOL     OW 2056   4.499   0.311   4.654
  386SOL    HW1 2057   4.551   0.384   4.698
  386SOL    HW2 2058   4.402   0.320   4.678
  387SOL     OW 2059   2.480   5.096   3.115
  387SOL    HW1 2060   2.533   5.122   3.196
  387SOL    HW2 2061   2.421   5.018   3.138
  388SOL     OW 2062   1.996   2.386   6.114
  388SOL    HW1 2063   1.972   2.440   6.194
  388SOL    HW2 2064   2.090   2.353   6.123
  389SOL     OW 2065   3.347   4.148   2.923
  389SOL    HW1 2066   3.327   4.165   2.827
  389SOL    HW2 2067   3.344   4.050   2.941
  390SOL     OW 2068   2.684   1.275   3.814
  390SOL    HW1 2069   2.741   1.319   3.746
  390SOL    HW2 2070   2.713   1.180   3.827
  391SOL     OW 2071   1.453   2.816   0.332
  391SOL    HW1 2072   1.472   2.759   0.412
  391SOL    HW2 2073   1.532   2.875   0.314
  392SOL     OW 2074   2.536   5.036   1.465
  392SOL    HW1 2075   2.511   4.939   1.475
  392SOL    HW2 2076   2.607   5.059   1.532
  393SOL     OW 2077   5.875   4.724   5.718
  393SOL    HW1 2078   5.863   4.631   5.754
  393SOL    HW2 2079   5.973   4.747   5.715
  394SOL     OW 2080   0.168   6.866   6.935
  394SOL    HW1 2081   0.116   6.838   6.854
  394SOL    HW2 2082   0.199   6.784   6.983
  395SOL     OW 2083   4.957   3.256   2.270
  395SOL    HW1 2084   4.952   3.347   2.228
  395SOL    HW2 2085   4.952   3.186   2.199
  396SOL     OW 2086   3.807   3.695   3.228
  396SOL    HW1 2087   3.836   3.790   3.218
  396SOL    HW2 2088   3.762   3.683   3.317
  397SOL     OW 2089   4.610   2.625   5.288
  397SOL    HW1 2090   4.651   2.560   5.224
  397SOL    HW2 2091   4.614   2.588   5.381
  398SOL     OW 2092   1.090   5.916   2.451
  398SOL    HW1 2093   1.130   5.875   2.533
  398SOL    HW2 2094   0.990   5.908   2.455
  399SOL     OW 2095   4.701   5.375   1.999
  399SOL    HW1 2096   4.747   5.437   2.062
  399SOL    HW2 2097   4.747   5.286   1.999
  400SOL     OW 2098   0.015   0.153   5.456
  400SOL    HW1 2099   0.022   0.252   5.447
  400SOL    HW2 2100   0.016   0.111   5.365
  401SOL     OW 2101   4.959   1.110   6.395
  401SOL    HW1 2102   4.873   1.135   6.440
  401SOL    HW2 2103   4.942   1.101   6.296
  402SOL     OW 2104   6.483   6.384   2.556
  402SOL    HW1 2105   6.477   6.448   2.632
  402SOL    HW2 2106   6.501   6.292   2.591
  403SOL     OW 2107   4.667   2.189   5.919
  403SOL    HW1 2108   4.658   2.272   5.863
  403SOL    HW2 2109   4.749   2.196   5.975
  404SOL     OW 2110   1.579   6.883   3.435
  404SOL    HW1 2111   1.616   6.865   3.344
  404SOL    HW2 2112   1.567   6.982   3.447
  405SOL     OW 2113   1.672   2.380   1.079
  405SOL    HW1 2114   1.662   2.446   1.004
  405SOL    HW2 2115   1.754   2.403   1.131
  406SOL     OW 2116   1.043   2.875   4.163
  406SOL    HW1 2117   1.113   2.820   4.209
  406SOL    HW2 2118   0.953   2.840   4.186
  407SOL     OW 2119   2.599   0.019   4.749
  407SOL    HW1 2120   2.686   0.068   4.758
  407SOL    HW2 2121   2.578   6.993   4.834
  408SOL     OW 2122   1.462   0.447   3.161
  408SOL    HW1 2123   1.418   0.525   3.205
  408SOL    HW2 2124   1.525   0.479   3.090
  409SOL     OW 2125   5.835   3.360   2.913
  409SOL    HW1 2126   5.893   3.311   2.979
  409SOL    HW2 2127   5.831   3.309   2.828
  410SOL     OW 2128   2.596   0.313   0.762
  410SOL    HW1 2129   2.646   0.349   0.684
  410SOL    HW2 2130   2.513   0.366   0.776
  411SOL     OW 2131   5.618   5.628   6.638
  411SOL    HW1 2132   5.650   5.722   6.650
  411SOL    HW2 2133   5.624   5.580   6.725
  412SOL     OW 2134   3.899   6.402   2.942
  412SOL    HW1 2135   3.843   6.478   2.910
  412SOL    HW2 2136   3.944   6.427   3.028
  413SOL     OW 2137   3.573   4.901   0.836
  413SOL    HW1 2138   3.631   4.852   0.770
  413SOL    HW2 2139   3.478   4.900   0.805
  414SOL     OW 2140   4.434   5.244   2.296
  414SOL    HW1 2141   4.455   5.335   2.331
  414SOL    HW2 2142   4.339   5.241   2.266
  415SOL     OW 2143   1.474   5.915   0.352
  415SOL    HW1 2144   1.413   5.870   0.287
  415SOL    HW2 2145   1.438   6.005   0.375
  416SOL     OW 2146   4.410   5.471   4.805
  416SOL    HW1 2147   4.478   5.473   4.878
  416SOL    HW2 2148   4.428   5.545   4.740
  417SOL     OW 2149   3.165   6.687   1.219
  417SOL    HW1 2150   3.164   6.786   1.211
  417SOL    HW2 2151   3.091   6.657   1.279
  418SOL     OW 2152   4.685   6.034   0.431
  418SOL    HW1 2153   4.648   5.942   0.444
  418SOL    HW2 2154   4.765   6.029   0.371
  419SOL     OW 2155   0.870   0.595   1.367
  419SOL    HW1 2156   0.914   0.533   1.302
  419SOL    HW2 2157   0.935   0.667   1.393
  420SOL     OW 2158   5.928   3.594   1.414
  420SOL    HW1 2159   5.895   3.510   1.458
  420SOL    HW2 2160   5.867   3.670   1.439
  421SOL     OW 2161   1.018   4.986   6.534
  421SOL    HW1 2162   1.018   4.919   6.608
  421SOL    HW2 2163   0.957   4.955   6.461
  422SOL     OW 2164   6.052   5.366   1.001
  422SOL    HW1 2165   6.107   5.332   0.925
  422SOL    HW2 2166   6.081   5.320   1.085
  423SOL     OW 2167   6.200   3.268   0.450
  423SOL    HW1 2168   6.150   3.304   0.528
  423SOL    HW2 2169   6.292   3.308   0.447
  424SOL     OW 2170   3.222   3.191   0.432
  424SOL    HW1 2171   3.193   3.258   0.501
  424SOL    HW2 2172   3.157   3.116   0.429
  425SOL     OW 2173   5.021   1.341   1.646
  425SOL    HW1 2174   5.033   1.248   1.680
  425SOL    HW2 2175   5.082   1.403   1.695
  426SOL     OW 2176   5.838   2.365   5.112
  426SOL    HW1 2177   5.795   2.425   5.045
  426SOL    HW2 2178   5.769   2.307   5.155
  427SOL     OW 2179   5.382   4.991   2.355
  427SOL    HW1 2180   5.402   4.896   2.332
  427SOL    HW2 2181   5.294   4.996   2.403
  428SOL     OW 2182   4.377   0.461   5.125
  428SOL    HW1 2183   4.315   0.497   5.195
  428SOL    HW2 2184   4.334   0.383   5.079
  429SOL     OW 2185   2.647   5.177   0.695
  429SOL    HW1 2186   2.643   5.193   0.794
  429SOL    HW2 2187   2.691   5.255   0.650
  430SOL     OW 2188   1.278   6.719   4.071
  430SOL    HW1 2189   1.253   6.631   4.030
  430SOL    HW2 2190   1.230   6.792   4.023
  431SOL     OW 2191   3.082   1.081   7.016
  431SOL    HW1 2192   3.096   1.058   0.090
  431SOL    HW2 2193   3.008   1.149   7.008
  432SOL     OW 2194   6.584   2.574   0.684
  432SOL    HW1 2195   6.575   2.476   0.702
  432SOL    HW2 2196   6.639   2.588   0.601
  433SOL     OW 2197   2.606   0.166   4.356
  433SOL    HW1 2198   2.592   0.067   4.356
  433SOL    HW2 2199   2.657   0.192   4.274
  434SOL     OW 2200   5.194   5.113   1.494
  434SOL    HW1 2201   5.112   5.067   1.459
  434SOL    HW2 2202   5.275   5.058   1.474
  435SOL     OW 2203   3.772   2.670   5.486
  435SOL    HW1 2204   3.718   2.737   5.537
  435SOL    HW2 2205   3.836   2.717   5.425
  436SOL     OW 2206   1.849   6.570   0.661
  436SOL    HW1 2207   1.935   6.610   0.627
  436SOL    HW2 2208   1.827   6.610   0.750
  437SOL     OW 2209   0.363   0.228   6.312
  437SOL    HW1 2210   0.318   0.142   6.337
  437SOL    HW2 2211   0.370   0.235   6.213
  438SOL     OW 2212   1.862   3.001   2.037
  438SOL    HW1 2213   1.938   2.938   2.024
  438SOL    HW2 2214   1.837   3.041   1.950
  439SOL     OW 2215   5.878   4.538   3.519
  439SOL    HW1 2216   5.827   4.467   3.566
  439SOL    HW2 2217   5.976   4.524   3.532
  440SOL     OW 2218   1.273   1.987   4.600
  440SOL    HW1 2219   1.208   1.951   4.668
  440SOL    HW2 2220   1.355   2.019   4.647
  441SOL     OW 2221   0.549   1.979   3.057
  441SOL    HW1 2222   0.505   1.984   2.967
  441SOL    HW2 2223   0.625   1.913   3.053
  442SOL     OW 2224   1.616   4.542   0.146
  442SOL    HW1 2225   1.557   4.465   0.119
  442SOL    HW2 2226   1.705   4.507   0.174
  443SOL     OW 2227   0.935   4.270   5.269
  443SOL    HW1 2228   0.986   4.217   5.201
  443SOL    HW2 2229   0.997   4.336   5.312
  444SOL     OW 2230   4.709   2.432   5.786
  444SOL    HW1 2231   4.646   2.471   5.853
  444SOL    HW2 2232   4.803   2.458   5.809
  445SOL     OW 2233   1.724   5.392   3.275
  445SOL    HW1 2234   1.766   5.455   3.210
  445SOL    HW2 2235   1.785   5.380   3.353
  446SOL     OW 2236   3.953   4.806   3.429
  446SOL    HW1 2237   3.907   4.720   3.451
  446SOL    HW2 2238   4.040   4.786   3.384
  447SOL     OW 2239   0.493   3.818   6.759
  447SOL    HW1 2240   0.401   3.855   6.756
  447SOL    HW2 2241   0.504   3.748   6.689
  448SOL     OW 2242   3.642   0.075   4.878
  448SOL    HW1 2243   3.547   0.095   4.902
  448SOL    HW2 2244   3.644   0.005   4.806
  449SOL     OW 2245   4.827   1.074   5.420
  449SOL    HW1 2246   4.893   1.147   5.402
  449SOL    HW2 2247   4.876   0.992   5.449
  450SOL     OW 2248   1.052   5.792   3.006
  450SOL    HW1 2249   1.121   5.834   3.065
  450SOL    HW2 2250   1.036   5.850   2.926
  451SOL     OW 2251   1.098   2.354   2.204
  451SOL    HW1 2252   1.076   2.286   2.274
  451SOL    HW2 2253   1.197   2.353   2.187
  452SOL     OW 2254   6.579   5.978   0.128
  452SOL    HW1 2255   6.573   5.994   0.226
  452SOL    HW2 2256   6.490   5.948   0.094
  453SOL     OW 2257   3.023   0.132   5.858
  453SOL    HW1 2258   2.969   0.201   5.809
  453SOL    HW2 2259   3.116   0.165   5.870
  454SOL     OW 2260   6.833   5.522   5.817
  454SOL    HW1 2261   6.774   5.569   5.752
  454SOL    HW2 2262   6.782   5.502   5.901
  455SOL     OW 2263   6.559   0.498   4.205
  455SOL    HW1 2264   6.563   0.528   4.109
  455SOL    HW2 2265   6.630   0.546   4.257
  456SOL     OW 2266   4.522   5.883   5.091
  456SOL    HW1 2267   4.497   5.787   5.104
  456SOL    HW2 2268   4.561   5.919   5.175
  457SOL     OW 2269   1.919   3.659   3.495
  457SOL    HW1 2270   1.941   3.680   3.400
  457SOL    HW2 2271   1.837   3.601   3.498
  458SOL     OW 2272   5.102   5.635   5.290
  458SOL    HW1 2273   5.152   5.566   5.342
  458SOL    HW2 2274   5.167   5.693   5.241
  459SOL     OW 2275   1.516   0.368   3.787
  459SOL    HW1 2276   1.485   0.311   3.862
  459SOL    HW2 2277   1.576   0.315   3.727
  460SOL     OW 2278   0.291   1.149   2.370
  460SOL    HW1 2279   0.324   1.083   2.437
  460SOL    HW2 2280   0.309   1.115   2.278
  461SOL     OW 2281   5.563   6.736   4.526
  461SOL    HW1 2282   5.545   6.679   4.446
  461SOL    HW2 2283   5.607   6.822   4.496
  462SOL     OW 2284   4.140   2.242   5.867
  462SOL    HW1 2285   4.233   2.205   5.857
  462SOL    HW2 2286   4.146   2.340   5.888
  463SOL     OW 2287   6.082   6.433   2.896
  463SOL    HW1 2288   5.997   6.407   2.850
  463SOL    HW2 2289   6.159   6.388   2.852
  464SOL     OW 2290   3.193   1.959   6.405
  464SOL    HW1 2291   3.288   1.968   6.374
  464SOL    HW2 2292   3.138   1.921   6.331
  465SOL     OW 2293   1.394   2.086   4.067
  465SOL    HW1 2294   1.410   2.111   4.162
  465SOL    HW2 2295   1.454   2.011   4.041
  466SOL     OW 2296   0.512   5.644   3.067
  466SOL    HW1 2297   0.612   5.648   3.075
  466SOL    HW2 2298   0.487   5.587   2.989
  467SOL     OW 2299   1.032   0.279   6.180
  467SOL    HW1 2300   1.042   0.302   6.277
  467SOL    HW2 2301   1.033   0.180   6.169
  468SOL     OW 2302   3.145   6.080   0.438
  468SOL    HW1 2303   3.087   6.161   0.449
  468SOL    HW2 2304   3.088   6.001   0.420
  469SOL     OW 2305   2.855   4.523   0.677
  469SOL    HW1 2306   2.781   4.585   0.653
  469SOL    HW2 2307   2.837   4.480   0.765
  470SOL     OW 2308   3.222   1.005   2.342
  470SOL    HW1 2309   3.230   0.937   2.269
  470SOL    HW2 2310   3.137   0.990   2.392
  471SOL     OW 2311   1.690   2.125   4.508
  471SOL    HW1 2312   1.693   2.118   4.607
  471SOL    HW2 2313   1.595   2.136   4.477
  472SOL     OW 2314   5.180   3.921   6.876
  472SOL    HW1 2315   5.231   3.999   6.912
  472SOL    HW2 2316   5.107   3.954   6.816
  473SOL     OW 2317   0.225   2.743   1.480
  473SOL    HW1 2318   0.148   2.703   1.432
  473SOL    HW2 2319   0.200   2.833   1.516
  474SOL     OW 2320   4.331   4.934   3.736
  474SOL    HW1 2321   4.313   5.031   3.754
  474SOL    HW2 2322   4.387   4.896   3.810
  475SOL     OW 2323   6.156   0.991   6.798
  475SOL    HW1 2324   6.137   1.031   6.887
  475SOL    HW2 2325   6.096   0.912   6.783
  476SOL     OW 2326   0.534   4.206   2.359
  476SOL    HW1 2327   0.567   4.111   2.360
  476SOL    HW2 2328   0.447   4.210   2.309
  477SOL     OW 2329   2.103   4.618   5.159
  477SOL    HW1 2330   2.190   4.603   5.207
  477SOL    HW2 2331   2.070   4.710   5.179
  478SOL     OW 2332   2.999   6.427   2.166
  478SOL    HW1 2333   3.003   6.360   2.240
  478SOL    HW2 2334   2.912   6.475   2.170
  479SOL     OW 2335   4.494   2.442   0.167
  479SOL    HW1 2336   4.482   2.528   0.217
  479SOL    HW2 2337   4.406   2.411   0.133
  480SOL     OW 2338   2.146   0.539   0.361
  480SOL    HW1 2339   2.185   0.629   0.344
  480SOL    HW2 2340   2.074   0.520   0.294
  481SOL     OW 2341   1.619   6.866   0.486
  481SOL    HW1 2342   1.707   6.881   0.440
  481SOL    HW2 2343   1.546   6.860   0.419
  482SOL     OW 2344   4.385   4.547   2.563
  482SOL    HW1 2345   4.337   4.589   2.486
  482SOL    HW2 2346   4.336   4.569   2.648
  483SOL     OW 2347   6.421   2.126   1.301
  483SOL    HW1 2348   6.351   2.195   1.318
  483SOL    HW2 2349   6.511   2.164   1.323
  484SOL     OW 2350   1.260   3.183   4.714
  484SOL    HW1 2351   1.306   3.236   4.786
  484SOL    HW2 2352   1.268   3.086   4.735
  485SOL     OW 2353   4.226   5.685   1.843
  485SOL    HW1 2354   4.264   5.713   1.756
  485SOL    HW2 2355   4.218   5.585   1.846
  486SOL     OW 2356   0.419   2.004   0.721
  486SOL    HW1 2357   0.343   2.065   0.700
  486SOL    HW2 2358   0.413   1.974   0.816
  487SOL     OW 2359   0.786   1.903   0.206
  487SOL    HW1 2360   0.748   1.995   0.214
  487SOL    HW2 2361   0.749   1.858   0.124
  488SOL     OW 2362   0.577   1.189   1.641
  488SOL    HW1 2363   0.490   1.235   1.660
  488SOL    HW2 2364   0.560   1.091   1.630
  489SOL     OW 2365   3.951   5.924   6.778
  489SOL    HW1 2366   3.986   6.009   6.817
  489SOL    HW2 2367   3.880   5.946   6.711
  490SOL     OW 2368   6.923   6.206   3.478
  490SOL    HW1 2369   6.935   6.161   3.389
  490SOL    HW2 2370   6.845   6.269   3.473
  491SOL     OW 2371   0.331   2.740   2.764
  491SOL    HW1 2372   0.427   2.756   2.789
  491SOL    HW2 2373   0.318   2.644   2.740
  492SOL     OW 2374   3.082   7.001   5.074
  492SOL    HW1 2375   3.035   7.007   4.985
  492SOL    HW2 2376   3.048   0.052   5.134
  493SOL     OW 2377   5.531   5.921   5.389
  493SOL    HW1 2378   5.512   6.007   5.437
  493SOL    HW2 2379   5.498   5.927   5.295
  494SOL     OW 2380   0.453   7.002   6.955
  494SOL    HW1 2381   0.369   6.948   6.949
  494SOL    HW2 2382   0.430   0.078   6.959
  495SOL     OW 2383   5.301   6.049   2.920
  495SOL    HW1 2384   5.318   5.952   2.902
  495SOL    HW2 2385   5.387   6.099   2.912
  496SOL     OW 2386   5.205   3.445   2.903
  496SOL    HW1 2387   5.185   3.351   2.876
  496SOL    HW2 2388   5.130   3.505   2.873
  497SOL     OW 2389   2.897   1.871   5.765
  497SOL    HW1 2390   2.996   1.878   5.751
  497SOL    HW2 2391   2.868   1.938   5.834
  498SOL     OW 2392   1.539   3.641   1.801
  498SOL    HW1 2393   1.528   3.591   1.886
  498SOL    HW2 2394   1.528   3.579   1.724
  499SOL     OW 2395   2.979   0.398   4.167
  499SOL    HW1 2396   2.958   0.423   4.261
  499SOL    HW2 2397   3.077   0.382   4.157
  500SOL     OW 2398   1.036   3.994   2.573
  500SOL    HW1 2399   0.940   4.022   2.567
  500SOL    HW2 2400   1.085   4.055   2.636
  501SOL     OW 2401   3.356   0.402   0.246
  501SOL    HW1 2402   3.400   0.473   0.301
  501SOL    HW2 2403   3.259   0.394   0.272
  502SOL     OW 2404   6.479   4.497   6.456
  502SOL    HW1 2405   6.456   4.410   6.413
  502SOL    HW2 2406   6.395   4.550   6.471
  503SOL     OW 2407   5.722   5.526   5.958
  503SOL    HW1 2408   5.791   5.454   5.965
  503SOL    HW2 2409   5.741   5.597   6.025
  504SOL     OW 2410   2.955   5.938   3.316
  504SOL    HW1 2411   2.865   5.943   3.358
  504SOL    HW2 2412   3.023   5.913   3.386
  505SOL     OW 2413   3.900   0.117   5.737
  505SOL    HW1 2414   3.811   0.132   5.693
  505SOL    HW2 2415   3.942   0.035   5.699
  506SOL     OW 2416   1.493   5.265   4.603
  506SOL    HW1 2417   1.521   5.357   4.630
  506SOL    HW2 2418   1.429   5.271   4.527
  507SOL     OW 2419   3.757   0.657   4.365
  507SOL    HW1 2420   3.774   0.581   4.428
  507SOL    HW2 2421   3.743   0.741   4.418
  508SOL     OW 2422   6.438   4.076   3.084
  508SOL    HW1 2423   6.387   4.127   3.015
  508SOL    HW2 2424   6.376   4.050   3.158
  509SOL     OW 2425   2.997   1.212   1.377
  509SOL    HW1 2426   3.049   1.286   1.419
  509SOL    HW2 2427   2.963   1.151   1.449
  510SOL     OW 2428   6.479   5.036   5.919
  510SOL    HW1 2429   6.577   5.051   5.901
  510SOL    HW2 2430   6.425   5.086   5.852
  511SOL     OW 2431   0.566   6.618   6.676
  511SOL    HW1 2432   0.636   6.601   6.607
  511SOL    HW2 2433   0.610   6.655   6.758
  512SOL     OW 2434   6.805   3.406   0.192
  512SOL    HW1 2435   6.900   3.412   0.161
  512SOL    HW2 2436   6.746   3.381   0.115
  513SOL     OW 2437   5.853   6.337   2.727
  513SOL    HW1 2438   5.788   6.300   2.793
  513SOL    HW2 2439   5.805   6.394   2.660
  514SOL     OW 2440   6.725   2.564   3.723
  514SOL    HW1 2441   6.815   2.567   3.768
  514SOL    HW2 2442   6.655   2.541   3.791
  515SOL     OW 2443   1.891   0.462   6.417
  515SOL    HW1 2444   1.825   0.532   6.389
  515SOL    HW2 2445   1.962   0.453   6.347
  516SOL     OW 2446   3.151   4.724   1.614
  516SOL    HW1 2447   3.074   4.661   1.617
  516SOL    HW2 2448   3.177   4.749   1.707
  517SOL     OW 2449   5.112   6.217   2.358
  517SOL    HW1 2450   5.187   6.163   2.319
  517SOL    HW2 2451   5.025   6.171   2.341
  518SOL     OW 2452   3.001   2.075   2.125
  518SOL    HW1 2453   2.982   2.149   2.061
  518SOL    HW2 2454   2.998   1.988   2.078
  519SOL     OW 2455   0.201   0.756   4.514
  519SOL    HW1 2456   0.131   0.759   4.586
  519SOL    HW2 2457   0.185   0.829   4.449
  520SOL     OW 2458   6.270   4.720   6.522
  520SOL    HW1 2459   6.187   4.671   6.551
  520SOL    HW2 2460   6.257   4.818   6.535
  521SOL     OW 2461   6.181   2.657   6.489
  521SOL    HW1 2462   6.083   2.661   6.508
  521SOL    HW2 2463   6.209   2.562   6.479
  522SOL     OW 2464   3.805   2.897   5.088
  522SOL    HW1 2465   3.717   2.915   5.131
  522SOL    HW2 2466   3.858   2.835   5.145
  523SOL     OW 2467   0.316   4.928   2.835
  523SOL    HW1 2468   0.365   4.943   2.749
  523SOL    HW2 2469   0.278   4.835   2.836
  524SOL     OW 2470   2.180   1.142   6.437
  524SOL    HW1 2471   2.131   1.227   6.455
  524SOL    HW2 2472   2.155   1.074   6.506
  525SOL     OW 2473   2.583   3.529   6.462
  525SOL    HW1 2474   2.532   3.578   6.533
  525SOL    HW2 2475   2.640   3.594   6.412
  526SOL     OW 2476   2.680   0.223   5.102
  526SOL    HW1 2477   2.747   0.284   5.059
  526SOL    HW2 2478   2.607   0.277   5.145
  527SOL     OW 2479   5.832   3.178   6.222
  527SOL    HW1 2480   5.816   3.255   6.161
  527SOL    HW2 2481   5.830   3.093   6.168
  528SOL     OW 2482   0.863   1.941   4.080
  528SOL    HW1 2483   0.869   1.964   3.983
  528SOL    HW2 2484   0.843   2.023   4.133
  529SOL     OW 2485   0.435   5.694   4.519
  529SOL    HW1 2486   0.472   5.615   4.568
  529SOL    HW2 2487   0.454   5.685   4.421
  530SOL     OW 2488   2.908   2.902   5.339
  530SOL    HW1 2489   2.938   2.808   5.357
  530SOL    HW2 2490   2.811   2.902   5.315
  531SOL     OW 2491   0.299   0.751   1.530
  531SOL    HW1 2492   0.360   0.676   1.509
  531SOL    HW2 2493   0.315   0.827   1.466
  532SOL     OW 2494   0.867   2.914   6.528
  532SOL    HW1 2495   0.845   3.001   6.571
  532SOL    HW2 2496   0.845   2.917   6.431
  533SOL     OW 2497   4.559   5.812   4.335
  533SOL    HW1 2498   4.581   5.823   4.432
  533SOL    HW2 2499   4.644   5.797   4.283
  534SOL     OW 2500   5.218   5.218   3.579
  534SOL    HW1 2501   5.189   5.147   3.515
  534SOL    HW2 2502   5.229   5.305   3.531
  535SOL     OW 2503   0.997   4.114   4.671
  535SOL    HW1 2504   0.903   4.082   4.685
  535SOL    HW2 2505   1.040   4.131   4.759
  536SOL     OW 2506   0.025   4.814   2.114
  536SOL    HW1 2507   0.106   4.803   2.171
  536SOL    HW2 2508   0.045   4.874   2.037
  537SOL     OW 2509   1.875   6.208   3.887
  537SOL    HW1 2510   1.880   6.235   3.791
  537SOL    HW2 2511   1.967   6.208   3.927
  538SOL     OW 2512   1.869   5.798   3.756
  538SOL    HW1 2513   1.834   5.857   3.829
  538SOL    HW2 2514   1.857   5.843   3.668
  539SOL     OW 2515   0.583   6.230   0.168
  539SOL    HW1 2516   0.632   6.158   0.118
  539SOL    HW2 2517   0.616   6.234   0.262
  540SOL     OW 2518   0.350   1.551   1.745
  540SOL    HW1 2519   0.417   1.587   1.810
  540SOL    HW2 2520   0.313   1.465   1.779
  541SOL     OW 2521   2.826   6.397   4.050
  541SOL    HW1 2522   2.815   6.328   4.121
  541SOL    HW2 2523   2.788   6.363   3.963
  542SOL     OW 2524   6.992   0.103   0.529
  542SOL    HW1 2525   6.912   0.091   0.470
  542SOL    HW2 2526   6.972   0.174   0.597
  543SOL     OW 2527   0.135   5.017   5.659
  543SOL    HW1 2528   0.091   4.938   5.616
  543SOL    HW2 2529   0.070   5.093   5.663
  544SOL     OW 2530   1.858   4.218   1.106
  544SOL    HW1 2531   1.877   4.134   1.055
  544SOL    HW2 2532   1.763   4.218   1.136
  545SOL     OW 2533   3.565   1.546   3.380
  545SOL    HW1 2534   3.613   1.499   3.305
  545SOL    HW2 2535   3.623   1.620   3.415
  546SOL     OW 2536   1.527   3.273   1.265
  546SOL    HW1 2537   1.557   3.181   1.290
  546SOL    HW2 2538   1.556   3.338   1.335
  547SOL     OW 2539   2.446   1.191   6.583
  547SOL    HW1 2540   2.407   1.174   6.493
  547SOL    HW2 2541   2.444   1.106   6.637
  548SOL     OW 2542   4.092   3.244   2.810
  548SOL    HW1 2543   4.136   3.264   2.722
  548SOL    HW2 2544   4.017   3.308   2.825
  549SOL     OW 2545   4.386   3.875   1.635
  549SOL    HW1 2546   4.312   3.822   1.677
  549SOL    HW2 2547   4.373   3.876   1.536
  550SOL     OW 2548   0.273   3.457   3.600
  550SOL    HW1 2549   0.174   3.456   3.587
  550SOL    HW2 2550   0.294   3.425   3.693
  551SOL     OW 2551   0.055   1.449   0.950
  551SOL    HW1 2552   0.061   1.350   0.965
  551SOL    HW2 2553   0.120   1.476   0.880
  552SOL     OW 2554   4.265   5.294   0.912
  552SOL    HW1 2555   4.222   5.349   0.983
  552SOL    HW2 2556   4.286   5.203   0.948
  553SOL     OW 2557   1.972   6.670   2.703
  553SOL    HW1 2558   1.902   6.616   2.750
  553SOL    HW2 2559   1.994   6.627   2.615
  554SOL     OW 2560   5.219   0.134   6.583
  554SOL    HW1 2561   5.129   0.123   6.626
  554SOL    HW2 2562   5.210   0.192   6.502
  555SOL     OW 2563   2.332   5.373   4.354
  555SOL    HW1 2564   2.305   5.304   4.421
  555SOL    HW2 2565   2.296   5.349   4.264
  556SOL     OW 2566   6.373   2.081   4.630
  556SOL    HW1 2567   6.275   2.097   4.645
  556SOL    HW2 2568   6.397   2.106   4.536
  557SOL     OW 2569   7.020   5.588   6.843
  557SOL    HW1 2570   6.981   5.629   6.926
  557SOL    HW2 2571   0.086   5.631   6.822
  558SOL     OW 2572   4.048   3.760   4.901
  558SOL    HW1 2573   4.134   3.728   4.862
  558SOL    HW2 2574   4.022   3.702   4.978
  559SOL     OW 2575   6.017   6.083   6.947
  559SOL    HW1 2576   6.003   5.984   6.951
  559SOL    HW2 2577   6.064   6.113   0.009
  560SOL     OW 2578   3.860   6.597   1.055
  560SOL    HW1 2579   3.927   6.601   1.130
  560SOL    HW2 2580   3.780   6.652   1.079
  561SOL     OW 2581   6.245   7.019   6.229
  561SOL    HW1 2582   6.261   6.922   6.210
  561SOL    HW2 2583   6.149   0.020   6.211
  562SOL     OW 2584   4.522   0.543   6.484
  562SOL    HW1 2585   4.590   0.569   6.552
  562SOL    HW2 2586   4.552   0.573   6.393
  563SOL     OW 2587   2.868   0.354   3.413
  563SOL    HW1 2588   2.868   0.254   3.409
  563SOL    HW2 2589   2.908   0.382   3.501
  564SOL     OW 2590   2.294   2.140   5.777
  564SOL    HW1 2591   2.370   2.193   5.741
  564SOL    HW2 2592   2.322   2.097   5.864
  565SOL     OW 2593   4.360   3.182   5.558
  565SOL    HW1 2594   4.347   3.089   5.521
  565SOL    HW2 2595   4.354   3.248   5.483
  566SOL     OW 2596   4.443   4.581   3.783
  566SOL    HW1 2597   4.438   4.534   3.695
  566SOL    HW2 2598   4.491   4.668   3.771
  567SOL     OW 2599   2.900   3.462   3.803
  567SOL    HW1 2600   2.891   3.472   3.704
  567SOL    HW2 2601   2.917   3.365   3.825
  568SOL     OW 2602   3.440   2.617   1.385
  568SOL    HW1 2603   3.358   2.595   1.332
  568SOL    HW2 2604   3.520   2.613   1.326
  569SOL     OW 2605   1.515   3.153   0.698
  569SOL    HW1 2606   1.446   3.215   0.660
  569SOL    HW2 2607   1.558   3.101   0.624
  570SOL     OW 2608   1.264   6.668   6.736
  570SOL    HW1 2609   1.298   6.602   6.670
  570SOL    HW2 2610   1.171   6.695   6.712
  571SOL     OW 2611   3.109   6.175   2.316
  571SOL    HW1 2612   3.198   6.132   2.332
  571SOL    HW2 2613   3.063   6.189   2.403
  572SOL     OW 2614   2.481   4.573   5.719
  572SOL    HW1 2615   2.511   4.479   5.734
  572SOL    HW2 2616   2.488   4.595   5.622
  573SOL     OW 2617   3.453   1.591   4.889
  573SOL    HW1 2618   3.362   1.611   4.926
  573SOL    HW2 2619   3.511   1.552   4.961
  574SOL     OW 2620   2.088   2.356   4.295
  574SOL    HW1 2621   2.143   2.388   4.372
  574SOL    HW2 2622   2.106   2.259   4.279
  575SOL     OW 2623   6.312   4.390   7.003
  575SOL    HW1 2624   6.360   4.323   0.037
  575SOL    HW2 2625   6.371   4.418   6.927
  576SOL     OW 2626   1.292   2.049   1.852
  576SOL    HW1 2627   1.345   1.965   1.855
  576SOL    HW2 2628   1.302   2.092   1.762
  577SOL     OW 2629   2.450   1.565   3.078
  577SOL    HW1 2630   2.375   1.592   3.017
  577SOL    HW2 2631   2.448   1.466   3.092
  578SOL     OW 2632   6.986   3.451   3.538
  578SOL    HW1 2633   6.974   3.352   3.545
  578SOL    HW2 2634   6.983   3.479   3.443
  579SOL     OW 2635   3.618   2.015   1.289
  579SOL    HW1 2636   3.534   1.963   1.302
  579SOL    HW2 2637   3.607   2.106   1.329
  580SOL     OW 2638   0.700   4.907   6.096
  580SOL    HW1 2639   0.646   4.991   6.094
  580SOL    HW2 2640   0.640   4.830   6.118
  581SOL     OW 2641   4.022   3.138   3.207
  581SOL    HW1 2642   3.969   3.084   3.273
  581SOL    HW2 2643   4.019   3.094   3.118
  582SOL     OW 2644   5.764   4.220   2.280
  582SOL    HW1 2645   5.680   4.258   2.319
  582SOL    HW2 2646   5.759   4.120   2.281
  583SOL     OW 2647   2.554   4.752   6.617
  583SOL    HW1 2648   2.568   4.721   6.523
  583SOL    HW2 2649   2.458   4.775   6.631
  584SOL     OW 2650   0.085   4.644   6.241
  584SOL    HW1 2651   0.013   4.603   6.185
  584SOL    HW2 2652   0.149   4.573   6.270
  585SOL     OW 2653   6.149   2.649   5.883
  585SOL    HW1 2654   6.165   2.582   5.810
  585SOL    HW2 2655   6.176   2.740   5.850
  586SOL     OW 2656   3.262   6.475   0.209
  586SOL    HW1 2657   3.229   6.438   0.296
  586SOL    HW2 2658   3.189   6.472   0.141
  587SOL     OW 2659   2.191   1.973   5.063
  587SOL    HW1 2660   2.159   1.981   4.969
  587SOL    HW2 2661   2.262   1.902   5.067
  588SOL     OW 2662   3.725   0.007   1.712
  588SOL    HW1 2663   3.667   0.017   1.632
  588SOL    HW2 2664   3.816   0.043   1.692
  589SOL     OW 2665   4.108   5.127   1.597
  589SOL    HW1 2666   4.096   5.075   1.512
  589SOL    HW2 2667   4.155   5.213   1.576
  590SOL     OW 2668   0.251   2.791   2.249
  590SOL    HW1 2669   0.276   2.852   2.324
  590SOL    HW2 2670   0.333   2.750   2.210
  591SOL     OW 2671   3.747   0.060   3.408
  591SOL    HW1 2672   3.772   0.042   3.313
  591SOL    HW2 2673   3.820   0.110   3.454
  592SOL     OW 2674   4.577   1.064   0.246
  592SOL    HW1 2675   4.536   1.097   0.331
  592SOL    HW2 2676   4.604   1.142   0.189
  593SOL     OW 2677   4.420   2.182   3.858
  593SOL    HW1 2678   4.342   2.241   3.837
  593SOL    HW2 2679   4.467   2.156   3.774
  594SOL     OW 2680   4.420   2.725   6.504
  594SOL    HW1 2681   4.510   2.699   6.539
  594SOL    HW2 2682   4.395   2.815   6.539
  595SOL     OW 2683   4.416   6.990   4.217
  595SOL    HW1 2684   4.432   0.036   4.290
  595SOL    HW2 2685   4.340   7.020   4.160
  596SOL     OW 2686   1.162   3.809   1.738
  596SOL    HW1 2687   1.173   3.905   1.711
  596SOL    HW2 2688   1.093   3.803   1.810
  597SOL     OW 2689   4.024   6.418   6.402
  597SOL    HW1 2690   4.103   6.465   6.442
  597SOL    HW2 2691   3.940   6.464   6.431
  598SOL     OW 2692   3.751   4.199   0.409
  598SOL    HW1 2693   3.653   4.191   0.430
  598SOL    HW2 2694   3.781   4.292   0.428
  599SOL     OW 2695   0.567   0.776   2.936
  599SOL    HW1 2696   0.547   0.863   2.982
  599SOL    HW2 2697   0.519   0.773   2.849
  600SOL     OW 2698   0.770   6.977   0.682
  600SOL    HW1 2699   0.756   6.968   0.780
  600SOL    HW2 2700   0.789   6.887   0.643
  601SOL     OW 2701   3.025   5.714   3.673
  601SOL    HW1 2702   2.939   5.764   3.669
  601SOL    HW2 2703   3.017   5.628   3.624
  602SOL     OW 2704   1.251   0.446   0.478
  602SOL    HW1 2705   1.325   0.509   0.499
  602SOL    HW2 2706   1.272   0.396   0.393
  603SOL     OW 2707   3.956   1.935   3.895
  603SOL    HW1 2708   4.034   1.929   3.956
  603SOL    HW2 2709   3.901   2.016   3.919
  604SOL     OW 2710   1.188   2.767   0.043
  604SOL    HW1 2711   1.163   2.731   6.974
  604SOL    HW2 2712   1.238   2.697   0.094
  605SOL     OW 2713   0.153   5.850   3.051
  605SOL    HW1 2714   0.145   5.890   2.959
  605SOL    HW2 2715   0.175   5.922   3.117
  606SOL     OW 2716   4.715   1.080   5.166
  606SOL    HW1 2717   4.746   1.067   5.260
  606SOL    HW2 2718   4.617   1.103   5.166
  607SOL     OW 2719   5.641   1.224   4.181
  607SOL    HW1 2720   5.693   1.167   4.244
  607SOL    HW2 2721   5.702   1.287   4.133
  608SOL     OW 2722   3.197   0.141   0.758
  608SOL    HW1 2723   3.252   0.189   0.690
  608SOL    HW2 2724   3.139   0.074   0.713
  609SOL     OW 2725   3.478   2.869   4.536
  609SOL    HW1 2726   3.576   2.868   4.558
  609SOL    HW2 2727   3.466   2.844   4.439
  610SOL     OW 2728   5.292   2.602   3.210
  610SOL    HW1 2729   5.328   2.524   3.159
  610SOL    HW2 2730   5.296   2.583   3.308
  611SOL     OW 2731   0.368   0.610   6.681
  611SOL    HW1 2732   0.324   0.699   6.677
  611SOL    HW2 2733   0.467   0.620   6.669
  612SOL     OW 2734   3.698   5.510   5.773
  612SOL    HW1 2735   3.664   5.588   5.720
  612SOL    HW2 2736   3.796   5.522   5.790
  613SOL     OW 2737   4.158   1.208   5.632
  613SOL    HW1 2738   4.206   1.151   5.698
  613SOL    HW2 2739   4.104   1.151   5.571
  614SOL     OW 2740   5.984   5.432   0.637
  614SOL    HW1 2741   5.975   5.385   0.725
  614SOL    HW2 2742   6.020   5.524   0.652
  615SOL     OW 2743   0.752   0.341   6.572
  615SOL    HW1 2744   0.750   0.283   6.654
  615SOL    HW2 2745   0.658   0.355   6.539
  616SOL     OW 2746   5.676   1.860   4.398
  616SOL    HW1 2747   5.610   1.919   4.353
  616SOL    HW2 2748   5.743   1.828   4.331
  617SOL     OW 2749   0.332   4.506   6.045
  617SOL    HW1 2750   0.368   4.442   5.977
  617SOL    HW2 2751   0.247   4.546   6.010
  618SOL     OW 2752   6.220   3.448   1.552
  618SOL    HW1 2753   6.213   3.471   1.649
  618SOL    HW2 2754   6.292   3.380   1.539
  619SOL     OW 2755   3.673   0.229   6.887
  619SOL    HW1 2756   3.595   0.188   6.841
  619SOL    HW2 2757   3.647   0.258   6.979
  620SOL     OW 2758   5.644   3.696   2.319
  620SOL    HW1 2759   5.555   3.717   2.358
  620SOL    HW2 2760   5.644   3.601   2.285
  621SOL     OW 2761   2.850   6.778   5.842
  621SOL    HW1 2762   2.922   6.823   5.789
  621SOL    HW2 2763   2.795   6.721   5.782
  622SOL     OW 2764   0.821   2.841   5.409
  622SOL    HW1 2765   0.874   2.879   5.334
  622SOL    HW2 2766   0.764   2.913   5.450
  623SOL     OW 2767   6.143   6.368   4.916
  623SOL    HW1 2768   6.217   6.380   4.981
  623SOL    HW2 2769   6.136   6.271   4.891
  624SOL     OW 2770   6.440   1.359   6.687
  624SOL    HW1 2771   6.369   1.424   6.716
  624SOL    HW2 2772   6.468   1.303   6.765
  625SOL     OW 2773   2.218   0.774   0.272
  625SOL    HW1 2774   2.292   0.762   0.206
  625SOL    HW2 2775   2.148   0.834   0.233
  626SOL     OW 2776   1.475   5.787   3.661
  626SOL    HW1 2777   1.554   5.749   3.613
  626SOL    HW2 2778   1.472   5.886   3.649
  627SOL     OW 2779   6.510   6.359   0.446
  627SOL    HW1 2780   6.550   6.448   0.468
  627SOL    HW2 2781   6.580   6.288   0.455
  628SOL     OW 2782   5.428   3.752   5.239
  628SOL    HW1 2783   5.504   3.693   5.266
  628SOL    HW2 2784   5.344   3.720   5.285
  629SOL     OW 2785   0.417   0.769   0.157
  629SOL    HW1 2786   0.487   0.716   0.108
  629SOL    HW2 2787   0.456   0.804   0.242
  630SOL     OW 2788   6.371   0.901   1.171
  630SOL    HW1 2789   6.362   0.839   1.094
  630SOL    HW2 2790   6.400   0.850   1.252
  631SOL     OW 2791   2.486   2.623   4.764
  631SOL    HW1 2792   2.424   2.672   4.825
  631SOL    HW2 2793   2.573   2.605   4.811
  632SOL     OW 2794   5.153   3.280   0.718
  632SOL    HW1 2795   5.098   3.357   0.687
  632SOL    HW2 2796   5.118   3.246   0.805
  633SOL     OW 2797   2.443   5.272   1.067
  633SOL    HW1 2798   2.352   5.242   1.037
  633SOL    HW2 2799   2.449   5.371   1.062
  634SOL     OW 2800   3.419   3.918   3.526
  634SOL    HW1 2801   3.331   3.882   3.495
  634SOL    HW2 2802   3.409   3.952   3.620
  635SOL     OW 2803   4.602   0.859   0.025
  635SOL    HW1 2804   4.577   0.930   0.091
  635SOL    HW2 2805   4.575   0.769   0.061
  636SOL     OW 2806   3.334   0.038   5.694
  636SOL    HW1 2807   3.394   0.042   5.615
  636SOL    HW2 2808   3.340   6.969   5.736
  637SOL     OW 2809   6.153   1.595   2.565
  637SOL    HW1 2810   6.225   1.590   2.634
  637SOL    HW2 2811   6.098   1.511   2.567
  638SOL     OW 2812   5.819   3.598   3.994
  638SOL    HW1 2813   5.902   3.602   3.939
  638SOL    HW2 2814   5.744   3.563   3.938
  639SOL     OW 2815   5.523   5.039   3.062
  639SOL    HW1 2816   5.589   5.107   3.029
  639SOL    HW2 2817   5.431   5.063   3.030
  640SOL     OW 2818   0.035   3.029   3.023
  640SOL    HW1 2819   6.977   3.083   3.052
  640SOL    HW2 2820   0.060   2.964   3.095
  641SOL     OW 2821   1.509   4.561   5.431
  641SOL    HW1 2822   1.590   4.597   5.385
  641SOL    HW2 2823   1.513   4.461   5.433
  642SOL     OW 2824   1.318   3.707   4.595
  642SOL    HW1 2825   1.324   3.727   4.497
  642SOL    HW2 2826   1.365   3.621   4.614
  643SOL     OW 2827   6.249   6.541   6.752
  643SOL    HW1 2828   6.274   6.446   6.731
  643SOL    HW2 2829   6.224   6.548   6.848
  644SOL     OW 2830   0.895   0.837   4.531
  644SOL    HW1 2831   0.956   0.774   4.484
  644SOL    HW2 2832   0.810   0.789   4.554
  645SOL     OW 2833   3.736   4.872   2.945
  645SOL    HW1 2834   3.696   4.954   2.985
  645SOL    HW2 2835   3.712   4.793   3.000
  646SOL     OW 2836   3.978   0.531   5.251
  646SOL    HW1 2837   4.066   0.506   5.292
  646SOL    HW2 2838   3.991   0.610   5.191
  647SOL     OW 2839   5.069   2.310   4.546
  647SOL    HW1 2840   5.142   2.352   4.602
  647SOL    HW2 2841   4.993   2.374   4.538
  648SOL     OW 2842   6.305   2.354   3.163
  648SOL    HW1 2843   6.365   2.275   3.166
  648SOL    HW2 2844   6.256   2.356   3.076
  649SOL     OW 2845   2.396   4.748   0.212
  649SOL    HW1 2846   2.468   4.711   0.271
  649SOL    HW2 2847   2.419   4.729   0.117
  650SOL     OW 2848   6.610   5.774   0.715
  650SOL    HW1 2849   6.549   5.789   0.792
  650SOL    HW2 2850   6.626   5.861   0.667
  651SOL     OW 2851   1.453   0.462   5.424
  651SOL    HW1 2852   1.521   0.394   5.451
  651SOL    HW2 2853   1.381   0.467   5.493
  652SOL     OW 2854   4.001   0.536   1.609
  652SOL    HW1 2855   3.910   0.505   1.582
  652SOL    HW2 2856   4.014   0.631   1.582
  653SOL     OW 2857   6.745   6.636   0.536
  653SOL    HW1 2858   6.708   6.724   0.563
  653SOL    HW2 2859   6.841   6.647   0.509
  654SOL     OW 2860   6.741   6.247   5.655
  654SOL    HW1 2861   6.668   6.231   5.588
  654SOL    HW2 2862   6.796   6.164   5.664
  655SOL     OW 2863   0.118   5.333   1.865
  655SOL    HW1 2864   0.071   5.382   1.791
  655SOL    HW2 2865   0.074   5.355   1.953
  656SOL     OW 2866   3.404   6.200   0.732
  656SOL    HW1 2867   3.403   6.230   0.827
  656SOL    HW2 2868   3.330   6.134   0.718
  657SOL     OW 2869   3.168   3.366   2.025
  657SOL    HW1 2870   3.204   3.429   1.956
  657SOL    HW2 2871   3.170   3.273   1.990
  658SOL     OW 2872   1.974   3.947   4.536
  658SOL    HW1 2873   1.975   3.931   4.437
  658SOL    HW2 2874   2.025   3.874   4.582
  659SOL     OW 2875   3.828   5.887   5.312
  659SOL    HW1 2876   3.747   5.942   5.333
  659SOL    HW2 2877   3.825   5.858   5.216
  660SOL     OW 2878   4.959   4.851   2.439
  660SOL    HW1 2879   5.001   4.761   2.451
  660SOL    HW2 2880   4.877   4.858   2.496
  661SOL     OW 2881   4.947   4.201   3.997
  661SOL    HW1 2882   5.018   4.174   4.061
  661SOL    HW2 2883   4.973   4.285   3.950
  662SOL     OW 2884   4.647   2.007   6.772
  662SOL    HW1 2885   4.699   2.037   6.692
  662SOL    HW2 2886   4.594   2.084   6.807
  663SOL     OW 2887   0.313   4.832   0.004
  663SOL    HW1 2888   0.287   4.741   0.038
  663SOL    HW2 2889   0.373   4.876   0.071
  664SOL     OW 2890   1.705   5.398   6.339
  664SOL    HW1 2891   1.664   5.463   6.275
  664SOL    HW2 2892   1.691   5.431   6.432
  665SOL     OW 2893   3.761   5.383   1.676
  665SOL    HW1 2894   3.786   5.289   1.698
  665SOL    HW2 2895   3.742   5.390   1.578
  666SOL     OW 2896   3.560   2.200   0.480
  666SOL    HW1 2897   3.497   2.266   0.520
  666SOL    HW2 2898   3.603   2.146   0.552
  667SOL     OW 2899   0.549   2.719   4.273
  667SOL    HW1 2900   0.508   2.706   4.183
  667SOL    HW2 2901   0.508   2.800   4.316
  668SOL     OW 2902   4.397   6.339   0.346
  668SOL    HW1 2903   4.407   6.253   0.396
  668SOL    HW2 2904   4.362   6.321   0.254
  669SOL     OW 2905   1.593   6.676   3.149
  669SOL    HW1 2906   1.554   6.601   3.097
  669SOL    HW2 2907   1.691   6.661   3.162
  670SOL     OW 2908   3.283   3.403   2.765
  670SOL    HW1 2909   3.243   3.336   2.703
  670SOL    HW2 2910   3.302   3.360   2.853
  671SOL     OW 2911   1.676   5.721   5.881
  671SOL    HW1 2912   1.618   5.801   5.866
  671SOL    HW2 2913   1.641   5.644   5.828
  672SOL     OW 2914   0.537   3.079   4.131
  672SOL    HW1 2915   0.454   3.112   4.177
  672SOL    HW2 2916   0.524   3.081   4.032
  673SOL     OW 2917   4.588   0.323   6.962
  673SOL    HW1 2918   4.599   0.423   6.959
  673SOL    HW2 2919   4.570   0.295   0.034
  674SOL     OW 2920   0.810   2.771   4.197
  674SOL    HW1 2921   0.804   2.714   4.115
  674SOL    HW2 2922   0.730   2.755   4.255
  675SOL     OW 2923   0.548   2.472   4.528
  675SOL    HW1 2924   0.519   2.390   4.479
  675SOL    HW2 2925   0.643   2.460   4.559
  676SOL     OW 2926   2.699   4.763   4.411
  676SOL    HW1 2927   2.714   4.664   4.414
  676SOL    HW2 2928   2.607   4.784   4.444
  677SOL     OW 2929   6.099   0.514   6.861
  677SOL    HW1 2930   6.026   0.482   6.801
  677SOL    HW2 2931   6.176   0.547   6.807
  678SOL     OW 2932   2.147   1.306   5.168
  678SOL    HW1 2933   2.115   1.258   5.087
  678SOL    HW2 2934   2.247   1.312   5.167
  679SOL     OW 2935   3.483   0.983   3.526
  679SOL    HW1 2936   3.441   0.977   3.617
  679SOL    HW2 2937   3.544   0.905   3.512
  680SOL     OW 2938   5.966   4.067   6.508
  680SOL    HW1 2939   5.963   4.162   6.477
  680SOL    HW2 2940   6.027   4.014   6.449
  681SOL     OW 2941   6.812   6.326   0.793
  681SOL    HW1 2942   6.764   6.412   0.810
  681SOL    HW2 2943   6.909   6.336   0.816
  682SOL     OW 2944   1.894   6.836   6.759
  682SOL    HW1 2945   1.964   6.905   6.741
  682SOL    HW2 2946   1.930   6.769   6.825
  683SOL     OW 2947   3.970   1.301   5.854
  683SOL    HW1 2948   4.051   1.283   5.798
  683SOL    HW2 2949   3.888   1.286   5.799
  684SOL     OW 2950   0.028   0.309   6.492
  684SOL    HW1 2951   7.021   0.329   6.586
  684SOL    HW2 2952   6.971   0.317   6.431
  685SOL     OW 2953   5.052   0.300   6.309
  685SOL    HW1 2954   5.103   0.372   6.356
  685SOL    HW2 2955   4.971   0.277   6.362
  686SOL     OW 2956   5.520   3.159   3.584
  686SOL    HW1 2957   5.510   3.245   3.535
  686SOL    HW2 2958   5.465   3.088   3.539
  687SOL     OW 2959   0.049   3.250   6.565
  687SOL    HW1 2960   0.118   3.229   6.496
  687SOL    HW2 2961   6.995   3.299   6.522
  688SOL     OW 2962   1.739   3.545   0.401
  688SOL    HW1 2963   1.821   3.517   0.450
  688SOL    HW2 2964   1.730   3.645   0.406
  689SOL     OW 2965   1.106   4.177   6.033
  689SOL    HW1 2966   1.121   4.262   5.983
  689SOL    HW2 2967   1.106   4.195   6.131
  690SOL     OW 2968   0.927   2.522   3.672
  690SOL    HW1 2969   1.024   2.502   3.688
  690SOL    HW2 2970   0.919   2.588   3.597
  691SOL     OW 2971   1.565   2.245   6.130
  691SOL    HW1 2972   1.519   2.300   6.061
  691SOL    HW2 2973   1.644   2.199   6.090
  692SOL     OW 2974   2.658   0.051   3.259
  692SOL    HW1 2975   2.667   0.020   3.164
  692SOL    HW2 2976   2.596   0.130   3.261
  693SOL     OW 2977   6.513   1.725   2.707
  693SOL    HW1 2978   6.606   1.688   2.710
  693SOL    HW2 2979   6.515   1.824   2.721
  694SOL     OW 2980   3.361   5.763   1.349
  694SOL    HW1 2981   3.369   5.841   1.286
  694SOL    HW2 2982   3.367   5.796   1.443
  695SOL     OW 2983   5.005   5.247   4.711
  695SOL    HW1 2984   4.909   5.219   4.712
  695SOL    HW2 2985   5.033   5.272   4.804
  696SOL     OW 2986   3.228   5.519   2.750
  696SOL    HW1 2987   3.155   5.501   2.685
  696SOL    HW2 2988   3.189   5.561   2.833
  697SOL     OW 2989   0.849   3.264   5.321
  697SOL    HW1 2990   0.883   3.331   5.387
  697SOL    HW2 2991   0.754   3.286   5.298
  698SOL     OW 2992   5.017   0.008   4.038
  698SOL    HW1 2993   4.967   0.072   3.979
  698SOL    HW2 2994   4.978   6.938   4.027
  699SOL     OW 2995   1.814   4.691   1.181
  699SOL    HW1 2996   1.726   4.716   1.221
  699SOL    HW2 2997   1.887   4.710   1.247
  700SOL     OW 2998   2.860   2.014   3.556
  700SOL    HW1 2999   2.814   1.926   3.541
  700SOL    HW2 3000   2.834   2.050   3.645
  701SOL     OW 3001   1.553   4.579   0.476
  701SOL    HW1 3002   1.612   4.576   0.395
  701SOL    HW2 3003   1.594   4.640   0.544
  702SOL     OW 3004   5.291   6.204   5.347
  702SOL    HW1 3005   5.322   6.154   5.429
  702SOL    HW2 3006   5.217   6.153   5.303
  703SOL     OW 3007   4.618   3.538   6.867
  703SOL    HW1 3008   4.608   3.543   6.966
  703SOL    HW2 3009   4.598   3.627   6.827
  704SOL     OW 3010   0.650   1.252   5.891
  704SOL    HW1 3011   0.691   1.188   5.826
  704SOL    HW2 3012   0.706   1.256   5.975
  705SOL     OW 3013   5.004   0.567   3.955
  705SOL    HW1 3014   5.078   0.553   3.888
  705SOL    HW2 3015   5.016   0.503   4.031
  706SOL     OW 3016   3.860   1.775   3.705
  706SOL    HW1 3017   3.924   1.721   3.651
  706SOL    HW2 3018   3.911   1.827   3.774
  707SOL     OW 3019   4.744   0.545   1.433
  707SOL    HW1 3020   4.663   0.590   1.470
  707SOL    HW2 3021   4.825   0.599   1.456
  708SOL     OW 3022   4.978   0.323   0.788
  708SOL    HW1 3023   4.898   0.271   0.757
  708SOL    HW2 3024   5.011   0.380   0.713
  709SOL     OW 3025   1.587   4.980   1.498
  709SOL    HW1 3026   1.684   5.001   1.492
  709SOL    HW2 3027   1.549   5.021   1.582
  710SOL     OW 3028   3.446   4.161   2.512
  710SOL    HW1 3029   3.429   4.095   2.584
  710SOL    HW2 3030   3.545   4.178   2.504
  711SOL     OW 3031   6.803   2.610   5.150
  711SOL    HW1 3032   6.751   2.652   5.076
  711SOL    HW2 3033   6.740   2.581   5.223
  712SOL     OW 3034   1.162   3.911   1.145
  712SOL    HW1 3035   1.127   3.918   1.239
  712SOL    HW2 3036   1.243   3.853   1.144
  713SOL     OW 3037   3.784   3.726   1.956
  713SOL    HW1 3038   3.843   3.702   2.033
  713SOL    HW2 3039   3.787   3.653   1.887
  714SOL     OW 3040   5.558   4.279   5.254
  714SOL    HW1 3041   5.550   4.185   5.220
  714SOL    HW2 3042   5.652   4.311   5.243
  715SOL     OW 3043   4.473   5.784   6.831
  715SOL    HW1 3044   4.565   5.820   6.811
  715SOL    HW2 3045   4.409   5.818   6.761
  716SOL     OW 3046   0.389   5.261   1.310
  716SOL    HW1 3047   0.374   5.215   1.222
  716SOL    HW2 3048   0.478   5.307   1.309
  717SOL     OW 3049   6.052   4.609   6.629
  717SOL    HW1 3050   6.039   4.638   6.724
  717SOL    HW2 3051   6.128   4.544   6.625
  718SOL     OW 3052   4.168   2.265   6.301
  718SOL    HW1 3053   4.083   2.279   6.250
  718SOL    HW2 3054   4.245   2.261   6.238
  719SOL     OW 3055   6.811   2.830   1.483
  719SOL    HW1 3056   6.860   2.824   1.396
  719SOL    HW2 3057   6.817   2.924   1.518
  720SOL     OW 3058   2.457   1.866   4.942
  720SOL    HW1 3059   2.523   1.883   5.015
  720SOL    HW2 3060   2.471   1.932   4.868
  721SOL     OW 3061   1.128   0.795   5.365
  721SOL    HW1 3062   1.121   0.762   5.459
  721SOL    HW2 3063   1.040   0.784   5.319
  722SOL     OW 3064   4.304   6.526   4.835
  722SOL    HW1 3065   4.365   6.569   4.902
  722SOL    HW2 3066   4.230   6.589   4.812
  723SOL     OW 3067   2.340   2.752   2.327
  723SOL    HW1 3068   2.345   2.749   2.227
  723SOL    HW2 3069   2.298   2.838   2.356
  724SOL     OW 3070   0.908   2.172   5.516
  724SOL    HW1 3071   0.978   2.112   5.477
  724SOL    HW2 3072   0.821   2.156   5.470
  725SOL     OW 3073   3.023   5.092   1.956
  725SOL    HW1 3074   3.013   5.022   1.885
  725SOL    HW2 3075   3.083   5.057   2.028
  726SOL     OW 3076   3.134   5.021   6.332
  726SOL    HW1 3077   3.101   5.000   6.240
  726SOL    HW2 3078   3.228   4.988   6.343
  727SOL     OW 3079   3.984   6.100   4.350
  727SOL    HW1 3080   3.987   6.166   4.274
  727SOL    HW2 3081   3.899   6.049   4.345
  728SOL     OW 3082   6.957   3.831   5.111
  728SOL    HW1 3083   0.031   3.839   5.081
  728SOL    HW2 3084   6.908   3.766   5.052
  729SOL     OW 3085   1.839   0.658   0.543
  729SOL    HW1 3086   1.819   0.560   0.548
  729SOL    HW2 3087   1.808   0.693   0.454
  730SOL     OW 3088   5.644   0.776   3.249
  730SOL    HW1 3089   5.736   0.800   3.279
  730SOL    HW2 3090   5.626   0.680   3.270
  731SOL     OW 3091   5.591   2.916   5.347
  731SOL    HW1 3092   5.594   2.824   5.308
  731SOL    HW2 3093   5.499   2.952   5.338
  732SOL     OW 3094   0.298   3.155   1.775
  732SOL    HW1 3095   0.265   3.122   1.687
  732SOL    HW2 3096   0.271   3.091   1.847
  733SOL     OW 3097   5.092   3.900   4.018
  733SOL    HW1 3098   5.086   3.820   4.077
  733SOL    HW2 3099   5.046   3.880   3.931
  734SOL     OW 3100   0.330   5.005   1.814
  734SOL    HW1 3101   0.297   5.086   1.766
  734SOL    HW2 3102   0.344   5.027   1.910
  735SOL     OW 3103   2.123   3.342   0.704
  735SOL    HW1 3104   2.085   3.258   0.743
  735SOL    HW2 3105   2.119   3.415   0.772
  736SOL     OW 3106   6.225   6.716   2.538
  736SOL    HW1 3107   6.322   6.742   2.543
  736SOL    HW2 3108   6.218   6.619   2.516
  737SOL     OW 3109   4.455   3.654   1.427
  737SOL    HW1 3110   4.413   3.602   1.502
  737SOL    HW2 3111   4.386   3.714   1.386
  738SOL     OW 3112   0.810   4.856   3.793
  738SOL    HW1 3113   0.842   4.911   3.716
  738SOL    HW2 3114   0.863   4.879   3.875
  739SOL     OW 3115   4.589   6.790   5.727
  739SOL    HW1 3116   4.528   6.861   5.691
  739SOL    HW2 3117   4.679   6.829   5.744
  740SOL     OW 3118   5.457   0.308   0.805
  740SOL    HW1 3119   5.459   0.238   0.734
  740SOL    HW2 3120   5.408   0.274   0.885
  741SOL     OW 3121   1.635   6.451   3.356
  741SOL    HW1 3122   1.676   6.541   3.371
  741SOL    HW2 3123   1.703   6.388   3.320
  742SOL     OW 3124   2.337   6.690   3.214
  742SOL    HW1 3125   2.311   6.758   3.146
  742SOL    HW2 3126   2.433   6.664   3.201
  743SOL     OW 3127   1.550   4.043   4.218
  743SOL    HW1 3128   1.518   4.098   4.296
  743SOL    HW2 3129   1.472   4.020   4.159
  744SOL     OW 3130   0.407   6.389   6.543
  744SOL    HW1 3131   0.489   6.446   6.540
  744SOL    HW2 3132   0.393   6.345   6.454
  745SOL     OW 3133   0.748   5.437   4.285
  745SOL    HW1 3134   0.843   5.420   4.311
  745SOL    HW2 3135   0.688   5.382   4.342
  746SOL     OW 3136   0.248   6.205   5.297
  746SOL    HW1 3137   0.171   6.176   5.241
  746SOL    HW2 3138   0.215   6.244   5.383
  747SOL     OW 3139   4.147   5.046   4.019
  747SOL    HW1 3140   4.090   5.108   4.074
  747SOL    HW2 3141   4.180   5.095   3.938
  748SOL     OW 3142   4.447   5.081   1.833
  748SOL    HW1 3143   4.359   5.038   1.852
  748SOL    HW2 3144   4.464   5.080   1.734
  749SOL     OW 3145   7.019   2.843   4.887
  749SOL    HW1 3146   0.036   2.770   4.943
  749SOL    HW2 3147   6.936   2.810   4.841
  750SOL     OW 3148   2.694   3.263   0.528
  750SOL    HW1 3149   2.766   3.194   0.516
  750SOL    HW2 3150   2.658   3.290   0.439
  751SOL     OW 3151   4.295   2.178   6.936
  751SOL    HW1 3152   4.239   2.238   6.879
  751SOL    HW2 3153   4.251   2.089   6.946
  752SOL     OW 3154   4.354   2.561   1.776
  752SOL    HW1 3155   4.388   2.638   1.829
  752SOL    HW2 3156   4.322   2.594   1.687
  753SOL     OW 3157   1.932   2.996   4.815
  753SOL    HW1 3158   1.928   3.096   4.814
  753SOL    HW2 3159   1.882   2.960   4.736
  754SOL     OW 3160   5.567   3.801   6.629
  754SOL    HW1 3161   5.617   3.715   6.632
  754SOL    HW2 3162   5.507   3.802   6.549
  755SOL     OW 3163   1.242   5.481   0.251
  755SOL    HW1 3164   1.262   5.503   0.346
  755SOL    HW2 3165   1.208   5.562   0.204
  756SOL     OW 3166   5.109   0.651   1.831
  756SOL    HW1 3167   5.181   0.589   1.799
  756SOL    HW2 3168   5.020   0.620   1.796
  757SOL     OW 3169   0.739   6.400   3.240
  757SOL    HW1 3170   0.809   6.332   3.263
  757SOL    HW2 3171   0.697   6.435   3.324
  758SOL     OW 3172   3.277   1.725   1.628
  758SOL    HW1 3173   3.196   1.732   1.571
  758SOL    HW2 3174   3.304   1.629   1.636
  759SOL     OW 3175   0.349   0.868   0.490
  759SOL    HW1 3176   0.290   0.908   0.559
  759SOL    HW2 3177   0.293   0.825   0.419
  760SOL     OW 3178   5.130   1.589   6.281
  760SOL    HW1 3179   5.034   1.614   6.295
  760SOL    HW2 3180   5.151   1.507   6.333
  761SOL     OW 3181   5.939   3.707   6.933
  761SOL    HW1 3182   5.849   3.748   6.922
  761SOL    HW2 3183   5.975   3.681   6.843
  762SOL     OW 3184   1.894   5.782   3.390
  762SOL    HW1 3185   1.890   5.874   3.428
  762SOL    HW2 3186   1.985   5.743   3.406
  763SOL     OW 3187   3.841   5.563   6.430
  763SOL    HW1 3188   3.782   5.542   6.352
  763SOL    HW2 3189   3.871   5.478   6.474
  764SOL     OW 3190   3.352   0.674   4.050
  764SOL    HW1 3191   3.419   0.693   4.122
  764SOL    HW2 3192   3.305   0.588   4.069
  765SOL     OW 3193   0.882   6.404   1.095
  765SOL    HW1 3194   0.860   6.395   1.192
  765SOL    HW2 3195   0.818   6.468   1.052
  766SOL     OW 3196   6.967   1.058   6.824
  766SOL    HW1 3197   7.012   1.087   6.739
  766SOL    HW2 3198   6.991   1.121   6.897
  767SOL     OW 3199   0.946   6.475   1.812
  767SOL    HW1 3200   1.007   6.537   1.863
  767SOL    HW2 3201   0.963   6.381   1.841
  768SOL     OW 3202   2.021   0.958   2.648
  768SOL    HW1 3203   2.044   1.055   2.646
  768SOL    HW2 3204   1.937   0.945   2.700
  769SOL     OW 3205   3.408   6.565   4.334
  769SOL    HW1 3206   3.395   6.501   4.259
  769SOL    HW2 3207   3.414   6.658   4.299
  770SOL     OW 3208   2.723   5.165   3.024
  770SOL    HW1 3209   2.632   5.129   3.046
  770SOL    HW2 3210   2.748   5.235   3.092
  771SOL     OW 3211   2.017   5.614   2.616
  771SOL    HW1 3212   2.117   5.615   2.628
  771SOL    HW2 3213   1.995   5.647   2.524
  772SOL     OW 3214   6.864   4.918   0.637
  772SOL    HW1 3215   6.920   4.885   0.714
  772SOL    HW2 3216   6.780   4.864   0.633
  773SOL     OW 3217   0.211   2.918   3.782
  773SOL    HW1 3218   0.228   2.835   3.730
  773SOL    HW2 3219   0.194   2.994   3.720
  774SOL     OW 3220   1.744   1.916   1.798
  774SOL    HW1 3221   1.745   1.889   1.894
  774SOL    HW2 3222   1.649   1.932   1.769
  775SOL     OW 3223   1.095   2.167   3.797
  775SOL    HW1 3224   1.106   2.154   3.895
  775SOL    HW2 3225   1.110   2.079   3.750
  776SOL     OW 3226   0.335   0.253   6.040
  776SOL    HW1 3227   0.320   0.323   5.970
  776SOL    HW2 3228   0.349   0.164   5.996
  777SOL     OW 3229   3.478   0.475   0.764
  777SOL    HW1 3230   3.400   0.436   0.714
  777SOL    HW2 3231   3.448   0.501   0.856
  778SOL     OW 3232   3.932   0.811   3.838
  778SOL    HW1 3233   4.018   0.760   3.845
  778SOL    HW2 3234   3.925   0.853   3.748
  779SOL     OW 3235   0.361   1.964   2.086
  779SOL    HW1 3236   0.301   2.024   2.033
  779SOL    HW2 3237   0.314   1.936   2.170
  780SOL     OW 3238   5.511   2.810   4.551
  780SOL    HW1 3239   5.424   2.839   4.510
  780SOL    HW2 3240   5.578   2.794   4.479
  781SOL     OW 3241   6.132   0.982   5.659
  781SOL    HW1 3242   6.159   1.011   5.751
  781SOL    HW2 3243   6.108   1.063   5.605
  782SOL     OW 3244   1.150   3.608   0.783
  782SOL    HW1 3245   1.108   3.683   0.833
  782SOL    HW2 3246   1.249   3.615   0.789
  783SOL     OW 3247   3.640   4.725   0.385
  783SOL    HW1 3248   3.665   4.740   0.290
  783SOL    HW2 3249   3.596   4.635   0.394
  784SOL     OW 3250   4.410   0.906   5.151
  784SOL    HW1 3251   4.500   0.901   5.108
  784SOL    HW2 3252   4.342   0.932   5.082
  785SOL     OW 3253   5.938   2.134   2.654
  785SOL    HW1 3254   5.957   2.215   2.598
  785SOL    HW2 3255   5.947   2.052   2.598
  786SOL     OW 3256   0.752   0.353   0.235
  786SOL    HW1 3257   0.848   0.338   0.211
  786SOL    HW2 3258   0.745   0.370   0.334
  787SOL     OW 3259   2.845   1.249   6.073
  787SOL    HW1 3260   2.909   1.312   6.116
  787SOL    HW2 3261   2.776   1.301   6.023
  788SOL     OW 3262   1.923   2.633   4.727
  788SOL    HW1 3263   1.942   2.673   4.818
  788SOL    HW2 3264   1.839   2.672   4.691
  789SOL     OW 3265   6.157   4.198   2.117
  789SOL    HW1 3266   6.139   4.119   2.058
  789SOL    HW2 3267   6.247   4.236   2.095
  790SOL     OW 3268   2.164   1.365   3.923
  790SOL    HW1 3269   2.258   1.373   3.957
  790SOL    HW2 3270   2.155   1.417   3.839
  791SOL     OW 3271   3.970   0.056   3.737
  791SOL    HW1 3272   3.946   6.989   3.777
  791SOL    HW2 3273   4.040   0.042   3.667
  792SOL     OW 3274   6.375   6.988   1.825
  792SOL    HW1 3275   6.446   6.923   1.852
  792SOL    HW2 3276   6.402   0.011   1.739
  793SOL     OW 3277   4.449   6.154   2.025
  793SOL    HW1 3278   4.508   6.111   1.957
  793SOL    HW2 3279   4.504   6.188   2.101
  794SOL     OW 3280   2.040   4.876   5.221
  794SOL    HW1 3281   2.077   4.895   5.312
  794SOL    HW2 3282   1.940   4.887   5.223
  795SOL     OW 3283   2.802   5.092   5.388
  795SOL    HW1 3284   2.804   5.104   5.288
  795SOL    HW2 3285   2.710   5.061   5.415
  796SOL     OW 3286   0.369   2.342   6.425
  796SOL    HW1 3287   0.321   2.381   6.347
  796SOL    HW2 3288   0.309   2.276   6.471
  797SOL     OW 3289   4.962   2.058   2.226
  797SOL    HW1 3290   4.888   1.991   2.223
  797SOL    HW2 3291   4.923   2.151   2.227
  798SOL     OW 3292   5.001   0.745   1.035
  798SOL    HW1 3293   5.014   0.744   1.134
  798SOL    HW2 3294   4.931   0.678   1.010
  799SOL     OW 3295   6.732   1.824   3.360
  799SOL    HW1 3296   6.765   1.786   3.274
  799SOL    HW2 3297   6.635   1.844   3.353
  800SOL     OW 3298   5.574   0.558   2.509
  800SOL    HW1 3299   5.627   0.599   2.584
  800SOL    HW2 3300   5.481   0.540   2.541
  801SOL     OW 3301   1.310   2.870   3.149
  801SOL    HW1 3302   1.332   2.926   3.229
  801SOL    HW2 3303   1.368   2.898   3.073
  802SOL     OW 3304   5.272   1.327   0.545
  802SOL    HW1 3305   5.325   1.389   0.603
  802SOL    HW2 3306   5.178   1.362   0.537
  803SOL     OW 3307   5.899   6.188   4.642
  803SOL    HW1 3308   5.893   6.286   4.622
  803SOL    HW2 3309   5.956   6.144   4.573
  804SOL     OW 3310   6.453   6.616   0.126
  804SOL    HW1 3311   6.542   6.612   0.171
  804SOL    HW2 3312   6.466   6.623   0.027
  805SOL     OW 3313   4.633   2.874   5.632
  805SOL    HW1 3314   4.570   2.895   5.557
  805SOL    HW2 3315   4.703   2.945   5.638
  806SOL     OW 3316   3.766   1.964   5.325
  806SOL    HW1 3317   3.856   1.924   5.339
  806SOL    HW2 3318   3.702   1.894   5.293
  807SOL     OW 3319   1.038   1.188   3.641
  807SOL    HW1 3320   0.973   1.111   3.644
  807SOL    HW2 3321   1.108   1.174   3.711
  808SOL     OW 3322   4.961   3.190   6.495
  808SOL    HW1 3323   4.970   3.212   6.592
  808SOL    HW2 3324   4.990   3.269   6.440
  809SOL     OW 3325   1.457   5.034   1.235
  809SOL    HW1 3326   1.514   5.019   1.315
  809SOL    HW2 3327   1.515   5.056   1.156
  810SOL     OW 3328   4.551   2.982   0.807
  810SOL    HW1 3329   4.502   2.963   0.722
  810SOL    HW2 3330   4.637   3.028   0.786
  811SOL     OW 3331   4.574   5.334   3.889
  811SOL    HW1 3332   4.525   5.293   3.813
  811SOL    HW2 3333   4.518   5.328   3.972
  812SOL     OW 3334   6.783   0.739   1.499
  812SOL    HW1 3335   6.723   0.808   1.458
  812SOL    HW2 3336   6.866   0.784   1.533
  813SOL     OW 3337   4.346   6.069   3.302
  813SOL    HW1 3338   4.343   6.163   3.268
  813SOL    HW2 3339   4.256   6.027   3.291
  814SOL     OW 3340   5.328   6.769   2.904
  814SOL    HW1 3341   5.383   6.695   2.864
  814SOL    HW2 3342   5.243   6.779   2.852
  815SOL     OW 3343   6.146   2.592   2.025
  815SOL    HW1 3344   6.098   2.654   1.963
  815SOL    HW2 3345   6.160   2.504   1.981
  816SOL     OW 3346   6.906   6.708   0.073
  816SOL    HW1 3347   6.869   6.747   7.010
  816SOL    HW2 3348   7.000   6.678   0.058
  817SOL     OW 3349   2.128   4.609   2.494
  817SOL    HW1 3350   2.180   4.606   2.408
  817SOL    HW2 3351   2.033   4.582   2.476
  818SOL     OW 3352   6.408   3.050   0.356
  818SOL    HW1 3353   6.332   3.116   0.359
  818SOL    HW2 3354   6.379   2.964   0.399
  819SOL     OW 3355   6.199   3.392   4.379
  819SOL    HW1 3356   6.236   3.434   4.462
  819SOL    HW2 3357   6.240   3.436   4.299
  820SOL     OW 3358   1.337   2.937   5.385
  820SOL    HW1 3359   1.243   2.915   5.411
  820SOL    HW2 3360   1.390   2.853   5.375
  821SOL     OW 3361   2.599   4.729   0.702
  821SOL    HW1 3362   2.591   4.729   0.602
  821SOL    HW2 3363   2.666   4.798   0.730
  822SOL     OW 3364   0.899   4.961   4.417
  822SOL    HW1 3365   0.979   5.006   4.457
  822SOL    HW2 3366   0.922   4.867   4.392
  823SOL     OW 3367   4.780   4.220   6.787
  823SOL    HW1 3368   4.754   4.152   6.855
  823SOL    HW2 3369   4.705   4.231   6.721
  824SOL     OW 3370   4.848   1.345   5.133
  824SOL    HW1 3371   4.879   1.354   5.227
  824SOL    HW2 3372   4.800   1.257   5.122
  825SOL     OW 3373   2.119   2.973   2.170
  825SOL    HW1 3374   2.092   3.064   2.139
  825SOL    HW2 3375   2.129   2.973   2.270
  826SOL     OW 3376   5.928   4.164   0.844
  826SOL    HW1 3377   5.909   4.249   0.894
  826SOL    HW2 3378   6.002   4.180   0.778
  827SOL     OW 3379   3.579   5.741   5.703
  827SOL    HW1 3380   3.536   5.692   5.628
  827SOL    HW2 3381   3.534   5.830   5.715
  828SOL     OW 3382   6.218   0.580   5.031
  828SOL    HW1 3383   6.137   0.566   5.088
  828SOL    HW2 3384   6.197   0.647   4.959
  829SOL     OW 3385   3.010   3.417   4.126
  829SOL    HW1 3386   2.986   3.337   4.070
  829SOL    HW2 3387   2.967   3.498   4.087
  830SOL     OW 3388   5.134   4.631   5.772
  830SOL    HW1 3389   5.181   4.561   5.719
  830SOL    HW2 3390   5.106   4.706   5.712
  831SOL     OW 3391   0.029   6.484   4.329
  831SOL    HW1 3392   0.077   6.540   4.396
  831SOL    HW2 3393   6.989   6.541   4.275
  832SOL     OW 3394   2.197   1.372   0.269
  832SOL    HW1 3395   2.276   1.365   0.209
  832SOL    HW2 3396   2.198   1.460   0.317
  833SOL     OW 3397   6.519   5.839   6.116
  833SOL    HW1 3398   6.475   5.853   6.204
  833SOL    HW2 3399   6.590   5.908   6.102
  834SOL     OW 3400   3.597   3.572   2.763
  834SOL    HW1 3401   3.510   3.525   2.780
  834SOL    HW2 3402   3.588   3.631   2.683
  835SOL     OW 3403   4.184   6.640   3.640
  835SOL    HW1 3404   4.247   6.567   3.612
  835SOL    HW2 3405   4.225   6.692   3.715
  836SOL     OW 3406   3.297   6.294   6.819
  836SOL    HW1 3407   3.287   6.219   6.752
  836SOL    HW2 3408   3.296   6.256   6.911
  837SOL     OW 3409   4.901   0.561   0.055
  837SOL    HW1 3410   4.965   0.630   0.088
  837SOL    HW2 3411   4.921   0.474   0.098
  838SOL     OW 3412   0.792   7.019   4.874
  838SOL    HW1 3413   0.705   0.046   4.870
  838SOL    HW2 3414   0.865   0.055   4.839
  839SOL     OW 3415   2.709   1.657   3.071
  839SOL    HW1 3416   2.726   1.740   3.125
  839SOL    HW2 3417   2.628   1.610   3.106
  840SOL     OW 3418   0.180   1.116   5.724
  840SOL    HW1 3419   0.178   1.099   5.822
  840SOL    HW2 3420   0.093   1.089   5.683
  841SOL     OW 3421   6.077   4.274   0.163
  841SOL    HW1 3422   5.986   4.236   0.175
  841SOL    HW2 3423   6.069   4.370   0.135
  842SOL     OW 3424   4.337   5.534   3.374
  842SOL    HW1 3425   4.247   5.570   3.397
  842SOL    HW2 3426   4.355   5.452   3.427
  843SOL     OW 3427   6.014   2.585   0.309
  843SOL    HW1 3428   6.057   2.675   0.317
  843SOL    HW2 3429   6.076   2.523   0.261
  844SOL     OW 3430   4.721   6.132   0.805
  844SOL    HW1 3431   4.671   6.055   0.765
  844SOL    HW2 3432   4.657   6.202   0.836
  845SOL     OW 3433   6.252   2.618   5.149
  845SOL    HW1 3434   6.240   2.565   5.064
  845SOL    HW2 3435   6.262   2.715   5.126
  846SOL     OW 3436   6.145   1.770   6.786
  846SOL    HW1 3437   6.122   1.851   6.840
  846SOL    HW2 3438   6.214   1.795   6.718
  847SOL     OW 3439   6.065   3.158   0.918
  847SOL    HW1 3440   6.074   3.214   1.000
  847SOL    HW2 3441   6.006   3.079   0.937
  848SOL     OW 3442   6.001   0.585   6.406
  848SOL    HW1 3443   6.064   0.649   6.362
  848SOL    HW2 3444   5.945   0.633   6.473
  849SOL     OW 3445   0.105   5.572   5.088
  849SOL    HW1 3446   0.028   5.633   5.108
  849SOL    HW2 3447   0.164   5.614   5.019
  850SOL     OW 3448   4.380   0.162   3.603
  850SOL    HW1 3449   4.423   0.118   3.524
  850SOL    HW2 3450   4.447   0.220   3.650
  851SOL     OW 3451   0.431   1.334   0.200
  851SOL    HW1 3452   0.447   1.280   0.118
  851SOL    HW2 3453   0.352   1.394   0.187
  852SOL     OW 3454   2.293   2.403   6.527
  852SOL    HW1 3455   2.360   2.396   6.602
  852SOL    HW2 3456   2.229   2.327   6.533
  853SOL     OW 3457   0.699   3.484   2.797
  853SOL    HW1 3458   0.710   3.491   2.896
  853SOL    HW2 3459   0.667   3.572   2.762
  854SOL     OW 3460   5.188   6.695   2.427
  854SOL    HW1 3461   5.215   6.769   2.365
  854SOL    HW2 3462   5.251   6.618   2.418
  855SOL     OW 3463   5.754   0.057   1.643
  855SOL    HW1 3464   5.669   0.041   1.692
  855SOL    HW2 3465   5.740   0.127   1.572
  856SOL     OW 3466   1.780   0.693   5.347
  856SOL    HW1 3467   1.852   0.707   5.279
  856SOL    HW2 3468   1.819   0.655   5.430
  857SOL     OW 3469   5.737   4.990   1.381
  857SOL    HW1 3470   5.791   4.909   1.403
  857SOL    HW2 3471   5.682   4.971   1.299
  858SOL     OW 3472   2.755   4.807   1.790
  858SOL    HW1 3473   2.693   4.848   1.857
  858SOL    HW2 3474   2.804   4.731   1.833
  859SOL     OW 3475   5.580   5.080   6.610
  859SOL    HW1 3476   5.645   5.106   6.538
  859SOL    HW2 3477   5.622   5.012   6.669
  860SOL     OW 3478   4.060   3.871   0.123
  860SOL    HW1 3479   4.081   3.875   0.221
  860SOL    HW2 3480   4.019   3.782   0.101
  861SOL     OW 3481   2.869   6.840   4.853
  861SOL    HW1 3482   2.807   6.784   4.798
  861SOL    HW2 3483   2.959   6.842   4.809
  862SOL     OW 3484   5.942   4.696   5.212
  862SOL    HW1 3485   5.849   4.660   5.208
  862SOL    HW2 3486   5.946   4.771   5.279
  863SOL     OW 3487   1.132   0.127   0.883
  863SOL    HW1 3488   1.192   0.121   0.803
  863SOL    HW2 3489   1.048   0.076   0.866
  864SOL     OW 3490   5.112   4.569   3.459
  864SOL    HW1 3491   5.069   4.543   3.373
  864SOL    HW2 3492   5.198   4.519   3.470
  865SOL     OW 3493   0.934   0.143   4.018
  865SOL    HW1 3494   0.884   0.073   4.070
  865SOL    HW2 3495   0.981   0.204   4.081
  866SOL     OW 3496   2.762   1.626   2.086
  866SOL    HW1 3497   2.790   1.609   1.991
  866SOL    HW2 3498   2.700   1.554   2.116
  867SOL     OW 3499   3.245   2.614   0.390
  867SOL    HW1 3500   3.238   2.672   0.308
  867SOL    HW2 3501   3.250   2.518   0.362
  868SOL     OW 3502   6.011   0.248   2.305
  868SOL    HW1 3503   5.952   0.225   2.228
  868SOL    HW2 3504   6.059   0.334   2.285
  869SOL     OW 3505   6.481   5.714   2.514
  869SOL    HW1 3506   6.569   5.743   2.476
  869SOL    HW2 3507   6.497   5.661   2.597
  870SOL     OW 3508   6.803   3.033   1.815
  870SOL    HW1 3509   6.827   3.061   1.722
  870SOL    HW2 3510   6.705   3.014   1.820
  871SOL     OW 3511   7.020   2.873   2.190
  871SOL    HW1 3512   0.084   2.824   2.207
  871SOL    HW2 3513   6.943   2.819   2.226
  872SOL     OW 3514   6.688   2.683   4.375
  872SOL    HW1 3515   6.751   2.759   4.356
  872SOL    HW2 3516   6.660   2.641   4.289
  873SOL     OW 3517   3.731   7.010   3.126
  873SOL    HW1 3518   3.779   0.001   3.039
  873SOL    HW2 3519   3.644   0.038   3.124
  874SOL     OW 3520   1.937   4.490   5.384
  874SOL    HW1 3521   2.018   4.544   5.406
  874SOL    HW2 3522   1.964   4.400   5.350
  875SOL     OW 3523   5.038   5.027   0.716
  875SOL    HW1 3524   5.040   5.124   0.740
  875SOL    HW2 3525   5.127   4.986   0.735
  876SOL     OW 3526   6.401   3.680   2.866
  876SOL    HW1 3527   6.439   3.736   2.792
  876SOL    HW2 3528   6.409   3.729   2.953
  877SOL     OW 3529   5.020   4.936   0.146
  877SOL    HW1 3530   5.059   4.847   0.125
  877SOL    HW2 3531   5.005   4.944   0.245
  878SOL     OW 3532   3.544   5.000   6.654
  878SOL    HW1 3533   3.510   4.948   6.733
  878SOL    HW2 3534   3.584   5.085   6.686
  879SOL     OW 3535   4.466   1.858   2.782
  879SOL    HW1 3536   4.507   1.913   2.855
  879SOL    HW2 3537   4.504   1.766   2.785
  880SOL     OW 3538   3.788   4.575   6.890
  880SOL    HW1 3539   3.821   4.615   6.805
  880SOL    HW2 3540   3.854   4.507   6.923
  881SOL     OW 3541   4.328   4.608   4.711
  881SOL    HW1 3542   4.237   4.608   4.671
  881SOL    HW2 3543   4.323   4.583   4.808
  882SOL     OW 3544   1.382   0.541   4.524
  882SOL    HW1 3545   1.330   0.626   4.525
  882SOL    HW2 3546   1.475   0.559   4.556
  883SOL     OW 3547   3.696   4.844   5.588
  883SOL    HW1 3548   3.676   4.918   5.653
  883SOL    HW2 3549   3.638   4.765   5.608
  884SOL     OW 3550   6.409   3.566   1.841
  884SOL    HW1 3551   6.389   3.468   1.836
  884SOL    HW2 3552   6.329   3.616   1.873
  885SOL     OW 3553   5.521   6.163   0.472
  885SOL    HW1 3554   5.523   6.261   0.453
  885SOL    HW2 3555   5.451   6.143   0.540
  886SOL     OW 3556   3.900   0.818   6.684
  886SOL    HW1 3557   3.869   0.747   6.747
  886SOL    HW2 3558   3.921   0.901   6.736
  887SOL     OW 3559   4.039   0.073   6.422
  887SOL    HW1 3560   3.988   0.159   6.423
  887SOL    HW2 3561   3.976   7.019   6.406
  888SOL     OW 3562   0.347   6.319   3.632
  888SOL    HW1 3563   0.274   6.253   3.647
  888SOL    HW2 3564   0.307   6.409   3.614
  889SOL     OW 3565   0.409   6.023   5.187
  889SOL    HW1 3566   0.362   6.081   5.253
  889SOL    HW2 3567   0.485   6.073   5.147
  890SOL     OW 3568   2.725   4.704   2.182
  890SOL    HW1 3569   2.800   4.743   2.236
  890SOL    HW2 3570   2.756   4.692   2.087
  891SOL     OW 3571   5.493   3.484   1.341
  891SOL    HW1 3572   5.489   3.435   1.428
  891SOL    HW2 3573   5.576   3.458   1.291
  892SOL     OW 3574   2.896   4.223   0.695
  892SOL    HW1 3575   2.892   4.322   0.682
  892SOL    HW2 3576   2.847   4.178   0.620
  893SOL     OW 3577   1.572   0.228   0.353
  893SOL    HW1 3578   1.524   0.142   0.334
  893SOL    HW2 3579   1.669   0.216   0.335
  894SOL     OW 3580   1.158   5.278   3.921
  894SOL    HW1 3581   1.137   5.241   4.011
  894SOL    HW2 3582   1.245   5.241   3.889
  895SOL     OW 3583   2.027   6.846   4.645
  895SOL    HW1 3584   2.013   6.758   4.600
  895SOL    HW2 3585   2.063   6.832   4.737
  896SOL     OW 3586   6.075   6.100   3.915
  896SOL    HW1 3587   6.008   6.037   3.954
  896SOL    HW2 3588   6.028   6.164   3.853
  897SOL     OW 3589   5.298   2.447   0.160
  897SOL    HW1 3590   5.365   2.373   0.153
  897SOL    HW2 3591   5.330   2.526   0.108
  898SOL     OW 3592   4.696   6.219   3.797
  898SOL    HW1 3593   4.674   6.147   3.731
  898SOL    HW2 3594   4.749   6.180   3.872
  899SOL     OW 3595   0.719   4.890   6.622
  899SOL    HW1 3596   0.724   4.989   6.636
  899SOL    HW2 3597   0.644   4.869   6.560
  900SOL     OW 3598   0.337   6.119   2.704
  900SOL    HW1 3599   0.256   6.177   2.693
  900SOL    HW2 3600   0.399   6.133   2.627
  901SOL     OW 3601   7.000   0.991   4.534
  901SOL    HW1 3602   7.010   1.089   4.548
  901SOL    HW2 3603   0.016   0.941   4.611
  902SOL     OW 3604   6.887   0.370   6.215
  902SOL    HW1 3605   6.798   0.324   6.217
  902SOL    HW2 3606   6.957   0.306   6.185
  903SOL     OW 3607   6.916   4.122   0.666
  903SOL    HW1 3608   6.825   4.144   0.630
  903SOL    HW2 3609   6.965   4.066   0.600
  904SOL     OW 3610   1.426   1.205   3.460
  904SOL    HW1 3611   1.433   1.297   3.422
  904SOL    HW2 3612   1.458   1.139   3.392
  905SOL     OW 3613   5.135   2.276   6.223
  905SOL    HW1 3614   5.092   2.190   6.195
  905SOL    HW2 3615   5.196   2.308   6.150
  906SOL     OW 3616   0.363   4.402   6.601
  906SOL    HW1 3617   0.314   4.434   6.520
  906SOL    HW2 3618   0.327   4.448   6.683
  907SOL     OW 3619   6.282   2.400   2.736
  907SOL    HW1 3620   6.221   2.462   2.785
  907SOL    HW2 3621   6.297   2.317   2.791
  908SOL     OW 3622   1.615   0.141   4.342
  908SOL    HW1 3623   1.710   0.114   4.361
  908SOL    HW2 3624   1.612   0.193   4.256
  909SOL     OW 3625   2.413   0.700   0.911
  909SOL    HW1 3626   2.500   0.744   0.934
  909SOL    HW2 3627   2.341   0.769   0.909
  910SOL     OW 3628   1.229   0.784   0.072
  910SOL    HW1 3629   1.279   0.841   0.137
  910SOL    HW2 3630   1.146   0.831   0.043
  911SOL     OW 3631   0.581   4.882   1.828
  911SOL    HW1 3632   0.493   4.913   1.793
  911SOL    HW2 3633   0.572   4.790   1.866
  912SOL     OW 3634   0.400   1.879   5.875
  912SOL    HW1 3635   0.404   1.979   5.880
  912SOL    HW2 3636   0.414   1.850   5.780
  913SOL     OW 3637   2.580   0.867   3.263
  913SOL    HW1 3638   2.603   0.947   3.207
  913SOL    HW2 3639   2.549   0.898   3.353
  914SOL     OW 3640   2.467   6.024   4.082
  914SOL    HW1 3641   2.422   6.082   4.151
  914SOL    HW2 3642   2.567   6.036   4.089
  915SOL     OW 3643   0.627   3.552   0.163
  915SOL    HW1 3644   0.682   3.469   0.149
  915SOL    HW2 3645   0.588   3.581   0.075
  916SOL     OW 3646   2.337   2.120   2.669
  916SOL    HW1 3647   2.397   2.198   2.655
  916SOL    HW2 3648   2.359   2.048   2.602
  917SOL     OW 3649   3.759   1.141   1.136
  917SOL    HW1 3650   3.686   1.203   1.164
  917SOL    HW2 3651   3.726   1.047   1.139
  918SOL     OW 3652   2.789   6.071   6.135
  918SOL    HW1 3653   2.747   6.108   6.218
  918SOL    HW2 3654   2.820   6.147   6.077
  919SOL     OW 3655   1.671   5.310   1.909
  919SOL    HW1 3656   1.733   5.253   1.856
  919SOL    HW2 3657   1.612   5.252   1.965
  920SOL     OW 3658   2.512   0.498   2.881
  920SOL    HW1 3659   2.545   0.458   2.966
  920SOL    HW2 3660   2.568   0.466   2.805
  921SOL     OW 3661   5.721   4.754   4.466
  921SOL    HW1 3662   5.694   4.658   4.475
  921SOL    HW2 3663   5.727   4.795   4.556
  922SOL     OW 3664   2.848   3.593   6.901
  922SOL    HW1 3665   2.773   3.643   6.943
  922SOL    HW2 3666   2.835   3.495   6.913
  923SOL     OW 3667   2.522   5.968   6.796
  923SOL    HW1 3668   2.548   5.946   6.702
  923SOL    HW2 3669   2.426   5.945   6.810
  924SOL     OW 3670   5.861   3.571   3.154
  924SOL    HW1 3671   5.796   3.506   3.193
  924SOL    HW2 3672   5.883   3.543   3.060
  925SOL     OW 3673   0.233   2.099   5.579
  925SOL    HW1 3674   0.213   2.014   5.530
  925SOL    HW2 3675   0.313   2.086   5.637
  926SOL     OW 3676   5.112   6.387   0.638
  926SOL    HW1 3677   5.088   6.297   0.600
  926SOL    HW2 3678   5.183   6.429   0.583
  927SOL     OW 3679   4.623   4.280   4.378
  927SOL    HW1 3680   4.535   4.326   4.387
  927SOL    HW2 3681   4.659   4.296   4.286
  928SOL     OW 3682   1.835   0.115   0.655
  928SOL    HW1 3683   1.848   0.112   0.556
  928SOL    HW2 3684   1.867   0.029   0.696
  929SOL     OW 3685   0.631   2.734   2.502
  929SOL    HW1 3686   0.688   2.812   2.477
  929SOL    HW2 3687   0.674   2.685   2.578
  930SOL     OW 3688   5.248   4.771   4.565
  930SOL    HW1 3689   5.231   4.719   4.482
  930SOL    HW2 3690   5.308   4.848   4.545
  931SOL     OW 3691   0.825   2.564   3.136
  931SOL    HW1 3692   0.726   2.571   3.128
  931SOL    HW2 3693   0.864   2.532   3.050
  932SOL     OW 3694   4.311   5.750   1.038
  932SOL    HW1 3695   4.303   5.713   1.130
  932SOL    HW2 3696   4.219   5.758   0.998
  933SOL     OW 3697   1.318   4.944   2.524
  933SOL    HW1 3698   1.380   4.928   2.447
  933SOL    HW2 3699   1.366   4.990   2.598
  934SOL     OW 3700   3.457   0.758   5.468
  934SOL    HW1 3701   3.457   0.799   5.559
  934SOL    HW2 3702   3.384   0.799   5.413
  935SOL     OW 3703   4.471   3.528   6.020
  935SOL    HW1 3704   4.524   3.446   5.998
  935SOL    HW2 3705   4.410   3.550   5.944
  936SOL     OW 3706   0.520   0.212   1.357
  936SOL    HW1 3707   0.576   0.289   1.389
  936SOL    HW2 3708   0.465   0.177   1.432
  937SOL     OW 3709   4.390   1.826   4.354
  937SOL    HW1 3710   4.393   1.798   4.450
  937SOL    HW2 3711   4.323   1.899   4.342
  938SOL     OW 3712   0.047   3.376   5.763
  938SOL    HW1 3713   0.013   3.368   5.857
  938SOL    HW2 3714   6.993   3.399   5.702
  939SOL     OW 3715   5.225   1.185   6.065
  939SOL    HW1 3716   5.191   1.188   6.159
  939SOL    HW2 3717   5.324   1.198   6.065
  940SOL     OW 3718   6.892   0.949   3.146
  940SOL    HW1 3719   6.863   0.931   3.052
  940SOL    HW2 3720   6.878   0.867   3.202
  941SOL     OW 3721   5.378   1.121   4.083
  941SOL    HW1 3722   5.464   1.155   4.121
  941SOL    HW2 3723   5.334   1.194   4.030
  942SOL     OW 3724   5.504   6.848   5.320
  942SOL    HW1 3725   5.589   6.800   5.340
  942SOL    HW2 3726   5.524   6.944   5.298
  943SOL     OW 3727   6.151   3.085   2.648
  943SOL    HW1 3728   6.246   3.093   2.677
  943SOL    HW2 3729   6.139   3.002   2.594
  944SOL     OW 3730   5.817   2.927   4.699
  944SOL    HW1 3731   5.770   2.966   4.620
  944SOL    HW2 3732   5.875   2.851   4.670
  945SOL     OW 3733   4.748   4.572   4.098
  945SOL    HW1 3734   4.738   4.473   4.113
  945SOL    HW2 3735   4.808   4.587   4.020
  946SOL     OW 3736   5.803   2.860   5.853
  946SOL    HW1 3737   5.852   2.845   5.767
  946SOL    HW2 3738   5.714   2.900   5.834
  947SOL     OW 3739   3.225   3.006   6.561
  947SOL    HW1 3740   3.159   3.012   6.487
  947SOL    HW2 3741   3.188   2.950   6.635
  948SOL     OW 3742   3.354   1.389   0.782
  948SOL    HW1 3743   3.260   1.425   0.782
  948SOL    HW2 3744   3.360   1.311   0.843
  949SOL     OW 3745   6.313   5.610   6.825
  949SOL    HW1 3746   6.408   5.602   6.856
  949SOL    HW2 3747   6.255   5.547   6.877
  950SOL     OW 3748   3.998   4.966   1.392
  950SOL    HW1 3749   3.905   4.946   1.423
  950SOL    HW2 3750   4.019   4.912   1.311
  951SOL     OW 3751   0.786   0.716   1.656
  951SOL    HW1 3752   0.830   0.631   1.684
  951SOL    HW2 3753   0.737   0.701   1.570
  952SOL     OW 3754   5.402   0.878   2.906
  952SOL    HW1 3755   5.314   0.836   2.927
  952SOL    HW2 3756   5.417   0.878   2.807
  953SOL     OW 3757   4.593   6.221   5.575
  953SOL    HW1 3758   4.574   6.167   5.493
  953SOL    HW2 3759   4.662   6.291   5.555
  954SOL     OW 3760   6.446   0.105   1.573
  954SOL    HW1 3761   6.487   0.189   1.609
  954SOL    HW2 3762   6.499   0.074   1.494
  955SOL     OW 3763   0.532   5.152   3.194
  955SOL    HW1 3764   0.630   5.137   3.187
  955SOL    HW2 3765   0.514   5.244   3.230
  956SOL     OW 3766   1.089   1.115   1.224
  956SOL    HW1 3767   1.064   1.197   1.172
  956SOL    HW2 3768   1.104   1.039   1.161
  957SOL     OW 3769   1.156   4.706   5.618
  957SOL    HW1 3770   1.191   4.695   5.524
  957SOL    HW2 3771   1.175   4.624   5.671
  958SOL     OW 3772   5.403   1.992   1.114
  958SOL    HW1 3773   5.488   2.012   1.162
  958SOL    HW2 3774   5.421   1.923   1.043
  959SOL     OW 3775   2.960   4.846   2.839
  959SOL    HW1 3776   2.875   4.900   2.835
  959SOL    HW2 3777   2.987   4.821   2.746
  960SOL     OW 3778   2.002   6.158   4.464
  960SOL    HW1 3779   2.038   6.065   4.476
  960SOL    HW2 3780   1.938   6.179   4.538
  961SOL     OW 3781   3.958   6.941   2.331
  961SOL    HW1 3782   3.990   7.005   2.261
  961SOL    HW2 3783   3.864   6.964   2.357
  962SOL     OW 3784   1.548   0.779   3.220
  962SOL    HW1 3785   1.590   0.837   3.290
  962SOL    HW2 3786   1.465   0.738   3.257
  963SOL     OW 3787   5.906   0.770   1.561
  963SOL    HW1 3788   5.996   0.765   1.605
  963SOL    HW2 3789   5.912   0.732   1.469
  964SOL     OW 3790   5.599   3.593   1.027
  964SOL    HW1 3791   5.633   3.656   0.957
  964SOL    HW2 3792   5.655   3.602   1.110
  965SOL     OW 3793   6.687   1.770   0.547
  965SOL    HW1 3794   6.638   1.684   0.531
  965SOL    HW2 3795   6.686   1.790   0.645
  966SOL     OW 3796   6.323   1.525   2.761
  966SOL    HW1 3797   6.395   1.594   2.754
  966SOL    HW2 3798   6.278   1.532   2.850
  967SOL     OW 3799   1.634   5.659   0.474
  967SOL    HW1 3800   1.596   5.751   0.462
  967SOL    HW2 3801   1.677   5.630   0.389
  968SOL     OW 3802   4.571   2.566   2.607
  968SOL    HW1 3803   4.489   2.533   2.654
  968SOL    HW2 3804   4.598   2.654   2.645
  969SOL     OW 3805   4.141   6.691   6.208
  969SOL    HW1 3806   4.199   6.622   6.164
  969SOL    HW2 3807   4.099   6.748   6.138
  970SOL     OW 3808   4.361   1.687   5.462
  970SOL    HW1 3809   4.419   1.690   5.543
  970SOL    HW2 3810   4.309   1.772   5.455
  971SOL     OW 3811   6.826   1.462   2.327
  971SOL    HW1 3812   6.817   1.369   2.361
  971SOL    HW2 3813   6.923   1.489   2.328
  972SOL     OW 3814   6.374   4.837   0.552
  972SOL    HW1 3815   6.349   4.897   0.477
  972SOL    HW2 3816   6.317   4.857   0.632
  973SOL     OW 3817   6.908   4.470   6.415
  973SOL    HW1 3818   6.850   4.547   6.443
  973SOL    HW2 3819   6.879   4.438   6.325
  974SOL     OW 3820   3.018   0.637   2.482
  974SOL    HW1 3821   3.115   0.647   2.504
  974SOL    HW2 3822   2.981   0.559   2.534
  975SOL     OW 3823   2.956   5.980   5.882
  975SOL    HW1 3824   2.951   5.897   5.937
  975SOL    HW2 3825   2.998   6.053   5.935
  976SOL     OW 3826   6.717   2.896   2.688
  976SOL    HW1 3827   6.698   2.983   2.641
  976SOL    HW2 3828   6.797   2.906   2.746
  977SOL     OW 3829   1.442   1.312   3.728
  977SOL    HW1 3830   1.420   1.279   3.637
  977SOL    HW2 3831   1.419   1.242   3.795
  978SOL     OW 3832   5.864   4.115   4.259
  978SOL    HW1 3833   5.930   4.041   4.257
  978SOL    HW2 3834   5.910   4.201   4.281
  979SOL     OW 3835   5.941   1.515   3.110
  979SOL    HW1 3836   5.876   1.503   3.035
  979SOL    HW2 3837   5.945   1.432   3.165
  980SOL     OW 3838   5.699   2.557   3.562
  980SOL    HW1 3839   5.647   2.632   3.604
  980SOL    HW2 3840   5.657   2.533   3.474
  981SOL     OW 3841   1.107   1.842   4.756
  981SOL    HW1 3842   1.088   1.744   4.754
  981SOL    HW2 3843   1.100   1.876   4.850
  982SOL     OW 3844   0.991   2.559   1.701
  982SOL    HW1 3845   0.948   2.605   1.778
  982SOL    HW2 3846   1.090   2.568   1.707
  983SOL     OW 3847   6.246   1.988   3.236
  983SOL    HW1 3848   6.190   1.929   3.294
  983SOL    HW2 3849   6.246   1.953   3.142
  984SOL     OW 3850   4.594   1.200   5.443
  984SOL    HW1 3851   4.674   1.145   5.467
  984SOL    HW2 3852   4.514   1.141   5.436
  985SOL     OW 3853   4.029   5.489   0.673
  985SOL    HW1 3854   4.028   5.493   0.773
  985SOL    HW2 3855   3.972   5.414   0.642
  986SOL     OW 3856   5.440   5.469   6.527
  986SOL    HW1 3857   5.517   5.528   6.549
  986SOL    HW2 3858   5.399   5.499   6.441
  987SOL     OW 3859   2.971   6.729   1.411
  987SOL    HW1 3860   2.914   6.678   1.475
  987SOL    HW2 3861   3.005   6.812   1.456
  988SOL     OW 3862   3.895   2.899   0.578
  988SOL    HW1 3863   3.919   2.840   0.501
  988SOL    HW2 3864   3.796   2.904   0.587
  989SOL     OW 3865   0.341   0.490   5.851
  989SOL    HW1 3866   0.400   0.501   5.771
  989SOL    HW2 3867   0.388   0.527   5.932
  990SOL     OW 3868   4.898   0.145   4.239
  990SOL    HW1 3869   4.966   0.085   4.196
  990SOL    HW2 3870   4.927   0.166   4.332
  991SOL     OW 3871   1.447   2.114   4.770
  991SOL    HW1 3872   1.514   2.189   4.771
  991SOL    HW2 3873   1.469   2.049   4.842
  992SOL     OW 3874   0.701   3.144   6.631
  992SOL    HW1 3875   0.634   3.097   6.574
  992SOL    HW2 3876   0.707   3.240   6.603
  993SOL     OW 3877   2.807   5.432   2.622
  993SOL    HW1 3878   2.867   5.457   2.698
  993SOL    HW2 3879   2.835   5.344   2.585
  994SOL     OW 3880   3.718   4.061   2.390
  994SOL    HW1 3881   3.747   4.040   2.483
  994SOL    HW2 3882   3.659   3.988   2.355
  995SOL     OW 3883   1.896   2.863   6.374
  995SOL    HW1 3884   1.800   2.885   6.394
  995SOL    HW2 3885   1.955   2.928   6.422
  996SOL     OW 3886   1.687   3.531   3.448
  996SOL    HW1 3887   1.648   3.460   3.507
  996SOL    HW2 3888   1.719   3.489   3.363
  997SOL     OW 3889   0.690   0.797   1.376
  997SOL    HW1 3890   0.682   0.842   1.288
  997SOL    HW2 3891   0.736   0.709   1.364
  998SOL     OW 3892   4.037   6.853   2.596
  998SOL    HW1 3893   4.020   6.877   2.500
  998SOL    HW2 3894   3.955   6.810   2.634
  999SOL     OW 3895   5.568   5.634   1.196
  999SOL    HW1 3896   5.578   5.719   1.145
  999SOL    HW2 3897   5.480   5.634   1.245
 1000SOL     OW 3898   2.046   1.722   2.612
 1000SOL    HW1 3899   2.012   1.806   2.571
 1000SOL    HW2 3900   2.072   1.739   2.707
 1001SOL     OW 3901   4.237   6.452   6.934
 1001SOL    HW1 3902   4.215   6.487   6.843
 1001SOL    HW2 3903   4.310   6.507   6.974
 1002SOL     OW 3904   5.780   1.570   6.610
 1002SOL    HW1 3905   5.789   1.659   6.655
 1002SOL    HW2 3906   5.870   1.539   6.579
 1003SOL     OW 3907   2.151   6.589   2.954
 1003SOL    HW1 3908   2.093   6.660   2.913
 1003SOL    HW2 3909   2.227   6.632   3.003
 1004SOL     OW 3910   0.011   0.163   6.943
 1004SOL    HW1 3911   0.007   0.197   0.015
 1004SOL    HW2 3912   0.039   0.067   6.943
 1005SOL     OW 3913   0.247   0.504   2.587
 1005SOL    HW1 3914   0.193   0.585   2.566
 1005SOL    HW2 3915   0.313   0.486   2.514
 1006SOL     OW 3916   2.396   5.434   1.609
 1006SOL    HW1 3917   2.441   5.367   1.551
 1006SOL    HW2 3918   2.458   5.462   1.683
 1007SOL     OW 3919   6.228   0.770   3.580
 1007SOL    HW1 3920   6.168   0.722   3.516
 1007SOL    HW2 3921   6.293   0.705   3.620
 1008SOL     OW 3922   0.761   2.293   4.016
 1008SOL    HW1 3923   0.748   2.285   4.114
 1008SOL    HW2 3924   0.811   2.214   3.982
 1009SOL     OW 3925   6.734   5.956   3.847
 1009SOL    HW1 3926   6.721   5.891   3.922
 1009SOL    HW2 3927   6.825   5.998   3.856
 1010SOL     OW 3928   3.859   2.043   6.916
 1010SOL    HW1 3929   3.831   2.127   6.963
 1010SOL    HW2 3930   3.778   1.991   6.891
 1011SOL     OW 3931   3.166   5.811   4.152
 1011SOL    HW1 3932   3.161   5.757   4.235
 1011SOL    HW2 3933   3.078   5.808   4.104
 1012SOL     OW 3934   6.492   5.180   0.642
 1012SOL    HW1 3935   6.395   5.165   0.622
 1012SOL    HW2 3936   6.547   5.149   0.565
 1013SOL     OW 3937   0.672   1.203   6.620
 1013SOL    HW1 3938   0.692   1.233   6.527
 1013SOL    HW2 3939   0.573   1.193   6.631
 1014SOL     OW 3940   5.107   5.574   6.587
 1014SOL    HW1 3941   5.017   5.568   6.542
 1014SOL    HW2 3942   5.179   5.567   6.518
 1015SOL     OW 3943   4.036   6.567   4.860
 1015SOL    HW1 3944   3.986   6.502   4.917
 1015SOL    HW2 3945   3.997   6.567   4.767
 1016SOL     OW 3946   2.665   2.776   1.140
 1016SOL    HW1 3947   2.750   2.731   1.111
 1016SOL    HW2 3948   2.629   2.832   1.066
 1017SOL     OW 3949   5.098   2.418   1.009
 1017SOL    HW1 3950   5.159   2.339   1.001
 1017SOL    HW2 3951   5.133   2.493   0.953
 1018SOL     OW 3952   1.743   3.064   4.242
 1018SOL    HW1 3953   1.736   3.143   4.302
 1018SOL    HW2 3954   1.818   3.005   4.274
 1019SOL     OW 3955   0.139   1.108   0.235
 1019SOL    HW1 3956   0.075   1.108   0.312
 1019SOL    HW2 3957   0.202   1.185   0.245
 1020SOL     OW 3958   1.556   0.032   0.677
 1020SOL    HW1 3959   1.554   6.981   0.607
 1020SOL    HW2 3960   1.647   0.073   0.679
 1021SOL     OW 3961   6.172   1.346   2.259
 1021SOL    HW1 3962   6.114   1.420   2.225
 1021SOL    HW2 3963   6.268   1.374   2.252
 1022SOL     OW 3964   4.318   4.323   6.104
 1022SOL    HW1 3965   4.358   4.367   6.183
 1022SOL    HW2 3966   4.226   4.360   6.087
 1023SOL     OW 3967   5.873   6.972   1.967
 1023SOL    HW1 3968   5.847   6.954   1.872
 1023SOL    HW2 3969   5.871   6.886   2.018
 1024SOL     OW 3970   6.501   2.389   4.101
 1024SOL    HW1 3971   6.463   2.443   4.025
 1024SOL    HW2 3972   6.540   2.304   4.065
 1025SOL     OW 3973   3.805   4.723   0.148
 1025SOL    HW1 3974   3.892   4.723   0.197
 1025SOL    HW2 3975   3.812   4.662   0.069
 1026SOL     OW 3976   1.400   1.146   0.612
 1026SOL    HW1 3977   1.470   1.160   0.683
 1026SOL    HW2 3978   1.437   1.086   0.541
 1027SOL     OW 3979   3.108   5.732   1.279
 1027SOL    HW1 3980   3.069   5.823   1.292
 1027SOL    HW2 3981   3.193   5.724   1.331
 1028SOL     OW 3982   2.383   6.032   0.320
 1028SOL    HW1 3983   2.303   6.009   0.264
 1028SOL    HW2 3984   2.430   6.110   0.280
 1029SOL     OW 3985   1.945   0.601   0.176
 1029SOL    HW1 3986   1.937   0.694   0.213
 1029SOL    HW2 3987   1.862   0.578   0.126
 1030SOL     OW 3988   3.779   2.920   4.258
 1030SOL    HW1 3989   3.760   2.930   4.355
 1030SOL    HW2 3990   3.717   2.852   4.219
 1031SOL     OW 3991   3.552   5.432   1.860
 1031SOL    HW1 3992   3.471   5.465   1.811
 1031SOL    HW2 3993   3.630   5.431   1.798
 1032SOL     OW 3994   2.265   1.332   5.636
 1032SOL    HW1 3995   2.338   1.325   5.704
 1032SOL    HW2 3996   2.200   1.257   5.649
 1033SOL     OW 3997   1.828   5.794   1.507
 1033SOL    HW1 3998   1.886   5.831   1.580
 1033SOL    HW2 3999   1.741   5.844   1.506
 1034SOL     OW 4000   1.699   6.433   3.953
 1034SOL    HW1 4001   1.774   6.366   3.954
 1034SOL    HW2 4002   1.736   6.523   3.976
 1035SOL     OW 4003   2.811   1.734   3.935
 1035SOL    HW1 4004   2.750   1.788   3.876
 1035SOL    HW2 4005   2.869   1.795   3.988
 1036SOL     OW 4006   3.987   1.128   0.997
 1036SOL    HW1 4007   3.908   1.131   1.057
 1036SOL    HW2 4008   3.993   1.039   0.953
 1037SOL     OW 4009   0.631   0.959   0.737
 1037SOL    HW1 4010   0.560   1.028   0.749
 1037SOL    HW2 4011   0.665   0.961   0.643
 1038SOL     OW 4012   0.517   1.560   5.596
 1038SOL    HW1 4013   0.582   1.582   5.669
 1038SOL    HW2 4014   0.455   1.488   5.629
 1039SOL     OW 4015   4.376   1.492   4.702
 1039SOL    HW1 4016   4.360   1.506   4.800
 1039SOL    HW2 4017   4.462   1.442   4.690
 1040SOL     OW 4018   5.730   3.424   3.575
 1040SOL    HW1 4019   5.797   3.383   3.514
 1040SOL    HW2 4020   5.638   3.413   3.535
 1041SOL     OW 4021   6.200   0.334   3.997
 1041SOL    HW1 4022   6.206   0.433   4.013
 1041SOL    HW2 4023   6.282   0.290   4.033
 1042SOL     OW 4024   4.540   4.780   1.972
 1042SOL    HW1 4025   4.544   4.817   2.065
 1042SOL    HW2 4026   4.533   4.855   1.906
 1043SOL     OW 4027   3.865   1.225   6.400
 1043SOL    HW1 4028   3.769   1.228   6.370
 1043SOL    HW2 4029   3.912   1.151   6.352
 1044SOL     OW 4030   3.268   2.252   1.318
 1044SOL    HW1 4031   3.368   2.252   1.316
 1044SOL    HW2 4032   3.233   2.287   1.231
 1045SOL     OW 4033   2.852   0.987   1.520
 1045SOL    HW1 4034   2.823   1.074   1.560
 1045SOL    HW2 4035   2.790   0.963   1.445
 1046SOL     OW 4036   2.271   6.658   6.783
 1046SOL    HW1 4037   2.221   6.668   6.698
 1046SOL    HW2 4038   2.209   6.629   6.856
 1047SOL     OW 4039   1.520   5.159   2.965
 1047SOL    HW1 4040   1.500   5.161   3.063
 1047SOL    HW2 4041   1.587   5.229   2.943
 1048SOL     OW 4042   5.222   5.427   5.411
 1048SOL    HW1 4043   5.149   5.361   5.423
 1048SOL    HW2 4044   5.287   5.419   5.487
 1049SOL     OW 4045   0.212   3.853   5.038
 1049SOL    HW1 4046   0.220   3.857   4.938
 1049SOL    HW2 4047   0.260   3.931   5.078
 1050SOL     OW 4048   3.810   6.575   0.605
 1050SOL    HW1 4049   3.728   6.523   0.581
 1050SOL    HW2 4050   3.820   6.652   0.542
 1051SOL     OW 4051   4.091   4.912   6.975
 1051SOL    HW1 4052   4.057   4.883   6.886
 1051SOL    HW2 4053   4.190   4.899   6.980
 1052SOL     OW 4054   3.892   0.588   4.753
 1052SOL    HW1 4055   3.819   0.601   4.819
 1052SOL    HW2 4056   3.948   0.671   4.748
 1053SOL     OW 4057   5.519   5.779   3.732
 1053SOL    HW1 4058   5.494   5.700   3.788
 1053SOL    HW2 4059   5.554   5.747   3.644
 1054SOL     OW 4060   2.530   5.032   5.399
 1054SOL    HW1 4061   2.488   4.998   5.314
 1054SOL    HW2 4062   2.524   4.961   5.469
 1055SOL     OW 4063   5.465   5.306   4.554
 1055SOL    HW1 4064   5.489   5.340   4.463
 1055SOL    HW2 4065   5.375   5.262   4.550
 1056SOL     OW 4066   1.633   6.717   5.342
 1056SOL    HW1 4067   1.577   6.704   5.423
 1056SOL    HW2 4068   1.588   6.677   5.262
 1057SOL     OW 4069   3.041   3.702   3.237
 1057SOL    HW1 4070   2.995   3.668   3.155
 1057SOL    HW2 4071   3.137   3.673   3.236
 1058SOL     OW 4072   4.226   1.501   1.948
 1058SOL    HW1 4073   4.210   1.451   2.033
 1058SOL    HW2 4074   4.158   1.475   1.881
 1059SOL     OW 4075   3.527   0.541   1.771
 1059SOL    HW1 4076   3.589   0.520   1.847
 1059SOL    HW2 4077   3.563   0.502   1.687
 1060SOL     OW 4078   0.428   3.407   5.831
 1060SOL    HW1 4079   0.424   3.486   5.892
 1060SOL    HW2 4080   0.360   3.418   5.758
 1061SOL     OW 4081   3.372   4.598   1.182
 1061SOL    HW1 4082   3.386   4.592   1.281
 1061SOL    HW2 4083   3.365   4.694   1.155
 1062SOL     OW 4084   6.789   5.593   5.065
 1062SOL    HW1 4085   6.850   5.547   4.999
 1062SOL    HW2 4086   6.720   5.529   5.097
 1063SOL     OW 4087   0.922   3.691   1.214
 1063SOL    HW1 4088   0.990   3.642   1.160
 1063SOL    HW2 4089   0.967   3.739   1.289
 1064SOL     OW 4090   1.718   3.283   2.219
 1064SOL    HW1 4091   1.715   3.321   2.127
 1064SOL    HW2 4092   1.813   3.260   2.243
 1065SOL     OW 4093   5.301   6.885   3.835
 1065SOL    HW1 4094   5.379   6.941   3.863
 1065SOL    HW2 4095   5.285   6.814   3.904
 1066SOL     OW 4096   5.481   0.009   4.724
 1066SOL    HW1 4097   5.397   0.018   4.672
 1066SOL    HW2 4098   5.471   6.959   4.793
 1067SOL     OW 4099   1.647   2.695   0.901
 1067SOL    HW1 4100   1.554   2.663   0.914
 1067SOL    HW2 4101   1.681   2.732   0.988
 1068SOL     OW 4102   0.407   4.030   2.141
 1068SOL    HW1 4103   0.439   4.024   2.047
 1068SOL    HW2 4104   0.312   3.999   2.146
 1069SOL     OW 4105   4.524   4.145   0.723
 1069SOL    HW1 4106   4.560   4.075   0.785
 1069SOL    HW2 4107   4.585   4.154   0.644
 1070SOL     OW 4108   2.021   0.948   0.138
 1070SOL    HW1 4109   2.006   0.917   0.044
 1070SOL    HW2 4110   2.014   1.048   0.141
 1071SOL     OW 4111   4.105   6.967   2.967
 1071SOL    HW1 4112   4.086   0.024   3.026
 1071SOL    HW2 4113   4.035   6.961   2.896
 1072SOL     OW 4114   2.637   6.231   2.442
 1072SOL    HW1 4115   2.694   6.183   2.374
 1072SOL    HW2 4116   2.545   6.243   2.406
 1073SOL     OW 4117   3.460   4.977   2.335
 1073SOL    HW1 4118   3.421   5.065   2.308
 1073SOL    HW2 4119   3.551   4.967   2.294
 1074SOL     OW 4120   1.602   5.518   2.117
 1074SOL    HW1 4121   1.633   5.513   2.022
 1074SOL    HW2 4122   1.594   5.426   2.155
 1075SOL     OW 4123   4.894   5.115   3.240
 1075SOL    HW1 4124   4.870   5.053   3.165
 1075SOL    HW2 4125   4.966   5.073   3.296
 1076SOL     OW 4126   1.207   4.386   4.999
 1076SOL    HW1 4127   1.234   4.377   5.095
 1076SOL    HW2 4128   1.125   4.331   4.982
 1077SOL     OW 4129   5.588   6.729   0.524
 1077SOL    HW1 4130   5.638   6.791   0.584
 1077SOL    HW2 4131   5.548   6.780   0.448
 1078SOL     OW 4132   1.548   1.531   2.424
 1078SOL    HW1 4133   1.606   1.461   2.464
 1078SOL    HW2 4134   1.600   1.583   2.357
 1079SOL     OW 4135   2.760   5.719   3.410
 1079SOL    HW1 4136   2.762   5.718   3.310
 1079SOL    HW2 4137   2.708   5.640   3.443
 1080SOL     OW 4138   3.060   5.273   3.787
 1080SOL    HW1 4139   2.988   5.278   3.857
 1080SOL    HW2 4140   3.017   5.269   3.696
 1081SOL     OW 4141   1.144   1.272   5.767
 1081SOL    HW1 4142   1.057   1.310   5.735
 1081SOL    HW2 4143   1.209   1.345   5.784
 1082SOL     OW 4144   1.385   0.144   5.470
 1082SOL    HW1 4145   1.362   0.217   5.536
 1082SOL    HW2 4146   1.441   0.075   5.515
 1083SOL     OW 4147   3.408   3.501   2.405
 1083SOL    HW1 4148   3.338   3.536   2.343
 1083SOL    HW2 4149   3.499   3.530   2.373
 1084SOL     OW 4150   6.184   5.305   1.233
 1084SOL    HW1 4151   6.099   5.256   1.248
 1084SOL    HW2 4152   6.251   5.244   1.190
 1085SOL     OW 4153   2.221   4.526   4.162
 1085SOL    HW1 4154   2.154   4.509   4.234
 1085SOL    HW2 4155   2.248   4.440   4.120
 1086SOL     OW 4156   5.897   5.675   3.470
 1086SOL    HW1 4157   5.897   5.684   3.569
 1086SOL    HW2 4158   5.923   5.582   3.445
 1087SOL     OW 4159   5.117   3.065   5.036
 1087SOL    HW1 4160   5.202   3.071   4.983
 1087SOL    HW2 4161   5.060   3.145   5.016
 1088SOL     OW 4162   5.030   4.446   3.231
 1088SOL    HW1 4163   5.104   4.442   3.165
 1088SOL    HW2 4164   4.948   4.405   3.192
 1089SOL     OW 4165   0.144   0.299   4.617
 1089SOL    HW1 4166   0.201   0.298   4.534
 1089SOL    HW2 4167   0.186   0.359   4.685
 1090SOL     OW 4168   2.418   1.322   5.108
 1090SOL    HW1 4169   2.388   1.327   5.013
 1090SOL    HW2 4170   2.477   1.399   5.129
 1091SOL     OW 4171   1.554   1.885   3.956
 1091SOL    HW1 4172   1.645   1.885   3.998
 1091SOL    HW2 4173   1.560   1.850   3.863
 1092SOL     OW 4174   1.980   3.910   1.107
 1092SOL    HW1 4175   1.927   3.864   1.178
 1092SOL    HW2 4176   1.958   3.871   1.018
 1093SOL     OW 4177   1.612   2.526   2.418
 1093SOL    HW1 4178   1.533   2.524   2.358
 1093SOL    HW2 4179   1.617   2.614   2.465
 1094SOL     OW 4180   0.319   6.691   1.567
 1094SOL    HW1 4181   0.246   6.725   1.627
 1094SOL    HW2 4182   0.408   6.712   1.607
 1095SOL     OW 4183   5.927   2.747   6.572
 1095SOL    HW1 4184   5.895   2.737   6.666
 1095SOL    HW2 4185   5.849   2.741   6.509
 1096SOL     OW 4186   3.584   5.336   1.030
 1096SOL    HW1 4187   3.549   5.334   0.937
 1096SOL    HW2 4188   3.678   5.370   1.030
 1097SOL     OW 4189   1.653   5.396   5.090
 1097SOL    HW1 4190   1.686   5.408   5.184
 1097SOL    HW2 4191   1.626   5.301   5.076
 1098SOL     OW 4192   5.272   2.242   0.924
 1098SOL    HW1 4193   5.270   2.208   0.830
 1098SOL    HW2 4194   5.298   2.167   0.985
 1099SOL     OW 4195   3.938   2.196   4.489
 1099SOL    HW1 4196   3.998   2.212   4.411
 1099SOL    HW2 4197   3.993   2.183   4.572
 1100SOL     OW 4198   0.760   1.274   6.144
 1100SOL    HW1 4199   0.854   1.307   6.147
 1100SOL    HW2 4200   0.708   1.310   6.222
 1101SOL     OW 4201   5.274   3.226   1.071
 1101SOL    HW1 4202   5.339   3.288   1.027
 1101SOL    HW2 4203   5.182   3.245   1.036
 1102SOL     OW 4204   0.853   4.579   3.780
 1102SOL    HW1 4205   0.850   4.549   3.875
 1102SOL    HW2 4206   0.817   4.672   3.773
 1103SOL     OW 4207   1.652   1.508   2.096
 1103SOL    HW1 4208   1.693   1.593   2.128
 1103SOL    HW2 4209   1.712   1.465   2.029
 1104SOL     OW 4210   2.314   4.628   6.281
 1104SOL    HW1 4211   2.336   4.554   6.218
 1104SOL    HW2 4212   2.223   4.613   6.319
 1105SOL     OW 4213   5.029   4.231   6.992
 1105SOL    HW1 4214   4.987   4.319   6.969
 1105SOL    HW2 4215   5.127   4.234   6.971
 1106SOL     OW 4216   0.095   2.330   5.963
 1106SOL    HW1 4217   0.004   2.369   5.952
 1106SOL    HW2 4218   0.131   2.353   6.054
 1107SOL     OW 4219   0.819   0.206   6.815
 1107SOL    HW1 4220   0.858   0.148   6.743
 1107SOL    HW2 4221   0.891   0.235   6.878
 1108SOL     OW 4222   2.533   0.841   5.792
 1108SOL    HW1 4223   2.461   0.804   5.850
 1108SOL    HW2 4224   2.622   0.821   5.832
 1109SOL     OW 4225   4.129   5.903   4.455
 1109SOL    HW1 4226   4.068   5.839   4.501
 1109SOL    HW2 4227   4.076   5.981   4.422
 1110SOL     OW 4228   2.634   2.801   1.446
 1110SOL    HW1 4229   2.669   2.814   1.354
 1110SOL    HW2 4230   2.630   2.703   1.467
 1111SOL     OW 4231   5.576   6.860   6.812
 1111SOL    HW1 4232   5.616   6.881   6.901
 1111SOL    HW2 4233   5.632   6.791   6.766
 1112SOL     OW 4234   6.189   0.849   2.829
 1112SOL    HW1 4235   6.287   0.841   2.848
 1112SOL    HW2 4236   6.138   0.846   2.915
 1113SOL     OW 4237   6.518   3.451   2.538
 1113SOL    HW1 4238   6.556   3.394   2.465
 1113SOL    HW2 4239   6.429   3.416   2.565
 1114SOL     OW 4240   5.337   0.648   6.359
 1114SOL    HW1 4241   5.411   0.589   6.327
 1114SOL    HW2 4242   5.375   0.735   6.389
 1115SOL     OW 4243   4.209   2.807   0.365
 1115SOL    HW1 4244   4.128   2.759   0.400
 1115SOL    HW2 4245   4.201   2.904   0.385
 1116SOL     OW 4246   5.050   5.786   3.879
 1116SOL    HW1 4247   5.103   5.779   3.964
 1116SOL    HW2 4248   5.014   5.696   3.855
 1117SOL     OW 4249   2.453   2.643   1.675
 1117SOL    HW1 4250   2.418   2.732   1.704
 1117SOL    HW2 4251   2.468   2.645   1.576
 1118SOL     OW 4252   1.969   5.360   2.684
 1118SOL    HW1 4253   1.983   5.456   2.662
 1118SOL    HW2 4254   2.041   5.329   2.746
 1119SOL     OW 4255   4.276   4.118   1.683
 1119SOL    HW1 4256   4.324   4.187   1.737
 1119SOL    HW2 4257   4.336   4.039   1.670
 1120SOL     OW 4258   5.247   0.105   6.239
 1120SOL    HW1 4259   5.158   0.144   6.261
 1120SOL    HW2 4260   5.234   0.025   6.180
 1121SOL     OW 4261   5.123   2.583   1.720
 1121SOL    HW1 4262   5.101   2.588   1.817
 1121SOL    HW2 4263   5.039   2.569   1.668
 1122SOL     OW 4264   5.680   2.990   6.592
 1122SOL    HW1 4265   5.754   2.990   6.659
 1122SOL    HW2 4266   5.686   3.073   6.536
 1123SOL     OW 4267   4.501   1.296   1.970
 1123SOL    HW1 4268   4.533   1.235   1.897
 1123SOL    HW2 4269   4.486   1.388   1.932
 1124SOL     OW 4270   6.568   3.581   5.062
 1124SOL    HW1 4271   6.523   3.544   4.981
 1124SOL    HW2 4272   6.536   3.675   5.077
 1125SOL     OW 4273   2.963   2.648   5.352
 1125SOL    HW1 4274   3.039   2.613   5.407
 1125SOL    HW2 4275   2.901   2.573   5.329
 1126SOL     OW 4276   4.515   0.073   0.550
 1126SOL    HW1 4277   4.607   0.098   0.581
 1126SOL    HW2 4278   4.511   6.996   0.532
 1127SOL     OW 4279   2.739   4.651   6.981
 1127SOL    HW1 4280   2.677   4.729   6.979
 1127SOL    HW2 4281   2.822   4.673   6.929
 1128SOL     OW 4282   4.138   2.240   4.009
 1128SOL    HW1 4283   4.089   2.262   3.925
 1128SOL    HW2 4284   4.201   2.164   3.992
 1129SOL     OW 4285   4.436   0.528   0.613
 1129SOL    HW1 4286   4.365   0.490   0.553
 1129SOL    HW2 4287   4.402   0.611   0.657
 1130SOL     OW 4288   1.553   3.980   1.115
 1130SOL    HW1 4289   1.579   4.049   1.183
 1130SOL    HW2 4290   1.608   3.994   1.032
 1131SOL     OW 4291   0.237   5.879   5.664
 1131SOL    HW1 4292   0.274   5.837   5.582
 1131SOL    HW2 4293   0.280   5.968   5.678
 1132SOL     OW 4294   5.160   6.855   5.621
 1132SOL    HW1 4295   5.252   6.823   5.644
 1132SOL    HW2 4296   5.113   6.882   5.705
 1133SOL     OW 4297   0.689   2.437   1.038
 1133SOL    HW1 4298   0.771   2.401   1.084
 1133SOL    HW2 4299   0.701   2.534   1.020
 1134SOL     OW 4300   5.556   2.522   6.786
 1134SOL    HW1 4301   5.653   2.499   6.794
 1134SOL    HW2 4302   5.547   2.610   6.739
 1135SOL     OW 4303   3.083   2.207   3.459
 1135SOL    HW1 4304   3.041   2.127   3.501
 1135SOL    HW2 4305   3.026   2.287   3.474
 1136SOL     OW 4306   2.439   5.630   3.648
 1136SOL    HW1 4307   2.504   5.565   3.607
 1136SOL    HW2 4308   2.407   5.693   3.578
 1137SOL     OW 4309   1.217   1.935   6.644
 1137SOL    HW1 4310   1.145   1.866   6.648
 1137SOL    HW2 4311   1.300   1.895   6.606
 1138SOL     OW 4312   2.393   3.581   6.234
 1138SOL    HW1 4313   2.373   3.678   6.249
 1138SOL    HW2 4314   2.461   3.551   6.301
 1139SOL     OW 4315   1.266   6.369   3.061
 1139SOL    HW1 4316   1.196   6.317   3.012
 1139SOL    HW2 4317   1.226   6.411   3.142
 1140SOL     OW 4318   3.399   1.936   3.336
 1140SOL    HW1 4319   3.476   1.997   3.356
 1140SOL    HW2 4320   3.317   1.990   3.321
 1141SOL     OW 4321   5.535   5.680   5.816
 1141SOL    HW1 4322   5.569   5.766   5.853
 1141SOL    HW2 4323   5.597   5.606   5.842
 1142SOL     OW 4324   5.046   0.360   4.175
 1142SOL    HW1 4325   5.031   0.403   4.264
 1142SOL    HW2 4326   4.989   0.278   4.168
 1143SOL     OW 4327   4.314   2.304   2.491
 1143SOL    HW1 4328   4.394   2.309   2.431
 1143SOL    HW2 4329   4.242   2.251   2.446
 1144SOL     OW 4330   0.414   4.281   4.191
 1144SOL    HW1 4331   0.415   4.293   4.092
 1144SOL    HW2 4332   0.321   4.256   4.220
 1145SOL     OW 4333   6.905   5.513   4.151
 1145SOL    HW1 4334   6.949   5.570   4.221
 1145SOL    HW2 4335   6.917   5.555   4.062
 1146SOL     OW 4336   6.093   2.250   0.725
 1146SOL    HW1 4337   6.082   2.347   0.703
 1146SOL    HW2 4338   6.004   2.204   0.722
 1147SOL     OW 4339   1.012   3.548   2.085
 1147SOL    HW1 4340   1.075   3.572   2.159
 1147SOL    HW2 4341   1.061   3.492   2.018
 1148SOL     OW 4342   3.481   6.179   6.382
 1148SOL    HW1 4343   3.534   6.264   6.373
 1148SOL    HW2 4344   3.532   6.104   6.339
 1149SOL     OW 4345   6.308   3.414   3.079
 1149SOL    HW1 4346   6.311   3.505   3.122
 1149SOL    HW2 4347   6.365   3.351   3.132
 1150SOL     OW 4348   2.404   4.935   0.942
 1150SOL    HW1 4349   2.430   4.839   0.930
 1150SOL    HW2 4350   2.449   4.971   1.024
 1151SOL     OW 4351   5.700   5.700   6.330
 1151SOL    HW1 4352   5.744   5.733   6.247
 1151SOL    HW2 4353   5.612   5.658   6.308
 1152SOL     OW 4354   0.999   0.158   4.813
 1152SOL    HW1 4355   0.989   0.250   4.776
 1152SOL    HW2 4356   1.081   0.153   4.870
 1153SOL     OW 4357   2.267   6.275   3.210
 1153SOL    HW1 4358   2.352   6.308   3.167
 1153SOL    HW2 4359   2.214   6.353   3.243
 1154SOL     OW 4360   0.689   4.088   2.107
 1154SOL    HW1 4361   0.596   4.116   2.084
 1154SOL    HW2 4362   0.688   3.996   2.146
 1155SOL     OW 4363   3.263   5.993   0.666
 1155SOL    HW1 4364   3.220   6.018   0.579
 1155SOL    HW2 4365   3.333   5.924   0.650
 1156SOL     OW 4366   2.353   0.490   3.730
 1156SOL    HW1 4367   2.275   0.510   3.789
 1156SOL    HW2 4368   2.330   0.513   3.635
 1157SOL     OW 4369   6.929   2.440   4.803
 1157SOL    HW1 4370   6.957   2.520   4.856
 1157SOL    HW2 4371   6.998   2.421   4.733
 1158SOL     OW 4372   5.773   4.517   6.134
 1158SOL    HW1 4373   5.794   4.436   6.080
 1158SOL    HW2 4374   5.715   4.578   6.080
 1159SOL     OW 4375   3.458   6.450   2.754
 1159SOL    HW1 4376   3.386   6.518   2.766
 1159SOL    HW2 4377   3.499   6.460   2.664
 1160SOL     OW 4378   3.831   3.938   2.174
 1160SOL    HW1 4379   3.930   3.925   2.179
 1160SOL    HW2 4380   3.802   4.000   2.247
 1161SOL     OW 4381   5.417   0.286   4.584
 1161SOL    HW1 4382   5.416   0.256   4.489
 1161SOL    HW2 4383   5.453   0.212   4.642
 1162SOL     OW 4384   3.174   3.252   1.338
 1162SOL    HW1 4385   3.158   3.344   1.303
 1162SOL    HW2 4386   3.087   3.208   1.360
 1163SOL     OW 4387   5.014   2.130   1.785
 1163SOL    HW1 4388   5.060   2.045   1.761
 1163SOL    HW2 4389   4.948   2.153   1.713
 1164SOL     OW 4390   5.523   3.184   2.789
 1164SOL    HW1 4391   5.444   3.122   2.790
 1164SOL    HW2 4392   5.558   3.195   2.882
 1165SOL     OW 4393   0.916   3.368   3.673
 1165SOL    HW1 4394   1.005   3.364   3.716
 1165SOL    HW2 4395   0.907   3.295   3.606
 1166SOL     OW 4396   4.498   2.188   6.472
 1166SOL    HW1 4397   4.461   2.095   6.464
 1166SOL    HW2 4398   4.598   2.182   6.481
 1167SOL     OW 4399   3.801   1.065   5.399
 1167SOL    HW1 4400   3.832   1.035   5.489
 1167SOL    HW2 4401   3.847   1.012   5.328
 1168SOL     OW 4402   6.645   6.252   3.079
 1168SOL    HW1 4403   6.616   6.185   3.147
 1168SOL    HW2 4404   6.745   6.259   3.079
 1169SOL     OW 4405   0.269   3.224   1.024
 1169SOL    HW1 4406   0.280   3.246   1.120
 1169SOL    HW2 4407   0.230   3.302   0.975
 1170SOL     OW 4408   3.828   1.179   3.033
 1170SOL    HW1 4409   3.884   1.141   2.960
 1170SOL    HW2 4410   3.840   1.279   3.037
 1171SOL     OW 4411   3.158   6.243   1.265
 1171SOL    HW1 4412   3.231   6.185   1.300
 1171SOL    HW2 4413   3.195   6.307   1.198
 1172SOL     OW 4414   4.057   3.754   4.261
 1172SOL    HW1 4415   4.062   3.691   4.183
 1172SOL    HW2 4416   4.105   3.839   4.239
 1173SOL     OW 4417   3.325   0.456   5.720
 1173SOL    HW1 4418   3.397   0.468   5.652
 1173SOL    HW2 4419   3.241   0.499   5.688
 1174SOL     OW 4420   2.629   5.825   0.795
 1174SOL    HW1 4421   2.565   5.750   0.776
 1174SOL    HW2 4422   2.578   5.910   0.808
 1175SOL     OW 4423   5.822   4.455   6.641
 1175SOL    HW1 4424   5.905   4.509   6.628
 1175SOL    HW2 4425   5.801   4.405   6.557
 1176SOL     OW 4426   5.469   5.135   0.959
 1176SOL    HW1 4427   5.471   5.229   0.993
 1176SOL    HW2 4428   5.380   5.094   0.979
 1177SOL     OW 4429   6.740   2.905   5.383
 1177SOL    HW1 4430   6.832   2.942   5.397
 1177SOL    HW2 4431   6.720   2.837   5.454
 1178SOL     OW 4432   4.846   3.811   2.268
 1178SOL    HW1 4433   4.868   3.837   2.362
 1178SOL    HW2 4434   4.927   3.819   2.210
 1179SOL     OW 4435   1.801   3.730   0.938
 1179SOL    HW1 4436   1.827   3.669   1.013
 1179SOL    HW2 4437   1.758   3.677   0.865
 1180SOL     OW 4438   2.215   1.462   3.429
 1180SOL    HW1 4439   2.163   1.414   3.359
 1180SOL    HW2 4440   2.284   1.401   3.468
 1181SOL     OW 4441   1.233   4.927   4.163
 1181SOL    HW1 4442   1.306   4.906   4.229
 1181SOL    HW2 4443   1.194   4.841   4.129
 1182SOL     OW 4444   2.208   3.970   3.781
 1182SOL    HW1 4445   2.214   3.944   3.685
 1182SOL    HW2 4446   2.206   4.070   3.788
 1183SOL     OW 4447   4.501   5.697   1.519
 1183SOL    HW1 4448   4.574   5.696   1.451
 1183SOL    HW2 4449   4.515   5.622   1.584
 1184SOL     OW 4450   3.208   2.842   5.295
 1184SOL    HW1 4451   3.111   2.866   5.300
 1184SOL    HW2 4452   3.248   2.883   5.212
 1185SOL     OW 4453   2.134   0.015   0.422
 1185SOL    HW1 4454   2.181   0.023   0.510
 1185SOL    HW2 4455   2.118   0.106   0.384
 1186SOL     OW 4456   6.101   0.120   5.124
 1186SOL    HW1 4457   6.043   0.200   5.110
 1186SOL    HW2 4458   6.144   0.094   5.037
 1187SOL     OW 4459   5.569   6.221   4.461
 1187SOL    HW1 4460   5.506   6.242   4.386
 1187SOL    HW2 4461   5.627   6.301   4.479
 1188SOL     OW 4462   2.308   6.890   6.064
 1188SOL    HW1 4463   2.359   6.910   6.147
 1188SOL    HW2 4464   2.321   6.794   6.038
 1189SOL     OW 4465   5.452   1.314   1.605
 1189SOL    HW1 4466   5.480   1.262   1.524
 1189SOL    HW2 4467   5.448   1.411   1.582
 1190SOL     OW 4468   4.027   5.303   3.367
 1190SOL    HW1 4469   4.030   5.402   3.352
 1190SOL    HW2 4470   3.934   5.270   3.350
 1191SOL     OW 4471   3.042   5.339   5.990
 1191SOL    HW1 4472   2.980   5.380   5.923
 1191SOL    HW2 4473   2.988   5.287   6.057
 1192SOL     OW 4474   6.087   4.619   2.850
 1192SOL    HW1 4475   6.064   4.585   2.941
 1192SOL    HW2 4476   6.110   4.542   2.790
 1193SOL     OW 4477   5.262   6.984   4.546
 1193SOL    HW1 4478   5.238   6.888   4.562
 1193SOL    HW2 4479   5.178   0.015   4.529
 1194SOL     OW 4480   6.249   0.379   0.765
 1194SOL    HW1 4481   6.301   0.463   0.754
 1194SOL    HW2 4482   6.301   0.302   0.727
 1195SOL     OW 4483   6.372   1.216   6.262
 1195SOL    HW1 4484   6.461   1.237   6.221
 1195SOL    HW2 4485   6.385   1.182   6.355
 1196SOL     OW 4486   0.456   4.858   2.625
 1196SOL    HW1 4487   0.435   4.765   2.654
 1196SOL    HW2 4488   0.556   4.869   2.618
 1197SOL     OW 4489   3.919   6.291   5.397
 1197SOL    HW1 4490   3.828   6.253   5.413
 1197SOL    HW2 4491   3.984   6.248   5.459
 1198SOL     OW 4492   3.377   2.132   3.034
 1198SOL    HW1 4493   3.312   2.117   3.109
 1198SOL    HW2 4494   3.327   2.141   2.948
 1199SOL     OW 4495   2.902   3.625   2.036
 1199SOL    HW1 4496   2.908   3.719   2.004
 1199SOL    HW2 4497   2.911   3.624   2.136
 1200SOL     OW 4498   4.627   4.050   5.574
 1200SOL    HW1 4499   4.645   4.051   5.673
 1200SOL    HW2 4500   4.556   4.117   5.553
 1201SOL     OW 4501   1.473   1.300   4.833
 1201SOL    HW1 4502   1.436   1.207   4.834
 1201SOL    HW2 4503   1.434   1.350   4.756
 1202SOL     OW 4504   5.532   0.142   5.553
 1202SOL    HW1 4505   5.500   0.063   5.607
 1202SOL    HW2 4506   5.491   0.225   5.589
 1203SOL     OW 4507   5.674   0.567   1.167
 1203SOL    HW1 4508   5.579   0.544   1.188
 1203SOL    HW2 4509   5.680   0.664   1.142
 1204SOL     OW 4510   3.722   1.658   0.431
 1204SOL    HW1 4511   3.744   1.562   0.413
 1204SOL    HW2 4512   3.623   1.669   0.438
 1205SOL     OW 4513   5.707   2.608   5.916
 1205SOL    HW1 4514   5.750   2.686   5.871
 1205SOL    HW2 4515   5.664   2.638   6.001
 1206SOL     OW 4516   1.802   1.496   4.477
 1206SOL    HW1 4517   1.773   1.401   4.487
 1206SOL    HW2 4518   1.775   1.547   4.559
 1207SOL     OW 4519   6.014   0.018   0.314
 1207SOL    HW1 4520   6.003   0.031   0.216
 1207SOL    HW2 4521   5.990   0.103   0.362
 1208SOL     OW 4522   3.415   3.639   3.015
 1208SOL    HW1 4523   3.372   3.574   3.079
 1208SOL    HW2 4524   3.512   3.616   3.006
 1209SOL     OW 4525   6.213   6.110   5.195
 1209SOL    HW1 4526   6.127   6.063   5.175
 1209SOL    HW2 4527   6.267   6.055   5.259
 1210SOL     OW 4528   3.642   0.160   2.795
 1210SOL    HW1 4529   3.722   0.120   2.841
 1210SOL    HW2 4530   3.593   0.218   2.860
 1211SOL     OW 4531   1.404   3.467   4.300
 1211SOL    HW1 4532   1.434   3.371   4.302
 1211SOL    HW2 4533   1.313   3.472   4.259
 1212SOL     OW 4534   1.541   3.737   5.380
 1212SOL    HW1 4535   1.634   3.732   5.345
 1212SOL    HW2 4536   1.537   3.801   5.457
 1213SOL     OW 4537   0.087   2.818   5.202
 1213SOL    HW1 4538   0.054   2.730   5.167
 1213SOL    HW2 4539   0.082   2.886   5.129
 1214SOL     OW 4540   1.850   3.735   4.847
 1214SOL    HW1 4541   1.864   3.716   4.749
 1214SOL    HW2 4542   1.922   3.692   4.900
 1215SOL     OW 4543   2.638   4.644   2.493
 1215SOL    HW1 4544   2.617   4.668   2.398
 1215SOL    HW2 4545   2.728   4.682   2.518
 1216SOL     OW 4546   1.460   6.746   1.417
 1216SOL    HW1 4547   1.530   6.816   1.429
 1216SOL    HW2 4548   1.504   6.659   1.395
 1217SOL     OW 4549   1.383   6.501   0.184
 1217SOL    HW1 4550   1.410   6.597   0.195
 1217SOL    HW2 4551   1.454   6.452   0.133
 1218SOL     OW 4552   0.724   3.753   4.946
 1218SOL    HW1 4553   0.688   3.842   4.974
 1218SOL    HW2 4554   0.808   3.766   4.894
 1219SOL     OW 4555   4.292   5.476   0.544
 1219SOL    HW1 4556   4.264   5.382   0.564
 1219SOL    HW2 4557   4.240   5.538   0.602
 1220SOL     OW 4558   5.708   3.011   2.542
 1220SOL    HW1 4559   5.786   2.949   2.542
 1220SOL    HW2 4560   5.713   3.069   2.460
 1221SOL     OW 4561   5.915   3.841   0.539
 1221SOL    HW1 4562   5.879   3.748   0.537
 1221SOL    HW2 4563   6.013   3.840   0.520
 1222SOL     OW 4564   6.708   6.580   0.244
 1222SOL    HW1 4565   6.744   6.516   0.312
 1222SOL    HW2 4566   6.779   6.601   0.177
 1223SOL     OW 4567   6.007   6.598   6.300
 1223SOL    HW1 4568   6.102   6.577   6.278
 1223SOL    HW2 4569   5.994   6.594   6.399
 1224SOL     OW 4570   4.063   6.016   0.229
 1224SOL    HW1 4571   4.034   5.922   0.250
 1224SOL    HW2 4572   4.018   6.047   0.145
 1225SOL     OW 4573   4.103   1.847   0.506
 1225SOL    HW1 4574   4.059   1.804   0.585
 1225SOL    HW2 4575   4.177   1.788   0.473
 1226SOL     OW 4576   5.768   6.436   1.379
 1226SOL    HW1 4577   5.707   6.389   1.316
 1226SOL    HW2 4578   5.818   6.508   1.331
 1227SOL     OW 4579   5.536   4.307   5.746
 1227SOL    HW1 4580   5.567   4.259   5.665
 1227SOL    HW2 4581   5.525   4.242   5.822
 1228SOL     OW 4582   3.734   3.089   2.153
 1228SOL    HW1 4583   3.741   3.083   2.054
 1228SOL    HW2 4584   3.705   3.001   2.190
 1229SOL     OW 4585   2.130   6.267   2.537
 1229SOL    HW1 4586   2.221   6.271   2.579
 1229SOL    HW2 4587   2.097   6.173   2.538
 1230SOL     OW 4588   5.235   5.281   2.360
 1230SOL    HW1 4589   5.233   5.185   2.388
 1230SOL    HW2 4590   5.315   5.297   2.302
 1231SOL     OW 4591   1.450   2.406   5.913
 1231SOL    HW1 4592   1.378   2.348   5.875
 1231SOL    HW2 4593   1.410   2.471   5.978
 1232SOL     OW 4594   3.490   0.861   5.066
 1232SOL    HW1 4595   3.456   0.946   5.107
 1232SOL    HW2 4596   3.509   0.876   4.969
 1233SOL     OW 4597   1.001   4.595   3.420
 1233SOL    HW1 4598   1.052   4.680   3.437
 1233SOL    HW2 4599   1.041   4.546   3.343
 1234SOL     OW 4600   6.833   3.584   6.846
 1234SOL    HW1 4601   6.840   3.660   6.911
 1234SOL    HW2 4602   6.746   3.537   6.860
 1235SOL     OW 4603   6.120   4.746   0.243
 1235SOL    HW1 4604   6.119   4.653   0.205
 1235SOL    HW2 4605   6.039   4.795   0.213
 1236SOL     OW 4606   2.759   0.781   0.511
 1236SOL    HW1 4607   2.755   0.836   0.595
 1236SOL    HW2 4608   2.695   0.818   0.444
 1237SOL     OW 4609   1.379   0.340   4.777
 1237SOL    HW1 4610   1.385   0.269   4.708
 1237SOL    HW2 4611   1.459   0.399   4.771
 1238SOL     OW 4612   0.314   0.221   3.263
 1238SOL    HW1 4613   0.358   0.171   3.337
 1238SOL    HW2 4614   0.382   0.246   3.194
 1239SOL     OW 4615   6.287   5.508   4.445
 1239SOL    HW1 4616   6.199   5.485   4.404
 1239SOL    HW2 4617   6.319   5.430   4.500
 1240SOL     OW 4618   6.130   5.575   3.075
 1240SOL    HW1 4619   6.176   5.550   3.160
 1240SOL    HW2 4620   6.038   5.609   3.096
 1241SOL     OW 4621   6.396   5.350   4.619
 1241SOL    HW1 4622   6.464   5.418   4.646
 1241SOL    HW2 4623   6.362   5.303   4.700
 1242SOL     OW 4624   1.238   3.264   0.360
 1242SOL    HW1 4625   1.210   3.208   0.283
 1242SOL    HW2 4626   1.202   3.225   0.445
 1243SOL     OW 4627   1.198   3.979   5.591
 1243SOL    HW1 4628   1.243   4.066   5.573
 1243SOL    HW2 4629   1.249   3.928   5.660
 1244SOL     OW 4630   5.955   6.491   5.100
 1244SOL    HW1 4631   6.012   6.442   5.034
 1244SOL    HW2 4632   5.873   6.526   5.055
 1245SOL     OW 4633   5.215   5.952   0.979
 1245SOL    HW1 4634   5.221   5.973   1.076
 1245SOL    HW2 4635   5.168   6.027   0.931
 1246SOL     OW 4636   4.734   1.562   0.708
 1246SOL    HW1 4637   4.735   1.565   0.608
 1246SOL    HW2 4638   4.650   1.604   0.742
 1247SOL     OW 4639   6.970   6.711   3.751
 1247SOL    HW1 4640   0.028   6.727   3.810
 1247SOL    HW2 4641   6.956   6.790   3.691
 1248SOL     OW 4642   0.093   0.044   4.759
 1248SOL    HW1 4643   0.101   0.120   4.695
 1248SOL    HW2 4644   0.158   6.994   4.733
 1249SOL     OW 4645   0.288   4.673   1.147
 1249SOL    HW1 4646   0.297   4.745   1.216
 1249SOL    HW2 4647   0.193   4.645   1.139
 1250SOL     OW 4648   5.599   3.538   5.350
 1250SOL    HW1 4649   5.556   3.452   5.323
 1250SOL    HW2 4650   5.695   3.537   5.321
 1251SOL     OW 4651   1.880   0.693   2.546
 1251SOL    HW1 4652   1.819   0.741   2.609
 1251SOL    HW2 4653   1.888   0.745   2.461
 1252SOL     OW 4654   2.764   5.415   6.669
 1252SOL    HW1 4655   2.666   5.434   6.673
 1252SOL    HW2 4656   2.815   5.497   6.697
 1253SOL     OW 4657   2.936   0.679   0.702
 1253SOL    HW1 4658   3.024   0.640   0.673
 1253SOL    HW2 4659   2.891   0.721   0.623
 1254SOL     OW 4660   6.485   1.727   2.405
 1254SOL    HW1 4661   6.440   1.690   2.486
 1254SOL    HW2 4662   6.580   1.697   2.403
 1255SOL     OW 4663   5.480   2.200   4.824
 1255SOL    HW1 4664   5.521   2.181   4.913
 1255SOL    HW2 4665   5.394   2.250   4.836
 1256SOL     OW 4666   0.371   6.258   3.902
 1256SOL    HW1 4667   0.396   6.286   3.809
 1256SOL    HW2 4668   0.420   6.314   3.968
 1257SOL     OW 4669   0.239   4.508   3.280
 1257SOL    HW1 4670   0.286   4.437   3.332
 1257SOL    HW2 4671   0.296   4.536   3.202
 1258SOL     OW 4672   2.776   6.162   4.260
 1258SOL    HW1 4673   2.775   6.064   4.238
 1258SOL    HW2 4674   2.863   6.185   4.304
 1259SOL     OW 4675   4.639   0.422   5.079
 1259SOL    HW1 4676   4.702   0.476   5.135
 1259SOL    HW2 4677   4.545   0.450   5.098
 1260SOL     OW 4678   2.097   0.652   2.278
 1260SOL    HW1 4679   2.004   0.676   2.249
 1260SOL    HW2 4680   2.123   0.564   2.240
 1261SOL     OW 4681   0.201   3.832   6.419
 1261SOL    HW1 4682   0.105   3.804   6.410
 1261SOL    HW2 4683   0.232   3.813   6.513
 1262SOL     OW 4684   4.892   4.992   1.015
 1262SOL    HW1 4685   4.863   5.051   1.090
 1262SOL    HW2 4686   4.836   5.010   0.935
 1263SOL     OW 4687   6.907   2.386   0.657
 1263SOL    HW1 4688   6.937   2.339   0.740
 1263SOL    HW2 4689   6.901   2.320   0.582
 1264SOL     OW 4690   1.032   3.789   3.055
 1264SOL    HW1 4691   1.005   3.747   3.141
 1264SOL    HW2 4692   1.131   3.804   3.055
 1265SOL     OW 4693   0.100   3.674   4.137
 1265SOL    HW1 4694   0.167   3.720   4.080
 1265SOL    HW2 4695   0.053   3.604   4.084
 1266SOL     OW 4696   2.926   1.710   5.524
 1266SOL    HW1 4697   2.982   1.721   5.442
 1266SOL    HW2 4698   2.908   1.800   5.564
 1267SOL     OW 4699   0.087   5.470   2.990
 1267SOL    HW1 4700   0.073   5.454   3.088
 1267SOL    HW2 4701   0.171   5.425   2.961
 1268SOL     OW 4702   5.551   2.274   6.637
 1268SOL    HW1 4703   5.531   2.357   6.690
 1268SOL    HW2 4704   5.605   2.211   6.693
 1269SOL     OW 4705   6.747   6.303   4.602
 1269SOL    HW1 4706   6.768   6.362   4.680
 1269SOL    HW2 4707   6.648   6.293   4.593
 1270SOL     OW 4708   2.137   4.013   4.807
 1270SOL    HW1 4709   2.184   4.019   4.895
 1270SOL    HW2 4710   2.096   4.102   4.786
 1271SOL     OW 4711   3.235   1.876   2.879
 1271SOL    HW1 4712   3.188   1.816   2.944
 1271SOL    HW2 4713   3.195   1.967   2.883
 1272SOL     OW 4714   0.483   5.625   0.510
 1272SOL    HW1 4715   0.416   5.698   0.514
 1272SOL    HW2 4716   0.560   5.646   0.571
 1273SOL     OW 4717   2.917   4.501   0.348
 1273SOL    HW1 4718   2.950   4.498   0.443
 1273SOL    HW2 4719   2.992   4.475   0.286
 1274SOL     OW 4720   7.003   2.796   1.793
 1274SOL    HW1 4721   6.910   2.831   1.806
 1274SOL    HW2 4722   0.006   2.739   1.872
 1275SOL     OW 4723   4.420   0.680   4.242
 1275SOL    HW1 4724   4.387   0.586   4.251
 1275SOL    HW2 4725   4.520   0.681   4.241
 1276SOL     OW 4726   0.023   0.703   2.607
 1276SOL    HW1 4727   7.006   0.668   2.693
 1276SOL    HW2 4728   6.981   0.768   2.566
 1277SOL     OW 4729   0.421   0.943   4.671
 1277SOL    HW1 4730   0.350   1.004   4.706
 1277SOL    HW2 4731   0.383   0.851   4.660
 1278SOL     OW 4732   1.372   2.119   5.329
 1278SOL    HW1 4733   1.441   2.180   5.291
 1278SOL    HW2 4734   1.413   2.061   5.399
 1279SOL     OW 4735   2.780   6.652   0.613
 1279SOL    HW1 4736   2.846   6.716   0.575
 1279SOL    HW2 4737   2.818   6.559   0.612
 1280SOL     OW 4738   1.847   0.411   2.561
 1280SOL    HW1 4739   1.765   0.386   2.613
 1280SOL    HW2 4740   1.849   0.510   2.548
 1281SOL     OW 4741   1.310   5.866   3.114
 1281SOL    HW1 4742   1.367   5.866   3.031
 1281SOL    HW2 4743   1.333   5.946   3.169
 1282SOL     OW 4744   0.410   1.092   0.779
 1282SOL    HW1 4745   0.386   1.154   0.705
 1282SOL    HW2 4746   0.329   1.043   0.810
 1283SOL     OW 4747   5.530   3.846   5.791
 1283SOL    HW1 4748   5.526   3.818   5.695
 1283SOL    HW2 4749   5.452   3.808   5.841
 1284SOL     OW 4750   2.782   2.499   1.650
 1284SOL    HW1 4751   2.822   2.409   1.632
 1284SOL    HW2 4752   2.815   2.533   1.738
 1285SOL     OW 4753   5.243   3.037   6.579
 1285SOL    HW1 4754   5.292   3.093   6.513
 1285SOL    HW2 4755   5.145   3.058   6.575
 1286SOL     OW 4756   5.072   4.326   2.149
 1286SOL    HW1 4757   5.023   4.247   2.112
 1286SOL    HW2 4758   5.006   4.393   2.182
 1287SOL     OW 4759   6.003   4.895   6.470
 1287SOL    HW1 4760   6.021   4.869   6.565
 1287SOL    HW2 4761   5.932   4.836   6.433
 1288SOL     OW 4762   0.391   2.953   0.159
 1288SOL    HW1 4763   0.429   2.866   0.190
 1288SOL    HW2 4764   0.372   3.011   0.237
 1289SOL     OW 4765   0.448   6.423   2.020
 1289SOL    HW1 4766   0.356   6.422   2.059
 1289SOL    HW2 4767   0.477   6.330   1.998
 1290SOL     OW 4768   0.266   0.238   6.634
 1290SOL    HW1 4769   0.193   0.237   6.566
 1290SOL    HW2 4770   0.228   0.260   6.724
 1291SOL     OW 4771   2.281   5.116   6.034
 1291SOL    HW1 4772   2.378   5.095   6.033
 1291SOL    HW2 4773   2.236   5.061   6.105
 1292SOL     OW 4774   0.070   4.490   1.668
 1292SOL    HW1 4775   0.112   4.487   1.758
 1292SOL    HW2 4776   0.106   4.569   1.617
 1293SOL     OW 4777   2.262   1.037   6.199
 1293SOL    HW1 4778   2.180   1.024   6.143
 1293SOL    HW2 4779   2.237   1.081   6.285
 1294SOL     OW 4780   0.323   3.234   2.097
 1294SOL    HW1 4781   0.279   3.153   2.057
 1294SOL    HW2 4782   0.414   3.209   2.130
 1295SOL     OW 4783   6.177   3.692   2.677
 1295SOL    HW1 4784   6.230   3.678   2.761
 1295SOL    HW2 4785   6.159   3.789   2.665
 1296SOL     OW 4786   3.096   1.880   6.179
 1296SOL    HW1 4787   3.172   1.830   6.137
 1296SOL    HW2 4788   3.010   1.852   6.135
 1297SOL     OW 4789   5.751   1.694   5.622
 1297SOL    HW1 4790   5.747   1.660   5.716
 1297SOL    HW2 4791   5.668   1.668   5.574
 1298SOL     OW 4792   5.649   3.460   3.829
 1298SOL    HW1 4793   5.696   3.456   3.741
 1298SOL    HW2 4794   5.614   3.369   3.853
 1299SOL     OW 4795   1.940   4.096   3.396
 1299SOL    HW1 4796   2.033   4.105   3.361
 1299SOL    HW2 4797   1.938   4.026   3.468
 1300SOL     OW 4798   3.200   3.676   1.966
 1300SOL    HW1 4799   3.185   3.647   2.061
 1300SOL    HW2 4800   3.121   3.727   1.934
 1301SOL     OW 4801   1.133   6.397   3.340
 1301SOL    HW1 4802   1.110   6.480   3.392
 1301SOL    HW2 4803   1.217   6.357   3.376
 1302SOL     OW 4804   2.456   6.680   4.847
 1302SOL    HW1 4805   2.539   6.683   4.792
 1302SOL    HW2 4806   2.458   6.599   4.906
 1303SOL     OW 4807   3.765   1.490   1.097
 1303SOL    HW1 4808   3.699   1.541   1.151
 1303SOL    HW2 4809   3.723   1.463   1.010
 1304SOL     OW 4810   1.303   0.573   6.122
 1304SOL    HW1 4811   1.343   0.481   6.119
 1304SOL    HW2 4812   1.203   0.565   6.125
 1305SOL     OW 4813   5.226   6.095   5.013
 1305SOL    HW1 4814   5.161   6.135   5.078
 1305SOL    HW2 4815   5.256   6.166   4.948
 1306SOL     OW 4816   1.320   3.440   5.078
 1306SOL    HW1 4817   1.231   3.397   5.097
 1306SOL    HW2 4818   1.372   3.448   5.163
 1307SOL     OW 4819   1.617   3.035   4.807
 1307SOL    HW1 4820   1.582   3.078   4.724
 1307SOL    HW2 4821   1.713   3.012   4.795
 1308SOL     OW 4822   4.314   5.963   4.237
 1308SOL    HW1 4823   4.387   5.896   4.249
 1308SOL    HW2 4824   4.236   5.939   4.294
 1309SOL     OW 4825   5.780   3.123   5.415
 1309SOL    HW1 4826   5.726   3.195   5.460
 1309SOL    HW2 4827   5.717   3.056   5.376
 1310SOL     OW 4828   5.797   3.620   4.573
 1310SOL    HW1 4829   5.747   3.670   4.501
 1310SOL    HW2 4830   5.831   3.534   4.536
 1311SOL     OW 4831   5.715   6.857   4.115
 1311SOL    HW1 4832   5.763   6.815   4.192
 1311SOL    HW2 4833   5.763   6.939   4.087
 1312SOL     OW 4834   0.402   0.708   6.420
 1312SOL    HW1 4835   0.375   0.619   6.457
 1312SOL    HW2 4836   0.460   0.756   6.486
 1313SOL     OW 4837   3.108   5.539   5.100
 1313SOL    HW1 4838   3.056   5.625   5.101
 1313SOL    HW2 4839   3.082   5.486   5.019
 1314SOL     OW 4840   1.620   1.624   5.707
 1314SOL    HW1 4841   1.663   1.714   5.720
 1314SOL    HW2 4842   1.674   1.571   5.642
 1315SOL     OW 4843   1.221   1.115   0.823
 1315SOL    HW1 4844   1.204   1.019   0.844
 1315SOL    HW2 4845   1.273   1.122   0.738
 1316SOL     OW 4846   2.001   0.025   3.430
 1316SOL    HW1 4847   1.940   6.986   3.482
 1316SOL    HW2 4848   1.950   0.105   3.398
 1317SOL     OW 4849   0.715   4.454   4.505
 1317SOL    HW1 4850   0.736   4.373   4.560
 1317SOL    HW2 4851   0.734   4.536   4.558
 1318SOL     OW 4852   0.506   0.639   0.454
 1318SOL    HW1 4853   0.484   0.553   0.501
 1318SOL    HW2 4854   0.464   0.715   0.503
 1319SOL     OW 4855   6.510   0.881   0.491
 1319SOL    HW1 4856   6.492   0.901   0.395
 1319SOL    HW2 4857   6.430   0.838   0.532
 1320SOL     OW 4858   5.700   4.583   0.093
 1320SOL    HW1 4859   5.763   4.583   0.170
 1320SOL    HW2 4860   5.613   4.542   0.120
 1321SOL     OW 4861   4.691   3.161   6.956
 1321SOL    HW1 4862   4.650   3.136   6.868
 1321SOL    HW2 4863   4.791   3.154   6.948
 1322SOL     OW 4864   6.306   0.961   3.226
 1322SOL    HW1 4865   6.262   1.032   3.281
 1322SOL    HW2 4866   6.388   0.929   3.273
 1323SOL     OW 4867   5.516   1.608   5.545
 1323SOL    HW1 4868   5.488   1.512   5.556
 1323SOL    HW2 4869   5.517   1.631   5.448
 1324SOL     OW 4870   1.702   2.112   1.497
 1324SOL    HW1 4871   1.744   2.203   1.495
 1324SOL    HW2 4872   1.773   2.043   1.516
 1325SOL     OW 4873   1.786   6.556   2.874
 1325SOL    HW1 4874   1.777   6.506   2.960
 1325SOL    HW2 4875   1.725   6.635   2.874
 1326SOL     OW 4876   4.866   2.507   4.532
 1326SOL    HW1 4877   4.773   2.498   4.498
 1326SOL    HW2 4878   4.918   2.566   4.470
 1327SOL     OW 4879   2.343   5.210   2.617
 1327SOL    HW1 4880   2.371   5.190   2.711
 1327SOL    HW2 4881   2.288   5.135   2.582
 1328SOL     OW 4882   1.476   2.501   6.382
 1328SOL    HW1 4883   1.409   2.427   6.388
 1328SOL    HW2 4884   1.526   2.506   6.469
 1329SOL     OW 4885   6.862   1.481   0.619
 1329SOL    HW1 4886   6.910   1.568   0.627
 1329SOL    HW2 4887   6.849   1.441   0.710
 1330SOL     OW 4888   6.477   0.302   1.067
 1330SOL    HW1 4889   6.544   0.350   1.124
 1330SOL    HW2 4890   6.385   0.317   1.103
 1331SOL     OW 4891   5.146   1.324   2.804
 1331SOL    HW1 4892   5.051   1.321   2.838
 1331SOL    HW2 4893   5.150   1.281   2.714
 1332SOL     OW 4894   4.272   1.180   1.097
 1332SOL    HW1 4895   4.180   1.182   1.058
 1332SOL    HW2 4896   4.300   1.273   1.120
 1333SOL     OW 4897   3.575   4.170   5.259
 1333SOL    HW1 4898   3.648   4.130   5.315
 1333SOL    HW2 4899   3.591   4.147   5.163
 1334SOL     OW 4900   1.584   3.175   5.061
 1334SOL    HW1 4901   1.499   3.175   5.113
 1334SOL    HW2 4902   1.569   3.128   4.974
 1335SOL     OW 4903   2.313   6.582   2.694
 1335SOL    HW1 4904   2.349   6.562   2.785
 1335SOL    HW2 4905   2.213   6.594   2.699
 1336SOL     OW 4906   1.333   1.361   6.680
 1336SOL    HW1 4907   1.412   1.392   6.626
 1336SOL    HW2 4908   1.284   1.290   6.630
 1337SOL     OW 4909   2.038   2.770   6.168
 1337SOL    HW1 4910   2.125   2.727   6.195
 1337SOL    HW2 4911   1.987   2.797   6.250
 1338SOL     OW 4912   4.496   3.864   6.601
 1338SOL    HW1 4913   4.425   3.841   6.667
 1338SOL    HW2 4914   4.456   3.916   6.525
 1339SOL     OW 4915   6.931   4.778   6.694
 1339SOL    HW1 4916   6.841   4.790   6.736
 1339SOL    HW2 4917   6.922   4.773   6.595
 1340SOL     OW 4918   1.069   1.876   0.929
 1340SOL    HW1 4919   1.007   1.799   0.915
 1340SOL    HW2 4920   1.161   1.851   0.900
 1341SOL     OW 4921   3.674   1.127   5.063
 1341SOL    HW1 4922   3.722   1.062   5.005
 1341SOL    HW2 4923   3.738   1.198   5.094
 1342SOL     OW 4924   1.076   5.995   5.723
 1342SOL    HW1 4925   1.121   6.078   5.758
 1342SOL    HW2 4926   1.088   5.921   5.789
 1343SOL     OW 4927   3.380   6.738   2.470
 1343SOL    HW1 4928   3.438   6.796   2.527
 1343SOL    HW2 4929   3.423   6.649   2.457
 1344SOL     OW 4930   6.269   1.858   3.000
 1344SOL    HW1 4931   6.250   1.859   2.902
 1344SOL    HW2 4932   6.230   1.775   3.040
 1345SOL     OW 4933   0.553   0.990   3.531
 1345SOL    HW1 4934   0.545   0.995   3.432
 1345SOL    HW2 4935   0.479   0.934   3.568
 1346SOL     OW 4936   0.928   6.202   3.297
 1346SOL    HW1 4937   0.958   6.108   3.312
 1346SOL    HW2 4938   1.002   6.254   3.254
 1347SOL     OW 4939   6.617   6.705   3.158
 1347SOL    HW1 4940   6.642   6.783   3.100
 1347SOL    HW2 4941   6.612   6.623   3.102
 1348SOL     OW 4942   5.645   5.153   4.356
 1348SOL    HW1 4943   5.670   5.112   4.269
 1348SOL    HW2 4944   5.728   5.172   4.410
 1349SOL     OW 4945   4.483   2.660   0.315
 1349SOL    HW1 4946   4.577   2.691   0.328
 1349SOL    HW2 4947   4.420   2.724   0.360
 1350SOL     OW 4948   3.224   4.580   6.505
 1350SOL    HW1 4949   3.167   4.546   6.580
 1350SOL    HW2 4950   3.198   4.535   6.420
 1351SOL     OW 4951   0.519   0.470   2.977
 1351SOL    HW1 4952   0.425   0.502   2.966
 1351SOL    HW2 4953   0.572   0.539   3.027
 1352SOL     OW 4954   6.585   0.551   3.938
 1352SOL    HW1 4955   6.558   0.637   3.895
 1352SOL    HW2 4956   6.684   0.540   3.929
 1353SOL     OW 4957   6.918   4.134   5.054
 1353SOL    HW1 4958   6.822   4.122   5.083
 1353SOL    HW2 4959   6.957   4.045   5.031
 1354SOL     OW 4960   6.608   0.936   0.780
 1354SOL    HW1 4961   6.605   0.941   0.880
 1354SOL    HW2 4962   6.636   0.844   0.752
 1355SOL     OW 4963   5.319   4.457   0.715
 1355SOL    HW1 4964   5.295   4.402   0.795
 1355SOL    HW2 4965   5.323   4.397   0.634
 1356SOL     OW 4966   3.408   3.955   2.687
 1356SOL    HW1 4967   3.372   3.881   2.744
 1356SOL    HW2 4968   3.506   3.966   2.704
 1357SOL     OW 4969   2.775   3.353   6.125
 1357SOL    HW1 4970   2.698   3.291   6.135
 1357SOL    HW2 4971   2.743   3.448   6.122
 1358SOL     OW 4972   2.413   2.784   6.513
 1358SOL    HW1 4973   2.402   2.875   6.473
 1358SOL    HW2 4974   2.482   2.733   6.463
 1359SOL     OW 4975   6.131   4.004   1.927
 1359SOL    HW1 4976   6.048   3.954   1.952
 1359SOL    HW2 4977   6.122   4.039   1.834
 1360SOL     OW 4978   4.010   3.825   2.958
 1360SOL    HW1 4979   4.068   3.783   3.028
 1360SOL    HW2 4980   3.942   3.883   3.003
 1361SOL     OW 4981   1.071   0.116   5.853
 1361SOL    HW1 4982   1.100   0.108   5.757
 1361SOL    HW2 4983   0.980   0.076   5.863
 1362SOL     OW 4984   2.990   3.527   5.851
 1362SOL    HW1 4985   3.089   3.512   5.848
 1362SOL    HW2 4986   2.944   3.444   5.882
 1363SOL     OW 4987   6.610   6.084   3.315
 1363SOL    HW1 4988   6.531   6.039   3.358
 1363SOL    HW2 4989   6.694   6.040   3.345
 1364SOL     OW 4990   6.933   3.370   0.604
 1364SOL    HW1 4991   6.953   3.459   0.644
 1364SOL    HW2 4992   6.995   3.353   0.527
 1365SOL     OW 4993   1.490   3.464   5.319
 1365SOL    HW1 4994   1.429   3.423   5.387
 1365SOL    HW2 4995   1.531   3.547   5.356
 1366SOL     OW 4996   0.011   3.197   1.271
 1366SOL    HW1 4997   0.110   3.190   1.261
 1366SOL    HW2 4998   6.988   3.148   1.196
 1367SOL     OW 4999   1.463   4.403   3.611
 1367SOL    HW1 5000   1.538   4.355   3.655
 1367SOL    HW2 5001   1.449   4.491   3.656
 1368SOL     OW 5002   6.441   6.679   4.662
 1368SOL    HW1 5003   6.509   6.751   4.673
 1368SOL    HW2 5004   6.471   6.616   4.590
 1369SOL     OW 5005   2.075   6.208   2.245
 1369SOL    HW1 5006   1.979   6.187   2.227
 1369SOL    HW2 5007   2.086   6.235   2.340
 1370SOL     OW 5008   0.247   2.244   3.612
 1370SOL    HW1 5009   0.149   2.251   3.593
 1370SOL    HW2 5010   0.297   2.243   3.525
 1371SOL     OW 5011   6.172   1.026   4.305
 1371SOL    HW1 5012   6.129   0.964   4.371
 1371SOL    HW2 5013   6.102   1.081   4.259
 1372SOL     OW 5014   6.397   2.746   0.748
 1372SOL    HW1 5015   6.478   2.692   0.772
 1372SOL    HW2 5016   6.409   2.840   0.781
 1373SOL     OW 5017   4.446   2.207   1.446
 1373SOL    HW1 5018   4.462   2.212   1.544
 1373SOL    HW2 5019   4.528   2.238   1.397
 1374SOL     OW 5020   5.309   3.865   0.817
 1374SOL    HW1 5021   5.247   3.828   0.886
 1374SOL    HW2 5022   5.360   3.790   0.774
 1375SOL     OW 5023   6.651   5.579   6.243
 1375SOL    HW1 5024   6.615   5.668   6.216
 1375SOL    HW2 5025   6.675   5.527   6.162
 1376SOL     OW 5026   2.709   4.410   6.180
 1376SOL    HW1 5027   2.705   4.458   6.268
 1376SOL    HW2 5028   2.744   4.472   6.110
 1377SOL     OW 5029   1.183   2.709   3.561
 1377SOL    HW1 5030   1.171   2.808   3.568
 1377SOL    HW2 5031   1.224   2.675   3.646
 1378SOL     OW 5032   4.074   2.225   4.907
 1378SOL    HW1 5033   4.104   2.255   4.817
 1378SOL    HW2 5034   4.059   2.305   4.965
 1379SOL     OW 5035   4.773   5.571   2.181
 1379SOL    HW1 5036   4.869   5.573   2.211
 1379SOL    HW2 5037   4.718   5.626   2.244
 1380SOL     OW 5038   6.316   6.373   2.126
 1380SOL    HW1 5039   6.217   6.386   2.126
 1380SOL    HW2 5040   6.362   6.460   2.141
 1381SOL     OW 5041   5.691   2.273   6.119
 1381SOL    HW1 5042   5.757   2.299   6.049
 1381SOL    HW2 5043   5.715   2.318   6.205
 1382SOL     OW 5044   4.400   2.798   1.474
 1382SOL    HW1 5045   4.470   2.751   1.420
 1382SOL    HW2 5046   4.310   2.759   1.455
 1383SOL     OW 5047   1.691   6.350   1.632
 1383SOL    HW1 5048   1.675   6.410   1.711
 1383SOL    HW2 5049   1.611   6.292   1.617
 1384SOL     OW 5050   4.412   0.757   0.834
 1384SOL    HW1 5051   4.385   0.852   0.842
 1384SOL    HW2 5052   4.512   0.750   0.841
 1385SOL     OW 5053   2.251   4.677   3.917
 1385SOL    HW1 5054   2.289   4.585   3.906
 1385SOL    HW2 5055   2.324   4.740   3.944
 1386SOL     OW 5056   3.122   6.436   4.024
 1386SOL    HW1 5057   3.062   6.362   3.996
 1386SOL    HW2 5058   3.118   6.510   3.957
 1387SOL     OW 5059   3.835   5.790   1.351
 1387SOL    HW1 5060   3.785   5.793   1.437
 1387SOL    HW2 5061   3.771   5.793   1.274
 1388SOL     OW 5062   6.024   6.694   1.112
 1388SOL    HW1 5063   5.962   6.682   1.190
 1388SOL    HW2 5064   6.090   6.766   1.133
 1389SOL     OW 5065   5.586   1.310   3.012
 1389SOL    HW1 5066   5.528   1.350   3.084
 1389SOL    HW2 5067   5.613   1.382   2.948
 1390SOL     OW 5068   0.525   3.310   6.990
 1390SOL    HW1 5069   0.617   3.313   0.006
 1390SOL    HW2 5070   0.527   3.332   6.893
 1391SOL     OW 5071   6.563   0.796   3.829
 1391SOL    HW1 5072   6.655   0.808   3.791
 1391SOL    HW2 5073   6.527   0.886   3.855
 1392SOL     OW 5074   5.301   6.000   5.839
 1392SOL    HW1 5075   5.328   5.937   5.912
 1392SOL    HW2 5076   5.383   6.026   5.786
 1393SOL     OW 5077   6.279   5.122   5.409
 1393SOL    HW1 5078   6.356   5.065   5.381
 1393SOL    HW2 5079   6.225   5.073   5.478
 1394SOL     OW 5080   3.056   6.077   5.087
 1394SOL    HW1 5081   3.112   6.089   5.169
 1394SOL    HW2 5082   3.031   5.981   5.078
 1395SOL     OW 5083   2.310   4.368   6.075
 1395SOL    HW1 5084   2.227   4.323   6.041
 1395SOL    HW2 5085   2.380   4.367   6.004
 1396SOL     OW 5086   1.949   0.590   4.040
 1396SOL    HW1 5087   1.923   0.686   4.044
 1396SOL    HW2 5088   1.999   0.565   4.123
 1397SOL     OW 5089   0.103   0.464   3.807
 1397SOL    HW1 5090   0.182   0.501   3.757
 1397SOL    HW2 5091   0.040   0.538   3.828
 1398SOL     OW 5092   1.654   0.890   5.787
 1398SOL    HW1 5093   1.680   0.981   5.820
 1398SOL    HW2 5094   1.653   0.891   5.687
 1399SOL     OW 5095   4.319   6.454   1.017
 1399SOL    HW1 5096   4.358   6.495   0.935
 1399SOL    HW2 5097   4.229   6.416   0.996
 1400SOL     OW 5098   6.958   2.104   2.675
 1400SOL    HW1 5099   6.902   2.181   2.705
 1400SOL    HW2 5100   6.998   2.126   2.585
 1401SOL     OW 5101   6.923   1.998   4.920
 1401SOL    HW1 5102   6.914   2.096   4.898
 1401SOL    HW2 5103   6.968   1.988   5.008
 1402SOL     OW 5104   0.812   4.396   0.364
 1402SOL    HW1 5105   0.881   4.324   0.354
 1402SOL    HW2 5106   0.772   4.392   0.456
 1403SOL     OW 5107   3.059   1.328   1.727
 1403SOL    HW1 5108   3.103   1.241   1.749
 1403SOL    HW2 5109   3.092   1.362   1.639
 1404SOL     OW 5110   5.166   0.094   0.232
 1404SOL    HW1 5111   5.244   0.157   0.235
 1404SOL    HW2 5112   5.119   0.103   0.144
 1405SOL     OW 5113   1.835   3.529   1.125
 1405SOL    HW1 5114   1.741   3.496   1.126
 1405SOL    HW2 5115   1.849   3.593   1.201
 1406SOL     OW 5116   1.459   5.073   1.730
 1406SOL    HW1 5117   1.527   5.021   1.781
 1406SOL    HW2 5118   1.372   5.070   1.780
 1407SOL     OW 5119   0.668   2.246   1.672
 1407SOL    HW1 5120   0.749   2.272   1.619
 1407SOL    HW2 5121   0.677   2.281   1.766
 1408SOL     OW 5122   5.436   1.066   5.797
 1408SOL    HW1 5123   5.342   1.038   5.780
 1408SOL    HW2 5124   5.437   1.154   5.845
 1409SOL     OW 5125   0.660   0.306   5.133
 1409SOL    HW1 5126   0.685   0.304   5.036
 1409SOL    HW2 5127   0.671   0.214   5.172
 1410SOL     OW 5128   2.338   3.731   6.606
 1410SOL    HW1 5129   2.419   3.777   6.643
 1410SOL    HW2 5130   2.326   3.757   6.510
 1411SOL     OW 5131   3.070   6.448   2.686
 1411SOL    HW1 5132   2.987   6.500   2.702
 1411SOL    HW2 5133   3.148   6.493   2.730
 1412SOL     OW 5134   0.625   2.356   0.636
 1412SOL    HW1 5135   0.609   2.453   0.618
 1412SOL    HW2 5136   0.593   2.302   0.558
 1413SOL     OW 5137   2.129   1.098   4.703
 1413SOL    HW1 5138   2.114   1.006   4.664
 1413SOL    HW2 5139   2.200   1.145   4.650
 1414SOL     OW 5140   2.357   1.056   1.222
 1414SOL    HW1 5141   2.291   1.044   1.148
 1414SOL    HW2 5142   2.336   0.991   1.295
 1415SOL     OW 5143   2.635   0.972   4.903
 1415SOL    HW1 5144   2.544   0.993   4.940
 1415SOL    HW2 5145   2.655   0.875   4.920
 1416SOL     OW 5146   4.525   4.596   4.218
 1416SOL    HW1 5147   4.544   4.591   4.316
 1416SOL    HW2 5148   4.611   4.604   4.168
 1417SOL     OW 5149   2.330   1.850   0.053
 1417SOL    HW1 5150   2.392   1.865   6.997
 1417SOL    HW2 5151   2.271   1.772   0.034
 1418SOL     OW 5152   2.937   3.418   3.530
 1418SOL    HW1 5153   3.015   3.368   3.493
 1418SOL    HW2 5154   2.955   3.516   3.523
 1419SOL     OW 5155   3.304   6.495   4.590
 1419SOL    HW1 5156   3.356   6.515   4.506
 1419SOL    HW2 5157   3.316   6.398   4.612
 1420SOL     OW 5158   1.879   6.227   1.473
 1420SOL    HW1 5159   1.824   6.274   1.541
 1420SOL    HW2 5160   1.819   6.185   1.405
 1421SOL     OW 5161   2.063   3.372   3.335
 1421SOL    HW1 5162   1.974   3.409   3.309
 1421SOL    HW2 5163   2.051   3.286   3.384
 1422SOL     OW 5164   2.251   4.157   1.470
 1422SOL    HW1 5165   2.260   4.249   1.506
 1422SOL    HW2 5166   2.203   4.160   1.382
 1423SOL     OW 5167   5.108   6.766   2.779
 1423SOL    HW1 5168   5.122   6.679   2.732
 1423SOL    HW2 5169   5.013   6.794   2.770
 1424SOL     OW 5170   6.237   4.107   4.718
 1424SOL    HW1 5171   6.207   4.106   4.623
 1424SOL    HW2 5172   6.265   4.200   4.743
 1425SOL     OW 5173   1.415   6.095   4.516
 1425SOL    HW1 5174   1.426   6.123   4.420
 1425SOL    HW2 5175   1.442   6.170   4.576
 1426SOL     OW 5176   1.491   2.293   5.597
 1426SOL    HW1 5177   1.426   2.267   5.669
 1426SOL    HW2 5178   1.502   2.392   5.596
 1427SOL     OW 5179   6.959   0.142   3.340
 1427SOL    HW1 5180   0.008   0.078   3.369
 1427SOL    HW2 5181   6.906   0.172   3.420
 1428SOL     OW 5182   5.493   2.766   0.796
 1428SOL    HW1 5183   5.436   2.745   0.875
 1428SOL    HW2 5184   5.589   2.763   0.822
 1429SOL     OW 5185   5.730   2.106   0.197
 1429SOL    HW1 5186   5.760   2.182   0.139
 1429SOL    HW2 5187   5.723   2.022   0.141
 1430SOL     OW 5188   1.897   4.780   4.330
 1430SOL    HW1 5189   1.804   4.748   4.311
 1430SOL    HW2 5190   1.959   4.702   4.334
 1431SOL     OW 5191   1.991   1.876   1.069
 1431SOL    HW1 5192   1.948   1.965   1.054
 1431SOL    HW2 5193   1.930   1.804   1.037
 1432SOL     OW 5194   3.445   1.520   2.724
 1432SOL    HW1 5195   3.401   1.583   2.661
 1432SOL    HW2 5196   3.424   1.426   2.698
 1433SOL     OW 5197   4.436   1.648   3.906
 1433SOL    HW1 5198   4.372   1.648   3.983
 1433SOL    HW2 5199   4.436   1.557   3.863
 1434SOL     OW 5200   6.778   0.873   5.584
 1434SOL    HW1 5201   6.759   0.873   5.682
 1434SOL    HW2 5202   6.873   0.901   5.569
 1435SOL     OW 5203   5.529   0.830   2.283
 1435SOL    HW1 5204   5.560   0.909   2.336
 1435SOL    HW2 5205   5.603   0.800   2.222
 1436SOL     OW 5206   5.500   4.067   0.779
 1436SOL    HW1 5207   5.582   4.028   0.737
 1436SOL    HW2 5208   5.438   3.993   0.808
 1437SOL     OW 5209   2.393   2.581   3.418
 1437SOL    HW1 5210   2.400   2.657   3.483
 1437SOL    HW2 5211   2.455   2.597   3.341
 1438SOL     OW 5212   3.220   6.954   1.191
 1438SOL    HW1 5213   3.121   6.952   1.174
 1438SOL    HW2 5214   3.244   0.015   1.241
 1439SOL     OW 5215   6.945   5.574   1.232
 1439SOL    HW1 5216   0.008   5.523   1.217
 1439SOL    HW2 5217   6.882   5.557   1.156
 1440SOL     OW 5218   3.002   3.689   0.716
 1440SOL    HW1 5219   3.017   3.706   0.619
 1440SOL    HW2 5220   2.903   3.687   0.734
 1441SOL     OW 5221   6.002   0.548   2.641
 1441SOL    HW1 5222   6.068   0.566   2.714
 1441SOL    HW2 5223   6.036   0.474   2.584
 1442SOL     OW 5224   6.593   5.523   0.204
 1442SOL    HW1 5225   6.536   5.570   0.271
 1442SOL    HW2 5226   6.673   5.484   0.249
 1443SOL     OW 5227   0.664   2.417   2.420
 1443SOL    HW1 5228   0.658   2.488   2.490
 1443SOL    HW2 5229   0.757   2.416   2.383
 1444SOL     OW 5230   5.172   0.187   0.565
 1444SOL    HW1 5231   5.073   0.185   0.550
 1444SOL    HW2 5232   5.206   0.280   0.552
 1445SOL     OW 5233   1.200   3.068   2.435
 1445SOL    HW1 5234   1.249   2.988   2.468
 1445SOL    HW2 5235   1.200   3.139   2.506
 1446SOL     OW 5236   6.409   0.957   6.658
 1446SOL    HW1 5237   6.419   1.037   6.599
 1446SOL    HW2 5238   6.327   0.967   6.714
 1447SOL     OW 5239   6.138   5.439   4.001
 1447SOL    HW1 5240   6.122   5.525   4.050
 1447SOL    HW2 5241   6.176   5.459   3.911
 1448SOL     OW 5242   6.532   3.041   4.735
 1448SOL    HW1 5243   6.460   3.089   4.685
 1448SOL    HW2 5244   6.593   2.996   4.671
 1449SOL     OW 5245   1.372   4.078   5.333
 1449SOL    HW1 5246   1.387   4.012   5.408
 1449SOL    HW2 5247   1.309   4.038   5.266
 1450SOL     OW 5248   1.160   2.103   6.876
 1450SOL    HW1 5249   1.219   2.080   6.799
 1450SOL    HW2 5250   1.109   2.022   6.904
 1451SOL     OW 5251   1.399   6.257   2.710
 1451SOL    HW1 5252   1.494   6.233   2.730
 1451SOL    HW2 5253   1.396   6.351   2.675
 1452SOL     OW 5254   4.310   2.688   5.339
 1452SOL    HW1 5255   4.237   2.646   5.285
 1452SOL    HW2 5256   4.396   2.683   5.289
 1453SOL     OW 5257   0.475   4.415   5.849
 1453SOL    HW1 5258   0.513   4.397   5.758
 1453SOL    HW2 5259   0.549   4.413   5.917
 1454SOL     OW 5260   1.854   2.087   2.705
 1454SOL    HW1 5261   1.946   2.047   2.699
 1454SOL    HW2 5262   1.789   2.028   2.657
 1455SOL     OW 5263   1.917   6.782   2.274
 1455SOL    HW1 5264   1.862   6.742   2.346
 1455SOL    HW2 5265   2.000   6.728   2.262
 1456SOL     OW 5266   6.434   6.626   5.839
 1456SOL    HW1 5267   6.371   6.696   5.806
 1456SOL    HW2 5268   6.397   6.536   5.819
 1457SOL     OW 5269   1.723   4.799   0.039
 1457SOL    HW1 5270   1.733   4.869   0.109
 1457SOL    HW2 5271   1.671   4.722   0.076
 1458SOL     OW 5272   5.346   4.780   5.437
 1458SOL    HW1 5273   5.415   4.843   5.472
 1458SOL    HW2 5274   5.374   4.686   5.455
 1459SOL     OW 5275   4.277   6.972   6.136
 1459SOL    HW1 5276   4.283   0.031   6.196
 1459SOL    HW2 5277   4.181   6.951   6.118
 1460SOL     OW 5278   1.730   6.780   4.923
 1460SOL    HW1 5279   1.800   6.712   4.898
 1460SOL    HW2 5280   1.768   6.843   4.991
 1461SOL     OW 5281   0.255   3.880   3.260
 1461SOL    HW1 5282   0.174   3.930   3.291
 1461SOL    HW2 5283   0.281   3.913   3.169
 1462SOL     OW 5284   1.223   0.516   6.681
 1462SOL    HW1 5285   1.221   0.552   6.588
 1462SOL    HW2 5286   1.288   0.441   6.686
 1463SOL     OW 5287   0.889   4.715   5.685
 1463SOL    HW1 5288   0.975   4.713   5.636
 1463SOL    HW2 5289   0.846   4.624   5.682
 1464SOL     OW 5290   0.065   4.821   2.691
 1464SOL    HW1 5291   0.053   4.734   2.738
 1464SOL    HW2 5292   0.095   4.804   2.597
 1465SOL     OW 5293   2.198   1.726   3.828
 1465SOL    HW1 5294   2.278   1.722   3.768
 1465SOL    HW2 5295   2.158   1.817   3.824
 1466SOL     OW 5296   3.806   1.773   1.947
 1466SOL    HW1 5297   3.809   1.856   2.003
 1466SOL    HW2 5298   3.818   1.693   2.006
 1467SOL     OW 5299   2.011   1.153   4.015
 1467SOL    HW1 5300   2.004   1.187   4.108
 1467SOL    HW2 5301   2.025   1.229   3.952
 1468SOL     OW 5302   1.938   5.832   2.038
 1468SOL    HW1 5303   1.909   5.748   2.083
 1468SOL    HW2 5304   1.999   5.883   2.098
 1469SOL     OW 5305   6.585   6.637   2.716
 1469SOL    HW1 5306   6.682   6.641   2.738
 1469SOL    HW2 5307   6.573   6.652   2.617
 1470SOL     OW 5308   0.214   2.114   1.869
 1470SOL    HW1 5309   0.203   2.212   1.880
 1470SOL    HW2 5310   0.138   2.077   1.816
 1471SOL     OW 5311   1.111   0.567   0.215
 1471SOL    HW1 5312   1.141   0.626   0.140
 1471SOL    HW2 5313   1.166   0.484   0.217
 1472SOL     OW 5314   2.930   5.546   0.496
 1472SOL    HW1 5315   3.030   5.544   0.503
 1472SOL    HW2 5316   2.903   5.603   0.419
 1473SOL     OW 5317   2.756   5.897   5.161
 1473SOL    HW1 5318   2.750   5.924   5.257
 1473SOL    HW2 5319   2.694   5.953   5.106
 1474SOL     OW 5320   4.276   4.504   1.140
 1474SOL    HW1 5321   4.180   4.522   1.163
 1474SOL    HW2 5322   4.328   4.486   1.223
 1475SOL     OW 5323   5.182   1.156   6.874
 1475SOL    HW1 5324   5.181   1.195   6.782
 1475SOL    HW2 5325   5.178   1.056   6.868
 1476SOL     OW 5326   2.379   1.154   1.567
 1476SOL    HW1 5327   2.284   1.123   1.569
 1476SOL    HW2 5328   2.406   1.189   1.657
 1477SOL     OW 5329   3.369   6.695   0.025
 1477SOL    HW1 5330   3.331   6.644   0.102
 1477SOL    HW2 5331   3.447   6.645   7.009
 1478SOL     OW 5332   5.786   6.283   5.386
 1478SOL    HW1 5333   5.802   6.196   5.339
 1478SOL    HW2 5334   5.869   6.338   5.384
 1479SOL     OW 5335   3.205   3.298   1.654
 1479SOL    HW1 5336   3.168   3.391   1.651
 1479SOL    HW2 5337   3.247   3.277   1.565
 1480SOL     OW 5338   2.255   0.000   5.791
 1480SOL    HW1 5339   2.204   7.018   5.877
 1480SOL    HW2 5340   2.314   6.941   5.784
 1481SOL     OW 5341   5.843   3.539   5.556
 1481SOL    HW1 5342   5.777   3.474   5.593
 1481SOL    HW2 5343   5.851   3.527   5.457
 1482SOL     OW 5344   4.729   0.777   0.905
 1482SOL    HW1 5345   4.739   0.684   0.939
 1482SOL    HW2 5346   4.750   0.779   0.807
 1483SOL     OW 5347   5.950   2.329   5.403
 1483SOL    HW1 5348   5.969   2.419   5.364
 1483SOL    HW2 5349   5.868   2.291   5.360
 1484SOL     OW 5350   4.727   5.056   3.871
 1484SOL    HW1 5351   4.664   5.118   3.827
 1484SOL    HW2 5352   4.679   5.004   3.942
 1485SOL     OW 5353   5.241   0.620   4.197
 1485SOL    HW1 5354   5.149   0.651   4.175
 1485SOL    HW2 5355   5.237   0.557   4.275
 1486SOL     OW 5356   5.036   0.364   3.045
 1486SOL    HW1 5357   5.109   0.305   3.080
 1486SOL    HW2 5358   4.997   0.417   3.120
 1487SOL     OW 5359   0.173   1.694   6.858
 1487SOL    HW1 5360   0.083   1.697   6.902
 1487SOL    HW2 5361   0.223   1.613   6.892
 1488SOL     OW 5362   5.104   0.591   3.474
 1488SOL    HW1 5363   5.159   0.623   3.396
 1488SOL    HW2 5364   5.007   0.601   3.452
 1489SOL     OW 5365   4.318   4.397   5.755
 1489SOL    HW1 5366   4.342   4.360   5.845
 1489SOL    HW2 5367   4.293   4.493   5.764
 1490SOL     OW 5368   0.471   3.615   0.712
 1490SOL    HW1 5369   0.504   3.536   0.764
 1490SOL    HW2 5370   0.381   3.595   0.675
 1491SOL     OW 5371   6.503   3.807   2.662
 1491SOL    HW1 5372   6.522   3.892   2.613
 1491SOL    HW2 5373   6.478   3.736   2.596
 1492SOL     OW 5374   6.480   6.913   2.500
 1492SOL    HW1 5375   6.504   7.000   2.456
 1492SOL    HW2 5376   6.384   6.915   2.528
 1493SOL     OW 5377   3.690   0.880   6.181
 1493SOL    HW1 5378   3.654   0.910   6.270
 1493SOL    HW2 5379   3.769   0.821   6.197
 1494SOL     OW 5380   5.880   3.015   6.827
 1494SOL    HW1 5381   5.859   2.932   6.879
 1494SOL    HW2 5382   5.856   3.096   6.880
 1495SOL     OW 5383   6.883   4.248   4.731
 1495SOL    HW1 5384   6.939   4.295   4.663
 1495SOL    HW2 5385   6.908   4.280   4.822
 1496SOL     OW 5386   0.911   0.657   0.061
 1496SOL    HW1 5387   0.950   0.623   6.998
 1496SOL    HW2 5388   0.977   0.646   0.135
 1497SOL     OW 5389   5.030   2.565   2.278
 1497SOL    HW1 5390   4.940   2.527   2.257
 1497SOL    HW2 5391   5.020   2.662   2.302
 1498SOL     OW 5392   3.098   3.936   1.033
 1498SOL    HW1 5393   3.061   3.854   1.076
 1498SOL    HW2 5394   3.043   3.959   0.952
 1499SOL     OW 5395   0.414   3.337   6.507
 1499SOL    HW1 5396   0.459   3.380   6.429
 1499SOL    HW2 5397   0.349   3.268   6.475
 1500SOL     OW 5398   0.979   6.402   6.340
 1500SOL    HW1 5399   0.906   6.336   6.359
 1500SOL    HW2 5400   0.974   6.430   6.244
 1501SOL     OW 5401   6.088   1.868   6.440
 1501SOL    HW1 5402   6.169   1.890   6.493
 1501SOL    HW2 5403   6.087   1.923   6.356
 1502SOL     OW 5404   5.444   1.172   6.590
 1502SOL    HW1 5405   5.421   1.080   6.556
 1502SOL    HW2 5406   5.488   1.164   6.679
 1503SOL     OW 5407   0.578   3.256   2.670
 1503SOL    HW1 5408   0.625   3.333   2.715
 1503SOL    HW2 5409   0.479   3.267   2.680
 1504SOL     OW 5410   0.715   0.374   3.401
 1504SOL    HW1 5411   0.698   0.309   3.475
 1504SOL    HW2 5412   0.813   0.376   3.380
 1505SOL     OW 5413   5.203   0.168   5.634
 1505SOL    HW1 5414   5.212   0.120   5.721
 1505SOL    HW2 5415   5.289   0.216   5.614
 1506SOL     OW 5416   1.386   0.359   6.898
 1506SOL    HW1 5417   1.374   0.260   6.887
 1506SOL    HW2 5418   1.461   0.390   6.840
 1507SOL     OW 5419   6.710   1.844   4.973
 1507SOL    HW1 5420   6.798   1.888   4.991
 1507SOL    HW2 5421   6.664   1.892   4.898
 1508SOL     OW 5422   6.950   1.877   1.327
 1508SOL    HW1 5423   6.851   1.888   1.319
 1508SOL    HW2 5424   6.970   1.790   1.374
 1509SOL     OW 5425   4.781   2.062   4.730
 1509SOL    HW1 5426   4.860   2.045   4.672
 1509SOL    HW2 5427   4.806   2.125   4.804
 1510SOL     OW 5428   5.437   6.505   4.652
 1510SOL    HW1 5429   5.473   6.594   4.625
 1510SOL    HW2 5430   5.361   6.480   4.592
 1511SOL     OW 5431   3.623   3.526   4.392
 1511SOL    HW1 5432   3.636   3.605   4.452
 1511SOL    HW2 5433   3.526   3.502   4.388
 1512SOL     OW 5434   6.387   5.509   1.842
 1512SOL    HW1 5435   6.428   5.420   1.825
 1512SOL    HW2 5436   6.317   5.501   1.913
 1513SOL     OW 5437   3.300   0.099   4.786
 1513SOL    HW1 5438   3.298   0.057   4.696
 1513SOL    HW2 5439   3.218   0.155   4.799
 1514SOL     OW 5440   3.901   2.487   5.659
 1514SOL    HW1 5441   3.993   2.477   5.621
 1514SOL    HW2 5442   3.844   2.539   5.595
 1515SOL     OW 5443   6.514   1.228   2.350
 1515SOL    HW1 5444   6.491   1.148   2.295
 1515SOL    HW2 5445   6.493   1.311   2.299
 1516SOL     OW 5446   5.565   5.197   5.326
 1516SOL    HW1 5447   5.543   5.157   5.237
 1516SOL    HW2 5448   5.519   5.285   5.335
 1517SOL     OW 5449   4.224   6.291   3.015
 1517SOL    HW1 5450   4.165   6.235   3.074
 1517SOL    HW2 5451   4.316   6.296   3.054
 1518SOL     OW 5452   6.277   3.612   0.639
 1518SOL    HW1 5453   6.212   3.544   0.673
 1518SOL    HW2 5454   6.277   3.691   0.701
 1519SOL     OW 5455   6.755   4.559   1.211
 1519SOL    HW1 5456   6.781   4.464   1.227
 1519SOL    HW2 5457   6.759   4.578   1.113
 1520SOL     OW 5458   0.712   4.261   1.604
 1520SOL    HW1 5459   0.714   4.162   1.615
 1520SOL    HW2 5460   0.740   4.304   1.690
 1521SOL     OW 5461   1.789   4.633   6.843
 1521SOL    HW1 5462   1.700   4.588   6.842
 1521SOL    HW2 5463   1.782   4.720   6.892
 1522SOL     OW 5464   5.987   5.451   4.647
 1522SOL    HW1 5465   6.003   5.473   4.551
 1522SOL    HW2 5466   5.964   5.535   4.697
 1523SOL     OW 5467   3.718   6.669   6.674
 1523SOL    HW1 5468   3.803   6.619   6.687
 1523SOL    HW2 5469   3.724   6.758   6.720
 1524SOL     OW 5470   2.968   2.126   2.676
 1524SOL    HW1 5471   2.951   2.031   2.701
 1524SOL    HW2 5472   2.949   2.139   2.578
 1525SOL     OW 5473   5.478   3.053   1.008
 1525SOL    HW1 5474   5.423   3.099   1.078
 1525SOL    HW2 5475   5.418   3.012   0.939
 1526SOL     OW 5476   6.966   0.617   6.669
 1526SOL    HW1 5477   6.876   0.602   6.628
 1526SOL    HW2 5478   0.015   0.584   6.606
 1527SOL     OW 5479   3.489   0.725   4.596
 1527SOL    HW1 5480   3.571   0.731   4.539
 1527SOL    HW2 5481   3.408   0.720   4.538
 1528SOL     OW 5482   4.193   4.975   1.798
 1528SOL    HW1 5483   4.213   4.888   1.755
 1528SOL    HW2 5484   4.181   5.046   1.728
 1529SOL     OW 5485   4.656   1.131   6.734
 1529SOL    HW1 5486   4.570   1.126   6.785
 1529SOL    HW2 5487   4.725   1.179   6.789
 1530SOL     OW 5488   2.962   1.230   1.090
 1530SOL    HW1 5489   2.862   1.240   1.087
 1530SOL    HW2 5490   2.993   1.245   1.184
 1531SOL     OW 5491   4.638   0.940   4.936
 1531SOL    HW1 5492   4.654   0.989   4.851
 1531SOL    HW2 5493   4.674   0.994   5.013
 1532SOL     OW 5494   3.692   4.226   5.673
 1532SOL    HW1 5495   3.615   4.259   5.618
 1532SOL    HW2 5496   3.674   4.132   5.702
 1533SOL     OW 5497   5.655   5.398   0.576
 1533SOL    HW1 5498   5.696   5.355   0.657
 1533SOL    HW2 5499   5.705   5.370   0.495
 1534SOL     OW 5500   3.240   5.533   6.058
 1534SOL    HW1 5501   3.163   5.470   6.062
 1534SOL    HW2 5502   3.293   5.516   5.974
 1535SOL     OW 5503   5.556   5.944   4.784
 1535SOL    HW1 5504   5.515   5.854   4.793
 1535SOL    HW2 5505   5.493   6.005   4.736
 1536SOL     OW 5506   3.903   4.931   6.294
 1536SOL    HW1 5507   3.920   5.005   6.229
 1536SOL    HW2 5508   3.980   4.867   6.293
 1537SOL     OW 5509   4.381   5.839   3.686
 1537SOL    HW1 5510   4.348   5.770   3.750
 1537SOL    HW2 5511   4.417   5.917   3.737
 1538SOL     OW 5512   3.349   0.299   6.600
 1538SOL    HW1 5513   3.373   0.310   6.696
 1538SOL    HW2 5514   3.392   0.216   6.564
 1539SOL     OW 5515   4.999   2.901   2.326
 1539SOL    HW1 5516   4.928   2.917   2.394
 1539SOL    HW2 5517   4.959   2.904   2.234
 1540SOL     OW 5518   0.231   6.590   5.160
 1540SOL    HW1 5519   0.304   6.582   5.227
 1540SOL    HW2 5520   0.270   6.589   5.068
 1541SOL     OW 5521   3.184   3.909   4.141
 1541SOL    HW1 5522   3.278   3.898   4.172
 1541SOL    HW2 5523   3.130   3.951   4.214
 1542SOL     OW 5524   6.794   0.035   1.922
 1542SOL    HW1 5525   6.733   6.982   1.896
 1542SOL    HW2 5526   6.782   0.112   1.860
 1543SOL     OW 5527   3.819   5.476   5.375
 1543SOL    HW1 5528   3.784   5.433   5.458
 1543SOL    HW2 5529   3.892   5.540   5.398
 1544SOL     OW 5530   3.107   3.947   3.554
 1544SOL    HW1 5531   3.146   4.007   3.624
 1544SOL    HW2 5532   3.045   4.000   3.495
 1545SOL     OW 5533   4.841   0.791   2.987
 1545SOL    HW1 5534   4.796   0.839   3.062
 1545SOL    HW2 5535   4.791   0.706   2.967
 1546SOL     OW 5536   5.709   6.228   6.063
 1546SOL    HW1 5537   5.708   6.167   6.142
 1546SOL    HW2 5538   5.761   6.311   6.084
 1547SOL     OW 5539   1.214   3.583   1.361
 1547SOL    HW1 5540   1.198   3.591   1.263
 1547SOL    HW2 5541   1.306   3.617   1.382
 1548SOL     OW 5542   5.021   3.824   0.072
 1548SOL    HW1 5543   5.068   3.828   7.006
 1548SOL    HW2 5544   5.071   3.764   0.134
 1549SOL     OW 5545   4.011   1.330   2.486
 1549SOL    HW1 5546   3.975   1.351   2.577
 1549SOL    HW2 5547   3.942   1.279   2.434
 1550SOL     OW 5548   3.690   3.341   1.349
 1550SOL    HW1 5549   3.657   3.304   1.436
 1550SOL    HW2 5550   3.685   3.441   1.352
 1551SOL     OW 5551   1.744   5.024   6.860
 1551SOL    HW1 5552   1.739   4.945   6.921
 1551SOL    HW2 5553   1.651   5.059   6.845
 1552SOL     OW 5554   1.702   5.577   0.714
 1552SOL    HW1 5555   1.663   5.613   0.630
 1552SOL    HW2 5556   1.780   5.518   0.691
 1553SOL     OW 5557   6.905   1.658   6.334
 1553SOL    HW1 5558   6.840   1.697   6.399
 1553SOL    HW2 5559   6.969   1.730   6.305
 1554SOL     OW 5560   3.322   2.089   3.578
 1554SOL    HW1 5561   3.416   2.122   3.566
 1554SOL    HW2 5562   3.262   2.136   3.513
 1555SOL     OW 5563   5.909   3.307   6.664
 1555SOL    HW1 5564   5.936   3.257   6.747
 1555SOL    HW2 5565   5.888   3.242   6.591
 1556SOL     OW 5566   1.490   1.690   6.217
 1556SOL    HW1 5567   1.395   1.670   6.196
 1556SOL    HW2 5568   1.529   1.751   6.148
 1557SOL     OW 5569   2.200   3.707   5.888
 1557SOL    HW1 5570   2.118   3.649   5.880
 1557SOL    HW2 5571   2.281   3.649   5.884
 1558SOL     OW 5572   6.016   0.812   4.477
 1558SOL    HW1 5573   5.979   0.748   4.410
 1558SOL    HW2 5574   6.080   0.764   4.536
 1559SOL     OW 5575   1.756   3.161   6.550
 1559SOL    HW1 5576   1.764   3.170   6.649
 1559SOL    HW2 5577   1.847   3.150   6.509
 1560SOL     OW 5578   6.710   0.121   5.833
 1560SOL    HW1 5579   6.661   0.198   5.873
 1560SOL    HW2 5580   6.799   0.152   5.798
 1561SOL     OW 5581   5.052   6.492   3.638
 1561SOL    HW1 5582   4.999   6.488   3.722
 1561SOL    HW2 5583   5.046   6.583   3.598
 1562SOL     OW 5584   5.083   6.362   2.595
 1562SOL    HW1 5585   5.109   6.318   2.509
 1562SOL    HW2 5586   5.090   6.297   2.670
 1563SOL     OW 5587   3.047   0.754   5.610
 1563SOL    HW1 5588   2.974   0.783   5.548
 1563SOL    HW2 5589   3.101   0.834   5.636
 1564SOL     OW 5590   1.297   0.651   3.239
 1564SOL    HW1 5591   1.259   0.625   3.328
 1564SOL    HW2 5592   1.224   0.686   3.180
 1565SOL     OW 5593   4.784   4.324   3.151
 1565SOL    HW1 5594   4.706   4.352   3.207
 1565SOL    HW2 5595   4.756   4.320   3.055
 1566SOL     OW 5596   5.759   3.999   3.658
 1566SOL    HW1 5597   5.691   3.989   3.730
 1566SOL    HW2 5598   5.741   3.932   3.586
 1567SOL     OW 5599   6.349   6.144   0.513
 1567SOL    HW1 5600   6.400   6.228   0.491
 1567SOL    HW2 5601   6.262   6.168   0.555
 1568SOL     OW 5602   1.162   0.018   0.111
 1568SOL    HW1 5603   1.081   6.984   0.126
 1568SOL    HW2 5604   1.169   0.087   0.184
 1569SOL     OW 5605   4.460   6.272   3.138
 1569SOL    HW1 5606   4.539   6.226   3.099
 1569SOL    HW2 5607   4.491   6.346   3.198
 1570SOL     OW 5608   1.889   0.423   0.954
 1570SOL    HW1 5609   1.858   0.334   0.986
 1570SOL    HW2 5610   1.857   0.438   0.861
 1571SOL     OW 5611   5.730   3.185   1.006
 1571SOL    HW1 5612   5.643   3.136   1.003
 1571SOL    HW2 5613   5.804   3.123   0.983
 1572SOL     OW 5614   0.458   0.160   2.181
 1572SOL    HW1 5615   0.501   0.070   2.170
 1572SOL    HW2 5616   0.525   0.232   2.165
 1573SOL     OW 5617   4.830   1.393   1.906
 1573SOL    HW1 5618   4.751   1.428   1.855
 1573SOL    HW2 5619   4.912   1.441   1.878
 1574SOL     OW 5620   6.953   1.382   1.716
 1574SOL    HW1 5621   6.951   1.435   1.801
 1574SOL    HW2 5622   0.004   1.417   1.657
 1575SOL     OW 5623   2.546   1.328   0.641
 1575SOL    HW1 5624   2.580   1.364   0.555
 1575SOL    HW2 5625   2.453   1.361   0.658
 1576SOL     OW 5626   6.292   6.382   4.357
 1576SOL    HW1 5627   6.251   6.341   4.275
 1576SOL    HW2 5628   6.224   6.438   4.404
 1577SOL     OW 5629   3.128   1.639   4.273
 1577SOL    HW1 5630   3.109   1.729   4.312
 1577SOL    HW2 5631   3.043   1.598   4.242
 1578SOL     OW 5632   6.526   3.437   5.642
 1578SOL    HW1 5633   6.447   3.488   5.676
 1578SOL    HW2 5634   6.499   3.343   5.620
 1579SOL     OW 5635   0.253   1.758   3.144
 1579SOL    HW1 5636   0.302   1.702   3.078
 1579SOL    HW2 5637   0.317   1.795   3.211
 1580SOL     OW 5638   2.902   3.927   5.246
 1580SOL    HW1 5639   2.955   4.009   5.223
 1580SOL    HW2 5640   2.805   3.951   5.254
 1581SOL     OW 5641   0.288   4.706   4.317
 1581SOL    HW1 5642   0.376   4.727   4.275
 1581SOL    HW2 5643   0.286   4.745   4.410
 1582SOL     OW 5644   1.446   6.303   4.701
 1582SOL    HW1 5645   1.455   6.352   4.615
 1582SOL    HW2 5646   1.351   6.306   4.732
 1583SOL     OW 5647   1.254   2.487   3.990
 1583SOL    HW1 5648   1.302   2.400   3.983
 1583SOL    HW2 5649   1.212   2.494   4.080
 1584SOL     OW 5650   2.142   6.734   4.885
 1584SOL    HW1 5651   2.114   6.738   4.981
 1584SOL    HW2 5652   2.236   6.767   4.876
 1585SOL     OW 5653   5.821   1.569   3.470
 1585SOL    HW1 5654   5.748   1.616   3.420
 1585SOL    HW2 5655   5.804   1.470   3.468
 1586SOL     OW 5656   3.723   3.999   1.805
 1586SOL    HW1 5657   3.707   4.096   1.823
 1586SOL    HW2 5658   3.793   3.989   1.734
 1587SOL     OW 5659   2.847   5.181   6.159
 1587SOL    HW1 5660   2.795   5.208   6.241
 1587SOL    HW2 5661   2.859   5.082   6.159
 1588SOL     OW 5662   4.757   1.553   3.500
 1588SOL    HW1 5663   4.834   1.616   3.493
 1588SOL    HW2 5664   4.787   1.470   3.548
 1589SOL     OW 5665   5.334   4.203   3.545
 1589SOL    HW1 5666   5.247   4.189   3.593
 1589SOL    HW2 5667   5.398   4.249   3.606
 1590SOL     OW 5668   1.793   6.964   6.441
 1590SOL    HW1 5669   1.891   6.956   6.459
 1590SOL    HW2 5670   1.766   6.896   6.373
 1591SOL     OW 5671   1.509   5.218   3.247
 1591SOL    HW1 5672   1.587   5.279   3.259
 1591SOL    HW2 5673   1.509   5.148   3.319
 1592SOL     OW 5674   2.450   4.083   1.633
 1592SOL    HW1 5675   2.526   4.147   1.638
 1592SOL    HW2 5676   2.381   4.119   1.571
 1593SOL     OW 5677   1.007   6.740   3.756
 1593SOL    HW1 5678   1.011   6.673   3.829
 1593SOL    HW2 5679   0.936   6.808   3.777
 1594SOL     OW 5680   0.400   4.751   3.160
 1594SOL    HW1 5681   0.494   4.783   3.150
 1594SOL    HW2 5682   0.365   4.776   3.250
 1595SOL     OW 5683   0.390   4.784   6.541
 1595SOL    HW1 5684   0.322   4.738   6.597
 1595SOL    HW2 5685   0.454   4.717   6.504
 1596SOL     OW 5686   1.276   3.678   5.478
 1596SOL    HW1 5687   1.184   3.669   5.438
 1596SOL    HW2 5688   1.341   3.702   5.407
 1597SOL     OW 5689   2.720   5.444   0.647
 1597SOL    HW1 5690   2.798   5.454   0.584
 1597SOL    HW2 5691   2.730   5.510   0.721
 1598SOL     OW 5692   0.401   4.006   0.450
 1598SOL    HW1 5693   0.398   4.078   0.381
 1598SOL    HW2 5694   0.341   4.030   0.526
 1599SOL     OW 5695   4.715   3.311   5.748
 1599SOL    HW1 5696   4.706   3.402   5.709
 1599SOL    HW2 5697   4.652   3.302   5.826
 1600SOL     OW 5698   5.035   2.045   4.606
 1600SOL    HW1 5699   5.106   1.983   4.573
 1600SOL    HW2 5700   5.051   2.136   4.569
 1601SOL     OW 5701   0.829   4.941   4.708
 1601SOL    HW1 5702   0.795   4.889   4.629
 1601SOL    HW2 5703   0.851   5.034   4.679
 1602SOL     OW 5704   1.688   5.565   4.212
 1602SOL    HW1 5705   1.756   5.504   4.253
 1602SOL    HW2 5706   1.697   5.563   4.112
 1603SOL     OW 5707   1.362   6.296   1.822
 1603SOL    HW1 5708   1.366   6.198   1.837
 1603SOL    HW2 5709   1.314   6.315   1.737
 1604SOL     OW 5710   6.033   4.921   6.756
 1604SOL    HW1 5711   6.085   4.893   6.837
 1604SOL    HW2 5712   5.969   4.994   6.781
 1605SOL     OW 5713   6.383   0.226   1.943
 1605SOL    HW1 5714   6.362   0.133   1.914
 1605SOL    HW2 5715   6.307   0.261   1.998
 1606SOL     OW 5716   4.412   0.976   5.421
 1606SOL    HW1 5717   4.421   0.965   5.322
 1606SOL    HW2 5718   4.315   0.986   5.445
 1607SOL     OW 5719   5.311   2.690   1.281
 1607SOL    HW1 5720   5.392   2.717   1.334
 1607SOL    HW2 5721   5.230   2.737   1.316
 1608SOL     OW 5722   1.345   0.898   5.788
 1608SOL    HW1 5723   1.304   0.808   5.805
 1608SOL    HW2 5724   1.444   0.891   5.795
 1609SOL     OW 5725   5.518   1.552   6.508
 1609SOL    HW1 5726   5.613   1.564   6.535
 1609SOL    HW2 5727   5.474   1.484   6.566
 1610SOL     OW 5728   5.682   4.623   5.310
 1610SOL    HW1 5729   5.694   4.609   5.409
 1610SOL    HW2 5730   5.673   4.534   5.265
 1611SOL     OW 5731   4.099   3.427   1.947
 1611SOL    HW1 5732   4.110   3.418   2.046
 1611SOL    HW2 5733   4.116   3.522   1.920
 1612SOL     OW 5734   2.788   1.023   5.757
 1612SOL    HW1 5735   2.711   1.074   5.794
 1612SOL    HW2 5736   2.763   0.983   5.668
 1613SOL     OW 5737   2.481   5.529   1.019
 1613SOL    HW1 5738   2.575   5.561   1.003
 1613SOL    HW2 5739   2.417   5.596   0.983
 1614SOL     OW 5740   6.827   3.906   0.315
 1614SOL    HW1 5741   6.837   3.992   0.364
 1614SOL    HW2 5742   6.917   3.863   0.305
 1615SOL     OW 5743   6.743   4.993   1.380
 1615SOL    HW1 5744   6.808   4.918   1.395
 1615SOL    HW2 5745   6.681   4.998   1.458
 1616SOL     OW 5746   4.207   1.533   5.760
 1616SOL    HW1 5747   4.131   1.478   5.795
 1616SOL    HW2 5748   4.258   1.480   5.692
 1617SOL     OW 5749   5.839   0.187   2.082
 1617SOL    HW1 5750   5.741   0.205   2.093
 1617SOL    HW2 5751   5.852   0.102   2.032
 1618SOL     OW 5752   0.540   3.967   1.112
 1618SOL    HW1 5753   0.488   4.041   1.071
 1618SOL    HW2 5754   0.607   3.933   1.046
 1619SOL     OW 5755   1.664   2.585   4.149
 1619SOL    HW1 5756   1.752   2.631   4.145
 1619SOL    HW2 5757   1.635   2.559   4.057
 1620SOL     OW 5758   2.246   5.605   0.857
 1620SOL    HW1 5759   2.203   5.517   0.874
 1620SOL    HW2 5760   2.314   5.595   0.785
 1621SOL     OW 5761   0.562   0.872   6.615
 1621SOL    HW1 5762   0.648   0.923   6.616
 1621SOL    HW2 5763   0.566   0.797   6.681
 1622SOL     OW 5764   1.506   1.903   4.954
 1622SOL    HW1 5765   1.451   1.826   4.921
 1622SOL    HW2 5766   1.601   1.872   4.969
 1623SOL     OW 5767   2.602   2.806   6.282
 1623SOL    HW1 5768   2.605   2.896   6.327
 1623SOL    HW2 5769   2.689   2.759   6.296
 1624SOL     OW 5770   2.422   0.848   6.287
 1624SOL    HW1 5771   2.366   0.926   6.259
 1624SOL    HW2 5772   2.518   0.874   6.285
 1625SOL     OW 5773   1.422   5.115   2.709
 1625SOL    HW1 5774   1.418   5.194   2.647
 1625SOL    HW2 5775   1.462   5.143   2.796
 1626SOL     OW 5776   2.259   1.690   6.249
 1626SOL    HW1 5777   2.321   1.765   6.270
 1626SOL    HW2 5778   2.165   1.718   6.268
 1627SOL     OW 5779   6.563   1.837   4.444
 1627SOL    HW1 5780   6.553   1.936   4.433
 1627SOL    HW2 5781   6.636   1.817   4.509
 1628SOL     OW 5782   4.054   5.379   0.121
 1628SOL    HW1 5783   4.050   5.430   0.206
 1628SOL    HW2 5784   4.145   5.391   0.079
 1629SOL     OW 5785   2.802   2.298   4.077
 1629SOL    HW1 5786   2.806   2.313   4.176
 1629SOL    HW2 5787   2.882   2.245   4.048
 1630SOL     OW 5788   0.564   5.974   5.549
 1630SOL    HW1 5789   0.496   6.039   5.584
 1630SOL    HW2 5790   0.580   5.903   5.616
 1631SOL     OW 5791   6.926   0.633   5.623
 1631SOL    HW1 5792   6.856   0.704   5.626
 1631SOL    HW2 5793   6.904   0.561   5.689
 1632SOL     OW 5794   0.135   1.345   6.587
 1632SOL    HW1 5795   0.065   1.414   6.572
 1632SOL    HW2 5796   0.188   1.368   6.669
 1633SOL     OW 5797   5.715   2.970   2.881
 1633SOL    HW1 5798   5.659   2.892   2.854
 1633SOL    HW2 5799   5.671   3.054   2.850
 1634SOL     OW 5800   4.117   6.008   5.651
 1634SOL    HW1 5801   4.083   6.093   5.690
 1634SOL    HW2 5802   4.209   5.989   5.685
 1635SOL     OW 5803   6.210   5.211   4.756
 1635SOL    HW1 5804   6.145   5.135   4.764
 1635SOL    HW2 5805   6.160   5.296   4.741
 1636SOL     OW 5806   2.455   4.389   1.552
 1636SOL    HW1 5807   2.360   4.418   1.544
 1636SOL    HW2 5808   2.496   4.433   1.632
 1637SOL     OW 5809   6.612   1.987   2.745
 1637SOL    HW1 5810   6.704   1.958   2.720
 1637SOL    HW2 5811   6.583   2.062   2.687
 1638SOL     OW 5812   0.485   3.731   4.202
 1638SOL    HW1 5813   0.516   3.737   4.297
 1638SOL    HW2 5814   0.390   3.761   4.196
 1639SOL     OW 5815   5.382   6.027   2.546
 1639SOL    HW1 5816   5.294   5.983   2.532
 1639SOL    HW2 5817   5.440   5.969   2.604
 1640SOL     OW 5818   5.989   2.108   0.322
 1640SOL    HW1 5819   5.916   2.090   0.256
 1640SOL    HW2 5820   6.037   2.192   0.297
 1641SOL     OW 5821   5.804   3.155   3.999
 1641SOL    HW1 5822   5.870   3.117   3.934
 1641SOL    HW2 5823   5.718   3.175   3.951
 1642SOL     OW 5824   6.620   3.403   6.929
 1642SOL    HW1 5825   6.569   3.482   6.963
 1642SOL    HW2 5826   6.570   3.319   6.950
 1643SOL     OW 5827   3.367   6.198   4.657
 1643SOL    HW1 5828   3.440   6.154   4.605
 1643SOL    HW2 5829   3.335   6.136   4.729
 1644SOL     OW 5830   2.177   2.926   0.954
 1644SOL    HW1 5831   2.157   3.016   0.993
 1644SOL    HW2 5832   2.209   2.937   0.859
 1645SOL     OW 5833   3.378   6.477   5.513
 1645SOL    HW1 5834   3.406   6.546   5.580
 1645SOL    HW2 5835   3.320   6.518   5.443
 1646SOL     OW 5836   3.037   4.804   1.152
 1646SOL    HW1 5837   2.957   4.847   1.111
 1646SOL    HW2 5838   3.036   4.706   1.131
 1647SOL     OW 5839   5.626   2.344   3.731
 1647SOL    HW1 5840   5.633   2.426   3.675
 1647SOL    HW2 5841   5.699   2.280   3.705
 1648SOL     OW 5842   5.307   6.344   1.801
 1648SOL    HW1 5843   5.242   6.412   1.837
 1648SOL    HW2 5844   5.336   6.372   1.709
 1649SOL     OW 5845   3.119   0.471   2.842
 1649SOL    HW1 5846   3.193   0.535   2.861
 1649SOL    HW2 5847   3.031   0.514   2.860
 1650SOL     OW 5848   3.088   6.666   4.474
 1650SOL    HW1 5849   3.168   6.616   4.506
 1650SOL    HW2 5850   3.079   6.656   4.375
 1651SOL     OW 5851   0.361   0.644   1.188
 1651SOL    HW1 5852   0.351   0.581   1.111
 1651SOL    HW2 5853   0.375   0.737   1.154
 1652SOL     OW 5854   1.946   1.609   0.725
 1652SOL    HW1 5855   1.852   1.626   0.754
 1652SOL    HW2 5856   1.998   1.695   0.731
 1653SOL     OW 5857   0.412   5.419   1.835
 1653SOL    HW1 5858   0.334   5.376   1.881
 1653SOL    HW2 5859   0.439   5.363   1.756
 1654SOL     OW 5860   6.888   3.014   2.420
 1654SOL    HW1 5861   6.945   2.962   2.356
 1654SOL    HW2 5862   6.879   3.108   2.388
 1655SOL     OW 5863   5.572   3.726   6.040
 1655SOL    HW1 5864   5.601   3.769   5.954
 1655SOL    HW2 5865   5.577   3.792   6.114
 1656SOL     OW 5866   1.681   4.239   3.256
 1656SOL    HW1 5867   1.653   4.295   3.177
 1656SOL    HW2 5868   1.747   4.291   3.311
 1657SOL     OW 5869   0.641   1.140   5.277
 1657SOL    HW1 5870   0.670   1.187   5.193
 1657SOL    HW2 5871   0.584   1.202   5.331
 1658SOL     OW 5872   6.778   0.164   2.834
 1658SOL    HW1 5873   6.849   0.095   2.847
 1658SOL    HW2 5874   6.702   0.124   2.783
 1659SOL     OW 5875   3.260   2.095   5.959
 1659SOL    HW1 5876   3.279   2.158   6.033
 1659SOL    HW2 5877   3.306   2.126   5.875
 1660SOL     OW 5878   1.302   5.508   3.772
 1660SOL    HW1 5879   1.389   5.470   3.744
 1660SOL    HW2 5880   1.304   5.529   3.870
 1661SOL     OW 5881   3.362   1.843   1.866
 1661SOL    HW1 5882   3.326   1.811   1.779
 1661SOL    HW2 5883   3.389   1.939   1.857
 1662SOL     OW 5884   6.214   1.153   3.396
 1662SOL    HW1 5885   6.299   1.204   3.382
 1662SOL    HW2 5886   6.202   1.133   3.493
 1663SOL     OW 5887   2.628   0.369   3.096
 1663SOL    HW1 5888   2.556   0.306   3.127
 1663SOL    HW2 5889   2.708   0.317   3.068
 1664SOL     OW 5890   2.050   0.094   4.248
 1664SOL    HW1 5891   1.966   0.042   4.232
 1664SOL    HW2 5892   2.033   0.191   4.229
 1665SOL     OW 5893   0.222   1.455   3.142
 1665SOL    HW1 5894   0.140   1.467   3.086
 1665SOL    HW2 5895   0.239   1.539   3.194
 1666SOL     OW 5896   6.389   2.802   0.459
 1666SOL    HW1 5897   6.390   2.789   0.558
 1666SOL    HW2 5898   6.427   2.721   0.414
 1667SOL     OW 5899   5.244   0.399   0.095
 1667SOL    HW1 5900   5.295   0.336   0.154
 1667SOL    HW2 5901   5.293   0.486   0.090
 1668SOL     OW 5902   4.906   6.706   4.852
 1668SOL    HW1 5903   4.853   6.672   4.774
 1668SOL    HW2 5904   4.850   6.770   4.905
 1669SOL     OW 5905   5.835   6.569   0.415
 1669SOL    HW1 5906   5.929   6.538   0.426
 1669SOL    HW2 5907   5.831   6.669   0.426
 1670SOL     OW 5908   6.515   5.407   5.780
 1670SOL    HW1 5909   6.418   5.406   5.756
 1670SOL    HW2 5910   6.567   5.449   5.706
 1671SOL     OW 5911   4.386   2.697   1.114
 1671SOL    HW1 5912   4.407   2.602   1.090
 1671SOL    HW2 5913   4.287   2.708   1.124
 1672SOL     OW 5914   2.191   3.941   2.788
 1672SOL    HW1 5915   2.233   3.949   2.698
 1672SOL    HW2 5916   2.105   3.889   2.782
 1673SOL     OW 5917   0.479   2.701   4.616
 1673SOL    HW1 5918   0.492   2.608   4.583
 1673SOL    HW2 5919   0.542   2.762   4.569
 1674SOL     OW 5920   1.626   4.004   1.371
 1674SOL    HW1 5921   1.548   3.984   1.430
 1674SOL    HW2 5922   1.704   4.031   1.427
 1675SOL     OW 5923   4.784   0.298   6.376
 1675SOL    HW1 5924   4.748   0.340   6.293
 1675SOL    HW2 5925   4.754   0.203   6.380
 1676SOL     OW 5926   3.077   1.504   2.722
 1676SOL    HW1 5927   3.148   1.563   2.684
 1676SOL    HW2 5928   2.987   1.546   2.706
 1677SOL     OW 5929   5.234   1.899   5.333
 1677SOL    HW1 5930   5.202   1.974   5.275
 1677SOL    HW2 5931   5.157   1.864   5.387
 1678SOL     OW 5932   5.425   4.934   4.127
 1678SOL    HW1 5933   5.395   4.916   4.033
 1678SOL    HW2 5934   5.483   4.858   4.158
 1679SOL     OW 5935   1.795   3.690   5.279
 1679SOL    HW1 5936   1.797   3.785   5.247
 1679SOL    HW2 5937   1.874   3.672   5.337
 1680SOL     OW 5938   0.744   1.681   4.117
 1680SOL    HW1 5939   0.753   1.689   4.018
 1680SOL    HW2 5940   0.718   1.770   4.155
 1681SOL     OW 5941   6.528   5.658   1.498
 1681SOL    HW1 5942   6.448   5.709   1.529
 1681SOL    HW2 5943   6.524   5.648   1.398
 1682SOL     OW 5944   0.310   3.001   4.737
 1682SOL    HW1 5945   0.293   2.907   4.706
 1682SOL    HW2 5946   0.374   3.000   4.814
 1683SOL     OW 5947   3.865   4.974   0.606
 1683SOL    HW1 5948   3.919   4.938   0.529
 1683SOL    HW2 5949   3.787   4.914   0.623
 1684SOL     OW 5950   1.110   6.390   3.707
 1684SOL    HW1 5951   1.032   6.379   3.645
 1684SOL    HW2 5952   1.116   6.310   3.767
 1685SOL     OW 5953   1.436   1.277   6.260
 1685SOL    HW1 5954   1.356   1.224   6.234
 1685SOL    HW2 5955   1.509   1.215   6.289
 1686SOL     OW 5956   1.466   5.557   6.017
 1686SOL    HW1 5957   1.537   5.514   5.962
 1686SOL    HW2 5958   1.384   5.570   5.961
 1687SOL     OW 5959   2.095   2.927   1.769
 1687SOL    HW1 5960   2.060   2.887   1.684
 1687SOL    HW2 5961   2.088   2.860   1.843
 1688SOL     OW 5962   1.335   1.481   3.368
 1688SOL    HW1 5963   1.376   1.524   3.449
 1688SOL    HW2 5964   1.242   1.452   3.390
 1689SOL     OW 5965   3.532   1.551   2.085
 1689SOL    HW1 5966   3.433   1.560   2.070
 1689SOL    HW2 5967   3.553   1.574   2.180
 1690SOL     OW 5968   1.356   2.592   3.196
 1690SOL    HW1 5969   1.333   2.689   3.184
 1690SOL    HW2 5970   1.293   2.550   3.260
 1691SOL     OW 5971   5.109   4.102   3.041
 1691SOL    HW1 5972   5.157   4.119   3.128
 1691SOL    HW2 5973   5.059   4.016   3.048
 1692SOL     OW 5974   6.791   0.196   1.136
 1692SOL    HW1 5975   6.786   0.253   1.054
 1692SOL    HW2 5976   6.751   0.244   1.213
 1693SOL     OW 5977   1.555   2.577   2.927
 1693SOL    HW1 5978   1.636   2.548   2.875
 1693SOL    HW2 5979   1.558   2.535   3.018
 1694SOL     OW 5980   4.210   6.244   4.191
 1694SOL    HW1 5981   4.226   6.145   4.193
 1694SOL    HW2 5982   4.212   6.276   4.097
 1695SOL     OW 5983   2.687   1.716   4.734
 1695SOL    HW1 5984   2.771   1.766   4.716
 1695SOL    HW2 5985   2.612   1.758   4.683
 1696SOL     OW 5986   5.125   5.582   0.611
 1696SOL    HW1 5987   5.084   5.590   0.701
 1696SOL    HW2 5988   5.225   5.583   0.618
 1697SOL     OW 5989   0.494   6.719   1.190
 1697SOL    HW1 5990   0.574   6.693   1.245
 1697SOL    HW2 5991   0.463   6.640   1.137
 1698SOL     OW 5992   4.476   1.896   1.441
 1698SOL    HW1 5993   4.503   1.990   1.422
 1698SOL    HW2 5994   4.380   1.883   1.415
 1699SOL     OW 5995   2.589   2.225   1.556
 1699SOL    HW1 5996   2.506   2.195   1.601
 1699SOL    HW2 5997   2.667   2.215   1.618
 1700SOL     OW 5998   6.470   2.147   3.161
 1700SOL    HW1 5999   6.392   2.095   3.197
 1700SOL    HW2 6000   6.551   2.128   3.215
 1701SOL     OW 6001   5.749   2.660   4.778
 1701SOL    HW1 6002   5.707   2.576   4.743
 1701SOL    HW2 6003   5.835   2.676   4.730
 1702SOL     OW 6004   6.183   4.298   1.034
 1702SOL    HW1 6005   6.190   4.204   1.068
 1702SOL    HW2 6006   6.270   4.345   1.048
 1703SOL     OW 6007   3.174   4.051   1.953
 1703SOL    HW1 6008   3.219   4.087   2.034
 1703SOL    HW2 6009   3.149   4.126   1.891
 1704SOL     OW 6010   0.159   0.986   0.644
 1704SOL    HW1 6011   0.082   0.976   0.581
 1704SOL    HW2 6012   0.125   0.991   0.738
 1705SOL     OW 6013   3.123   2.297   1.534
 1705SOL    HW1 6014   3.178   2.301   1.617
 1705SOL    HW2 6015   3.181   2.279   1.455
 1706SOL     OW 6016   4.225   0.376   1.599
 1706SOL    HW1 6017   4.153   0.445   1.610
 1706SOL    HW2 6018   4.217   0.334   1.509
 1707SOL     OW 6019   3.998   1.519   1.758
 1707SOL    HW1 6020   4.033   1.612   1.743
 1707SOL    HW2 6021   3.916   1.505   1.702
 1708SOL     OW 6022   6.233   6.066   3.030
 1708SOL    HW1 6023   6.235   6.072   2.930
 1708SOL    HW2 6024   6.297   5.995   3.061
 1709SOL     OW 6025   2.757   6.557   1.865
 1709SOL    HW1 6026   2.662   6.555   1.895
 1709SOL    HW2 6027   2.792   6.464   1.859
 1710SOL     OW 6028   6.855   3.758   3.491
 1710SOL    HW1 6029   6.955   3.756   3.500
 1710SOL    HW2 6030   6.814   3.749   3.582
 1711SOL     OW 6031   1.377   4.305   5.215
 1711SOL    HW1 6032   1.381   4.214   5.255
 1711SOL    HW2 6033   1.467   4.329   5.179
 1712SOL     OW 6034   0.781   3.951   6.451
 1712SOL    HW1 6035   0.714   4.018   6.484
 1712SOL    HW2 6036   0.819   3.983   6.364
 1713SOL     OW 6037   2.086   2.053   1.364
 1713SOL    HW1 6038   2.041   2.039   1.276
 1713SOL    HW2 6039   2.028   2.017   1.437
 1714SOL     OW 6040   3.972   1.661   6.323
 1714SOL    HW1 6041   3.972   1.588   6.392
 1714SOL    HW2 6042   3.879   1.695   6.311
 1715SOL     OW 6043   6.973   2.870   2.829
 1715SOL    HW1 6044   0.017   2.861   2.754
 1715SOL    HW2 6045   6.984   2.960   2.873
 1716SOL     OW 6046   5.505   6.633   1.437
 1716SOL    HW1 6047   5.496   6.725   1.476
 1716SOL    HW2 6048   5.601   6.608   1.434
 1717SOL     OW 6049   2.614   5.938   6.534
 1717SOL    HW1 6050   2.582   6.025   6.494
 1717SOL    HW2 6051   2.563   5.863   6.493
 1718SOL     OW 6052   1.900   2.381   0.379
 1718SOL    HW1 6053   1.892   2.371   0.280
 1718SOL    HW2 6054   1.815   2.421   0.415
 1719SOL     OW 6055   2.294   3.804   1.296
 1719SOL    HW1 6056   2.287   3.884   1.355
 1719SOL    HW2 6057   2.274   3.830   1.201
 1720SOL     OW 6058   6.569   2.032   0.993
 1720SOL    HW1 6059   6.495   2.037   0.926
 1720SOL    HW2 6060   6.640   2.098   0.969
 1721SOL     OW 6061   1.287   6.594   2.316
 1721SOL    HW1 6062   1.354   6.574   2.245
 1721SOL    HW2 6063   1.220   6.520   2.322
 1722SOL     OW 6064   5.179   0.774   3.022
 1722SOL    HW1 6065   5.140   0.862   2.994
 1722SOL    HW2 6066   5.159   0.757   3.118
 1723SOL     OW 6067   6.804   1.867   3.760
 1723SOL    HW1 6068   6.811   1.966   3.760
 1723SOL    HW2 6069   6.712   1.840   3.733
 1724SOL     OW 6070   6.165   1.007   0.494
 1724SOL    HW1 6071   6.084   0.976   0.444
 1724SOL    HW2 6072   6.139   1.078   0.559
 1725SOL     OW 6073   3.522   4.320   0.037
 1725SOL    HW1 6074   3.486   4.273   6.978
 1725SOL    HW2 6075   3.471   4.406   0.050
 1726SOL     OW 6076   6.406   4.175   4.303
 1726SOL    HW1 6077   6.447   4.108   4.241
 1726SOL    HW2 6078   6.334   4.225   4.255
 1727SOL     OW 6079   3.665   3.235   4.493
 1727SOL    HW1 6080   3.700   3.270   4.581
 1727SOL    HW2 6081   3.659   3.310   4.428
 1728SOL     OW 6082   4.975   4.597   4.441
 1728SOL    HW1 6083   4.900   4.634   4.387
 1728SOL    HW2 6084   5.062   4.623   4.398
 1729SOL     OW 6085   2.172   3.828   3.536
 1729SOL    HW1 6086   2.173   3.736   3.497
 1729SOL    HW2 6087   2.083   3.846   3.578
 1730SOL     OW 6088   6.504   0.689   5.436
 1730SOL    HW1 6089   6.529   0.772   5.486
 1730SOL    HW2 6090   6.568   0.676   5.360
 1731SOL     OW 6091   1.469   4.956   2.053
 1731SOL    HW1 6092   1.413   4.906   1.987
 1731SOL    HW2 6093   1.441   5.052   2.054
 1732SOL     OW 6094   2.198   4.072   6.504
 1732SOL    HW1 6095   2.293   4.048   6.488
 1732SOL    HW2 6096   2.161   4.120   6.424
 1733SOL     OW 6097   1.971   3.201   2.547
 1733SOL    HW1 6098   1.973   3.253   2.462
 1733SOL    HW2 6099   2.005   3.259   2.621
 1734SOL     OW 6100   4.300   3.088   1.702
 1734SOL    HW1 6101   4.385   3.078   1.754
 1734SOL    HW2 6102   4.259   2.998   1.688
 1735SOL     OW 6103   5.954   5.747   1.831
 1735SOL    HW1 6104   5.975   5.698   1.747
 1735SOL    HW2 6105   5.858   5.776   1.830
 1736SOL     OW 6106   5.027   2.443   0.226
 1736SOL    HW1 6107   4.986   2.386   0.155
 1736SOL    HW2 6108   5.119   2.468   0.200
 1737SOL     OW 6109   2.752   0.507   4.059
 1737SOL    HW1 6110   2.761   0.603   4.036
 1737SOL    HW2 6111   2.841   0.471   4.089
 1738SOL     OW 6112   2.213   2.842   3.587
 1738SOL    HW1 6113   2.189   2.937   3.607
 1738SOL    HW2 6114   2.255   2.800   3.668
 1739SOL     OW 6115   4.808   2.342   4.845
 1739SOL    HW1 6116   4.852   2.396   4.774
 1739SOL    HW2 6117   4.712   2.370   4.854
 1740SOL     OW 6118   0.104   1.057   6.577
 1740SOL    HW1 6119   0.031   1.043   6.510
 1740SOL    HW2 6120   0.123   1.155   6.585
 1741SOL     OW 6121   2.164   1.205   2.511
 1741SOL    HW1 6122   2.213   1.189   2.426
 1741SOL    HW2 6123   2.217   1.267   2.569
 1742SOL     OW 6124   3.941   6.073   6.080
 1742SOL    HW1 6125   4.029   6.116   6.100
 1742SOL    HW2 6126   3.934   6.054   5.982
 1743SOL     OW 6127   1.791   1.196   2.277
 1743SOL    HW1 6128   1.873   1.248   2.254
 1743SOL    HW2 6129   1.756   1.226   2.365
 1744SOL     OW 6130   1.496   0.119   1.883
 1744SOL    HW1 6131   1.577   0.154   1.836
 1744SOL    HW2 6132   1.503   0.141   1.981
 1745SOL     OW 6133   6.341   1.409   4.570
 1745SOL    HW1 6134   6.412   1.378   4.633
 1745SOL    HW2 6135   6.351   1.507   4.553
 1746SOL     OW 6136   2.521   5.729   5.714
 1746SOL    HW1 6137   2.567   5.730   5.626
 1746SOL    HW2 6138   2.477   5.640   5.727
 1747SOL     OW 6139   5.207   6.938   2.260
 1747SOL    HW1 6140   5.272   6.962   2.187
 1747SOL    HW2 6141   5.192   7.018   2.318
 1748SOL     OW 6142   6.477   1.049   3.960
 1748SOL    HW1 6143   6.464   1.139   4.003
 1748SOL    HW2 6144   6.530   0.990   4.021
 1749SOL     OW 6145   3.869   6.530   5.494
 1749SOL    HW1 6146   3.902   6.443   5.455
 1749SOL    HW2 6147   3.879   6.602   5.426
 1750SOL     OW 6148   5.023   0.915   3.335
 1750SOL    HW1 6149   5.122   0.917   3.342
 1750SOL    HW2 6150   4.996   0.935   3.240
 1751SOL     OW 6151   3.266   4.874   4.676
 1751SOL    HW1 6152   3.168   4.877   4.658
 1751SOL    HW2 6153   3.300   4.781   4.662
 1752SOL     OW 6154   6.314   2.833   1.556
 1752SOL    HW1 6155   6.347   2.791   1.471
 1752SOL    HW2 6156   6.387   2.887   1.597
 1753SOL     OW 6157   0.582   1.003   0.439
 1753SOL    HW1 6158   0.619   1.006   0.347
 1753SOL    HW2 6159   0.501   0.944   0.441
 1754SOL     OW 6160   3.800   3.253   0.847
 1754SOL    HW1 6161   3.733   3.328   0.847
 1754SOL    HW2 6162   3.892   3.291   0.859
 1755SOL     OW 6163   5.515   5.303   1.632
 1755SOL    HW1 6164   5.502   5.369   1.557
 1755SOL    HW2 6165   5.612   5.291   1.650
 1756SOL     OW 6166   5.518   4.806   5.189
 1756SOL    HW1 6167   5.599   4.759   5.222
 1756SOL    HW2 6168   5.461   4.833   5.267
 1757SOL     OW 6169   2.254   6.565   4.667
 1757SOL    HW1 6170   2.342   6.602   4.696
 1757SOL    HW2 6171   2.187   6.577   4.741
 1758SOL     OW 6172   2.447   0.702   3.922
 1758SOL    HW1 6173   2.414   0.697   4.016
 1758SOL    HW2 6174   2.429   0.616   3.876
 1759SOL     OW 6175   0.007   5.296   6.368
 1759SOL    HW1 6176   6.958   5.303   6.438
 1759SOL    HW2 6177   0.096   5.277   6.411
 1760SOL     OW 6178   6.348   1.686   1.221
 1760SOL    HW1 6179   6.351   1.786   1.209
 1760SOL    HW2 6180   6.357   1.664   1.318
 1761SOL     OW 6181   6.889   6.883   0.272
 1761SOL    HW1 6182   6.882   6.816   0.198
 1761SOL    HW2 6183   6.889   6.835   0.360
 1762SOL     OW 6184   6.406   2.206   5.476
 1762SOL    HW1 6185   6.421   2.182   5.380
 1762SOL    HW2 6186   6.397   2.122   5.530
 1763SOL     OW 6187   1.336   3.989   4.069
 1763SOL    HW1 6188   1.246   4.019   4.101
 1763SOL    HW2 6189   1.334   3.891   4.050
 1764SOL     OW 6190   2.122   3.639   2.815
 1764SOL    HW1 6191   2.221   3.628   2.805
 1764SOL    HW2 6192   2.095   3.613   2.908
 1765SOL     OW 6193   3.000   1.866   6.594
 1765SOL    HW1 6194   2.975   1.774   6.564
 1765SOL    HW2 6195   3.089   1.890   6.554
 1766SOL     OW 6196   5.375   2.937   3.857
 1766SOL    HW1 6197   5.289   2.891   3.879
 1766SOL    HW2 6198   5.356   3.020   3.805
 1767SOL     OW 6199   5.008   3.839   2.509
 1767SOL    HW1 6200   5.033   3.742   2.513
 1767SOL    HW2 6201   4.978   3.869   2.600
 1768SOL     OW 6202   3.879   0.848   5.189
 1768SOL    HW1 6203   3.961   0.804   5.153
 1768SOL    HW2 6204   3.802   0.830   5.128
 1769SOL     OW 6205   4.150   2.236   4.295
 1769SOL    HW1 6206   4.170   2.268   4.202
 1769SOL    HW2 6207   4.198   2.294   4.361
 1770SOL     OW 6208   2.159   6.186   5.181
 1770SOL    HW1 6209   2.155   6.211   5.084
 1770SOL    HW2 6210   2.077   6.134   5.205
 1771SOL     OW 6211   2.916   5.759   6.453
 1771SOL    HW1 6212   2.918   5.702   6.535
 1771SOL    HW2 6213   2.968   5.843   6.470
 1772SOL     OW 6214   3.051   6.989   4.158
 1772SOL    HW1 6215   3.073   6.899   4.122
 1772SOL    HW2 6216   3.095   7.001   4.247
 1773SOL     OW 6217   2.248   5.173   5.776
 1773SOL    HW1 6218   2.245   5.162   5.875
 1773SOL    HW2 6219   2.341   5.155   5.744
 1774SOL     OW 6220   4.441   6.075   1.649
 1774SOL    HW1 6221   4.504   6.018   1.702
 1774SOL    HW2 6222   4.416   6.027   1.564
 1775SOL     OW 6223   1.674   4.058   3.544
 1775SOL    HW1 6224   1.705   4.112   3.465
 1775SOL    HW2 6225   1.575   4.049   3.542
 1776SOL     OW 6226   3.121   6.668   3.872
 1776SOL    HW1 6227   3.202   6.652   3.816
 1776SOL    HW2 6228   3.040   6.674   3.813
 1777SOL     OW 6229   3.783   5.036   5.848
 1777SOL    HW1 6230   3.773   5.114   5.911
 1777SOL    HW2 6231   3.812   5.070   5.758
 1778SOL     OW 6232   4.339   3.650   5.791
 1778SOL    HW1 6233   4.354   3.561   5.749
 1778SOL    HW2 6234   4.396   3.719   5.745
 1779SOL     OW 6235   4.733   0.741   4.519
 1779SOL    HW1 6236   4.824   0.735   4.559
 1779SOL    HW2 6237   4.687   0.824   4.550
 1780SOL     OW 6238   3.501   2.663   6.792
 1780SOL    HW1 6239   3.517   2.697   6.699
 1780SOL    HW2 6240   3.450   2.577   6.788
 1781SOL     OW 6241   4.132   5.918   3.632
 1781SOL    HW1 6242   4.137   6.017   3.618
 1781SOL    HW2 6243   4.224   5.882   3.649
 1782SOL     OW 6244   3.151   1.859   2.432
 1782SOL    HW1 6245   3.076   1.819   2.379
 1782SOL    HW2 6246   3.190   1.936   2.382
 1783SOL     OW 6247   1.623   5.451   5.818
 1783SOL    HW1 6248   1.680   5.405   5.887
 1783SOL    HW2 6249   1.648   5.418   5.727
 1784SOL     OW 6250   4.155   1.412   6.051
 1784SOL    HW1 6251   4.153   1.508   6.080
 1784SOL    HW2 6252   4.097   1.400   5.971
 1785SOL     OW 6253   6.136   4.303   3.351
 1785SOL    HW1 6254   6.128   4.384   3.409
 1785SOL    HW2 6255   6.048   4.285   3.307
 1786SOL     OW 6256   2.471   2.328   6.767
 1786SOL    HW1 6257   2.531   2.404   6.743
 1786SOL    HW2 6258   2.524   2.244   6.771
 1787SOL     OW 6259   3.109   0.959   5.204
 1787SOL    HW1 6260   3.028   0.923   5.159
 1787SOL    HW2 6261   3.156   1.022   5.142
 1788SOL     OW 6262   2.919   2.680   0.391
 1788SOL    HW1 6263   2.915   2.596   0.337
 1788SOL    HW2 6264   2.889   2.757   0.334
 1789SOL     OW 6265   5.907   1.807   3.133
 1789SOL    HW1 6266   5.856   1.879   3.086
 1789SOL    HW2 6267   5.948   1.745   3.066
 1790SOL     OW 6268   4.218   5.999   3.998
 1790SOL    HW1 6269   4.263   5.990   4.087
 1790SOL    HW2 6270   4.285   6.026   3.929
 1791SOL     OW 6271   5.861   0.738   2.967
 1791SOL    HW1 6272   5.809   0.822   2.987
 1791SOL    HW2 6273   5.954   0.747   3.000
 1792SOL     OW 6274   6.392   3.482   4.864
 1792SOL    HW1 6275   6.300   3.518   4.875
 1792SOL    HW2 6276   6.425   3.503   4.772
 1793SOL     OW 6277   6.168   6.924   3.260
 1793SOL    HW1 6278   6.088   6.868   3.281
 1793SOL    HW2 6279   6.248   6.866   3.249
 1794SOL     OW 6280   5.601   6.146   5.537
 1794SOL    HW1 6281   5.645   6.225   5.495
 1794SOL    HW2 6282   5.610   6.151   5.637
 1795SOL     OW 6283   1.094   1.804   0.580
 1795SOL    HW1 6284   1.095   1.885   0.521
 1795SOL    HW2 6285   1.034   1.735   0.540
 1796SOL     OW 6286   2.321   0.970   4.508
 1796SOL    HW1 6287   2.394   0.917   4.551
 1796SOL    HW2 6288   2.232   0.933   4.537
 1797SOL     OW 6289   1.771   6.381   0.471
 1797SOL    HW1 6290   1.672   6.370   0.472
 1797SOL    HW2 6291   1.798   6.447   0.542
 1798SOL     OW 6292   4.946   2.769   3.541
 1798SOL    HW1 6293   4.893   2.803   3.463
 1798SOL    HW2 6294   5.041   2.796   3.531
 1799SOL     OW 6295   7.010   2.627   5.930
 1799SOL    HW1 6296   6.938   2.571   5.971
 1799SOL    HW2 6297   6.976   2.666   5.844
 1800SOL     OW 6298   3.857   4.905   1.934
 1800SOL    HW1 6299   3.919   4.849   1.879
 1800SOL    HW2 6300   3.777   4.851   1.960
 1801SOL     OW 6301   7.021   0.444   1.890
 1801SOL    HW1 6302   0.091   0.471   1.919
 1801SOL    HW2 6303   0.006   0.381   1.813
 1802SOL     OW 6304   5.322   5.514   3.531
 1802SOL    HW1 6305   5.243   5.574   3.521
 1802SOL    HW2 6306   5.374   5.512   3.445
 1803SOL     OW 6307   0.825   5.759   6.934
 1803SOL    HW1 6308   0.889   5.748   6.857
 1803SOL    HW2 6309   0.740   5.800   6.901
 1804SOL     OW 6310   2.636   3.932   5.315
 1804SOL    HW1 6311   2.601   3.913   5.406
 1804SOL    HW2 6312   2.560   3.950   5.253
 1805SOL     OW 6313   5.665   3.991   6.178
 1805SOL    HW1 6314   5.610   4.038   6.247
 1805SOL    HW2 6315   5.651   4.035   6.089
 1806SOL     OW 6316   0.557   0.160   0.274
 1806SOL    HW1 6317   0.615   0.225   0.226
 1806SOL    HW2 6318   0.470   0.149   0.226
 1807SOL     OW 6319   5.596   2.453   4.993
 1807SOL    HW1 6320   5.542   2.537   4.989
 1807SOL    HW2 6321   5.590   2.405   4.906
 1808SOL     OW 6322   0.214   4.428   5.772
 1808SOL    HW1 6323   0.301   4.410   5.818
 1808SOL    HW2 6324   0.142   4.372   5.813
 1809SOL     OW 6325   2.035   2.401   5.037
 1809SOL    HW1 6326   1.997   2.331   5.097
 1809SOL    HW2 6327   2.021   2.491   5.078
 1810SOL     OW 6328   2.500   6.907   3.405
 1810SOL    HW1 6329   2.538   6.985   3.355
 1810SOL    HW2 6330   2.404   6.896   3.381
 1811SOL     OW 6331   6.193   5.502   3.749
 1811SOL    HW1 6332   6.157   5.417   3.710
 1811SOL    HW2 6333   6.228   5.560   3.675
 1812SOL     OW 6334   4.539   6.326   4.787
 1812SOL    HW1 6335   4.609   6.394   4.764
 1812SOL    HW2 6336   4.571   6.235   4.760
 1813SOL     OW 6337   6.273   4.617   1.127
 1813SOL    HW1 6338   6.290   4.654   1.218
 1813SOL    HW2 6339   6.341   4.547   1.107
 1814SOL     OW 6340   5.678   0.211   1.395
 1814SOL    HW1 6341   5.651   0.300   1.431
 1814SOL    HW2 6342   5.709   0.222   1.300
 1815SOL     OW 6343   0.404   1.724   2.494
 1815SOL    HW1 6344   0.426   1.715   2.397
 1815SOL    HW2 6345   0.426   1.817   2.524
 1816SOL     OW 6346   2.938   3.364   1.137
 1816SOL    HW1 6347   2.920   3.335   1.231
 1816SOL    HW2 6348   2.888   3.448   1.117
 1817SOL     OW 6349   2.698   6.911   2.706
 1817SOL    HW1 6350   2.797   6.907   2.690
 1817SOL    HW2 6351   2.666   7.005   2.699
 1818SOL     OW 6352   1.352   6.502   2.585
 1818SOL    HW1 6353   1.268   6.533   2.629
 1818SOL    HW2 6354   1.357   6.540   2.493
 1819SOL     OW 6355   1.597   4.335   1.414
 1819SOL    HW1 6356   1.529   4.293   1.474
 1819SOL    HW2 6357   1.689   4.317   1.449
 1820SOL     OW 6358   4.242   1.118   2.882
 1820SOL    HW1 6359   4.335   1.147   2.903
 1820SOL    HW2 6360   4.235   1.096   2.785
 1821SOL     OW 6361   0.946   0.929   1.668
 1821SOL    HW1 6362   0.899   0.840   1.668
 1821SOL    HW2 6363   0.897   0.991   1.607
 1822SOL     OW 6364   2.562   2.875   0.902
 1822SOL    HW1 6365   2.648   2.894   0.854
 1822SOL    HW2 6366   2.488   2.929   0.863
 1823SOL     OW 6367   3.269   5.870   3.105
 1823SOL    HW1 6368   3.244   5.948   3.162
 1823SOL    HW2 6369   3.350   5.893   3.051
 1824SOL     OW 6370   3.498   2.310   1.040
 1824SOL    HW1 6371   3.595   2.314   1.017
 1824SOL    HW2 6372   3.487   2.272   1.132
 1825SOL     OW 6373   1.259   1.031   2.468
 1825SOL    HW1 6374   1.195   1.026   2.392
 1825SOL    HW2 6375   1.284   1.127   2.485
 1826SOL     OW 6376   2.893   0.649   1.472
 1826SOL    HW1 6377   2.840   0.652   1.557
 1826SOL    HW2 6378   2.870   0.729   1.416
 1827SOL     OW 6379   0.092   5.083   2.367
 1827SOL    HW1 6380   0.158   5.011   2.391
 1827SOL    HW2 6381   0.141   5.162   2.330
 1828SOL     OW 6382   0.211   2.778   0.322
 1828SOL    HW1 6383   0.171   2.826   0.400
 1828SOL    HW2 6384   0.245   2.844   0.255
 1829SOL     OW 6385   4.368   0.040   2.845
 1829SOL    HW1 6386   4.280   0.036   2.893
 1829SOL    HW2 6387   4.410   0.130   2.858
 1830SOL     OW 6388   5.745   5.540   4.249
 1830SOL    HW1 6389   5.741   5.618   4.311
 1830SOL    HW2 6390   5.663   5.483   4.262
 1831SOL     OW 6391   6.119   0.350   3.142
 1831SOL    HW1 6392   6.169   0.264   3.130
 1831SOL    HW2 6393   6.039   0.350   3.083
 1832SOL     OW 6394   5.835   2.081   0.738
 1832SOL    HW1 6395   5.824   2.096   0.639
 1832SOL    HW2 6396   5.819   2.167   0.786
 1833SOL     OW 6397   5.615   0.809   5.223
 1833SOL    HW1 6398   5.603   0.773   5.131
 1833SOL    HW2 6399   5.712   0.808   5.247
 1834SOL     OW 6400   3.218   3.791   0.201
 1834SOL    HW1 6401   3.228   3.706   0.149
 1834SOL    HW2 6402   3.303   3.842   0.198
 1835SOL     OW 6403   1.797   4.496   2.221
 1835SOL    HW1 6404   1.821   4.581   2.174
 1835SOL    HW2 6405   1.701   4.474   2.205
 1836SOL     OW 6406   6.209   1.551   0.885
 1836SOL    HW1 6407   6.115   1.586   0.887
 1836SOL    HW2 6408   6.273   1.626   0.898
 1837SOL     OW 6409   0.584   2.485   3.838
 1837SOL    HW1 6410   0.654   2.415   3.853
 1837SOL    HW2 6411   0.623   2.575   3.852
 1838SOL     OW 6412   0.314   2.049   3.790
 1838SOL    HW1 6413   0.292   2.131   3.738
 1838SOL    HW2 6414   0.399   2.064   3.841
 1839SOL     OW 6415   4.518   2.328   4.760
 1839SOL    HW1 6416   4.488   2.290   4.847
 1839SOL    HW2 6417   4.439   2.358   4.708
 1840SOL     OW 6418   3.667   6.196   1.305
 1840SOL    HW1 6419   3.680   6.283   1.351
 1840SOL    HW2 6420   3.749   6.139   1.317
 1841SOL     OW 6421   2.283   2.935   4.523
 1841SOL    HW1 6422   2.373   2.893   4.518
 1841SOL    HW2 6423   2.260   2.956   4.618
 1842SOL     OW 6424   1.198   5.788   0.430
 1842SOL    HW1 6425   1.198   5.859   0.501
 1842SOL    HW2 6426   1.255   5.711   0.459
 1843SOL     OW 6427   1.219   2.261   4.534
 1843SOL    HW1 6428   1.246   2.331   4.599
 1843SOL    HW2 6429   1.241   2.171   4.572
 1844SOL     OW 6430   3.741   0.704   5.667
 1844SOL    HW1 6431   3.792   0.714   5.752
 1844SOL    HW2 6432   3.774   0.623   5.618
 1845SOL     OW 6433   2.599   0.174   5.791
 1845SOL    HW1 6434   2.572   0.108   5.721
 1845SOL    HW2 6435   2.528   0.244   5.800
 1846SOL     OW 6436   3.559   1.980   0.062
 1846SOL    HW1 6437   3.553   1.982   6.984
 1846SOL    HW2 6438   3.617   1.904   0.092
 1847SOL     OW 6439   1.678   1.058   6.910
 1847SOL    HW1 6440   1.722   1.140   6.945
 1847SOL    HW2 6441   1.588   1.081   6.873
 1848SOL     OW 6442   2.011   6.501   2.506
 1848SOL    HW1 6443   2.058   6.413   2.511
 1848SOL    HW2 6444   2.013   6.535   2.412
 1849SOL     OW 6445   4.132   1.364   0.560
 1849SOL    HW1 6446   4.109   1.328   0.650
 1849SOL    HW2 6447   4.231   1.359   0.547
 1850SOL     OW 6448   6.689   2.697   2.478
 1850SOL    HW1 6449   6.671   2.753   2.559
 1850SOL    HW2 6450   6.760   2.630   2.500
 1851SOL     OW 6451   0.237   1.472   0.732
 1851SOL    HW1 6452   0.252   1.393   0.672
 1851SOL    HW2 6453   0.325   1.507   0.765
 1852SOL     OW 6454   5.116   4.164   1.163
 1852SOL    HW1 6455   5.029   4.135   1.123
 1852SOL    HW2 6456   5.110   4.160   1.262
 1853SOL     OW 6457   0.826   2.974   2.481
 1853SOL    HW1 6458   0.887   2.919   2.425
 1853SOL    HW2 6459   0.829   3.069   2.450
 1854SOL     OW 6460   2.777   5.838   3.658
 1854SOL    HW1 6461   2.831   5.920   3.641
 1854SOL    HW2 6462   2.743   5.801   3.571
 1855SOL     OW 6463   4.334   4.227   7.017
 1855SOL    HW1 6464   4.250   4.175   0.007
 1855SOL    HW2 6465   4.337   4.265   6.924
 1856SOL     OW 6466   6.424   3.217   5.296
 1856SOL    HW1 6467   6.326   3.208   5.280
 1856SOL    HW2 6468   6.457   3.301   5.255
 1857SOL     OW 6469   3.380   1.103   5.670
 1857SOL    HW1 6470   3.403   1.009   5.698
 1857SOL    HW2 6471   3.436   1.129   5.591
 1858SOL     OW 6472   5.940   3.053   3.783
 1858SOL    HW1 6473   5.886   3.042   3.699
 1858SOL    HW2 6474   6.001   2.974   3.793
 1859SOL     OW 6475   4.080   1.569   3.651
 1859SOL    HW1 6476   4.152   1.609   3.708
 1859SOL    HW2 6477   4.059   1.477   3.682
 1860SOL     OW 6478   6.320   0.335   3.729
 1860SOL    HW1 6479   6.242   0.306   3.673
 1860SOL    HW2 6480   6.288   0.365   3.819
 1861SOL     OW 6481   4.801   6.441   2.563
 1861SOL    HW1 6482   4.893   6.413   2.588
 1861SOL    HW2 6483   4.734   6.390   2.618
 1862SOL     OW 6484   2.362   0.251   6.602
 1862SOL    HW1 6485   2.372   0.267   6.700
 1862SOL    HW2 6486   2.265   0.239   6.580
 1863SOL     OW 6487   2.055   2.142   0.385
 1863SOL    HW1 6488   2.068   2.237   0.357
 1863SOL    HW2 6489   1.983   2.138   0.455
 1864SOL     OW 6490   1.225   6.801   5.485
 1864SOL    HW1 6491   1.199   6.896   5.499
 1864SOL    HW2 6492   1.172   6.742   5.545
 1865SOL     OW 6493   3.610   0.236   5.625
 1865SOL    HW1 6494   3.570   0.322   5.593
 1865SOL    HW2 6495   3.593   0.226   5.723
 1866SOL     OW 6496   4.230   4.675   2.857
 1866SOL    HW1 6497   4.134   4.701   2.845
 1866SOL    HW2 6498   4.247   4.652   2.953
 1867SOL     OW 6499   1.171   4.445   0.745
 1867SOL    HW1 6500   1.194   4.484   0.656
 1867SOL    HW2 6501   1.218   4.495   0.817
 1868SOL     OW 6502   4.632   4.446   0.473
 1868SOL    HW1 6503   4.617   4.349   0.458
 1868SOL    HW2 6504   4.714   4.460   0.529
 1869SOL     OW 6505   6.916   2.299   5.040
 1869SOL    HW1 6506   6.968   2.352   5.107
 1869SOL    HW2 6507   6.891   2.358   4.963
 1870SOL     OW 6508   1.965   3.573   5.871
 1870SOL    HW1 6509   1.955   3.479   5.905
 1870SOL    HW2 6510   1.918   3.581   5.783
 1871SOL     OW 6511   1.172   7.005   6.478
 1871SOL    HW1 6512   1.193   0.079   6.496
 1871SOL    HW2 6513   1.116   6.968   6.553
 1872SOL     OW 6514   3.633   3.173   6.475
 1872SOL    HW1 6515   3.606   3.268   6.493
 1872SOL    HW2 6516   3.577   3.111   6.529
 1873SOL     OW 6517   4.468   1.203   5.168
 1873SOL    HW1 6518   4.400   1.234   5.101
 1873SOL    HW2 6519   4.454   1.251   5.254
 1874SOL     OW 6520   2.261   0.917   0.903
 1874SOL    HW1 6521   2.290   0.935   0.810
 1874SOL    HW2 6522   2.246   1.003   0.952
 1875SOL     OW 6523   0.794   1.373   6.986
 1875SOL    HW1 6524   0.816   1.302   0.030
 1875SOL    HW2 6525   0.829   1.348   6.895
 1876SOL     OW 6526   3.600   0.259   5.929
 1876SOL    HW1 6527   3.668   0.276   6.000
 1876SOL    HW2 6528   3.545   0.180   5.955
 1877SOL     OW 6529   0.828   0.118   2.627
 1877SOL    HW1 6530   0.844   0.106   2.725
 1877SOL    HW2 6531   0.880   0.197   2.595
 1878SOL     OW 6532   6.865   1.716   3.971
 1878SOL    HW1 6533   6.832   1.778   3.900
 1878SOL    HW2 6534   6.828   1.744   4.059
 1879SOL     OW 6535   1.105   4.096   4.177
 1879SOL    HW1 6536   1.041   4.022   4.158
 1879SOL    HW2 6537   1.068   4.155   4.249
 1880SOL     OW 6538   6.702   1.581   4.899
 1880SOL    HW1 6539   6.684   1.557   4.804
 1880SOL    HW2 6540   6.657   1.667   4.921
 1881SOL     OW 6541   5.343   2.504   2.914
 1881SOL    HW1 6542   5.331   2.582   2.853
 1881SOL    HW2 6543   5.397   2.433   2.868
 1882SOL     OW 6544   0.910   4.208   6.853
 1882SOL    HW1 6545   0.828   4.230   6.799
 1882SOL    HW2 6546   0.947   4.291   6.895
 1883SOL     OW 6547   6.006   2.175   2.949
 1883SOL    HW1 6548   5.986   2.165   2.851
 1883SOL    HW2 6549   6.042   2.089   2.985
 1884SOL     OW 6550   0.226   2.318   0.380
 1884SOL    HW1 6551   0.287   2.245   0.411
 1884SOL    HW2 6552   0.268   2.406   0.400
 1885SOL     OW 6553   1.839   1.929   6.525
 1885SOL    HW1 6554   1.812   1.999   6.459
 1885SOL    HW2 6555   1.920   1.959   6.575
 1886SOL     OW 6556   1.378   0.257   2.323
 1886SOL    HW1 6557   1.463   0.219   2.287
 1886SOL    HW2 6558   1.300   0.217   2.275
 1887SOL     OW 6559   0.737   5.251   5.537
 1887SOL    HW1 6560   0.785   5.272   5.452
 1887SOL    HW2 6561   0.669   5.323   5.555
 1888SOL     OW 6562   3.191   2.463   6.676
 1888SOL    HW1 6563   3.270   2.437   6.620
 1888SOL    HW2 6564   3.113   2.405   6.651
 1889SOL     OW 6565   0.504   3.998   5.239
 1889SOL    HW1 6566   0.466   3.949   5.318
 1889SOL    HW2 6567   0.430   4.033   5.183
 1890SOL     OW 6568   1.789   5.557   3.953
 1890SOL    HW1 6569   1.754   5.651   3.947
 1890SOL    HW2 6570   1.786   5.515   3.862
 1891SOL     OW 6571   4.589   2.554   1.585
 1891SOL    HW1 6572   4.555   2.629   1.642
 1891SOL    HW2 6573   4.589   2.583   1.489
 1892SOL     OW 6574   0.395   6.715   2.094
 1892SOL    HW1 6575   0.414   6.676   2.004
 1892SOL    HW2 6576   0.303   6.755   2.095
 1893SOL     OW 6577   3.456   2.812   2.022
 1893SOL    HW1 6578   3.457   2.897   2.075
 1893SOL    HW2 6579   3.378   2.813   1.959
 1894SOL     OW 6580   3.855   3.442   3.882
 1894SOL    HW1 6581   3.922   3.368   3.888
 1894SOL    HW2 6582   3.806   3.451   3.968
 1895SOL     OW 6583   4.074   0.336   0.689
 1895SOL    HW1 6584   4.080   0.426   0.646
 1895SOL    HW2 6585   4.044   0.269   0.621
 1896SOL     OW 6586   6.103   1.706   1.124
 1896SOL    HW1 6587   6.076   1.712   1.220
 1896SOL    HW2 6588   6.203   1.712   1.117
 1897SOL     OW 6589   2.462   5.135   1.843
 1897SOL    HW1 6590   2.527   5.125   1.767
 1897SOL    HW2 6591   2.497   5.085   1.923
 1898SOL     OW 6592   2.041   4.574   3.519
 1898SOL    HW1 6593   2.038   4.485   3.474
 1898SOL    HW2 6594   1.965   4.630   3.486
 1899SOL     OW 6595   0.482   1.822   0.298
 1899SOL    HW1 6596   0.490   1.874   0.383
 1899SOL    HW2 6597   0.568   1.776   0.279
 1900SOL     OW 6598   2.259   0.775   6.875
 1900SOL    HW1 6599   2.176   0.824   6.848
 1900SOL    HW2 6600   2.261   0.685   6.832
 1901SOL     OW 6601   2.335   1.971   0.945
 1901SOL    HW1 6602   2.350   1.961   1.043
 1901SOL    HW2 6603   2.410   2.023   0.904
 1902SOL     OW 6604   2.432   1.074   4.265
 1902SOL    HW1 6605   2.396   1.006   4.329
 1902SOL    HW2 6606   2.378   1.074   4.181
 1903SOL     OW 6607   0.864   3.256   2.514
 1903SOL    HW1 6608   0.810   3.328   2.472
 1903SOL    HW2 6609   0.890   3.283   2.607
 1904SOL     OW 6610   5.496   5.454   3.299
 1904SOL    HW1 6611   5.561   5.382   3.272
 1904SOL    HW2 6612   5.435   5.474   3.223
 1905SOL     OW 6613   0.463   0.397   3.543
 1905SOL    HW1 6614   0.485   0.455   3.465
 1905SOL    HW2 6615   0.541   0.393   3.605
 1906SOL     OW 6616   3.177   0.958   5.978
 1906SOL    HW1 6617   3.113   0.908   6.036
 1906SOL    HW2 6618   3.263   0.907   5.970
 1907SOL     OW 6619   4.679   2.288   1.347
 1907SOL    HW1 6620   4.735   2.275   1.265
 1907SOL    HW2 6621   4.734   2.330   1.419
 1908SOL     OW 6622   3.782   6.177   6.361
 1908SOL    HW1 6623   3.818   6.239   6.431
 1908SOL    HW2 6624   3.835   6.188   6.277
 1909SOL     OW 6625   0.930   3.151   3.482
 1909SOL    HW1 6626   0.977   3.195   3.406
 1909SOL    HW2 6627   0.991   3.086   3.526
 1910SOL     OW 6628   7.002   6.042   5.397
 1910SOL    HW1 6629   0.006   5.999   5.311
 1910SOL    HW2 6630   7.012   5.975   5.471
 1911SOL     OW 6631   7.006   3.924   4.212
 1911SOL    HW1 6632   0.007   3.828   4.203
 1911SOL    HW2 6633   0.030   3.977   4.141
 1912SOL     OW 6634   3.002   6.048   1.999
 1912SOL    HW1 6635   3.101   6.042   1.984
 1912SOL    HW2 6636   2.954   6.008   1.921
 1913SOL     OW 6637   2.711   0.732   4.967
 1913SOL    HW1 6638   2.704   0.679   4.882
 1913SOL    HW2 6639   2.686   0.674   5.044
 1914SOL     OW 6640   3.686   3.243   0.107
 1914SOL    HW1 6641   3.764   3.219   0.165
 1914SOL    HW2 6642   3.604   3.197   0.141
 1915SOL     OW 6643   4.978   2.971   6.053
 1915SOL    HW1 6644   4.987   2.985   6.152
 1915SOL    HW2 6645   4.916   2.894   6.036
 1916SOL     OW 6646   4.725   6.372   1.162
 1916SOL    HW1 6647   4.659   6.368   1.238
 1916SOL    HW2 6648   4.720   6.463   1.120
 1917SOL     OW 6649   2.512   3.260   0.017
 1917SOL    HW1 6650   2.448   3.329   7.006
 1917SOL    HW2 6651   2.463   3.189   0.067
 1918SOL     OW 6652   0.678   0.972   4.759
 1918SOL    HW1 6653   0.724   1.057   4.731
 1918SOL    HW2 6654   0.586   0.971   4.721
 1919SOL     OW 6655   1.869   1.388   1.305
 1919SOL    HW1 6656   1.896   1.483   1.287
 1919SOL    HW2 6657   1.863   1.373   1.404
 1920SOL     OW 6658   6.188   3.370   2.837
 1920SOL    HW1 6659   6.234   3.417   2.913
 1920SOL    HW2 6660   6.239   3.287   2.814
 1921SOL     OW 6661   1.642   2.961   6.795
 1921SOL    HW1 6662   1.543   2.949   6.787
 1921SOL    HW2 6663   1.686   2.872   6.796
 1922SOL     OW 6664   2.810   3.455   1.810
 1922SOL    HW1 6665   2.835   3.511   1.888
 1922SOL    HW2 6666   2.852   3.365   1.817
 1923SOL     OW 6667   4.148   1.321   6.724
 1923SOL    HW1 6668   4.244   1.326   6.696
 1923SOL    HW2 6669   4.140   1.342   6.821
 1924SOL     OW 6670   4.741   0.151   0.703
 1924SOL    HW1 6671   4.675   0.219   0.736
 1924SOL    HW2 6672   4.735   0.068   0.758
 1925SOL     OW 6673   1.100   4.784   1.744
 1925SOL    HW1 6674   1.160   4.754   1.669
 1925SOL    HW2 6675   1.019   4.829   1.705
 1926SOL     OW 6676   2.872   0.178   1.742
 1926SOL    HW1 6677   2.846   0.205   1.649
 1926SOL    HW2 6678   2.897   0.260   1.795
 1927SOL     OW 6679   2.382   3.799   0.471
 1927SOL    HW1 6680   2.436   3.722   0.437
 1927SOL    HW2 6681   2.286   3.774   0.473
 1928SOL     OW 6682   5.284   5.115   4.249
 1928SOL    HW1 6683   5.317   5.119   4.343
 1928SOL    HW2 6684   5.341   5.052   4.196
 1929SOL     OW 6685   2.319   0.545   1.826
 1929SOL    HW1 6686   2.326   0.617   1.895
 1929SOL    HW2 6687   2.405   0.495   1.820
 1930SOL     OW 6688   5.667   3.409   6.871
 1930SOL    HW1 6689   5.655   3.339   6.801
 1930SOL    HW2 6690   5.731   3.376   6.941
 1931SOL     OW 6691   1.113   2.050   6.421
 1931SOL    HW1 6692   1.013   2.056   6.421
 1931SOL    HW2 6693   1.143   1.991   6.495
 1932SOL     OW 6694   4.682   2.728   3.624
 1932SOL    HW1 6695   4.774   2.750   3.591
 1932SOL    HW2 6696   4.633   2.813   3.643
 1933SOL     OW 6697   0.795   2.083   0.442
 1933SOL    HW1 6698   0.866   2.047   0.382
 1933SOL    HW2 6699   0.834   2.152   0.502
 1934SOL     OW 6700   0.204   1.007   5.321
 1934SOL    HW1 6701   0.250   1.094   5.340
 1934SOL    HW2 6702   0.250   0.933   5.369
 1935SOL     OW 6703   4.597   4.866   3.605
 1935SOL    HW1 6704   4.645   4.855   3.518
 1935SOL    HW2 6705   4.511   4.915   3.590
 1936SOL     OW 6706   4.880   3.663   4.085
 1936SOL    HW1 6707   4.816   3.733   4.116
 1936SOL    HW2 6708   4.896   3.673   3.987
 1937SOL     OW 6709   4.687   6.223   0.201
 1937SOL    HW1 6710   4.658   6.249   0.293
 1937SOL    HW2 6711   4.664   6.127   0.184
 1938SOL     OW 6712   0.832   1.987   0.734
 1938SOL    HW1 6713   0.874   2.015   0.647
 1938SOL    HW2 6714   0.893   2.012   0.810
 1939SOL     OW 6715   0.281   6.139   4.354
 1939SOL    HW1 6716   0.246   6.052   4.391
 1939SOL    HW2 6717   0.381   6.142   4.365
 1940SOL     OW 6718   5.979   4.651   1.625
 1940SOL    HW1 6719   6.027   4.564   1.610
 1940SOL    HW2 6720   5.924   4.673   1.545
 1941SOL     OW 6721   1.032   2.942   3.639
 1941SOL    HW1 6722   0.968   2.880   3.594
 1941SOL    HW2 6723   1.034   2.923   3.737
 1942SOL     OW 6724   5.326   3.979   2.610
 1942SOL    HW1 6725   5.319   3.973   2.709
 1942SOL    HW2 6726   5.407   3.929   2.579
 1943SOL     OW 6727   1.334   1.667   2.576
 1943SOL    HW1 6728   1.415   1.624   2.537
 1943SOL    HW2 6729   1.332   1.652   2.675
 1944SOL     OW 6730   6.583   4.524   6.954
 1944SOL    HW1 6731   6.606   4.497   6.861
 1944SOL    HW2 6732   6.641   4.473   7.019
 1945SOL     OW 6733   3.795   6.822   1.327
 1945SOL    HW1 6734   3.875   6.762   1.329
 1945SOL    HW2 6735   3.789   6.873   1.413
 1946SOL     OW 6736   5.712   6.321   1.777
 1946SOL    HW1 6737   5.728   6.292   1.683
 1946SOL    HW2 6738   5.657   6.252   1.824
 1947SOL     OW 6739   6.355   5.790   4.029
 1947SOL    HW1 6740   6.357   5.890   4.035
 1947SOL    HW2 6741   6.353   5.751   4.121
 1948SOL     OW 6742   5.548   4.372   2.663
 1948SOL    HW1 6743   5.455   4.347   2.693
 1948SOL    HW2 6744   5.556   4.356   2.565
 1949SOL     OW 6745   4.084   3.952   0.367
 1949SOL    HW1 6746   4.152   4.021   0.341
 1949SOL    HW2 6747   4.094   3.930   0.464
 1950SOL     OW 6748   4.037   3.230   3.802
 1950SOL    HW1 6749   3.979   3.152   3.825
 1950SOL    HW2 6750   4.038   3.242   3.703
 1951SOL     OW 6751   6.578   4.191   5.474
 1951SOL    HW1 6752   6.657   4.167   5.530
 1951SOL    HW2 6753   6.494   4.168   5.524
 1952SOL     OW 6754   4.942   4.422   1.363
 1952SOL    HW1 6755   5.004   4.450   1.290
 1952SOL    HW2 6756   4.980   4.343   1.411
 1953SOL     OW 6757   0.183   1.492   5.999
 1953SOL    HW1 6758   0.271   1.448   5.980
 1953SOL    HW2 6759   0.110   1.424   5.995
 1954SOL     OW 6760   5.395   0.843   1.842
 1954SOL    HW1 6761   5.297   0.822   1.848
 1954SOL    HW2 6762   5.423   0.896   1.923
 1955SOL     OW 6763   0.177   1.421   1.316
 1955SOL    HW1 6764   0.257   1.376   1.278
 1955SOL    HW2 6765   0.097   1.402   1.259
 1956SOL     OW 6766   4.682   0.089   2.548
 1956SOL    HW1 6767   4.770   0.071   2.505
 1956SOL    HW2 6768   4.609   0.042   2.498
 1957SOL     OW 6769   5.217   3.460   4.350
 1957SOL    HW1 6770   5.191   3.521   4.425
 1957SOL    HW2 6771   5.244   3.372   4.388
 1958SOL     OW 6772   4.591   1.698   1.280
 1958SOL    HW1 6773   4.609   1.714   1.183
 1958SOL    HW2 6774   4.553   1.781   1.322
 1959SOL     OW 6775   6.477   6.427   3.996
 1959SOL    HW1 6776   6.435   6.337   4.000
 1959SOL    HW2 6777   6.410   6.496   4.023
 1960SOL     OW 6778   6.918   2.644   2.973
 1960SOL    HW1 6779   6.913   2.721   2.910
 1960SOL    HW2 6780   7.012   2.634   3.007
 1961SOL     OW 6781   6.243   4.488   4.453
 1961SOL    HW1 6782   6.225   4.566   4.394
 1961SOL    HW2 6783   6.330   4.501   4.500
 1962SOL     OW 6784   1.191   5.735   2.689
 1962SOL    HW1 6785   1.278   5.686   2.701
 1962SOL    HW2 6786   1.134   5.686   2.622
 1963SOL     OW 6787   0.641   1.519   1.077
 1963SOL    HW1 6788   0.544   1.493   1.077
 1963SOL    HW2 6789   0.649   1.617   1.094
 1964SOL     OW 6790   5.151   4.554   1.808
 1964SOL    HW1 6791   5.190   4.643   1.784
 1964SOL    HW2 6792   5.060   4.545   1.766
 1965SOL     OW 6793   1.161   3.455   4.121
 1965SOL    HW1 6794   1.192   3.492   4.034
 1965SOL    HW2 6795   1.098   3.379   4.105
 1966SOL     OW 6796   1.720   4.813   0.960
 1966SOL    HW1 6797   1.656   4.886   0.986
 1966SOL    HW2 6798   1.753   4.768   1.043
 1967SOL     OW 6799   6.932   2.338   3.984
 1967SOL    HW1 6800   0.006   2.369   3.982
 1967SOL    HW2 6801   6.872   2.416   3.998
 1968SOL     OW 6802   2.486   1.143   5.468
 1968SOL    HW1 6803   2.464   1.228   5.516
 1968SOL    HW2 6804   2.405   1.112   5.418
 1969SOL     OW 6805   3.224   0.835   2.130
 1969SOL    HW1 6806   3.284   0.834   2.051
 1969SOL    HW2 6807   3.129   0.843   2.100
 1970SOL     OW 6808   6.423   6.542   4.905
 1970SOL    HW1 6809   6.476   6.459   4.889
 1970SOL    HW2 6810   6.405   6.588   4.819
 1971SOL     OW 6811   0.670   0.068   5.263
 1971SOL    HW1 6812   0.656   0.080   5.361
 1971SOL    HW2 6813   0.616   7.011   5.231
 1972SOL     OW 6814   5.548   2.177   1.334
 1972SOL    HW1 6815   5.534   2.153   1.430
 1972SOL    HW2 6816   5.475   2.240   1.305
 1973SOL     OW 6817   2.262   3.965   1.779
 1973SOL    HW1 6818   2.259   4.023   1.860
 1973SOL    HW2 6819   2.353   3.970   1.738
 1974SOL     OW 6820   4.626   6.850   4.708
 1974SOL    HW1 6821   4.582   6.761   4.699
 1974SOL    HW2 6822   4.556   6.919   4.727
 1975SOL     OW 6823   2.208   3.021   3.931
 1975SOL    HW1 6824   2.155   3.082   3.989
 1975SOL    HW2 6825   2.247   2.947   3.986
 1976SOL     OW 6826   5.902   6.958   6.596
 1976SOL    HW1 6827   5.830   0.002   6.617
 1976SOL    HW2 6828   5.867   6.865   6.609
 1977SOL     OW 6829   2.845   3.098   6.536
 1977SOL    HW1 6830   2.888   3.131   6.619
 1977SOL    HW2 6831   2.910   3.102   6.460
 1978SOL     OW 6832   2.142   5.876   3.170
 1978SOL    HW1 6833   2.070   5.944   3.180
 1978SOL    HW2 6834   2.126   5.821   3.087
 1979SOL     OW 6835   6.140   4.862   6.987
 1979SOL    HW1 6836   6.051   4.881   0.007
 1979SOL    HW2 6837   6.202   4.825   0.034
 1980SOL     OW 6838   3.305   0.721   2.621
 1980SOL    HW1 6839   3.327   0.637   2.671
 1980SOL    HW2 6840   3.266   0.788   2.685
 1981SOL     OW 6841   5.282   2.777   2.645
 1981SOL    HW1 6842   5.369   2.752   2.602
 1981SOL    HW2 6843   5.214   2.706   2.626
 1982SOL     OW 6844   6.862   4.231   4.099
 1982SOL    HW1 6845   6.870   4.321   4.058
 1982SOL    HW2 6846   6.793   4.233   4.171
 1983SOL     OW 6847   0.561   0.385   0.989
 1983SOL    HW1 6848   0.636   0.358   1.050
 1983SOL    HW2 6849   0.484   0.322   1.001
 1984SOL     OW 6850   5.238   2.341   4.922
 1984SOL    HW1 6851   5.170   2.299   4.984
 1984SOL    HW2 6852   5.219   2.439   4.915
 1985SOL     OW 6853   6.520   5.275   1.806
 1985SOL    HW1 6854   6.560   5.313   1.890
 1985SOL    HW2 6855   6.470   5.191   1.828
 1986SOL     OW 6856   2.703   1.128   6.556
 1986SOL    HW1 6857   2.755   1.184   6.492
 1986SOL    HW2 6858   2.621   1.178   6.584
 1987SOL     OW 6859   2.018   0.877   3.970
 1987SOL    HW1 6860   2.000   0.971   3.996
 1987SOL    HW2 6861   1.996   0.864   3.873
 1988SOL     OW 6862   6.850   1.611   0.927
 1988SOL    HW1 6863   6.922   1.542   0.932
 1988SOL    HW2 6864   6.762   1.569   0.948
 1989SOL     OW 6865   3.054   6.109   4.648
 1989SOL    HW1 6866   3.136   6.166   4.642
 1989SOL    HW2 6867   3.015   6.098   4.557
 1990SOL     OW 6868   3.924   0.178   0.507
 1990SOL    HW1 6869   3.886   0.108   0.567
 1990SOL    HW2 6870   3.981   0.134   0.437
 1991SOL     OW 6871   2.786   5.002   0.121
 1991SOL    HW1 6872   2.739   5.012   0.033
 1991SOL    HW2 6873   2.725   4.955   0.185
 1992SOL     OW 6874   6.991   6.732   0.491
 1992SOL    HW1 6875   0.050   6.771   0.446
 1992SOL    HW2 6876   6.969   6.785   0.573
 1993SOL     OW 6877   2.554   2.306   4.391
 1993SOL    HW1 6878   2.496   2.277   4.468
 1993SOL    HW2 6879   2.599   2.392   4.413
 1994SOL     OW 6880   4.678   2.005   0.908
 1994SOL    HW1 6881   4.718   2.080   0.961
 1994SOL    HW2 6882   4.742   1.977   0.836
 1995SOL     OW 6883   5.721   2.856   4.370
 1995SOL    HW1 6884   5.755   2.777   4.320
 1995SOL    HW2 6885   5.772   2.938   4.344
 1996SOL     OW 6886   2.466   1.828   1.311
 1996SOL    HW1 6887   2.423   1.918   1.303
 1996SOL    HW2 6888   2.514   1.806   1.226
 1997SOL     OW 6889   3.487   1.308   4.164
 1997SOL    HW1 6890   3.501   1.369   4.086
 1997SOL    HW2 6891   3.470   1.363   4.247
 1998SOL     OW 6892   1.190   3.592   1.076
 1998SOL    HW1 6893   1.267   3.655   1.081
 1998SOL    HW2 6894   1.145   3.601   0.988
 1999SOL     OW 6895   0.208   1.145   4.778
 1999SOL    HW1 6896   0.200   1.215   4.706
 1999SOL    HW2 6897   0.157   1.174   4.859
 2000SOL     OW 6898   4.169   3.772   5.977
 2000SOL    HW1 6899   4.233   3.848   5.971
 2000SOL    HW2 6900   4.202   3.696   5.920
 2001SOL     OW 6901   1.530   1.680   6.879
 2001SOL    HW1 6902   1.470   1.602   6.900
 2001SOL    HW2 6903   1.564   1.719   6.965
 2002SOL     OW 6904   0.795   5.402   1.113
 2002SOL    HW1 6905   0.810   5.310   1.149
 2002SOL    HW2 6906   0.752   5.397   1.023
 2003SOL     OW 6907   6.176   5.141   2.203
 2003SOL    HW1 6908   6.258   5.197   2.198
 2003SOL    HW2 6909   6.122   5.152   2.120
 2004SOL     OW 6910   4.294   0.979   3.910
 2004SOL    HW1 6911   4.319   1.037   3.988
 2004SOL    HW2 6912   4.311   0.883   3.933
 2005SOL     OW 6913   6.836   5.933   0.189
 2005SOL    HW1 6914   6.741   5.918   0.162
 2005SOL    HW2 6915   6.896   5.924   0.109
 2006SOL     OW 6916   5.150   6.932   4.249
 2006SOL    HW1 6917   5.238   6.891   4.225
 2006SOL    HW2 6918   5.106   6.966   4.167
 2007SOL     OW 6919   5.056   4.176   1.442
 2007SOL    HW1 6920   4.968   4.128   1.448
 2007SOL    HW2 6921   5.097   4.180   1.533
 2008SOL     OW 6922   2.040   3.439   4.185
 2008SOL    HW1 6923   2.112   3.455   4.118
 2008SOL    HW2 6924   1.970   3.510   4.176
 2009SOL     OW 6925   5.485   6.125   1.867
 2009SOL    HW1 6926   5.403   6.182   1.872
 2009SOL    HW2 6927   5.507   6.090   1.958
 2010SOL     OW 6928   1.692   1.955   1.268
 2010SOL    HW1 6929   1.613   1.959   1.206
 2010SOL    HW2 6930   1.698   2.041   1.319
 2011SOL     OW 6931   6.946   0.217   5.711
 2011SOL    HW1 6932   6.992   0.165   5.639
 2011SOL    HW2 6933   7.011   0.279   5.755
 2012SOL     OW 6934   1.714   3.749   2.209
 2012SOL    HW1 6935   1.759   3.728   2.296
 2012SOL    HW2 6936   1.615   3.752   2.223
 2013SOL     OW 6937   0.074   2.903   3.343
 2013SOL    HW1 6938   6.999   2.876   3.339
 2013SOL    HW2 6939   0.082   3.000   3.317
 2014SOL     OW 6940   3.372   0.288   3.275
 2014SOL    HW1 6941   3.345   0.278   3.371
 2014SOL    HW2 6942   3.294   0.270   3.216
 2015SOL     OW 6943   3.824   0.627   1.050
 2015SOL    HW1 6944   3.800   0.723   1.066
 2015SOL    HW2 6945   3.859   0.617   0.956
 2016SOL     OW 6946   1.378   6.044   5.657
 2016SOL    HW1 6947   1.330   5.959   5.635
 2016SOL    HW2 6948   1.452   6.058   5.591
 2017SOL     OW 6949   4.179   0.334   3.557
 2017SOL    HW1 6950   4.232   0.415   3.580
 2017SOL    HW2 6951   4.238   0.253   3.563
 2018SOL     OW 6952   7.007   2.256   3.539
 2018SOL    HW1 6953   6.951   2.181   3.504
 2018SOL    HW2 6954   6.965   2.343   3.516
 2019SOL     OW 6955   6.443   4.706   6.741
 2019SOL    HW1 6956   6.488   4.617   6.748
 2019SOL    HW2 6957   6.380   4.706   6.663
 2020SOL     OW 6958   0.796   5.660   6.202
 2020SOL    HW1 6959   0.869   5.600   6.172
 2020SOL    HW2 6960   0.763   5.630   6.291
 2021SOL     OW 6961   6.474   6.374   3.284
 2021SOL    HW1 6962   6.488   6.277   3.304
 2021SOL    HW2 6963   6.377   6.391   3.266
 2022SOL     OW 6964   1.698   4.335   5.176
 2022SOL    HW1 6965   1.744   4.282   5.247
 2022SOL    HW2 6966   1.765   4.391   5.128
 2023SOL     OW 6967   0.025   6.790   6.673
 2023SOL    HW1 6968   7.006   6.880   6.661
 2023SOL    HW2 6969   6.978   6.728   6.712
 2024SOL     OW 6970   0.335   5.764   4.269
 2024SOL    HW1 6971   0.364   5.801   4.181
 2024SOL    HW2 6972   0.310   5.839   4.330
 2025SOL     OW 6973   3.013   0.696   3.776
 2025SOL    HW1 6974   2.956   0.726   3.852
 2025SOL    HW2 6975   3.105   0.735   3.786
 2026SOL     OW 6976   5.929   0.866   6.380
 2026SOL    HW1 6977   5.968   0.954   6.351
 2026SOL    HW2 6978   5.893   0.818   6.300
 2027SOL     OW 6979   0.795   5.857   1.797
 2027SOL    HW1 6980   0.706   5.820   1.768
 2027SOL    HW2 6981   0.852   5.782   1.830
 2028SOL     OW 6982   3.927   5.890   2.963
 2028SOL    HW1 6983   3.901   5.820   3.029
 2028SOL    HW2 6984   3.957   5.846   2.878
 2029SOL     OW 6985   6.683   1.714   6.901
 2029SOL    HW1 6986   6.718   1.806   6.880
 2029SOL    HW2 6987   6.670   1.706   7.000
 2030SOL     OW 6988   2.986   6.208   2.585
 2030SOL    HW1 6989   3.015   6.303   2.598
 2030SOL    HW2 6990   2.913   6.186   2.648
 2031SOL     OW 6991   0.264   5.624   2.390
 2031SOL    HW1 6992   0.312   5.647   2.474
 2031SOL    HW2 6993   0.176   5.581   2.412
 2032SOL     OW 6994   3.642   1.737   0.133
 2032SOL    HW1 6995   3.547   1.705   0.124
 2032SOL    HW2 6996   3.660   1.760   0.228
 2033SOL     OW 6997   1.407   0.995   0.225
 2033SOL    HW1 6998   1.420   0.972   0.322
 2033SOL    HW2 6999   1.354   1.080   0.218
 2034SOL     OW 7000   1.503   5.126   5.329
 2034SOL    HW1 7001   1.406   5.148   5.322
 2034SOL    HW2 7002   1.534   5.145   5.422
 2035SOL     OW 7003   0.076   7.006   1.887
 2035SOL    HW1 7004   0.110   6.918   1.854
 2035SOL    HW2 7005   0.001   0.014   1.828
 2036SOL     OW 7006   0.904   3.281   2.782
 2036SOL    HW1 7007   0.830   3.348   2.793
 2036SOL    HW2 7008   0.909   3.224   2.864
 2037SOL     OW 7009   0.169   3.143   6.139
 2037SOL    HW1 7010   0.117   3.058   6.137
 2037SOL    HW2 7011   0.106   3.221   6.145
 2038SOL     OW 7012   2.880   1.264   0.079
 2038SOL    HW1 7013   2.908   1.306   0.165
 2038SOL    HW2 7014   2.816   1.326   0.032
 2039SOL     OW 7015   0.337   5.837   2.203
 2039SOL    HW1 7016   0.308   5.778   2.279
 2039SOL    HW2 7017   0.264   5.840   2.134
 2040SOL     OW 7018   1.859   2.761   6.818
 2040SOL    HW1 7019   1.887   2.668   6.794
 2040SOL    HW2 7020   1.920   2.827   6.774
 2041SOL     OW 7021   2.147   6.612   5.466
 2041SOL    HW1 7022   2.165   6.647   5.558
 2041SOL    HW2 7023   2.195   6.524   5.455
 2042SOL     OW 7024   5.015   0.246   6.049
 2042SOL    HW1 7025   5.024   0.328   5.993
 2042SOL    HW2 7026   5.040   0.267   6.143
 2043SOL     OW 7027   6.634   2.630   1.527
 2043SOL    HW1 7028   6.698   2.707   1.530
 2043SOL    HW2 7029   6.554   2.655   1.474
 2044SOL     OW 7030   5.825   1.250   1.428
 2044SOL    HW1 7031   5.807   1.152   1.435
 2044SOL    HW2 7032   5.747   1.301   1.464
 2045SOL     OW 7033   1.480   5.463   5.481
 2045SOL    HW1 7034   1.554   5.496   5.423
 2045SOL    HW2 7035   1.502   5.372   5.516
 2046SOL     OW 7036   6.940   1.780   5.416
 2046SOL    HW1 7037   6.948   1.736   5.505
 2046SOL    HW2 7038   6.849   1.762   5.378
 2047SOL     OW 7039   6.314   2.515   0.561
 2047SOL    HW1 7040   6.216   2.534   0.557
 2047SOL    HW2 7041   6.354   2.562   0.640
 2048SOL     OW 7042   0.439   1.534   4.339
 2048SOL    HW1 7043   0.430   1.634   4.345
 2048SOL    HW2 7044   0.536   1.511   4.328
 2049SOL     OW 7045   4.481   1.224   4.535
 2049SOL    HW1 7046   4.530   1.282   4.600
 2049SOL    HW2 7047   4.387   1.212   4.564
 2050SOL     OW 7048   0.167   2.066   4.059
 2050SOL    HW1 7049   0.128   2.001   3.994
 2050SOL    HW2 7050   0.132   2.158   4.041
 2051SOL     OW 7051   2.540   6.342   0.355
 2051SOL    HW1 7052   2.618   6.281   0.339
 2051SOL    HW2 7053   2.506   6.328   0.448
 2052SOL     OW 7054   1.942   3.517   0.568
 2052SOL    HW1 7055   1.974   3.425   0.592
 2052SOL    HW2 7056   1.920   3.567   0.652
 2053SOL     OW 7057   0.929   5.180   4.633
 2053SOL    HW1 7058   0.987   5.173   4.552
 2053SOL    HW2 7059   0.910   5.277   4.651
 2054SOL     OW 7060   3.309   2.980   2.560
 2054SOL    HW1 7061   3.397   2.933   2.550
 2054SOL    HW2 7062   3.263   2.983   2.472
 2055SOL     OW 7063   0.346   2.453   4.914
 2055SOL    HW1 7064   0.423   2.432   4.975
 2055SOL    HW2 7065   0.298   2.369   4.890
 2056SOL     OW 7066   4.098   5.150   1.134
 2056SOL    HW1 7067   4.195   5.170   1.141
 2056SOL    HW2 7068   4.051   5.179   1.217
 2057SOL     OW 7069   5.902   2.589   4.314
 2057SOL    HW1 7070   5.882   2.496   4.342
 2057SOL    HW2 7071   5.977   2.625   4.368
 2058SOL     OW 7072   0.783   6.043   3.106
 2058SOL    HW1 7073   0.816   6.032   3.012
 2058SOL    HW2 7074   0.842   6.108   3.154
 2059SOL     OW 7075   2.630   0.488   5.563
 2059SOL    HW1 7076   2.539   0.453   5.541
 2059SOL    HW2 7077   2.645   0.483   5.661
 2060SOL     OW 7078   0.927   3.321   0.301
 2060SOL    HW1 7079   0.977   3.264   0.236
 2060SOL    HW2 7080   0.992   3.369   0.359
 2061SOL     OW 7081   1.992   2.833   2.570
 2061SOL    HW1 7082   1.901   2.874   2.566
 2061SOL    HW2 7083   2.013   2.807   2.665
 2062SOL     OW 7084   6.703   4.955   5.002
 2062SOL    HW1 7085   6.736   4.940   4.909
 2062SOL    HW2 7086   6.781   4.952   5.065
 2063SOL     OW 7087   1.286   6.554   5.354
 2063SOL    HW1 7088   1.284   6.649   5.386
 2063SOL    HW2 7089   1.262   6.493   5.429
 2064SOL     OW 7090   1.054   3.742   4.184
 2064SOL    HW1 7091   1.141   3.719   4.227
 2064SOL    HW2 7092   1.037   3.679   4.108
 2065SOL     OW 7093   5.323   2.962   5.233
 2065SOL    HW1 7094   5.327   2.867   5.265
 2065SOL    HW2 7095   5.285   2.964   5.141
 2066SOL     OW 7096   5.934   3.804   5.628
 2066SOL    HW1 7097   5.882   3.729   5.588
 2066SOL    HW2 7098   5.942   3.790   5.727
 2067SOL     OW 7099   6.625   4.941   1.637
 2067SOL    HW1 7100   6.573   4.858   1.660
 2067SOL    HW2 7101   6.562   5.014   1.611
 2068SOL     OW 7102   3.919   1.069   4.261
 2068SOL    HW1 7103   3.975   1.147   4.290
 2068SOL    HW2 7104   3.975   1.004   4.210
 2069SOL     OW 7105   6.933   1.627   4.290
 2069SOL    HW1 7106   6.984   1.611   4.375
 2069SOL    HW2 7107   6.940   1.546   4.231
 2070SOL     OW 7108   1.295   3.078   1.472
 2070SOL    HW1 7109   1.361   3.061   1.545
 2070SOL    HW2 7110   1.290   3.177   1.455
 2071SOL     OW 7111   6.556   1.096   5.915
 2071SOL    HW1 7112   6.525   1.002   5.896
 2071SOL    HW2 7113   6.588   1.138   5.830
 2072SOL     OW 7114   3.951   4.651   5.232
 2072SOL    HW1 7115   3.956   4.559   5.270
 2072SOL    HW2 7116   3.866   4.695   5.261
 2073SOL     OW 7117   3.632   6.201   6.771
 2073SOL    HW1 7118   3.542   6.199   6.814
 2073SOL    HW2 7119   3.644   6.120   6.713
 2074SOL     OW 7120   1.807   3.655   5.659
 2074SOL    HW1 7121   1.738   3.679   5.727
 2074SOL    HW2 7122   1.789   3.563   5.625
 2075SOL     OW 7123   6.955   2.532   2.244
 2075SOL    HW1 7124   6.994   2.440   2.243
 2075SOL    HW2 7125   7.008   2.590   2.306
 2076SOL     OW 7126   5.822   0.359   4.867
 2076SOL    HW1 7127   5.882   0.400   4.935
 2076SOL    HW2 7128   5.797   0.428   4.799
 2077SOL     OW 7129   0.739   2.650   1.290
 2077SOL    HW1 7130   0.711   2.687   1.201
 2077SOL    HW2 7131   0.737   2.550   1.286
 2078SOL     OW 7132   1.817   4.878   5.814
 2078SOL    HW1 7133   1.804   4.920   5.904
 2078SOL    HW2 7134   1.912   4.891   5.785
 2079SOL     OW 7135   5.087   0.986   1.995
 2079SOL    HW1 7136   5.150   1.012   2.068
 2079SOL    HW2 7137   5.001   1.036   2.004
 2080SOL     OW 7138   2.944   2.105   4.716
 2080SOL    HW1 7139   2.868   2.075   4.658
 2080SOL    HW2 7140   2.913   2.177   4.777
 2081SOL     OW 7141   0.264   6.669   3.206
 2081SOL    HW1 7142   0.341   6.664   3.270
 2081SOL    HW2 7143   0.197   6.598   3.228
 2082SOL     OW 7144   0.716   6.409   2.143
 2082SOL    HW1 7145   0.671   6.326   2.111
 2082SOL    HW2 7146   0.648   6.481   2.155
 2083SOL     OW 7147   0.485   6.167   3.426
 2083SOL    HW1 7148   0.421   6.194   3.498
 2083SOL    HW2 7149   0.578   6.160   3.465
 2084SOL     OW 7150   1.134   1.628   1.289
 2084SOL    HW1 7151   1.200   1.572   1.339
 2084SOL    HW2 7152   1.048   1.634   1.340
 2085SOL     OW 7153   5.217   6.014   0.254
 2085SOL    HW1 7154   5.165   5.977   0.331
 2085SOL    HW2 7155   5.183   5.973   0.169
 2086SOL     OW 7156   4.024   6.904   0.082
 2086SOL    HW1 7157   3.997   6.822   0.032
 2086SOL    HW2 7158   3.972   6.982   0.048
 2087SOL     OW 7159   4.129   1.949   6.947
 2087SOL    HW1 7160   4.045   2.002   6.941
 2087SOL    HW2 7161   4.112   1.855   6.915
 2088SOL     OW 7162   0.082   5.699   5.809
 2088SOL    HW1 7163   7.009   5.685   5.780
 2088SOL    HW2 7164   0.134   5.744   5.735
 2089SOL     OW 7165   3.950   2.750   5.303
 2089SOL    HW1 7166   4.003   2.673   5.268
 2089SOL    HW2 7167   4.011   2.819   5.340
 2090SOL     OW 7168   4.501   3.297   5.342
 2090SOL    HW1 7169   4.574   3.307   5.274
 2090SOL    HW2 7170   4.529   3.342   5.427
 2091SOL     OW 7171   6.363   5.971   1.481
 2091SOL    HW1 7172   6.334   6.000   1.390
 2091SOL    HW2 7173   6.285   5.931   1.530
 2092SOL     OW 7174   4.632   4.080   0.982
 2092SOL    HW1 7175   4.545   4.086   1.031
 2092SOL    HW2 7176   4.663   4.171   0.957
 2093SOL     OW 7177   4.092   1.969   2.254
 2093SOL    HW1 7178   4.144   1.885   2.236
 2093SOL    HW2 7179   4.156   2.043   2.277
 2094SOL     OW 7180   5.800   3.079   0.131
 2094SOL    HW1 7181   5.726   3.020   0.162
 2094SOL    HW2 7182   5.881   3.023   0.113
 2095SOL     OW 7183   5.800   6.494   4.130
 2095SOL    HW1 7184   5.805   6.400   4.164
 2095SOL    HW2 7185   5.760   6.494   4.039
 2096SOL     OW 7186   4.622   6.228   2.257
 2096SOL    HW1 7187   4.632   6.168   2.336
 2096SOL    HW2 7188   4.697   6.211   2.193
 2097SOL     OW 7189   1.912   4.714   6.608
 2097SOL    HW1 7190   1.832   4.746   6.558
 2097SOL    HW2 7191   1.886   4.690   6.701
 2098SOL     OW 7192   4.103   5.902   3.309
 2098SOL    HW1 7193   4.109   5.808   3.277
 2098SOL    HW2 7194   4.077   5.903   3.405
 2099SOL     OW 7195   4.549   1.534   0.003
 2099SOL    HW1 7196   4.566   1.436   0.014
 2099SOL    HW2 7197   4.508   1.551   6.935
 2100SOL     OW 7198   5.735   1.058   0.448
 2100SOL    HW1 7199   5.819   1.026   0.405
 2100SOL    HW2 7200   5.656   1.015   0.402
 2101SOL     OW 7201   0.029   6.264   1.057
 2101SOL    HW1 7202   0.126   6.245   1.041
 2101SOL    HW2 7203   6.997   6.182   1.040
 2102SOL     OW 7204   3.943   3.012   1.482
 2102SOL    HW1 7205   4.015   3.049   1.422
 2102SOL    HW2 7206   3.964   2.917   1.505
 2103SOL     OW 7207   3.243   5.132   0.028
 2103SOL    HW1 7208   3.267   5.104   0.121
 2103SOL    HW2 7209   3.243   5.052   6.990
 2104SOL     OW 7210   1.716   4.955   2.932
 2104SOL    HW1 7211   1.705   4.935   2.834
 2104SOL    HW2 7212   1.631   4.992   2.969
 2105SOL     OW 7213   5.391   4.715   0.092
 2105SOL    HW1 7214   5.479   4.705   0.045
 2105SOL    HW2 7215   5.408   4.741   0.187
 2106SOL     OW 7216   5.064   3.468   1.546
 2106SOL    HW1 7217   5.088   3.491   1.452
 2106SOL    HW2 7218   5.146   3.470   1.603
 2107SOL     OW 7219   5.108   3.712   6.112
 2107SOL    HW1 7220   5.026   3.699   6.168
 2107SOL    HW2 7221   5.185   3.662   6.153
 2108SOL     OW 7222   5.528   6.825   6.034
 2108SOL    HW1 7223   5.558   6.745   5.981
 2108SOL    HW2 7224   5.565   6.907   5.992
 2109SOL     OW 7225   3.037   5.667   2.551
 2109SOL    HW1 7226   3.077   5.713   2.472
 2109SOL    HW2 7227   2.939   5.688   2.556
 2110SOL     OW 7228   3.519   0.713   6.649
 2110SOL    HW1 7229   3.589   0.783   6.660
 2110SOL    HW2 7230   3.556   0.624   6.676
 2111SOL     OW 7231   1.121   3.015   5.779
 2111SOL    HW1 7232   1.092   3.083   5.847
 2111SOL    HW2 7233   1.072   3.032   5.693
 2112SOL     OW 7234   6.313   1.209   0.404
 2112SOL    HW1 7235   6.285   1.115   0.423
 2112SOL    HW2 7236   6.340   1.253   0.490
 2113SOL     OW 7237   1.735   6.778   4.288
 2113SOL    HW1 7238   1.656   6.815   4.240
 2113SOL    HW2 7239   1.705   6.712   4.358
 2114SOL     OW 7240   2.021   2.460   6.756
 2114SOL    HW1 7241   2.091   2.439   6.824
 2114SOL    HW2 7242   2.060   2.520   6.686
 2115SOL     OW 7243   0.876   4.798   2.868
 2115SOL    HW1 7244   0.844   4.712   2.907
 2115SOL    HW2 7245   0.963   4.824   2.910
 2116SOL     OW 7246   1.285   2.175   0.122
 2116SOL    HW1 7247   1.378   2.212   0.132
 2116SOL    HW2 7248   1.262   2.169   0.025
 2117SOL     OW 7249   5.491   2.358   2.703
 2117SOL    HW1 7250   5.526   2.443   2.665
 2117SOL    HW2 7251   5.410   2.329   2.652
 2118SOL     OW 7252   6.888   3.512   2.541
 2118SOL    HW1 7253   6.959   3.448   2.510
 2118SOL    HW2 7254   6.806   3.461   2.568
 2119SOL     OW 7255   2.416   0.715   6.520
 2119SOL    HW1 7256   2.414   0.755   6.429
 2119SOL    HW2 7257   2.462   0.627   6.517
 2120SOL     OW 7258   6.514   2.055   1.923
 2120SOL    HW1 7259   6.567   2.139   1.913
 2120SOL    HW2 7260   6.482   2.047   2.017
 2121SOL     OW 7261   1.730   1.215   5.817
 2121SOL    HW1 7262   1.737   1.269   5.733
 2121SOL    HW2 7263   1.634   1.202   5.841
 2122SOL     OW 7264   6.042   0.383   5.452
 2122SOL    HW1 7265   5.957   0.332   5.436
 2122SOL    HW2 7266   6.119   0.333   5.411
 2123SOL     OW 7267   0.391   5.858   2.810
 2123SOL    HW1 7268   0.434   5.854   2.900
 2123SOL    HW2 7269   0.380   5.953   2.783
 2124SOL     OW 7270   3.609   2.865   5.626
 2124SOL    HW1 7271   3.523   2.914   5.642
 2124SOL    HW2 7272   3.686   2.921   5.656
 2125SOL     OW 7273   1.830   5.512   3.680
 2125SOL    HW1 7274   1.786   5.536   3.594
 2125SOL    HW2 7275   1.884   5.589   3.713
 2126SOL     OW 7276   3.470   3.168   0.312
 2126SOL    HW1 7277   3.375   3.200   0.316
 2126SOL    HW2 7278   3.512   3.175   0.402
 2127SOL     OW 7279   0.210   3.050   5.769
 2127SOL    HW1 7280   0.255   3.079   5.854
 2127SOL    HW2 7281   0.207   3.127   5.705
 2128SOL     OW 7282   5.234   3.933   1.106
 2128SOL    HW1 7283   5.185   4.014   1.137
 2128SOL    HW2 7284   5.329   3.956   1.086
 2129SOL     OW 7285   4.944   3.864   3.767
 2129SOL    HW1 7286   4.924   3.768   3.750
 2129SOL    HW2 7287   5.012   3.896   3.701
 2130SOL     OW 7288   1.993   1.320   1.924
 2130SOL    HW1 7289   1.906   1.312   1.875
 2130SOL    HW2 7290   2.068   1.319   1.858
 2131SOL     OW 7291   5.566   1.784   6.027
 2131SOL    HW1 7292   5.550   1.782   6.125
 2131SOL    HW2 7293   5.563   1.879   5.994
 2132SOL     OW 7294   2.424   1.457   6.656
 2132SOL    HW1 7295   2.423   1.358   6.644
 2132SOL    HW2 7296   2.464   1.500   6.575
 2133SOL     OW 7297   2.190   1.799   1.858
 2133SOL    HW1 7298   2.254   1.791   1.781
 2133SOL    HW2 7299   2.228   1.860   1.927
 2134SOL     OW 7300   0.361   6.694   4.364
 2134SOL    HW1 7301   0.355   6.777   4.308
 2134SOL    HW2 7302   0.456   6.680   4.391
 2135SOL     OW 7303   0.797   0.987   3.651
 2135SOL    HW1 7304   0.712   0.983   3.599
 2135SOL    HW2 7305   0.786   1.049   3.728
 2136SOL     OW 7306   0.961   3.776   4.817
 2136SOL    HW1 7307   1.000   3.709   4.754
 2136SOL    HW2 7308   1.028   3.850   4.831
 2137SOL     OW 7309   1.192   6.380   5.526
 2137SOL    HW1 7310   1.203   6.319   5.604
 2137SOL    HW2 7311   1.099   6.372   5.491
 2138SOL     OW 7312   6.715   3.082   0.751
 2138SOL    HW1 7313   6.805   3.078   0.795
 2138SOL    HW2 7314   6.656   3.012   0.791
 2139SOL     OW 7315   2.665   0.819   4.561
 2139SOL    HW1 7316   2.605   0.820   4.641
 2139SOL    HW2 7317   2.747   0.874   4.580
 2140SOL     OW 7318   2.492   6.290   3.441
 2140SOL    HW1 7319   2.567   6.329   3.494
 2140SOL    HW2 7320   2.414   6.273   3.502
 2141SOL     OW 7321   6.257   2.507   1.449
 2141SOL    HW1 7322   6.348   2.517   1.410
 2141SOL    HW2 7323   6.260   2.442   1.525
 2142SOL     OW 7324   1.215   1.970   3.648
 2142SOL    HW1 7325   1.241   1.888   3.699
 2142SOL    HW2 7326   1.169   1.943   3.563
 2143SOL     OW 7327   3.764   6.703   1.677
 2143SOL    HW1 7328   3.806   6.642   1.744
 2143SOL    HW2 7329   3.804   6.794   1.684
 2144SOL     OW 7330   1.247   0.263   3.177
 2144SOL    HW1 7331   1.250   0.173   3.135
 2144SOL    HW2 7332   1.323   0.319   3.143
 2145SOL     OW 7333   3.265   5.613   3.992
 2145SOL    HW1 7334   3.239   5.674   4.067
 2145SOL    HW2 7335   3.313   5.533   4.028
 2146SOL     OW 7336   2.900   3.330   2.418
 2146SOL    HW1 7337   2.905   3.309   2.320
 2146SOL    HW2 7338   2.852   3.255   2.465
 2147SOL     OW 7339   0.763   1.712   6.639
 2147SOL    HW1 7340   0.743   1.804   6.673
 2147SOL    HW2 7341   0.681   1.655   6.649
 2148SOL     OW 7342   4.942   3.588   3.797
 2148SOL    HW1 7343   4.902   3.510   3.750
 2148SOL    HW2 7344   5.036   3.565   3.824
 2149SOL     OW 7345   3.965   0.765   2.375
 2149SOL    HW1 7346   3.872   0.735   2.355
 2149SOL    HW2 7347   4.007   0.800   2.292
 2150SOL     OW 7348   3.907   1.748   3.144
 2150SOL    HW1 7349   3.810   1.762   3.121
 2150SOL    HW2 7350   3.924   1.650   3.158
 2151SOL     OW 7351   3.940   2.380   6.136
 2151SOL    HW1 7352   3.937   2.480   6.141
 2151SOL    HW2 7353   3.916   2.351   6.043
 2152SOL     OW 7354   5.938   6.533   1.878
 2152SOL    HW1 7355   5.901   6.599   1.943
 2152SOL    HW2 7356   5.871   6.460   1.863
 2153SOL     OW 7357   4.640   1.837   3.876
 2153SOL    HW1 7358   4.565   1.772   3.864
 2153SOL    HW2 7359   4.719   1.807   3.822
 2154SOL     OW 7360   3.209   5.431   4.807
 2154SOL    HW1 7361   3.147   5.394   4.875
 2154SOL    HW2 7362   3.243   5.357   4.749
 2155SOL     OW 7363   1.871   4.435   0.200
 2155SOL    HW1 7364   1.869   4.341   0.165
 2155SOL    HW2 7365   1.966   4.462   0.216
 2156SOL     OW 7366   1.567   0.445   1.972
 2156SOL    HW1 7367   1.626   0.476   2.047
 2156SOL    HW2 7368   1.552   0.347   1.980
 2157SOL     OW 7369   6.726   1.481   5.309
 2157SOL    HW1 7370   6.742   1.439   5.398
 2157SOL    HW2 7371   6.721   1.580   5.319
 2158SOL     OW 7372   4.048   0.354   1.363
 2158SOL    HW1 7373   3.949   0.344   1.356
 2158SOL    HW2 7374   4.077   0.436   1.313
 2159SOL     OW 7375   1.771   0.012   4.734
 2159SOL    HW1 7376   1.740   6.977   4.810
 2159SOL    HW2 7377   1.841   6.984   4.682
 2160SOL     OW 7378   3.575   4.101   1.174
 2160SOL    HW1 7379   3.486   4.056   1.178
 2160SOL    HW2 7380   3.580   4.157   1.091
 2161SOL     OW 7381   4.890   3.607   3.459
 2161SOL    HW1 7382   4.933   3.549   3.528
 2161SOL    HW2 7383   4.842   3.682   3.504
 2162SOL     OW 7384   2.156   0.659   6.615
 2162SOL    HW1 7385   2.097   0.728   6.572
 2162SOL    HW2 7386   2.246   0.661   6.572
 2163SOL     OW 7387   1.678   0.026   0.046
 2163SOL    HW1 7388   1.698   6.953   0.072
 2163SOL    HW2 7389   1.596   0.057   0.094
 2164SOL     OW 7390   1.985   0.648   6.160
 2164SOL    HW1 7391   1.956   0.725   6.217
 2164SOL    HW2 7392   2.082   0.660   6.135
 2165SOL     OW 7393   0.997   0.668   2.433
 2165SOL    HW1 7394   0.912   0.679   2.382
 2165SOL    HW2 7395   1.074   0.696   2.376
 2166SOL     OW 7396   1.429   2.528   5.138
 2166SOL    HW1 7397   1.475   2.490   5.058
 2166SOL    HW2 7398   1.359   2.465   5.170
 2167SOL     OW 7399   2.546   0.522   2.327
 2167SOL    HW1 7400   2.619   0.584   2.299
 2167SOL    HW2 7401   2.457   0.566   2.313
 2168SOL     OW 7402   5.939   3.409   4.460
 2168SOL    HW1 7403   6.036   3.386   4.469
 2168SOL    HW2 7404   5.924   3.457   4.373
 2169SOL     OW 7405   5.582   2.908   5.658
 2169SOL    HW1 7406   5.585   2.918   5.558
 2169SOL    HW2 7407   5.519   2.834   5.682
 2170SOL     OW 7408   4.593   4.932   5.430
 2170SOL    HW1 7409   4.590   4.964   5.525
 2170SOL    HW2 7410   4.575   4.833   5.427
 2171SOL     OW 7411   6.503   3.618   0.035
 2171SOL    HW1 7412   6.530   3.714   0.029
 2171SOL    HW2 7413   6.459   3.601   0.124
 2172SOL     OW 7414   3.296   1.372   0.349
 2172SOL    HW1 7415   3.208   1.404   0.383
 2172SOL    HW2 7416   3.305   1.395   0.252
 2173SOL     OW 7417   4.120   0.564   5.720
 2173SOL    HW1 7418   4.154   0.605   5.805
 2173SOL    HW2 7419   4.099   0.467   5.737
 2174SOL     OW 7420   6.604   4.592   4.374
 2174SOL    HW1 7421   6.618   4.521   4.304
 2174SOL    HW2 7422   6.570   4.549   4.457
 2175SOL     OW 7423   2.571   0.261   3.670
 2175SOL    HW1 7424   2.668   0.276   3.650
 2175SOL    HW2 7425   2.524   0.349   3.677
 2176SOL     OW 7426   2.192   2.365   2.724
 2176SOL    HW1 7427   2.139   2.358   2.640
 2176SOL    HW2 7428   2.226   2.274   2.750
 2177SOL     OW 7429   6.818   2.141   1.166
 2177SOL    HW1 7430   6.796   2.131   1.069
 2177SOL    HW2 7431   6.914   2.119   1.181
 2178SOL     OW 7432   0.734   5.013   0.493
 2178SOL    HW1 7433   0.662   5.063   0.444
 2178SOL    HW2 7434   0.693   4.937   0.543
 2179SOL     OW 7435   1.313   5.349   4.402
 2179SOL    HW1 7436   1.311   5.447   4.424
 2179SOL    HW2 7437   1.348   5.337   4.309
 2180SOL     OW 7438   3.163   3.644   2.513
 2180SOL    HW1 7439   3.235   3.581   2.542
 2180SOL    HW2 7440   3.197   3.701   2.438
 2181SOL     OW 7441   4.876   5.671   5.858
 2181SOL    HW1 7442   4.938   5.679   5.780
 2181SOL    HW2 7443   4.864   5.574   5.881
 2182SOL     OW 7444   6.781   4.089   6.227
 2182SOL    HW1 7445   6.880   4.073   6.232
 2182SOL    HW2 7446   6.762   4.162   6.162
 2183SOL     OW 7447   3.297   2.841   0.547
 2183SOL    HW1 7448   3.234   2.838   0.624
 2183SOL    HW2 7449   3.300   2.751   0.503
 2184SOL     OW 7450   3.649   1.701   6.261
 2184SOL    HW1 7451   3.629   1.680   6.165
 2184SOL    HW2 7452   3.684   1.794   6.268
 2185SOL     OW 7453   1.535   0.466   0.462
 2185SOL    HW1 7454   1.559   0.378   0.421
 2185SOL    HW2 7455   1.556   0.464   0.559
 2186SOL     OW 7456   0.026   4.999   2.908
 2186SOL    HW1 7457   0.067   5.089   2.917
 2186SOL    HW2 7458   0.081   4.944   2.845
 2187SOL     OW 7459   6.229   1.911   0.662
 2187SOL    HW1 7460   6.143   1.863   0.647
 2187SOL    HW2 7461   6.275   1.926   0.575
 2188SOL     OW 7462   5.409   6.473   3.231
 2188SOL    HW1 7463   5.332   6.427   3.188
 2188SOL    HW2 7464   5.403   6.572   3.214
 2189SOL     OW 7465   2.295   0.264   5.834
 2189SOL    HW1 7466   2.274   0.178   5.788
 2189SOL    HW2 7467   2.297   0.250   5.933
 2190SOL     OW 7468   6.663   2.260   1.335
 2190SOL    HW1 7469   6.704   2.190   1.277
 2190SOL    HW2 7470   6.698   2.250   1.429
 2191SOL     OW 7471   3.638   3.000   6.222
 2191SOL    HW1 7472   3.578   2.929   6.257
 2191SOL    HW2 7473   3.614   3.088   6.263
 2192SOL     OW 7474   4.176   5.803   5.118
 2192SOL    HW1 7475   4.248   5.746   5.080
 2192SOL    HW2 7476   4.093   5.748   5.130
 2193SOL     OW 7477   0.864   5.243   5.799
 2193SOL    HW1 7478   0.829   5.245   5.705
 2193SOL    HW2 7479   0.880   5.149   5.827
 2194SOL     OW 7480   2.376   6.273   1.001
 2194SOL    HW1 7481   2.276   6.283   1.006
 2194SOL    HW2 7482   2.413   6.349   0.947
 2195SOL     OW 7483   1.423   5.607   2.732
 2195SOL    HW1 7484   1.464   5.541   2.796
 2195SOL    HW2 7485   1.486   5.620   2.655
 2196SOL     OW 7486   3.319   1.773   6.031
 2196SOL    HW1 7487   3.395   1.835   6.048
 2196SOL    HW2 7488   3.282   1.791   5.939
 2197SOL     OW 7489   5.025   4.810   1.612
 2197SOL    HW1 7490   4.966   4.848   1.683
 2197SOL    HW2 7491   5.003   4.713   1.599
 2198SOL     OW 7492   6.939   4.494   0.230
 2198SOL    HW1 7493   6.971   4.496   0.136
 2198SOL    HW2 7494   6.999   4.549   0.288
 2199SOL     OW 7495   4.705   6.915   0.813
 2199SOL    HW1 7496   4.702   6.846   0.740
 2199SOL    HW2 7497   4.791   6.907   0.862
 2200SOL     OW 7498   4.031   0.813   4.790
 2200SOL    HW1 7499   4.085   0.791   4.871
 2200SOL    HW2 7500   4.091   0.823   4.711
 2201SOL     OW 7501   6.263   3.370   2.550
 2201SOL    HW1 7502   6.189   3.408   2.494
 2201SOL    HW2 7503   6.237   3.376   2.647
 2202SOL     OW 7504   4.024   5.411   3.949
 2202SOL    HW1 7505   4.000   5.319   3.919
 2202SOL    HW2 7506   4.051   5.409   4.045
 2203SOL     OW 7507   3.661   2.063   3.009
 2203SOL    HW1 7508   3.573   2.109   3.016
 2203SOL    HW2 7509   3.652   1.968   3.039
 2204SOL     OW 7510   2.980   2.083   0.513
 2204SOL    HW1 7511   3.067   2.094   0.561
 2204SOL    HW2 7512   2.949   2.172   0.479
 2205SOL     OW 7513   2.417   6.581   0.520
 2205SOL    HW1 7514   2.440   6.489   0.551
 2205SOL    HW2 7515   2.338   6.576   0.458
 2206SOL     OW 7516   3.022   3.073   7.003
 2206SOL    HW1 7517   3.051   3.140   0.050
 2206SOL    HW2 7518   2.938   3.028   0.013
 2207SOL     OW 7519   1.720   4.781   6.440
 2207SOL    HW1 7520   1.690   4.691   6.409
 2207SOL    HW2 7521   1.640   4.838   6.458
 2208SOL     OW 7522   0.573   3.789   2.093
 2208SOL    HW1 7523   0.491   3.765   2.146
 2208SOL    HW2 7524   0.653   3.783   2.153
 2209SOL     OW 7525   0.990   5.509   6.535
 2209SOL    HW1 7526   0.966   5.580   6.601
 2209SOL    HW2 7527   1.089   5.496   6.534
 2210SOL     OW 7528   1.439   5.485   3.445
 2210SOL    HW1 7529   1.377   5.533   3.507
 2210SOL    HW2 7530   1.404   5.489   3.352
 2211SOL     OW 7531   5.959   1.395   5.368
 2211SOL    HW1 7532   5.874   1.349   5.344
 2211SOL    HW2 7533   5.946   1.494   5.360
 2212SOL     OW 7534   1.138   0.379   5.815
 2212SOL    HW1 7535   1.045   0.405   5.788
 2212SOL    HW2 7536   1.134   0.308   5.885
 2213SOL     OW 7537   4.045   2.183   3.559
 2213SOL    HW1 7538   4.059   2.167   3.461
 2213SOL    HW2 7539   3.952   2.157   3.584
 2214SOL     OW 7540   5.729   0.099   4.810
 2214SOL    HW1 7541   5.637   0.063   4.791
 2214SOL    HW2 7542   5.723   0.174   4.875
 2215SOL     OW 7543   6.725   2.087   5.364
 2215SOL    HW1 7544   6.825   2.093   5.357
 2215SOL    HW2 7545   6.684   2.137   5.288
 2216SOL     OW 7546   1.194   6.697   0.939
 2216SOL    HW1 7547   1.155   6.679   1.029
 2216SOL    HW2 7548   1.125   6.738   0.880
 2217SOL     OW 7549   4.700   0.154   1.353
 2217SOL    HW1 7550   4.608   0.166   1.314
 2217SOL    HW2 7551   4.698   0.177   1.450
 2218SOL     OW 7552   0.991   5.959   6.554
 2218SOL    HW1 7553   0.902   5.954   6.511
 2218SOL    HW2 7554   0.985   6.014   6.638
 2219SOL     OW 7555   1.911   4.106   3.018
 2219SOL    HW1 7556   1.966   4.035   2.975
 2219SOL    HW2 7557   1.864   4.068   3.098
 2220SOL     OW 7558   0.076   1.490   5.429
 2220SOL    HW1 7559   0.033   1.483   5.518
 2220SOL    HW2 7560   0.075   1.585   5.398
 2221SOL     OW 7561   6.747   2.220   1.580
 2221SOL    HW1 7562   6.823   2.271   1.621
 2221SOL    HW2 7563   6.661   2.266   1.603
 2222SOL     OW 7564   4.586   6.486   2.195
 2222SOL    HW1 7565   4.674   6.509   2.153
 2222SOL    HW2 7566   4.585   6.390   2.221
 2223SOL     OW 7567   5.888   5.331   3.891
 2223SOL    HW1 7568   5.982   5.346   3.922
 2223SOL    HW2 7569   5.866   5.233   3.896
 2224SOL     OW 7570   2.257   4.806   1.782
 2224SOL    HW1 7571   2.211   4.894   1.785
 2224SOL    HW2 7572   2.280   4.784   1.687
 2225SOL     OW 7573   6.565   5.069   2.235
 2225SOL    HW1 7574   6.491   5.088   2.170
 2225SOL    HW2 7575   6.652   5.064   2.187
 2226SOL     OW 7576   3.776   3.080   1.280
 2226SOL    HW1 7577   3.837   3.053   1.354
 2226SOL    HW2 7578   3.734   3.168   1.302
 2227SOL     OW 7579   6.710   3.801   5.583
 2227SOL    HW1 7580   6.765   3.879   5.553
 2227SOL    HW2 7581   6.720   3.727   5.516
 2228SOL     OW 7582   3.106   4.977   6.065
 2228SOL    HW1 7583   3.193   5.016   6.034
 2228SOL    HW2 7584   3.048   4.958   5.986
 2229SOL     OW 7585   4.262   1.055   3.282
 2229SOL    HW1 7586   4.176   1.104   3.294
 2229SOL    HW2 7587   4.258   1.001   3.198
 2230SOL     OW 7588   0.733   6.329   5.252
 2230SOL    HW1 7589   0.760   6.242   5.211
 2230SOL    HW2 7590   0.703   6.392   5.180
 2231SOL     OW 7591   1.890   6.916   1.799
 2231SOL    HW1 7592   1.805   6.882   1.758
 2231SOL    HW2 7593   1.873   7.004   1.843
 2232SOL     OW 7594   6.398   2.765   2.510
 2232SOL    HW1 7595   6.372   2.773   2.606
 2232SOL    HW2 7596   6.470   2.696   2.500
 2233SOL     OW 7597   3.517   6.511   0.321
 2233SOL    HW1 7598   3.527   6.423   0.368
 2233SOL    HW2 7599   3.433   6.512   0.267
 2234SOL     OW 7600   3.619   1.443   0.873
 2234SOL    HW1 7601   3.520   1.441   0.858
 2234SOL    HW2 7602   3.659   1.517   0.819
 2235SOL     OW 7603   0.789   6.715   0.628
 2235SOL    HW1 7604   0.812   6.707   0.531
 2235SOL    HW2 7605   0.722   6.645   0.653
 2236SOL     OW 7606   1.119   4.488   1.480
 2236SOL    HW1 7607   1.091   4.472   1.575
 2236SOL    HW2 7608   1.079   4.418   1.421
 2237SOL     OW 7609   6.364   3.187   4.538
 2237SOL    HW1 7610   6.330   3.262   4.481
 2237SOL    HW2 7611   6.289   3.153   4.596
 2238SOL     OW 7612   0.867   5.761   2.163
 2238SOL    HW1 7613   0.902   5.850   2.193
 2238SOL    HW2 7614   0.779   5.774   2.116
 2239SOL     OW 7615   4.208   5.140   3.259
 2239SOL    HW1 7616   4.214   5.182   3.169
 2239SOL    HW2 7617   4.127   5.175   3.307
 2240SOL     OW 7618   6.469   4.911   2.892
 2240SOL    HW1 7619   6.497   5.006   2.905
 2240SOL    HW2 7620   6.528   4.867   2.824
 2241SOL     OW 7621   0.129   6.772   1.714
 2241SOL    HW1 7622   0.106   6.735   1.804
 2241SOL    HW2 7623   0.049   6.820   1.677
 2242SOL     OW 7624   4.798   1.686   3.203
 2242SOL    HW1 7625   4.850   1.711   3.284
 2242SOL    HW2 7626   4.821   1.592   3.176
 2243SOL     OW 7627   2.579   6.067   5.044
 2243SOL    HW1 7628   2.603   6.110   4.957
 2243SOL    HW2 7629   2.619   6.119   5.119
 2244SOL     OW 7630   2.654   0.361   4.530
 2244SOL    HW1 7631   2.562   0.398   4.543
 2244SOL    HW2 7632   2.650   0.281   4.471
 2245SOL     OW 7633   0.842   1.457   2.565
 2245SOL    HW1 7634   0.787   1.397   2.508
 2245SOL    HW2 7635   0.787   1.489   2.643
 2246SOL     OW 7636   0.878   3.993   6.137
 2246SOL    HW1 7637   0.949   4.045   6.089
 2246SOL    HW2 7638   0.882   3.897   6.109
 2247SOL     OW 7639   2.255   2.964   6.344
 2247SOL    HW1 7640   2.289   2.987   6.253
 2247SOL    HW2 7641   2.168   3.009   6.360
 2248SOL     OW 7642   4.699   3.744   5.826
 2248SOL    HW1 7643   4.663   3.765   5.918
 2248SOL    HW2 7644   4.791   3.782   5.817
 2249SOL     OW 7645   5.280   5.635   3.247
 2249SOL    HW1 7646   5.214   5.588   3.304
 2249SOL    HW2 7647   5.275   5.600   3.153
 2250SOL     OW 7648   6.498   4.017   1.201
 2250SOL    HW1 7649   6.411   4.017   1.151
 2250SOL    HW2 7650   6.573   4.010   1.136
 2251SOL     OW 7651   5.966   0.974   0.312
 2251SOL    HW1 7652   5.999   0.995   0.220
 2251SOL    HW2 7653   5.953   0.876   0.322
 2252SOL     OW 7654   5.319   2.691   5.347
 2252SOL    HW1 7655   5.322   2.706   5.446
 2252SOL    HW2 7656   5.293   2.596   5.329
 2253SOL     OW 7657   2.767   2.911   0.290
 2253SOL    HW1 7658   2.672   2.930   0.314
 2253SOL    HW2 7659   2.776   2.906   0.191
 2254SOL     OW 7660   2.325   3.840   6.338
 2254SOL    HW1 7661   2.294   3.860   6.245
 2254SOL    HW2 7662   2.389   3.910   6.368
 2255SOL     OW 7663   5.837   2.760   1.617
 2255SOL    HW1 7664   5.790   2.675   1.592
 2255SOL    HW2 7665   5.778   2.838   1.600
 2256SOL     OW 7666   4.135   4.726   1.976
 2256SOL    HW1 7667   4.202   4.774   1.919
 2256SOL    HW2 7668   4.182   4.663   2.037
 2257SOL     OW 7669   1.917   3.953   3.622
 2257SOL    HW1 7670   1.932   4.027   3.688
 2257SOL    HW2 7671   1.823   3.956   3.589
 2258SOL     OW 7672   1.946   5.743   5.116
 2258SOL    HW1 7673   1.943   5.644   5.104
 2258SOL    HW2 7674   2.012   5.783   5.052
 2259SOL     OW 7675   5.588   3.920   0.011
 2259SOL    HW1 7676   5.498   3.934   6.993
 2259SOL    HW2 7677   5.657   3.922   6.961
 2260SOL     OW 7678   5.413   4.645   1.508
 2260SOL    HW1 7679   5.341   4.638   1.439
 2260SOL    HW2 7680   5.375   4.686   1.591
 2261SOL     OW 7681   5.420   0.233   0.273
 2261SOL    HW1 7682   5.468   0.313   0.238
 2261SOL    HW2 7683   5.463   0.203   0.358
 2262SOL     OW 7684   4.921   2.276   4.004
 2262SOL    HW1 7685   4.851   2.208   4.024
 2262SOL    HW2 7686   4.878   2.361   3.974
 2263SOL     OW 7687   1.191   5.421   5.505
 2263SOL    HW1 7688   1.289   5.418   5.485
 2263SOL    HW2 7689   1.158   5.515   5.499
 2264SOL     OW 7690   3.266   3.264   3.768
 2264SOL    HW1 7691   3.365   3.277   3.761
 2264SOL    HW2 7692   3.226   3.338   3.822
 2265SOL     OW 7693   0.330   0.140   1.911
 2265SOL    HW1 7694   0.240   0.104   1.889
 2265SOL    HW2 7695   0.342   0.141   2.011
 2266SOL     OW 7696   5.778   0.561   0.423
 2266SOL    HW1 7697   5.830   0.486   0.466
 2266SOL    HW2 7698   5.694   0.576   0.475
 2267SOL     OW 7699   6.439   2.400   5.219
 2267SOL    HW1 7700   6.389   2.487   5.216
 2267SOL    HW2 7701   6.374   2.325   5.232
 2268SOL     OW 7702   0.067   6.175   6.955
 2268SOL    HW1 7703   0.059   6.176   6.856
 2268SOL    HW2 7704   0.052   6.268   6.991
 2269SOL     OW 7705   6.348   5.347   6.019
 2269SOL    HW1 7706   6.393   5.424   6.065
 2269SOL    HW2 7707   6.347   5.364   5.920
 2270SOL     OW 7708   3.203   3.554   2.227
 2270SOL    HW1 7709   3.120   3.558   2.282
 2270SOL    HW2 7710   3.195   3.479   2.160
 2271SOL     OW 7711   6.318   4.507   2.136
 2271SOL    HW1 7712   6.403   4.455   2.140
 2271SOL    HW2 7713   6.262   4.485   2.216
 2272SOL     OW 7714   5.572   2.044   5.848
 2272SOL    HW1 7715   5.658   2.028   5.801
 2272SOL    HW2 7716   5.502   1.980   5.815
 2273SOL     OW 7717   0.436   1.568   3.587
 2273SOL    HW1 7718   0.401   1.638   3.526
 2273SOL    HW2 7719   0.369   1.552   3.661
 2274SOL     OW 7720   1.376   3.438   4.622
 2274SOL    HW1 7721   1.423   3.379   4.557
 2274SOL    HW2 7722   1.398   3.409   4.715
 2275SOL     OW 7723   5.447   6.265   3.895
 2275SOL    HW1 7724   5.469   6.191   3.832
 2275SOL    HW2 7725   5.348   6.273   3.905
 2276SOL     OW 7726   4.053   4.287   1.547
 2276SOL    HW1 7727   4.012   4.240   1.468
 2276SOL    HW2 7728   4.105   4.221   1.602
 2277SOL     OW 7729   3.398   3.021   6.952
 2277SOL    HW1 7730   3.480   3.077   6.940
 2277SOL    HW2 7731   3.423   2.935   6.997
 2278SOL     OW 7732   5.115   5.991   1.295
 2278SOL    HW1 7733   5.205   5.948   1.287
 2278SOL    HW2 7734   5.119   6.084   1.262
 2279SOL     OW 7735   5.863   3.011   4.947
 2279SOL    HW1 7736   5.853   3.005   4.848
 2279SOL    HW2 7737   5.850   2.921   4.988
 2280SOL     OW 7738   6.254   5.964   5.913
 2280SOL    HW1 7739   6.351   5.987   5.905
 2280SOL    HW2 7740   6.201   6.022   5.851
 2281SOL     OW 7741   3.539   2.295   1.346
 2281SOL    HW1 7742   3.567   2.386   1.317
 2281SOL    HW2 7743   3.551   2.287   1.445
 2282SOL     OW 7744   4.688   5.772   3.242
 2282SOL    HW1 7745   4.616   5.798   3.177
 2282SOL    HW2 7746   4.647   5.757   3.333
 2283SOL     OW 7747   0.303   3.276   3.813
 2283SOL    HW1 7748   0.300   3.316   3.905
 2283SOL    HW2 7749   0.383   3.217   3.805
 2284SOL     OW 7750   2.281   2.168   1.569
 2284SOL    HW1 7751   2.253   2.260   1.542
 2284SOL    HW2 7752   2.200   2.114   1.590
 2285SOL     OW 7753   1.401   3.778   1.070
 2285SOL    HW1 7754   1.452   3.862   1.087
 2285SOL    HW2 7755   1.449   3.723   1.002
 2286SOL     OW 7756   6.440   6.280   4.808
 2286SOL    HW1 7757   6.397   6.220   4.741
 2286SOL    HW2 7758   6.483   6.224   4.879
 2287SOL     OW 7759   2.402   2.546   2.079
 2287SOL    HW1 7760   2.381   2.478   2.009
 2287SOL    HW2 7761   2.367   2.635   2.051
 2288SOL     OW 7762   0.109   6.362   2.809
 2288SOL    HW1 7763   0.150   6.301   2.877
 2288SOL    HW2 7764   0.015   6.383   2.835
 2289SOL     OW 7765   5.312   1.997   2.446
 2289SOL    HW1 7766   5.265   2.076   2.406
 2289SOL    HW2 7767   5.280   1.984   2.540
 2290SOL     OW 7768   2.964   3.598   2.975
 2290SOL    HW1 7769   2.947   3.508   3.015
 2290SOL    HW2 7770   2.938   3.597   2.879
 2291SOL     OW 7771   2.176   2.363   1.042
 2291SOL    HW1 7772   2.150   2.447   1.089
 2291SOL    HW2 7773   2.175   2.378   0.943
 2292SOL     OW 7774   4.111   1.913   2.932
 2292SOL    HW1 7775   4.142   1.914   2.837
 2292SOL    HW2 7776   4.076   2.004   2.956
 2293SOL     OW 7777   5.702   1.434   0.200
 2293SOL    HW1 7778   5.756   1.515   0.225
 2293SOL    HW2 7779   5.690   1.376   0.280
 2294SOL     OW 7780   0.671   2.505   6.133
 2294SOL    HW1 7781   0.669   2.437   6.206
 2294SOL    HW2 7782   0.764   2.542   6.124
 2295SOL     OW 7783   6.711   6.838   1.768
 2295SOL    HW1 7784   6.656   6.807   1.691
 2295SOL    HW2 7785   6.708   6.770   1.841
 2296SOL     OW 7786   2.641   5.480   3.509
 2296SOL    HW1 7787   2.695   5.396   3.518
 2296SOL    HW2 7788   2.550   5.458   3.472
 2297SOL     OW 7789   4.543   4.706   5.722
 2297SOL    HW1 7790   4.454   4.675   5.688
 2297SOL    HW2 7791   4.603   4.627   5.734
 2298SOL     OW 7792   3.730   3.296   4.927
 2298SOL    HW1 7793   3.662   3.271   4.995
 2298SOL    HW2 7794   3.806   3.231   4.929
 2299SOL     OW 7795   5.332   3.021   4.885
 2299SOL    HW1 7796   5.416   2.969   4.873
 2299SOL    HW2 7797   5.268   3.000   4.811
 2300SOL     OW 7798   4.460   6.441   2.804
 2300SOL    HW1 7799   4.444   6.480   2.895
 2300SOL    HW2 7800   4.477   6.515   2.739
 2301SOL     OW 7801   3.562   3.470   4.701
 2301SOL    HW1 7802   3.568   3.563   4.663
 2301SOL    HW2 7803   3.650   3.424   4.690
 2302SOL     OW 7804   5.087   2.071   0.216
 2302SOL    HW1 7805   5.109   2.145   0.280
 2302SOL    HW2 7806   4.993   2.040   0.231
 2303SOL     OW 7807   2.506   2.074   0.767
 2303SOL    HW1 7808   2.587   2.020   0.746
 2303SOL    HW2 7809   2.531   2.170   0.777
 2304SOL     OW 7810   6.255   5.858   2.162
 2304SOL    HW1 7811   6.352   5.833   2.158
 2304SOL    HW2 7812   6.244   5.939   2.219
 2305SOL     OW 7813   1.507   1.074   5.166
 2305SOL    HW1 7814   1.479   0.991   5.214
 2305SOL    HW2 7815   1.604   1.069   5.144
 2306SOL     OW 7816   2.598   4.852   3.735
 2306SOL    HW1 7817   2.515   4.882   3.783
 2306SOL    HW2 7818   2.665   4.818   3.801
 2307SOL     OW 7819   0.819   2.580   5.335
 2307SOL    HW1 7820   0.818   2.675   5.365
 2307SOL    HW2 7821   0.854   2.522   5.409
 2308SOL     OW 7822   2.602   4.521   1.816
 2308SOL    HW1 7823   2.598   4.621   1.819
 2308SOL    HW2 7824   2.696   4.491   1.827
 2309SOL     OW 7825   1.272   6.851   4.302
 2309SOL    HW1 7826   1.321   6.821   4.384
 2309SOL    HW2 7827   1.256   6.773   4.243
 2310SOL     OW 7828   4.590   6.560   1.385
 2310SOL    HW1 7829   4.571   6.604   1.472
 2310SOL    HW2 7830   4.544   6.610   1.311
 2311SOL     OW 7831   2.540   6.050   1.429
 2311SOL    HW1 7832   2.587   5.964   1.407
 2311SOL    HW2 7833   2.544   6.111   1.351
 2312SOL     OW 7834   3.580   5.156   2.895
 2312SOL    HW1 7835   3.609   5.171   2.800
 2312SOL    HW2 7836   3.504   5.092   2.898
 2313SOL     OW 7837   5.608   4.950   1.948
 2313SOL    HW1 7838   5.539   5.010   1.988
 2313SOL    HW2 7839   5.593   4.943   1.849
 2314SOL     OW 7840   3.006   6.010   3.619
 2314SOL    HW1 7841   3.078   5.979   3.556
 2314SOL    HW2 7842   3.038   6.090   3.669
 2315SOL     OW 7843   4.580   3.340   6.328
 2315SOL    HW1 7844   4.592   3.338   6.229
 2315SOL    HW2 7845   4.669   3.346   6.373
 2316SOL     OW 7846   5.513   2.745   3.098
 2316SOL    HW1 7847   5.496   2.736   3.000
 2316SOL    HW2 7848   5.437   2.705   3.149
 2317SOL     OW 7849   1.824   4.650   3.315
 2317SOL    HW1 7850   1.769   4.592   3.374
 2317SOL    HW2 7851   1.887   4.593   3.261
 2318SOL     OW 7852   6.967   0.675   3.524
 2318SOL    HW1 7853   0.018   0.685   3.456
 2318SOL    HW2 7854   7.007   0.676   3.616
 2319SOL     OW 7855   1.644   4.613   4.290
 2319SOL    HW1 7856   1.685   4.560   4.364
 2319SOL    HW2 7857   1.597   4.551   4.227
 2320SOL     OW 7858   6.916   2.888   3.899
 2320SOL    HW1 7859   6.866   2.955   3.844
 2320SOL    HW2 7860   6.989   2.934   3.950
 2321SOL     OW 7861   2.898   6.997   5.329
 2321SOL    HW1 7862   2.956   0.057   5.328
 2321SOL    HW2 7863   2.904   6.951   5.240
 2322SOL     OW 7864   1.434   0.746   4.930
 2322SOL    HW1 7865   1.384   0.733   5.016
 2322SOL    HW2 7866   1.446   0.658   4.885
 2323SOL     OW 7867   4.411   5.807   2.133
 2323SOL    HW1 7868   4.340   5.867   2.097
 2323SOL    HW2 7869   4.485   5.799   2.066
 2324SOL     OW 7870   0.287   5.269   2.944
 2324SOL    HW1 7871   0.253   5.221   3.025
 2324SOL    HW2 7872   0.324   5.202   2.879
 2325SOL     OW 7873   0.656   3.631   0.999
 2325SOL    HW1 7874   0.613   3.711   0.957
 2325SOL    HW2 7875   0.700   3.657   1.085
 2326SOL     OW 7876   0.725   5.222   6.972
 2326SOL    HW1 7877   0.793   5.175   0.006
 2326SOL    HW2 7878   0.769   5.298   6.923
 2327SOL     OW 7879   5.134   2.805   3.850
 2327SOL    HW1 7880   5.097   2.807   3.943
 2327SOL    HW2 7881   5.066   2.837   3.785
 2328SOL     OW 7882   4.216   0.906   3.055
 2328SOL    HW1 7883   4.120   0.879   3.053
 2328SOL    HW2 7884   4.230   0.985   2.995
 2329SOL     OW 7885   1.250   5.792   3.803
 2329SOL    HW1 7886   1.325   5.765   3.743
 2329SOL    HW2 7887   1.276   5.873   3.855
 2330SOL     OW 7888   0.998   4.368   2.753
 2330SOL    HW1 7889   1.077   4.309   2.770
 2330SOL    HW2 7890   0.978   4.370   2.656
 2331SOL     OW 7891   0.420   4.703   5.422
 2331SOL    HW1 7892   0.408   4.687   5.324
 2331SOL    HW2 7893   0.395   4.798   5.443
 2332SOL     OW 7894   5.331   2.635   6.067
 2332SOL    HW1 7895   5.408   2.693   6.041
 2332SOL    HW2 7896   5.333   2.552   6.011
 2333SOL     OW 7897   1.160   5.649   3.373
 2333SOL    HW1 7898   1.136   5.605   3.286
 2333SOL    HW2 7899   1.147   5.748   3.366
 2334SOL     OW 7900   3.426   0.075   6.827
 2334SOL    HW1 7901   3.447   0.006   6.896
 2334SOL    HW2 7902   3.334   0.111   6.842
 2335SOL     OW 7903   4.964   0.021   3.505
 2335SOL    HW1 7904   4.989   6.948   3.482
 2335SOL    HW2 7905   5.046   0.073   3.528
 2336SOL     OW 7906   4.901   1.315   6.029
 2336SOL    HW1 7907   4.887   1.270   5.941
 2336SOL    HW2 7908   4.972   1.385   6.020
 2337SOL     OW 7909   5.331   0.080   2.979
 2337SOL    HW1 7910   5.371   0.083   3.071
 2337SOL    HW2 7911   5.313   7.006   2.954
 2338SOL     OW 7912   0.751   6.770   6.347
 2338SOL    HW1 7913   0.844   6.772   6.310
 2338SOL    HW2 7914   0.730   6.859   6.389
 2339SOL     OW 7915   3.523   4.578   6.840
 2339SOL    HW1 7916   3.617   4.571   6.871
 2339SOL    HW2 7917   3.496   4.494   6.793
 2340SOL     OW 7918   3.881   5.596   4.890
 2340SOL    HW1 7919   3.876   5.618   4.987
 2340SOL    HW2 7920   3.939   5.663   4.843
 2341SOL     OW 7921   5.400   5.410   0.985
 2341SOL    HW1 7922   5.320   5.466   1.009
 2341SOL    HW2 7923   5.481   5.468   0.979
 2342SOL     OW 7924   6.271   0.281   5.350
 2342SOL    HW1 7925   6.358   0.284   5.399
 2342SOL    HW2 7926   6.272   0.204   5.286
 2343SOL     OW 7927   1.371   5.732   1.007
 2343SOL    HW1 7928   1.348   5.781   0.923
 2343SOL    HW2 7929   1.289   5.687   1.043
 2344SOL     OW 7930   1.498   2.126   2.204
 2344SOL    HW1 7931   1.425   2.057   2.203
 2344SOL    HW2 7932   1.462   2.212   2.168
 2345SOL     OW 7933   2.097   0.854   4.544
 2345SOL    HW1 7934   2.039   0.780   4.580
 2345SOL    HW2 7935   2.092   0.855   4.444
 2346SOL     OW 7936   5.260   3.838   5.920
 2346SOL    HW1 7937   5.236   3.786   6.002
 2346SOL    HW2 7938   5.297   3.927   5.947
 2347SOL     OW 7939   1.384   2.639   1.396
 2347SOL    HW1 7940   1.289   2.665   1.374
 2347SOL    HW2 7941   1.388   2.541   1.413
 2348SOL     OW 7942   2.597   6.744   2.322
 2348SOL    HW1 7943   2.539   6.747   2.403
 2348SOL    HW2 7944   2.541   6.763   2.241
 2349SOL     OW 7945   5.998   6.531   5.732
 2349SOL    HW1 7946   6.053   6.593   5.676
 2349SOL    HW2 7947   6.058   6.481   5.795
 2350SOL     OW 7948   2.894   0.260   5.501
 2350SOL    HW1 7949   2.819   0.313   5.461
 2350SOL    HW2 7950   2.884   0.258   5.600
 2351SOL     OW 7951   2.586   5.550   4.112
 2351SOL    HW1 7952   2.634   5.520   4.194
 2351SOL    HW2 7953   2.646   5.538   4.032
 2352SOL     OW 7954   0.842   3.901   2.873
 2352SOL    HW1 7955   0.868   3.992   2.840
 2352SOL    HW2 7956   0.924   3.852   2.904
 2353SOL     OW 7957   3.084   4.532   5.615
 2353SOL    HW1 7958   2.990   4.519   5.645
 2353SOL    HW2 7959   3.085   4.567   5.522
 2354SOL     OW 7960   3.213   2.216   0.914
 2354SOL    HW1 7961   3.145   2.290   0.912
 2354SOL    HW2 7962   3.300   2.251   0.947
 2355SOL     OW 7963   0.393   6.301   0.847
 2355SOL    HW1 7964   0.362   6.281   0.754
 2355SOL    HW2 7965   0.339   6.248   0.912
 2356SOL     OW 7966   2.827   5.341   3.215
 2356SOL    HW1 7967   2.891   5.418   3.218
 2356SOL    HW2 7968   2.830   5.291   3.301
 2357SOL     OW 7969   6.438   4.231   2.049
 2357SOL    HW1 7970   6.434   4.209   1.952
 2357SOL    HW2 7971   6.527   4.204   2.086
 2358SOL     OW 7972   3.763   1.235   5.703
 2358SOL    HW1 7973   3.763   1.146   5.659
 2358SOL    HW2 7974   3.670   1.257   5.734
 2359SOL     OW 7975   1.427   1.351   5.125
 2359SOL    HW1 7976   1.457   1.267   5.171
 2359SOL    HW2 7977   1.427   1.337   5.026
 2360SOL     OW 7978   4.163   4.833   0.753
 2360SOL    HW1 7979   4.137   4.917   0.802
 2360SOL    HW2 7980   4.254   4.805   0.782
 2361SOL     OW 7981   3.053   6.692   1.752
 2361SOL    HW1 7982   2.978   6.727   1.807
 2361SOL    HW2 7983   3.134   6.749   1.766
 2362SOL     OW 7984   4.147   5.673   4.175
 2362SOL    HW1 7985   4.214   5.615   4.222
 2362SOL    HW2 7986   4.167   5.673   4.077
 2363SOL     OW 7987   3.290   3.409   0.718
 2363SOL    HW1 7988   3.235   3.327   0.702
 2363SOL    HW2 7989   3.233   3.490   0.708
 2364SOL     OW 7990   4.227   1.746   2.112
 2364SOL    HW1 7991   4.273   1.658   2.124
 2364SOL    HW2 7992   4.145   1.734   2.056
 2365SOL     OW 7993   5.909   3.579   4.252
 2365SOL    HW1 7994   5.887   3.659   4.309
 2365SOL    HW2 7995   5.871   3.592   4.161
 2366SOL     OW 7996   2.394   4.189   5.550
 2366SOL    HW1 7997   2.465   4.141   5.602
 2366SOL    HW2 7998   2.331   4.122   5.510
 2367SOL     OW 7999   0.739   4.411   5.996
 2367SOL    HW1 8000   0.748   4.340   5.926
 2367SOL    HW2 8001   0.769   4.374   6.084
 2368SOL     OW 8002   5.689   0.002   4.471
 2368SOL    HW1 8003   5.705   0.091   4.430
 2368SOL    HW2 8004   5.655   0.014   4.565
 2369SOL     OW 8005   3.092   1.342   3.237
 2369SOL    HW1 8006   2.999   1.322   3.268
 2369SOL    HW2 8007   3.120   1.433   3.270
 2370SOL     OW 8008   5.722   2.551   1.149
 2370SOL    HW1 8009   5.708   2.478   1.082
 2370SOL    HW2 8010   5.713   2.640   1.103
 2371SOL     OW 8011   0.638   6.832   2.663
 2371SOL    HW1 8012   0.571   6.769   2.623
 2371SOL    HW2 8013   0.709   6.853   2.596
 2372SOL     OW 8014   6.681   1.671   5.871
 2372SOL    HW1 8015   6.646   1.657   5.778
 2372SOL    HW2 8016   6.609   1.649   5.936
 2373SOL     OW 8017   6.274   6.538   6.186
 2373SOL    HW1 8018   6.318   6.449   6.176
 2373SOL    HW2 8019   6.321   6.591   6.256
 2374SOL     OW 8020   6.525   6.090   2.561
 2374SOL    HW1 8021   6.518   5.990   2.566
 2374SOL    HW2 8022   6.519   6.120   2.466
 2375SOL     OW 8023   1.371   0.917   3.972
 2375SOL    HW1 8024   1.396   0.903   3.876
 2375SOL    HW2 8025   1.404   0.840   4.027
 2376SOL     OW 8026   5.679   1.999   2.643
 2376SOL    HW1 8027   5.762   2.055   2.645
 2376SOL    HW2 8028   5.628   2.017   2.559
 2377SOL     OW 8029   4.440   4.878   6.107
 2377SOL    HW1 8030   4.521   4.875   6.166
 2377SOL    HW2 8031   4.443   4.961   6.051
 2378SOL     OW 8032   0.041   1.464   0.411
 2378SOL    HW1 8033   7.017   1.505   0.490
 2378SOL    HW2 8034   0.134   1.499   0.405
 2379SOL     OW 8035   6.753   5.493   1.025
 2379SOL    HW1 8036   6.803   5.532   0.947
 2379SOL    HW2 8037   6.693   5.421   0.992
 2380SOL     OW 8038   4.953   4.401   5.067
 2380SOL    HW1 8039   4.944   4.307   5.034
 2380SOL    HW2 8040   4.970   4.462   4.989
 2381SOL     OW 8041   3.042   5.209   5.263
 2381SOL    HW1 8042   2.961   5.173   5.216
 2381SOL    HW2 8043   3.113   5.138   5.266
 2382SOL     OW 8044   1.435   6.186   2.130
 2382SOL    HW1 8045   1.379   6.268   2.140
 2382SOL    HW2 8046   1.522   6.211   2.086
 2383SOL     OW 8047   5.106   5.877   4.858
 2383SOL    HW1 8048   5.031   5.841   4.913
 2383SOL    HW2 8049   5.145   5.958   4.904
 2384SOL     OW 8050   0.913   1.604   1.441
 2384SOL    HW1 8051   0.938   1.516   1.480
 2384SOL    HW2 8052   0.917   1.675   1.511
 2385SOL     OW 8053   0.574   1.920   0.529
 2385SOL    HW1 8054   0.660   1.970   0.536
 2385SOL    HW2 8055   0.516   1.940   0.608
 2386SOL     OW 8056   4.514   5.776   3.981
 2386SOL    HW1 8057   4.581   5.726   3.926
 2386SOL    HW2 8058   4.539   5.873   3.984
 2387SOL     OW 8059   1.205   1.594   3.002
 2387SOL    HW1 8060   1.201   1.661   2.929
 2387SOL    HW2 8061   1.300   1.573   3.024
 2388SOL     OW 8062   6.794   2.165   6.095
 2388SOL    HW1 8063   6.885   2.171   6.134
 2388SOL    HW2 8064   6.762   2.070   6.099
 2389SOL     OW 8065   5.200   4.857   3.609
 2389SOL    HW1 8066   5.295   4.829   3.598
 2389SOL    HW2 8067   5.141   4.778   3.597
 2390SOL     OW 8068   4.909   4.010   6.116
 2390SOL    HW1 8069   4.894   3.953   6.197
 2390SOL    HW2 8070   4.924   3.952   6.036
 2391SOL     OW 8071   3.493   3.292   6.199
 2391SOL    HW1 8072   3.400   3.305   6.234
 2391SOL    HW2 8073   3.558   3.335   6.262
 2392SOL     OW 8074   3.469   5.785   4.929
 2392SOL    HW1 8075   3.380   5.741   4.915
 2392SOL    HW2 8076   3.540   5.732   4.884
 2393SOL     OW 8077   3.428   5.098   0.979
 2393SOL    HW1 8078   3.468   5.018   0.934
 2393SOL    HW2 8079   3.501   5.163   1.001
 2394SOL     OW 8080   0.656   3.206   3.403
 2394SOL    HW1 8081   0.608   3.257   3.474
 2394SOL    HW2 8082   0.751   3.192   3.430
 2395SOL     OW 8083   0.532   2.939   5.771
 2395SOL    HW1 8084   0.571   3.016   5.821
 2395SOL    HW2 8085   0.432   2.944   5.776
 2396SOL     OW 8086   6.118   1.177   5.439
 2396SOL    HW1 8087   6.112   1.125   5.353
 2396SOL    HW2 8088   6.061   1.259   5.431
 2397SOL     OW 8089   0.734   4.699   5.188
 2397SOL    HW1 8090   0.778   4.746   5.111
 2397SOL    HW2 8091   0.759   4.745   5.273
 2398SOL     OW 8092   2.929   5.427   4.200
 2398SOL    HW1 8093   2.867   5.377   4.261
 2398SOL    HW2 8094   2.934   5.522   4.229
 2399SOL     OW 8095   2.810   2.314   3.499
 2399SOL    HW1 8096   2.713   2.336   3.509
 2399SOL    HW2 8097   2.825   2.219   3.527
 2400SOL     OW 8098   1.201   3.883   0.060
 2400SOL    HW1 8099   1.113   3.925   0.036
 2400SOL    HW2 8100   1.185   3.792   0.097
 2401SOL     OW 8101   4.166   6.918   5.379
 2401SOL    HW1 8102   4.115   6.995   5.416
 2401SOL    HW2 8103   4.246   6.951   5.329
 2402SOL     OW 8104   1.078   1.926   2.002
 2402SOL    HW1 8105   1.013   1.864   1.957
 2402SOL    HW2 8106   1.151   1.949   1.938
 2403SOL     OW 8107   3.747   3.676   2.425
 2403SOL    HW1 8108   3.761   3.606   2.356
 2403SOL    HW2 8109   3.835   3.715   2.451
 2404SOL     OW 8110   6.767   1.303   0.807
 2404SOL    HW1 8111   6.758   1.206   0.830
 2404SOL    HW2 8112   6.676   1.345   0.807
 2405SOL     OW 8113   2.789   4.098   0.470
 2405SOL    HW1 8114   2.754   4.171   0.412
 2405SOL    HW2 8115   2.882   4.074   0.440
 2406SOL     OW 8116   2.124   0.214   4.884
 2406SOL    HW1 8117   2.202   0.182   4.830
 2406SOL    HW2 8118   2.089   0.140   4.940
 2407SOL     OW 8119   3.910   1.405   3.491
 2407SOL    HW1 8120   3.830   1.375   3.543
 2407SOL    HW2 8121   3.971   1.457   3.551
 2408SOL     OW 8122   2.490   6.546   3.850
 2408SOL    HW1 8123   2.514   6.619   3.914
 2408SOL    HW2 8124   2.396   6.558   3.819
 2409SOL     OW 8125   2.138   2.675   0.492
 2409SOL    HW1 8126   2.174   2.584   0.474
 2409SOL    HW2 8127   2.109   2.717   0.406
 2410SOL     OW 8128   6.830   3.439   5.626
 2410SOL    HW1 8129   6.843   3.403   5.534
 2410SOL    HW2 8130   6.750   3.499   5.628
 2411SOL     OW 8131   2.527   3.346   0.286
 2411SOL    HW1 8132   2.431   3.354   0.313
 2411SOL    HW2 8133   2.533   3.323   0.189
 2412SOL     OW 8134   2.643   1.977   6.453
 2412SOL    HW1 8135   2.683   1.911   6.516
 2412SOL    HW2 8136   2.693   1.974   6.366
 2413SOL     OW 8137   0.095   2.653   6.318
 2413SOL    HW1 8138   0.078   2.593   6.397
 2413SOL    HW2 8139   0.084   2.748   6.346
 2414SOL     OW 8140   6.223   2.291   4.312
 2414SOL    HW1 8141   6.253   2.377   4.353
 2414SOL    HW2 8142   6.183   2.310   4.222
 2415SOL     OW 8143   2.877   6.136   1.466
 2415SOL    HW1 8144   2.852   6.232   1.455
 2415SOL    HW2 8145   2.825   6.096   1.542
 2416SOL     OW 8146   6.823   3.089   3.098
 2416SOL    HW1 8147   6.750   3.023   3.078
 2416SOL    HW2 8148   6.793   3.180   3.072
 2417SOL     OW 8149   3.957   2.670   0.426
 2417SOL    HW1 8150   3.900   2.641   0.349
 2417SOL    HW2 8151   3.970   2.593   0.488
 2418SOL     OW 8152   4.938   4.038   5.613
 2418SOL    HW1 8153   4.839   4.045   5.606
 2418SOL    HW2 8154   4.980   4.087   5.537
 2419SOL     OW 8155   1.915   6.385   4.300
 2419SOL    HW1 8156   1.819   6.366   4.279
 2419SOL    HW2 8157   1.953   6.311   4.355
 2420SOL     OW 8158   2.929   5.167   2.610
 2420SOL    HW1 8159   2.829   5.162   2.611
 2420SOL    HW2 8160   2.966   5.097   2.671
 2421SOL     OW 8161   3.242   6.867   4.616
 2421SOL    HW1 8162   3.265   6.807   4.693
 2421SOL    HW2 8163   3.204   6.812   4.541
 2422SOL     OW 8164   4.149   6.429   2.304
 2422SOL    HW1 8165   4.099   6.438   2.390
 2422SOL    HW2 8166   4.124   6.504   2.243
 2423SOL     OW 8167   1.807   5.406   2.447
 2423SOL    HW1 8168   1.770   5.364   2.364
 2423SOL    HW2 8169   1.907   5.407   2.442
 2424SOL     OW 8170   5.319   0.921   6.528
 2424SOL    HW1 8171   5.232   0.876   6.549
 2424SOL    HW2 8172   5.380   0.913   6.607
 2425SOL     OW 8173   4.517   5.421   5.751
 2425SOL    HW1 8174   4.562   5.430   5.662
 2425SOL    HW2 8175   4.522   5.508   5.799
 2426SOL     OW 8176   1.225   5.183   5.361
 2426SOL    HW1 8177   1.200   5.087   5.370
 2426SOL    HW2 8178   1.161   5.239   5.412
 2427SOL     OW 8179   5.395   0.319   6.317
 2427SOL    HW1 8180   5.332   0.365   6.380
 2427SOL    HW2 8181   5.351   0.238   6.280
 2428SOL     OW 8182   0.092   1.193   3.433
 2428SOL    HW1 8183   0.135   1.165   3.518
 2428SOL    HW2 8184   0.064   1.289   3.439
 2429SOL     OW 8185   5.682   5.797   1.818
 2429SOL    HW1 8186   5.662   5.816   1.722
 2429SOL    HW2 8187   5.596   5.785   1.868
 2430SOL     OW 8188   5.985   3.081   0.411
 2430SOL    HW1 8189   6.054   3.154   0.416
 2430SOL    HW2 8190   5.898   3.115   0.446
 2431SOL     OW 8191   6.284   1.985   1.129
 2431SOL    HW1 8192   6.328   1.998   1.040
 2431SOL    HW2 8193   6.329   2.043   1.197
 2432SOL     OW 8194   3.607   5.676   2.417
 2432SOL    HW1 8195   3.638   5.718   2.332
 2432SOL    HW2 8196   3.620   5.740   2.493
 2433SOL     OW 8197   6.835   5.555   0.074
 2433SOL    HW1 8198   6.740   5.525   0.069
 2433SOL    HW2 8199   6.871   5.536   0.166
 2434SOL     OW 8200   3.921   2.165   2.747
 2434SOL    HW1 8201   3.988   2.146   2.675
 2434SOL    HW2 8202   3.851   2.094   2.746
 2435SOL     OW 8203   5.737   0.171   6.600
 2435SOL    HW1 8204   5.657   0.181   6.659
 2435SOL    HW2 8205   5.711   0.187   6.505
 2436SOL     OW 8206   0.806   1.183   1.050
 2436SOL    HW1 8207   0.893   1.209   1.008
 2436SOL    HW2 8208   0.792   1.236   1.134
 2437SOL     OW 8209   6.920   5.842   2.220
 2437SOL    HW1 8210   6.934   5.920   2.160
 2437SOL    HW2 8211   6.972   5.855   2.305
 2438SOL     OW 8212   3.291   1.599   4.571
 2438SOL    HW1 8213   3.327   1.560   4.486
 2438SOL    HW2 8214   3.192   1.583   4.575
 2439SOL     OW 8215   0.414   4.970   6.734
 2439SOL    HW1 8216   0.399   4.926   6.822
 2439SOL    HW2 8217   0.371   4.916   6.661
 2440SOL     OW 8218   4.237   1.228   4.632
 2440SOL    HW1 8219   4.163   1.174   4.593
 2440SOL    HW2 8220   4.201   1.314   4.667
 2441SOL     OW 8221   6.162   6.979   6.632
 2441SOL    HW1 8222   6.189   0.030   6.568
 2441SOL    HW2 8223   6.063   6.972   6.634
 2442SOL     OW 8224   5.089   3.488   1.867
 2442SOL    HW1 8225   5.033   3.407   1.848
 2442SOL    HW2 8226   5.032   3.559   1.907
 2443SOL     OW 8227   2.153   1.114   6.853
 2443SOL    HW1 8228   2.122   1.155   6.939
 2443SOL    HW2 8229   2.249   1.136   6.839
 2444SOL     OW 8230   3.674   5.513   0.667
 2444SOL    HW1 8231   3.583   5.476   0.687
 2444SOL    HW2 8232   3.685   5.521   0.568
 2445SOL     OW 8233   0.303   2.195   1.129
 2445SOL    HW1 8234   0.250   2.194   1.214
 2445SOL    HW2 8235   0.329   2.289   1.108
 2446SOL     OW 8236   1.442   3.796   2.244
 2446SOL    HW1 8237   1.410   3.861   2.313
 2446SOL    HW2 8238   1.372   3.784   2.175
 2447SOL     OW 8239   2.106   0.718   0.591
 2447SOL    HW1 8240   2.160   0.668   0.523
 2447SOL    HW2 8241   2.010   0.689   0.584
 2448SOL     OW 8242   6.028   2.042   4.315
 2448SOL    HW1 8243   6.072   2.130   4.335
 2448SOL    HW2 8244   6.081   1.993   4.246
 2449SOL     OW 8245   2.079   4.412   2.138
 2449SOL    HW1 8246   2.000   4.441   2.191
 2449SOL    HW2 8247   2.086   4.467   2.055
 2450SOL     OW 8248   2.075   5.758   6.319
 2450SOL    HW1 8249   2.066   5.774   6.220
 2450SOL    HW2 8250   2.154   5.699   6.336
 2451SOL     OW 8251   0.518   0.403   3.966
 2451SOL    HW1 8252   0.584   0.395   3.890
 2451SOL    HW2 8253   0.463   0.319   3.970
 2452SOL     OW 8254   2.539   2.339   3.489
 2452SOL    HW1 8255   2.507   2.431   3.470
 2452SOL    HW2 8256   2.461   2.278   3.505
 2453SOL     OW 8257   6.959   2.149   0.460
 2453SOL    HW1 8258   6.969   2.175   0.364
 2453SOL    HW2 8259   6.944   2.050   0.466
 2454SOL     OW 8260   3.293   5.574   0.816
 2454SOL    HW1 8261   3.315   5.477   0.818
 2454SOL    HW2 8262   3.320   5.616   0.903
 2455SOL     OW 8263   3.358   1.153   0.116
 2455SOL    HW1 8264   3.356   1.147   0.216
 2455SOL    HW2 8265   3.370   1.248   0.088
 2456SOL     OW 8266   1.061   3.992   6.727
 2456SOL    HW1 8267   1.022   4.066   6.784
 2456SOL    HW2 8268   1.160   4.001   6.725
 2457SOL     OW 8269   5.347   1.428   5.668
 2457SOL    HW1 8270   5.376   1.493   5.739
 2457SOL    HW2 8271   5.265   1.381   5.698
 2458SOL     OW 8272   0.761   0.596   3.071
 2458SOL    HW1 8273   0.752   0.639   3.160
 2458SOL    HW2 8274   0.755   0.666   2.999
 2459SOL     OW 8275   2.894   5.481   0.002
 2459SOL    HW1 8276   2.840   5.514   0.080
 2459SOL    HW2 8277   2.940   5.396   0.027
 2460SOL     OW 8278   0.891   1.300   6.741
 2460SOL    HW1 8279   0.910   1.373   6.676
 2460SOL    HW2 8280   0.803   1.258   6.719
 2461SOL     OW 8281   4.243   0.360   4.694
 2461SOL    HW1 8282   4.161   0.316   4.729
 2461SOL    HW2 8283   4.217   0.435   4.632
 2462SOL     OW 8284   0.628   4.724   0.656
 2462SOL    HW1 8285   0.635   4.705   0.754
 2462SOL    HW2 8286   0.715   4.704   0.612
 2463SOL     OW 8287   6.944   1.448   0.169
 2463SOL    HW1 8288   6.985   1.447   0.261
 2463SOL    HW2 8289   6.844   1.438   0.177
 2464SOL     OW 8290   0.572   2.838   2.877
 2464SOL    HW1 8291   0.548   2.895   2.955
 2464SOL    HW2 8292   0.568   2.892   2.793
 2465SOL     OW 8293   6.736   5.561   6.498
 2465SOL    HW1 8294   6.691   5.569   6.409
 2465SOL    HW2 8295   6.774   5.470   6.508
 2466SOL     OW 8296   1.441   1.799   1.876
 2466SOL    HW1 8297   1.460   1.740   1.798
 2466SOL    HW2 8298   1.431   1.743   1.958
 2467SOL     OW 8299   4.340   1.856   6.146
 2467SOL    HW1 8300   4.435   1.827   6.162
 2467SOL    HW2 8301   4.284   1.777   6.123
 2468SOL     OW 8302   3.710   0.447   6.705
 2468SOL    HW1 8303   3.754   0.499   6.778
 2468SOL    HW2 8304   3.667   0.366   6.743
 2469SOL     OW 8305   4.381   2.779   5.748
 2469SOL    HW1 8306   4.478   2.792   5.725
 2469SOL    HW2 8307   4.369   2.783   5.847
 2470SOL     OW 8308   4.044   4.408   6.054
 2470SOL    HW1 8309   4.010   4.466   5.980
 2470SOL    HW2 8310   4.035   4.457   6.141
 2471SOL     OW 8311   3.894   6.848   0.902
 2471SOL    HW1 8312   3.971   6.900   0.939
 2471SOL    HW2 8313   3.903   6.752   0.928
 2472SOL     OW 8314   4.563   2.582   4.066
 2472SOL    HW1 8315   4.636   2.578   3.998
 2472SOL    HW2 8316   4.491   2.517   4.042
 2473SOL     OW 8317   1.504   4.291   4.786
 2473SOL    HW1 8318   1.536   4.268   4.878
 2473SOL    HW2 8319   1.429   4.230   4.760
 2474SOL     OW 8320   1.339   5.553   0.499
 2474SOL    HW1 8321   1.311   5.493   0.574
 2474SOL    HW2 8322   1.439   5.550   0.489
 2475SOL     OW 8323   4.673   0.862   0.556
 2475SOL    HW1 8324   4.586   0.912   0.548
 2475SOL    HW2 8325   4.678   0.792   0.485
 2476SOL     OW 8326   5.410   0.538   2.753
 2476SOL    HW1 8327   5.316   0.525   2.784
 2476SOL    HW2 8328   5.419   0.626   2.707
 2477SOL     OW 8329   3.938   0.463   3.467
 2477SOL    HW1 8330   3.847   0.422   3.476
 2477SOL    HW2 8331   4.000   0.422   3.534
 2478SOL     OW 8332   4.529   1.037   2.515
 2478SOL    HW1 8333   4.537   0.939   2.533
 2478SOL    HW2 8334   4.498   1.052   2.421
 2479SOL     OW 8335   1.027   2.718   1.032
 2479SOL    HW1 8336   1.035   2.619   1.037
 2479SOL    HW2 8337   1.025   2.747   0.936
 2480SOL     OW 8338   3.946   2.748   1.300
 2480SOL    HW1 8339   3.885   2.702   1.365
 2480SOL    HW2 8340   3.893   2.806   1.238
 2481SOL     OW 8341   2.625   0.451   1.430
 2481SOL    HW1 8342   2.661   0.460   1.337
 2481SOL    HW2 8343   2.527   0.431   1.426
 2482SOL     OW 8344   5.337   3.376   0.180
 2482SOL    HW1 8345   5.381   3.427   0.107
 2482SOL    HW2 8346   5.323   3.281   0.150
 2483SOL     OW 8347   1.341   1.769   0.118
 2483SOL    HW1 8348   1.307   1.822   0.195
 2483SOL    HW2 8349   1.441   1.770   0.119
 2484SOL     OW 8350   3.321   0.839   0.920
 2484SOL    HW1 8351   3.292   0.855   0.825
 2484SOL    HW2 8352   3.382   0.759   0.923
 2485SOL     OW 8353   5.184   3.061   0.480
 2485SOL    HW1 8354   5.216   3.033   0.571
 2485SOL    HW2 8355   5.176   3.161   0.478
 2486SOL     OW 8356   0.545   5.441   5.565
 2486SOL    HW1 8357   0.508   5.476   5.479
 2486SOL    HW2 8358   0.474   5.444   5.636
 2487SOL     OW 8359   3.751   6.125   0.412
 2487SOL    HW1 8360   3.817   6.189   0.371
 2487SOL    HW2 8361   3.707   6.072   0.339
 2488SOL     OW 8362   0.513   3.328   1.701
 2488SOL    HW1 8363   0.455   3.264   1.751
 2488SOL    HW2 8364   0.570   3.380   1.765
 2489SOL     OW 8365   0.743   5.900   3.621
 2489SOL    HW1 8366   0.713   5.806   3.642
 2489SOL    HW2 8367   0.718   5.922   3.527
 2490SOL     OW 8368   0.599   5.804   1.130
 2490SOL    HW1 8369   0.674   5.838   1.187
 2490SOL    HW2 8370   0.632   5.789   1.037
 2491SOL     OW 8371   3.982   4.479   1.220
 2491SOL    HW1 8372   3.907   4.518   1.275
 2491SOL    HW2 8373   3.944   4.417   1.152
 2492SOL     OW 8374   4.537   3.465   1.211
 2492SOL    HW1 8375   4.488   3.527   1.272
 2492SOL    HW2 8376   4.502   3.475   1.118
 2493SOL     OW 8377   6.736   0.314   1.353
 2493SOL    HW1 8378   6.781   0.391   1.398
 2493SOL    HW2 8379   6.649   0.296   1.398
 2494SOL     OW 8380   6.006   3.851   2.311
 2494SOL    HW1 8381   5.987   3.754   2.326
 2494SOL    HW2 8382   6.105   3.865   2.309
 2495SOL     OW 8383   5.623   5.690   3.500
 2495SOL    HW1 8384   5.717   5.670   3.472
 2495SOL    HW2 8385   5.574   5.734   3.425
 2496SOL     OW 8386   0.583   3.411   6.756
 2496SOL    HW1 8387   0.679   3.426   6.733
 2496SOL    HW2 8388   0.531   3.394   6.672
 2497SOL     OW 8389   0.490   0.047   1.146
 2497SOL    HW1 8390   0.534   6.980   1.161
 2497SOL    HW2 8391   0.494   0.101   1.229
 2498SOL     OW 8392   3.462   2.106   5.747
 2498SOL    HW1 8393   3.530   2.159   5.697
 2498SOL    HW2 8394   3.401   2.060   5.682
 2499SOL     OW 8395   5.690   3.213   2.355
 2499SOL    HW1 8396   5.733   3.290   2.402
 2499SOL    HW2 8397   5.597   3.239   2.327
 2500SOL     OW 8398   4.173   3.740   6.351
 2500SOL    HW1 8399   4.083   3.747   6.308
 2500SOL    HW2 8400   4.165   3.689   6.437
 2501SOL     OW 8401   5.282   5.638   0.339
 2501SOL    HW1 8402   5.207   5.685   0.385
 2501SOL    HW2 8403   5.250   5.553   0.298
 2502SOL     OW 8404   1.976   0.736   5.180
 2502SOL    HW1 8405   2.015   0.803   5.117
 2502SOL    HW2 8406   2.001   0.644   5.150
 2503SOL     OW 8407   3.191   6.738   5.097
 2503SOL    HW1 8408   3.142   6.825   5.107
 2503SOL    HW2 8409   3.160   6.691   5.015
 2504SOL     OW 8410   3.625   5.871   3.193
 2504SOL    HW1 8411   3.633   5.946   3.259
 2504SOL    HW2 8412   3.591   5.906   3.106
 2505SOL     OW 8413   0.432   5.632   2.637
 2505SOL    HW1 8414   0.428   5.544   2.685
 2505SOL    HW2 8415   0.419   5.706   2.703
 2506SOL     OW 8416   6.578   2.890   6.500
 2506SOL    HW1 8417   6.586   2.945   6.583
 2506SOL    HW2 8418   6.510   2.932   6.439
 2507SOL     OW 8419   0.095   3.452   0.137
 2507SOL    HW1 8420   0.185   3.492   0.119
 2507SOL    HW2 8421   0.104   3.352   0.145
 2508SOL     OW 8422   2.693   1.513   4.017
 2508SOL    HW1 8423   2.725   1.600   3.979
 2508SOL    HW2 8424   2.676   1.449   3.942
 2509SOL     OW 8425   7.011   4.875   1.137
 2509SOL    HW1 8426   0.006   4.781   1.108
 2509SOL    HW2 8427   6.913   4.889   1.151
 2510SOL     OW 8428   3.069   4.533   1.138
 2510SOL    HW1 8429   3.022   4.445   1.132
 2510SOL    HW2 8430   3.128   4.535   1.219
 2511SOL     OW 8431   2.897   1.266   4.185
 2511SOL    HW1 8432   2.875   1.213   4.267
 2511SOL    HW2 8433   2.860   1.359   4.195
 2512SOL     OW 8434   4.271   4.035   5.371
 2512SOL    HW1 8435   4.219   4.120   5.358
 2512SOL    HW2 8436   4.247   3.995   5.460
 2513SOL     OW 8437   1.881   5.596   4.671
 2513SOL    HW1 8438   1.944   5.670   4.694
 2513SOL    HW2 8439   1.893   5.570   4.575
 2514SOL     OW 8440   0.527   4.099   4.475
 2514SOL    HW1 8441   0.489   4.055   4.556
 2514SOL    HW2 8442   0.453   4.134   4.418
 2515SOL     OW 8443   1.526   6.314   0.586
 2515SOL    HW1 8444   1.529   6.412   0.570
 2515SOL    HW2 8445   1.459   6.293   0.656
 2516SOL     OW 8446   5.096   1.405   2.411
 2516SOL    HW1 8447   5.022   1.444   2.465
 2516SOL    HW2 8448   5.134   1.475   2.350
 2517SOL     OW 8449   1.398   0.833   6.189
 2517SOL    HW1 8450   1.413   0.814   6.285
 2517SOL    HW2 8451   1.378   0.748   6.140
 2518SOL     OW 8452   1.058   5.384   1.204
 2518SOL    HW1 8453   1.148   5.389   1.160
 2518SOL    HW2 8454   0.988   5.362   1.136
 2519SOL     OW 8455   3.103   0.636   1.708
 2519SOL    HW1 8456   3.033   0.642   1.637
 2519SOL    HW2 8457   3.090   0.711   1.773
 2520SOL     OW 8458   3.283   1.838   0.576
 2520SOL    HW1 8459   3.282   1.808   0.672
 2520SOL    HW2 8460   3.249   1.931   0.571
 2521SOL     OW 8461   3.036   1.157   5.499
 2521SOL    HW1 8462   2.951   1.133   5.451
 2521SOL    HW2 8463   3.051   1.093   5.574
 2522SOL     OW 8464   1.494   1.294   5.399
 2522SOL    HW1 8465   1.474   1.196   5.409
 2522SOL    HW2 8466   1.413   1.340   5.363
 2523SOL     OW 8467   1.021   2.923   0.827
 2523SOL    HW1 8468   0.942   2.983   0.841
 2523SOL    HW2 8469   1.098   2.958   0.881
 2524SOL     OW 8470   6.793   6.508   4.782
 2524SOL    HW1 8471   6.851   6.570   4.729
 2524SOL    HW2 8472   6.788   6.540   4.876
 2525SOL     OW 8473   0.739   2.566   4.938
 2525SOL    HW1 8474   0.772   2.659   4.919
 2525SOL    HW2 8475   0.665   2.570   5.005
 2526SOL     OW 8476   1.542   4.510   6.851
 2526SOL    HW1 8477   1.483   4.564   6.910
 2526SOL    HW2 8478   1.491   4.433   6.813
 2527SOL     OW 8479   5.756   6.609   5.628
 2527SOL    HW1 8480   5.838   6.575   5.674
 2527SOL    HW2 8481   5.782   6.671   5.554
 2528SOL     OW 8482   5.662   4.990   6.350
 2528SOL    HW1 8483   5.616   4.912   6.391
 2528SOL    HW2 8484   5.596   5.064   6.335
 2529SOL     OW 8485   6.901   6.571   6.798
 2529SOL    HW1 8486   6.812   6.574   6.754
 2529SOL    HW2 8487   6.911   6.485   6.848
 2530SOL     OW 8488   2.627   6.182   4.804
 2530SOL    HW1 8489   2.527   6.189   4.807
 2530SOL    HW2 8490   2.668   6.272   4.817
 2531SOL     OW 8491   6.314   6.395   5.151
 2531SOL    HW1 8492   6.398   6.398   5.097
 2531SOL    HW2 8493   6.301   6.302   5.187
 2532SOL     OW 8494   0.004   6.454   0.608
 2532SOL    HW1 8495   0.022   6.547   0.574
 2532SOL    HW2 8496   6.938   6.422   0.573
 2533SOL     OW 8497   4.432   6.797   3.410
 2533SOL    HW1 8498   4.480   6.753   3.486
 2533SOL    HW2 8499   4.343   6.753   3.398
 2534SOL     OW 8500   3.612   1.528   1.794
 2534SOL    HW1 8501   3.661   1.606   1.754
 2534SOL    HW2 8502   3.597   1.544   1.892
 2535SOL     OW 8503   3.582   3.446   6.503
 2535SOL    HW1 8504   3.617   3.530   6.460
 2535SOL    HW2 8505   3.491   3.463   6.540
 2536SOL     OW 8506   0.979   1.441   6.142
 2536SOL    HW1 8507   0.906   1.505   6.167
 2536SOL    HW2 8508   1.067   1.488   6.146
 2537SOL     OW 8509   3.044   0.068   6.315
 2537SOL    HW1 8510   2.976   0.007   6.275
 2537SOL    HW2 8511   3.133   0.050   6.273
 2538SOL     OW 8512   0.437   4.014   3.435
 2538SOL    HW1 8513   0.375   3.963   3.375
 2538SOL    HW2 8514   0.528   3.973   3.430
 2539SOL     OW 8515   5.740   1.023   4.341
 2539SOL    HW1 8516   5.653   0.976   4.358
 2539SOL    HW2 8517   5.796   1.019   4.424
 2540SOL     OW 8518   4.103   2.108   2.554
 2540SOL    HW1 8519   4.033   2.069   2.494
 2540SOL    HW2 8520   4.165   2.035   2.583
 2541SOL     OW 8521   3.254   0.661   5.025
 2541SOL    HW1 8522   3.214   0.749   4.999
 2541SOL    HW2 8523   3.337   0.676   5.078
 2542SOL     OW 8524   3.850   3.007   6.530
 2542SOL    HW1 8525   3.787   3.082   6.508
 2542SOL    HW2 8526   3.862   2.949   6.449
 2543SOL     OW 8527   0.346   0.850   3.630
 2543SOL    HW1 8528   0.316   0.756   3.614
 2543SOL    HW2 8529   0.334   0.873   3.727
 2544SOL     OW 8530   0.278   5.809   0.389
 2544SOL    HW1 8531   0.186   5.771   0.394
 2544SOL    HW2 8532   0.282   5.877   0.315
 2545SOL     OW 8533   1.802   6.717   2.005
 2545SOL    HW1 8534   1.843   6.724   2.096
 2545SOL    HW2 8535   1.859   6.764   1.938
 2546SOL     OW 8536   0.115   1.142   1.778
 2546SOL    HW1 8537   0.075   1.065   1.828
 2546SOL    HW2 8538   0.042   1.197   1.738
 2547SOL     OW 8539   0.624   4.033   6.920
 2547SOL    HW1 8540   0.559   3.985   6.862
 2547SOL    HW2 8541   0.687   4.086   6.862
 2548SOL     OW 8542   1.018   6.670   4.472
 2548SOL    HW1 8543   1.097   6.615   4.500
 2548SOL    HW2 8544   1.020   6.758   4.519
 2549SOL     OW 8545   0.753   0.310   1.175
 2549SOL    HW1 8546   0.735   0.232   1.234
 2549SOL    HW2 8547   0.852   0.320   1.161
 2550SOL     OW 8548   6.550   6.930   0.075
 2550SOL    HW1 8549   6.512   6.857   0.131
 2550SOL    HW2 8550   6.566   7.011   0.131
 2551SOL     OW 8551   3.399   4.563   0.081
 2551SOL    HW1 8552   3.438   4.607   7.021
 2551SOL    HW2 8553   3.301   4.549   0.067
 2552SOL     OW 8554   1.790   5.895   4.336
 2552SOL    HW1 8555   1.845   5.952   4.276
 2552SOL    HW2 8556   1.693   5.917   4.324
 2553SOL     OW 8557   3.825   3.647   5.783
 2553SOL    HW1 8558   3.892   3.645   5.710
 2553SOL    HW2 8559   3.841   3.727   5.841
 2554SOL     OW 8560   2.692   0.470   0.539
 2554SOL    HW1 8561   2.693   0.467   0.439
 2554SOL    HW2 8562   2.691   0.565   0.570
 2555SOL     OW 8563   6.294   0.967   4.955
 2555SOL    HW1 8564   6.391   0.949   4.944
 2555SOL    HW2 8565   6.268   0.952   5.051
 2556SOL     OW 8566   4.531   6.505   0.517
 2556SOL    HW1 8567   4.570   6.425   0.562
 2556SOL    HW2 8568   4.493   6.479   0.429
 2557SOL     OW 8569   1.339   3.913   0.712
 2557SOL    HW1 8570   1.265   3.976   0.737
 2557SOL    HW2 8571   1.312   3.860   0.632
 2558SOL     OW 8572   4.904   1.147   4.588
 2558SOL    HW1 8573   4.991   1.101   4.600
 2558SOL    HW2 8574   4.902   1.230   4.645
 2559SOL     OW 8575   1.083   4.630   5.005
 2559SOL    HW1 8576   1.108   4.534   4.998
 2559SOL    HW2 8577   1.155   4.681   5.052
 2560SOL     OW 8578   5.262   2.392   5.940
 2560SOL    HW1 8579   5.232   2.395   5.845
 2560SOL    HW2 8580   5.347   2.339   5.945
 2561SOL     OW 8581   2.437   5.203   5.131
 2561SOL    HW1 8582   2.470   5.234   5.220
 2561SOL    HW2 8583   2.365   5.134   5.144
 2562SOL     OW 8584   3.005   4.935   1.715
 2562SOL    HW1 8585   2.934   4.871   1.742
 2562SOL    HW2 8586   3.061   4.894   1.643
 2563SOL     OW 8587   3.443   1.605   0.423
 2563SOL    HW1 8588   3.423   1.682   0.483
 2563SOL    HW2 8589   3.393   1.525   0.455
 2564SOL     OW 8590   1.938   5.848   6.907
 2564SOL    HW1 8591   1.985   5.847   6.819
 2564SOL    HW2 8592   2.006   5.851   6.981
 2565SOL     OW 8593   1.443   6.944   6.450
 2565SOL    HW1 8594   1.460   6.991   6.536
 2565SOL    HW2 8595   1.344   6.939   6.434
 2566SOL     OW 8596   2.215   0.061   1.064
 2566SOL    HW1 8597   2.230   0.159   1.075
 2566SOL    HW2 8598   2.124   0.037   1.097
 2567SOL     OW 8599   1.001   0.422   0.626
 2567SOL    HW1 8600   1.077   0.459   0.572
 2567SOL    HW2 8601   0.997   0.468   0.714
 2568SOL     OW 8602   4.566   1.916   6.415
 2568SOL    HW1 8603   4.535   1.881   6.503
 2568SOL    HW2 8604   4.594   1.840   6.357
 2569SOL     OW 8605   2.732   0.375   2.765
 2569SOL    HW1 8606   2.794   0.429   2.821
 2569SOL    HW2 8607   2.733   0.280   2.796
 2570SOL     OW 8608   5.761   0.421   5.887
 2570SOL    HW1 8609   5.734   0.453   5.796
 2570SOL    HW2 8610   5.790   0.499   5.942
 2571SOL     OW 8611   2.214   5.258   4.951
 2571SOL    HW1 8612   2.151   5.231   5.024
 2571SOL    HW2 8613   2.242   5.353   4.964
 2572SOL     OW 8614   2.944   5.642   1.646
 2572SOL    HW1 8615   2.860   5.695   1.662
 2572SOL    HW2 8616   3.022   5.704   1.641
 2573SOL     OW 8617   0.352   1.960   0.980
 2573SOL    HW1 8618   0.289   1.903   1.033
 2573SOL    HW2 8619   0.357   2.051   1.019
 2574SOL     OW 8620   5.606   4.225   0.977
 2574SOL    HW1 8621   5.675   4.294   0.955
 2574SOL    HW2 8622   5.569   4.186   0.892
 2575SOL     OW 8623   5.295   6.297   0.136
 2575SOL    HW1 8624   5.266   6.214   0.183
 2575SOL    HW2 8625   5.393   6.293   0.118
 2576SOL     OW 8626   4.526   6.520   4.336
 2576SOL    HW1 8627   4.614   6.517   4.384
 2576SOL    HW2 8628   4.536   6.477   4.246
 2577SOL     OW 8629   3.771   6.255   2.316
 2577SOL    HW1 8630   3.681   6.299   2.317
 2577SOL    HW2 8631   3.799   6.237   2.221
 2578SOL     OW 8632   4.039   1.621   4.130
 2578SOL    HW1 8633   4.011   1.606   4.224
 2578SOL    HW2 8634   3.959   1.612   4.070
 2579SOL     OW 8635   1.361   6.445   3.643
 2579SOL    HW1 8636   1.265   6.435   3.668
 2579SOL    HW2 8637   1.375   6.536   3.602
 2580SOL     OW 8638   2.431   4.422   6.685
 2580SOL    HW1 8639   2.398   4.495   6.745
 2580SOL    HW2 8640   2.495   4.364   6.736
 2581SOL     OW 8641   2.697   5.090   1.708
 2581SOL    HW1 8642   2.730   5.164   1.650
 2581SOL    HW2 8643   2.767   5.019   1.716
 2582SOL     OW 8644   0.422   4.449   1.739
 2582SOL    HW1 8645   0.455   4.435   1.832
 2582SOL    HW2 8646   0.384   4.541   1.730
 2583SOL     OW 8647   0.617   1.333   6.376
 2583SOL    HW1 8648   0.650   1.420   6.412
 2583SOL    HW2 8649   0.517   1.336   6.368
 2584SOL     OW 8650   4.040   5.649   6.085
 2584SOL    HW1 8651   4.075   5.723   6.027
 2584SOL    HW2 8652   4.042   5.563   6.035
 2585SOL     OW 8653   3.273   3.580   0.441
 2585SOL    HW1 8654   3.349   3.637   0.473
 2585SOL    HW2 8655   3.264   3.500   0.500
 2586SOL     OW 8656   3.221   0.948   5.459
 2586SOL    HW1 8657   3.237   1.019   5.528
 2586SOL    HW2 8658   3.163   0.986   5.386
 2587SOL     OW 8659   5.973   1.040   3.328
 2587SOL    HW1 8660   6.050   1.095   3.362
 2587SOL    HW2 8661   5.902   1.100   3.291
 2588SOL     OW 8662   4.053   2.007   6.007
 2588SOL    HW1 8663   4.105   2.092   5.995
 2588SOL    HW2 8664   4.066   1.973   6.101
 2589SOL     OW 8665   1.547   6.972   5.592
 2589SOL    HW1 8666   1.641   7.007   5.593
 2589SOL    HW2 8667   1.549   6.872   5.600
 2590SOL     OW 8668   3.336   4.935   0.239
 2590SOL    HW1 8669   3.277   4.878   0.182
 2590SOL    HW2 8670   3.428   4.939   0.200
 2591SOL     OW 8671   6.716   4.820   3.284
 2591SOL    HW1 8672   6.792   4.865   3.331
 2591SOL    HW2 8673   6.734   4.818   3.186
 2592SOL     OW 8674   3.048   4.488   6.703
 2592SOL    HW1 8675   2.963   4.533   6.675
 2592SOL    HW2 8676   3.045   4.392   6.675
 2593SOL     OW 8677   3.469   5.811   0.596
 2593SOL    HW1 8678   3.504   5.719   0.614
 2593SOL    HW2 8679   3.399   5.807   0.524
 2594SOL     OW 8680   2.492   3.920   5.836
 2594SOL    HW1 8681   2.569   3.856   5.839
 2594SOL    HW2 8682   2.525   4.012   5.858
 2595SOL     OW 8683   0.109   0.957   4.023
 2595SOL    HW1 8684   0.137   0.960   4.119
 2595SOL    HW2 8685   0.017   0.994   4.014
 2596SOL     OW 8686   2.422   2.405   1.321
 2596SOL    HW1 8687   2.389   2.466   1.248
 2596SOL    HW2 8688   2.372   2.424   1.405
 2597SOL     OW 8689   0.542   5.106   6.211
 2597SOL    HW1 8690   0.513   5.194   6.249
 2597SOL    HW2 8691   0.488   5.032   6.252
 2598SOL     OW 8692   6.815   1.437   1.998
 2598SOL    HW1 8693   6.864   1.354   2.026
 2598SOL    HW2 8694   6.788   1.489   2.079
 2599SOL     OW 8695   1.565   5.899   0.635
 2599SOL    HW1 8696   1.563   5.961   0.556
 2599SOL    HW2 8697   1.660   5.872   0.652
 2600SOL     OW 8698   6.007   2.407   4.759
 2600SOL    HW1 8699   6.026   2.506   4.762
 2600SOL    HW2 8700   5.909   2.392   4.766
 2601SOL     OW 8701   1.634   1.487   0.974
 2601SOL    HW1 8702   1.637   1.438   1.062
 2601SOL    HW2 8703   1.540   1.487   0.939
 2602SOL     OW 8704   1.901   4.971   4.566
 2602SOL    HW1 8705   1.829   4.963   4.636
 2602SOL    HW2 8706   1.884   4.905   4.494
 2603SOL     OW 8707   3.234   1.295   2.852
 2603SOL    HW1 8708   3.262   1.368   2.914
 2603SOL    HW2 8709   3.190   1.222   2.903
 2604SOL     OW 8710   4.833   1.633   2.830
 2604SOL    HW1 8711   4.903   1.678   2.774
 2604SOL    HW2 8712   4.748   1.625   2.778
 2605SOL     OW 8713   1.575   3.157   2.413
 2605SOL    HW1 8714   1.536   3.085   2.356
 2605SOL    HW2 8715   1.630   3.219   2.356
 2606SOL     OW 8716   5.746   5.188   1.671
 2606SOL    HW1 8717   5.834   5.233   1.656
 2606SOL    HW2 8718   5.738   5.110   1.610
 2607SOL     OW 8719   0.344   1.595   1.084
 2607SOL    HW1 8720   0.316   1.512   1.133
 2607SOL    HW2 8721   0.283   1.670   1.108
 2608SOL     OW 8722   3.386   5.539   6.863
 2608SOL    HW1 8723   3.386   5.465   6.796
 2608SOL    HW2 8724   3.399   5.501   6.955
 2609SOL     OW 8725   6.635   1.395   1.754
 2609SOL    HW1 8726   6.727   1.359   1.769
 2609SOL    HW2 8727   6.568   1.321   1.765
 2610SOL     OW 8728   0.985   4.732   4.091
 2610SOL    HW1 8729   0.927   4.663   4.046
 2610SOL    HW2 8730   0.943   4.822   4.080
 2611SOL     OW 8731   4.664   6.453   0.008
 2611SOL    HW1 8732   4.704   6.383   0.067
 2611SOL    HW2 8733   4.594   6.504   0.058
 2612SOL     OW 8734   5.616   6.484   3.915
 2612SOL    HW1 8735   5.552   6.411   3.893
 2612SOL    HW2 8736   5.635   6.538   3.833
 2613SOL     OW 8737   2.279   5.214   6.395
 2613SOL    HW1 8738   2.195   5.234   6.344
 2613SOL    HW2 8739   2.255   5.199   6.491
 2614SOL     OW 8740   5.927   1.183   6.408
 2614SOL    HW1 8741   5.830   1.199   6.428
 2614SOL    HW2 8742   5.935   1.125   6.327
 2615SOL     OW 8743   0.117   2.970   1.590
 2615SOL    HW1 8744   0.082   2.907   1.660
 2615SOL    HW2 8745   0.050   3.041   1.572
 2616SOL     OW 8746   0.961   2.016   5.736
 2616SOL    HW1 8747   0.947   2.097   5.679
 2616SOL    HW2 8748   1.052   1.979   5.719
 2617SOL     OW 8749   5.085   0.833   0.623
 2617SOL    HW1 8750   5.024   0.837   0.544
 2617SOL    HW2 8751   5.076   0.916   0.677
 2618SOL     OW 8752   1.142   6.098   4.618
 2618SOL    HW1 8753   1.161   6.189   4.657
 2618SOL    HW2 8754   1.227   6.057   4.587
 2619SOL     OW 8755   4.036   1.812   1.788
 2619SOL    HW1 8756   3.949   1.815   1.837
 2619SOL    HW2 8757   4.077   1.903   1.788
 2620SOL     OW 8758   6.680   6.626   1.969
 2620SOL    HW1 8759   6.655   6.627   2.066
 2620SOL    HW2 8760   6.634   6.549   1.924
 2621SOL     OW 8761   0.800   4.710   2.414
 2621SOL    HW1 8762   0.750   4.626   2.389
 2621SOL    HW2 8763   0.896   4.688   2.428
 2622SOL     OW 8764   3.589   3.246   5.790
 2622SOL    HW1 8765   3.519   3.193   5.838
 2622SOL    HW2 8766   3.651   3.183   5.742
 2623SOL     OW 8767   0.376   0.197   4.070
 2623SOL    HW1 8768   0.347   0.117   4.121
 2623SOL    HW2 8769   0.306   0.268   4.076
 2624SOL     OW 8770   6.711   2.215   4.440
 2624SOL    HW1 8771   6.748   2.165   4.519
 2624SOL    HW2 8772   6.782   2.223   4.370
 2625SOL     OW 8773   1.752   5.323   5.581
 2625SOL    HW1 8774   1.705   5.236   5.593
 2625SOL    HW2 8775   1.850   5.312   5.597
 2626SOL     OW 8776   6.770   6.886   5.773
 2626SOL    HW1 8777   6.765   6.966   5.832
 2626SOL    HW2 8778   6.746   6.912   5.679
 2627SOL     OW 8779   1.010   0.356   6.447
 2627SOL    HW1 8780   0.915   0.342   6.475
 2627SOL    HW2 8781   1.071   0.332   6.522
 2628SOL     OW 8782   1.795   3.529   4.639
 2628SOL    HW1 8783   1.880   3.496   4.599
 2628SOL    HW2 8784   1.735   3.563   4.566
 2629SOL     OW 8785   3.629   3.722   3.537
 2629SOL    HW1 8786   3.562   3.796   3.539
 2629SOL    HW2 8787   3.594   3.646   3.481
 2630SOL     OW 8788   3.613   0.907   3.916
 2630SOL    HW1 8789   3.683   0.977   3.899
 2630SOL    HW2 8790   3.652   0.835   3.973
 2631SOL     OW 8791   5.949   0.824   6.745
 2631SOL    HW1 8792   5.915   0.733   6.719
 2631SOL    HW2 8793   5.879   0.892   6.724
 2632SOL     OW 8794   5.844   3.923   1.587
 2632SOL    HW1 8795   5.817   3.843   1.641
 2632SOL    HW2 8796   5.777   3.996   1.601
 2633SOL     OW 8797   6.644   2.223   5.114
 2633SOL    HW1 8798   6.685   2.305   5.153
 2633SOL    HW2 8799   6.708   2.182   5.048
 2634SOL     OW 8800   0.672   6.195   4.174
 2634SOL    HW1 8801   0.628   6.188   4.263
 2634SOL    HW2 8802   0.623   6.261   4.117
 2635SOL     OW 8803   6.118   5.166   4.038
 2635SOL    HW1 8804   6.132   5.264   4.053
 2635SOL    HW2 8805   6.066   5.128   4.115
 2636SOL     OW 8806   3.300   1.392   6.523
 2636SOL    HW1 8807   3.324   1.332   6.600
 2636SOL    HW2 8808   3.384   1.432   6.485
 2637SOL     OW 8809   6.920   1.459   3.846
 2637SOL    HW1 8810   6.899   1.515   3.927
 2637SOL    HW2 8811   6.845   1.468   3.780
 2638SOL     OW 8812   0.477   0.256   4.496
 2638SOL    HW1 8813   0.518   0.347   4.501
 2638SOL    HW2 8814   0.407   0.255   4.425
 2639SOL     OW 8815   4.846   5.065   5.508
 2639SOL    HW1 8816   4.846   5.037   5.412
 2639SOL    HW2 8817   4.798   4.996   5.562
 2640SOL     OW 8818   7.017   0.085   5.177
 2640SOL    HW1 8819   0.071   0.091   5.112
 2640SOL    HW2 8820   7.017   7.016   5.219
 2641SOL     OW 8821   4.908   2.467   1.184
 2641SOL    HW1 8822   4.929   2.443   1.279
 2641SOL    HW2 8823   4.985   2.443   1.126
 2642SOL     OW 8824   6.792   0.872   3.656
 2642SOL    HW1 8825   6.745   0.960   3.647
 2642SOL    HW2 8826   6.867   0.868   3.591
 2643SOL     OW 8827   0.715   3.518   4.043
 2643SOL    HW1 8828   0.729   3.617   4.052
 2643SOL    HW2 8829   0.750   3.472   4.125
 2644SOL     OW 8830   4.523   5.431   5.034
 2644SOL    HW1 8831   4.613   5.388   5.040
 2644SOL    HW2 8832   4.454   5.369   5.072
 2645SOL     OW 8833   5.315   4.881   3.866
 2645SOL    HW1 8834   5.225   4.890   3.909
 2645SOL    HW2 8835   5.304   4.859   3.769
 2646SOL     OW 8836   0.802   3.726   6.669
 2646SOL    HW1 8837   0.821   3.814   6.625
 2646SOL    HW2 8838   0.711   3.729   6.712
 2647SOL     OW 8839   4.923   0.106   1.677
 2647SOL    HW1 8840   4.923   0.157   1.763
 2647SOL    HW2 8841   4.846   0.137   1.620
 2648SOL     OW 8842   0.736   6.780   3.496
 2648SOL    HW1 8843   0.686   6.864   3.476
 2648SOL    HW2 8844   0.821   6.778   3.444
 2649SOL     OW 8845   5.095   3.037   1.810
 2649SOL    HW1 8846   5.121   3.075   1.721
 2649SOL    HW2 8847   5.033   2.960   1.797
 2650SOL     OW 8848   2.871   5.560   4.640
 2650SOL    HW1 8849   2.922   5.510   4.569
 2650SOL    HW2 8850   2.805   5.621   4.596
 2651SOL     OW 8851   3.510   1.484   6.395
 2651SOL    HW1 8852   3.562   1.556   6.348
 2651SOL    HW2 8853   3.567   1.403   6.404
 2652SOL     OW 8854   4.586   3.518   5.614
 2652SOL    HW1 8855   4.561   3.553   5.524
 2652SOL    HW2 8856   4.628   3.591   5.668
 2653SOL     OW 8857   3.741   6.043   5.808
 2653SOL    HW1 8858   3.784   5.954   5.816
 2653SOL    HW2 8859   3.645   6.032   5.781
 2654SOL     OW 8860   5.141   6.724   0.797
 2654SOL    HW1 8861   5.089   6.640   0.780
 2654SOL    HW2 8862   5.222   6.725   0.739
 2655SOL     OW 8863   4.786   6.191   3.490
 2655SOL    HW1 8864   4.772   6.119   3.422
 2655SOL    HW2 8865   4.874   6.236   3.472
 2656SOL     OW 8866   3.773   5.633   3.833
 2656SOL    HW1 8867   3.873   5.633   3.828
 2656SOL    HW2 8868   3.738   5.550   3.789
 2657SOL     OW 8869   1.704   3.176   0.325
 2657SOL    HW1 8870   1.640   3.249   0.350
 2657SOL    HW2 8871   1.692   3.099   0.388
 2658SOL     OW 8872   4.910   3.953   6.731
 2658SOL    HW1 8873   4.822   3.918   6.764
 2658SOL    HW2 8874   4.919   4.049   6.755
 2659SOL     OW 8875   5.471   2.703   4.970
 2659SOL    HW1 8876   5.513   2.780   4.923
 2659SOL    HW2 8877   5.512   2.692   5.061
 2660SOL     OW 8878   0.115   0.990   0.955
 2660SOL    HW1 8879   0.018   0.969   0.944
 2660SOL    HW2 8880   0.130   1.034   1.044
 2661SOL     OW 8881   1.035   0.529   2.000
 2661SOL    HW1 8882   1.111   0.595   2.005
 2661SOL    HW2 8883   1.067   0.440   2.031
 2662SOL     OW 8884   3.030   0.418   3.661
 2662SOL    HW1 8885   3.063   0.504   3.699
 2662SOL    HW2 8886   2.956   0.382   3.719
 2663SOL     OW 8887   3.686   6.647   5.922
 2663SOL    HW1 8888   3.673   6.701   6.005
 2663SOL    HW2 8889   3.598   6.637   5.875
 2664SOL     OW 8890   4.428   2.418   5.680
 2664SOL    HW1 8891   4.344   2.470   5.669
 2664SOL    HW2 8892   4.463   2.430   5.773
 2665SOL     OW 8893   2.507   3.536   5.347
 2665SOL    HW1 8894   2.501   3.436   5.341
 2665SOL    HW2 8895   2.597   3.562   5.381
 2666SOL     OW 8896   1.786   3.123   1.793
 2666SOL    HW1 8897   1.875   3.163   1.772
 2666SOL    HW2 8898   1.762   3.055   1.724
 2667SOL     OW 8899   0.150   5.003   3.820
 2667SOL    HW1 8900   0.136   4.932   3.751
 2667SOL    HW2 8901   0.063   5.022   3.867
 2668SOL     OW 8902   5.474   2.618   4.138
 2668SOL    HW1 8903   5.425   2.604   4.225
 2668SOL    HW2 8904   5.480   2.530   4.090
 2669SOL     OW 8905   2.910   5.608   6.774
 2669SOL    HW1 8906   2.933   5.563   6.861
 2669SOL    HW2 8907   2.978   5.680   6.756
 2670SOL     OW 8908   6.188   1.664   5.675
 2670SOL    HW1 8909   6.187   1.744   5.735
 2670SOL    HW2 8910   6.156   1.690   5.584
 2671SOL     OW 8911   4.246   6.239   6.466
 2671SOL    HW1 8912   4.299   6.184   6.402
 2671SOL    HW2 8913   4.161   6.268   6.423
 2672SOL     OW 8914   3.326   1.013   1.754
 2672SOL    HW1 8915   3.262   1.005   1.677
 2672SOL    HW2 8916   3.338   0.924   1.797
 2673SOL     OW 8917   4.994   0.249   2.791
 2673SOL    HW1 8918   5.000   0.312   2.869
 2673SOL    HW2 8919   4.918   0.186   2.805
 2674SOL     OW 8920   1.895   5.139   3.841
 2674SOL    HW1 8921   1.847   5.067   3.891
 2674SOL    HW2 8922   1.929   5.208   3.905
 2675SOL     OW 8923   0.472   0.122   3.494
 2675SOL    HW1 8924   0.417   0.061   3.552
 2675SOL    HW2 8925   0.449   0.217   3.514
 2676SOL     OW 8926   2.933   3.599   2.335
 2676SOL    HW1 8927   2.885   3.514   2.357
 2676SOL    HW2 8928   2.980   3.632   2.417
 2677SOL     OW 8929   2.823   4.452   0.943
 2677SOL    HW1 8930   2.904   4.428   0.995
 2677SOL    HW2 8931   2.745   4.462   1.005
 2678SOL     OW 8932   0.048   2.673   2.440
 2678SOL    HW1 8933   0.053   2.731   2.521
 2678SOL    HW2 8934   0.139   2.665   2.399
 2679SOL     OW 8935   2.301   5.578   2.607
 2679SOL    HW1 8936   2.360   5.649   2.644
 2679SOL    HW2 8937   2.343   5.488   2.622
 2680SOL     OW 8938   0.930   2.318   0.540
 2680SOL    HW1 8939   0.922   2.335   0.638
 2680SOL    HW2 8940   0.878   2.387   0.489
 2681SOL     OW 8941   1.342   2.764   4.974
 2681SOL    HW1 8942   1.391   2.686   5.013
 2681SOL    HW2 8943   1.377   2.849   5.013
 2682SOL     OW 8944   4.753   4.175   2.477
 2682SOL    HW1 8945   4.851   4.187   2.463
 2682SOL    HW2 8946   4.703   4.228   2.409
 2683SOL     OW 8947   2.225   4.579   2.739
 2683SOL    HW1 8948   2.165   4.504   2.767
 2683SOL    HW2 8949   2.206   4.602   2.644
 2684SOL     OW 8950   5.533   6.509   1.886
 2684SOL    HW1 8951   5.606   6.454   1.846
 2684SOL    HW2 8952   5.445   6.468   1.862
 2685SOL     OW 8953   6.735   4.690   4.736
 2685SOL    HW1 8954   6.754   4.787   4.722
 2685SOL    HW2 8955   6.775   4.636   4.662
 2686SOL     OW 8956   1.093   1.549   4.864
 2686SOL    HW1 8957   0.995   1.532   4.860
 2686SOL    HW2 8958   1.123   1.552   4.959
 2687SOL     OW 8959   3.971   0.289   1.761
 2687SOL    HW1 8960   4.028   0.207   1.756
 2687SOL    HW2 8961   4.020   0.365   1.718
 2688SOL     OW 8962   3.280   1.937   1.040
 2688SOL    HW1 8963   3.284   1.922   1.139
 2688SOL    HW2 8964   3.275   2.035   1.021
 2689SOL     OW 8965   0.447   4.273   2.631
 2689SOL    HW1 8966   0.458   4.262   2.532
 2689SOL    HW2 8967   0.518   4.335   2.665
 2690SOL     OW 8968   3.011   2.657   6.529
 2690SOL    HW1 8969   3.057   2.596   6.593
 2690SOL    HW2 8970   2.947   2.716   6.578
 2691SOL     OW 8971   0.556   4.601   3.877
 2691SOL    HW1 8972   0.589   4.579   3.785
 2691SOL    HW2 8973   0.496   4.681   3.872
 2692SOL     OW 8974   2.537   6.365   3.174
 2692SOL    HW1 8975   2.522   6.360   3.273
 2692SOL    HW2 8976   2.533   6.273   3.135
 2693SOL     OW 8977   2.030   4.866   4.041
 2693SOL    HW1 8978   2.122   4.831   4.020
 2693SOL    HW2 8979   2.037   4.936   4.113
 2694SOL     OW 8980   4.069   6.191   3.747
 2694SOL    HW1 8981   4.019   6.137   3.815
 2694SOL    HW2 8982   4.130   6.255   3.793
 2695SOL     OW 8983   6.346   0.122   2.862
 2695SOL    HW1 8984   6.281   0.198   2.863
 2695SOL    HW2 8985   6.389   0.115   2.952
 2696SOL     OW 8986   4.672   3.824   6.811
 2696SOL    HW1 8987   4.632   3.839   6.720
 2696SOL    HW2 8988   4.623   3.878   6.879
 2697SOL     OW 8989   4.370   1.434   1.226
 2697SOL    HW1 8990   4.346   1.438   1.323
 2697SOL    HW2 8991   4.465   1.465   1.213
 2698SOL     OW 8992   1.734   5.136   6.281
 2698SOL    HW1 8993   1.731   5.232   6.309
 2698SOL    HW2 8994   1.659   5.086   6.324
 2699SOL     OW 8995   2.820   5.825   1.882
 2699SOL    HW1 8996   2.785   5.781   1.965
 2699SOL    HW2 8997   2.749   5.822   1.811
 2700SOL     OW 8998   2.314   1.824   0.665
 2700SOL    HW1 8999   2.250   1.782   0.729
 2700SOL    HW2 9000   2.354   1.906   0.706
 2701SOL     OW 9001   5.182   2.477   5.227
 2701SOL    HW1 9002   5.110   2.497   5.293
 2701SOL    HW2 9003   5.140   2.454   5.138
 2702SOL     OW 9004   1.526   1.570   3.860
 2702SOL    HW1 9005   1.527   1.568   3.960
 2702SOL    HW2 9006   1.530   1.477   3.825
 2703SOL     OW 9007   1.463   5.647   1.483
 2703SOL    HW1 9008   1.395   5.578   1.457
 2703SOL    HW2 9009   1.551   5.622   1.443
 2704SOL     OW 9010   6.858   5.530   2.622
 2704SOL    HW1 9011   6.854   5.538   2.721
 2704SOL    HW2 9012   6.939   5.578   2.588
 2705SOL     OW 9013   6.885   1.345   5.887
 2705SOL    HW1 9014   6.943   1.274   5.926
 2705SOL    HW2 9015   6.823   1.381   5.958
 2706SOL     OW 9016   5.713   4.489   4.478
 2706SOL    HW1 9017   5.768   4.472   4.396
 2706SOL    HW2 9018   5.750   4.437   4.554
 2707SOL     OW 9019   3.925   6.580   3.522
 2707SOL    HW1 9020   3.890   6.597   3.614
 2707SOL    HW2 9021   4.025   6.589   3.522
 2708SOL     OW 9022   5.997   2.884   0.106
 2708SOL    HW1 9023   6.044   2.827   0.039
 2708SOL    HW2 9024   6.020   2.852   0.198
 2709SOL     OW 9025   4.898   6.582   6.155
 2709SOL    HW1 9026   4.996   6.598   6.145
 2709SOL    HW2 9027   4.848   6.661   6.118
 2710SOL     OW 9028   2.009   2.823   3.855
 2710SOL    HW1 9029   1.934   2.881   3.822
 2710SOL    HW2 9030   2.081   2.880   3.895
 2711SOL     OW 9031   3.385   1.805   3.656
 2711SOL    HW1 9032   3.364   1.738   3.585
 2711SOL    HW2 9033   3.358   1.896   3.626
 2712SOL     OW 9034   3.498   5.627   2.042
 2712SOL    HW1 9035   3.537   5.570   1.971
 2712SOL    HW2 9036   3.405   5.596   2.063
 2713SOL     OW 9037   4.558   4.342   6.576
 2713SOL    HW1 9038   4.599   4.431   6.594
 2713SOL    HW2 9039   4.619   4.287   6.518
 2714SOL     OW 9040   4.040   3.651   6.727
 2714SOL    HW1 9041   4.051   3.557   6.695
 2714SOL    HW2 9042   3.945   3.665   6.755
 2715SOL     OW 9043   5.476   1.782   0.949
 2715SOL    HW1 9044   5.496   1.794   0.852
 2715SOL    HW2 9045   5.559   1.754   0.997
 2716SOL     OW 9046   4.384   2.386   2.738
 2716SOL    HW1 9047   4.353   2.311   2.797
 2716SOL    HW2 9048   4.359   2.366   2.643
 2717SOL     OW 9049   0.345   0.522   2.126
 2717SOL    HW1 9050   0.381   0.580   2.199
 2717SOL    HW2 9051   0.333   0.429   2.161
 2718SOL     OW 9052   6.951   1.362   5.223
 2718SOL    HW1 9053   6.867   1.410   5.246
 2718SOL    HW2 9054   0.005   1.398   5.278
 2719SOL     OW 9055   1.802   4.208   2.392
 2719SOL    HW1 9056   1.712   4.176   2.421
 2719SOL    HW2 9057   1.798   4.234   2.295
 2720SOL     OW 9058   1.066   6.859   4.665
 2720SOL    HW1 9059   1.119   6.892   4.743
 2720SOL    HW2 9060   1.073   6.925   4.590
 2721SOL     OW 9061   3.126   6.506   1.526
 2721SOL    HW1 9062   3.086   6.463   1.608
 2721SOL    HW2 9063   3.123   6.605   1.536
 2722SOL     OW 9064   4.673   5.953   6.437
 2722SOL    HW1 9065   4.770   5.953   6.463
 2722SOL    HW2 9066   4.651   6.038   6.390
 2723SOL     OW 9067   3.164   6.823   6.907
 2723SOL    HW1 9068   3.232   6.771   6.957
 2723SOL    HW2 9069   3.208   6.898   6.859
 2724SOL     OW 9070   1.155   5.587   6.203
 2724SOL    HW1 9071   1.189   5.504   6.249
 2724SOL    HW2 9072   1.173   5.666   6.261
 2725SOL     OW 9073   5.157   4.111   4.168
 2725SOL    HW1 9074   5.116   4.106   4.259
 2725SOL    HW2 9075   5.146   4.023   4.122
 2726SOL     OW 9076   0.815   2.015   1.327
 2726SOL    HW1 9077   0.760   1.937   1.357
 2726SOL    HW2 9078   0.754   2.091   1.304
 2727SOL     OW 9079   1.900   4.069   3.892
 2727SOL    HW1 9080   1.827   4.129   3.926
 2727SOL    HW2 9081   1.950   4.030   3.970
 2728SOL     OW 9082   5.200   5.866   6.575
 2728SOL    HW1 9083   5.291   5.892   6.608
 2728SOL    HW2 9084   5.152   5.816   6.647
 2729SOL     OW 9085   6.142   6.487   6.995
 2729SOL    HW1 9086   6.177   6.401   0.010
 2729SOL    HW2 9087   6.044   6.494   7.013
 2730SOL     OW 9088   0.908   5.673   1.216
 2730SOL    HW1 9089   0.971   5.598   1.236
 2730SOL    HW2 9090   0.820   5.636   1.186
 2731SOL     OW 9091   3.268   3.450   3.184
 2731SOL    HW1 9092   3.269   3.456   3.283
 2731SOL    HW2 9093   3.177   3.419   3.153
 2732SOL     OW 9094   5.015   1.768   1.404
 2732SOL    HW1 9095   5.056   1.776   1.495
 2732SOL    HW2 9096   5.077   1.806   1.336
 2733SOL     OW 9097   6.572   1.155   5.340
 2733SOL    HW1 9098   6.512   1.164   5.419
 2733SOL    HW2 9099   6.538   1.212   5.265
 2734SOL     OW 9100   3.712   6.057   1.586
 2734SOL    HW1 9101   3.803   6.073   1.547
 2734SOL    HW2 9102   3.658   6.141   1.578
 2735SOL     OW 9103   1.300   2.197   0.384
 2735SOL    HW1 9104   1.287   2.105   0.421
 2735SOL    HW2 9105   1.289   2.195   0.284
 2736SOL     OW 9106   5.508   5.886   4.319
 2736SOL    HW1 9107   5.577   5.866   4.389
 2736SOL    HW2 9108   5.538   5.965   4.265
 2737SOL     OW 9109   2.913   2.348   5.928
 2737SOL    HW1 9110   2.824   2.389   5.910
 2737SOL    HW2 9111   2.969   2.350   5.845
 2738SOL     OW 9112   6.127   0.055   1.960
 2738SOL    HW1 9113   6.045   0.005   1.934
 2738SOL    HW2 9114   6.199   0.040   1.892
 2739SOL     OW 9115   0.738   5.133   1.230
 2739SOL    HW1 9116   0.777   5.062   1.290
 2739SOL    HW2 9117   0.640   5.119   1.222
 2740SOL     OW 9118   0.485   5.412   2.423
 2740SOL    HW1 9119   0.519   5.487   2.366
 2740SOL    HW2 9120   0.489   5.439   2.519
 2741SOL     OW 9121   0.888   1.880   4.541
 2741SOL    HW1 9122   0.964   1.872   4.605
 2741SOL    HW2 9123   0.923   1.878   4.447
 2742SOL     OW 9124   3.161   4.990   2.150
 2742SOL    HW1 9125   3.249   4.968   2.191
 2742SOL    HW2 9126   3.108   4.907   2.135
 2743SOL     OW 9127   0.108   4.493   1.962
 2743SOL    HW1 9128   0.107   4.404   2.005
 2743SOL    HW2 9129   0.017   4.535   1.969
 2744SOL     OW 9130   3.689   3.439   2.271
 2744SOL    HW1 9131   3.748   3.439   2.190
 2744SOL    HW2 9132   3.698   3.351   2.318
 2745SOL     OW 9133   6.383   1.188   5.535
 2745SOL    HW1 9134   6.284   1.191   5.521
 2745SOL    HW2 9135   6.418   1.281   5.547
 2746SOL     OW 9136   0.708   1.481   4.290
 2746SOL    HW1 9137   0.794   1.455   4.335
 2746SOL    HW2 9138   0.727   1.548   4.218
 2747SOL     OW 9139   4.335   5.904   6.607
 2747SOL    HW1 9140   4.394   5.899   6.526
 2747SOL    HW2 9141   4.263   5.835   6.599
 2748SOL     OW 9142   4.844   0.350   1.226
 2748SOL    HW1 9143   4.806   0.427   1.277
 2748SOL    HW2 9144   4.796   0.266   1.250
 2749SOL     OW 9145   1.307   3.731   0.503
 2749SOL    HW1 9146   1.245   3.656   0.480
 2749SOL    HW2 9147   1.311   3.795   0.426
 2750SOL     OW 9148   2.554   4.772   1.369
 2750SOL    HW1 9149   2.613   4.705   1.415
 2750SOL    HW2 9150   2.599   4.804   1.286
 2751SOL     OW 9151   1.721   1.628   1.701
 2751SOL    HW1 9152   1.694   1.679   1.620
 2751SOL    HW2 9153   1.703   1.682   1.783
 2752SOL     OW 9154   4.482   4.476   6.294
 2752SOL    HW1 9155   4.412   4.484   6.365
 2752SOL    HW2 9156   4.550   4.408   6.322
 2753SOL     OW 9157   6.150   6.081   4.891
 2753SOL    HW1 9158   6.082   6.055   4.959
 2753SOL    HW2 9159   6.219   6.009   4.882
 2754SOL     OW 9160   1.024   6.750   6.938
 2754SOL    HW1 9161   1.092   6.677   6.943
 2754SOL    HW2 9162   1.029   6.806   7.020
 2755SOL     OW 9163   3.045   0.033   2.891
 2755SOL    HW1 9164   3.119   6.992   2.914
 2755SOL    HW2 9165   3.003   0.005   2.804
 2756SOL     OW 9166   4.318   6.142   0.738
 2756SOL    HW1 9167   4.293   6.099   0.825
 2756SOL    HW2 9168   4.245   6.202   0.708
 2757SOL     OW 9169   1.994   5.762   0.512
 2757SOL    HW1 9170   2.088   5.769   0.544
 2757SOL    HW2 9171   1.963   5.667   0.518
 2758SOL     OW 9172   4.955   0.382   4.715
 2758SOL    HW1 9173   4.992   0.300   4.758
 2758SOL    HW2 9174   4.995   0.463   4.758
 2759SOL     OW 9175   5.276   6.106   4.126
 2759SOL    HW1 9176   5.250   6.009   4.125
 2759SOL    HW2 9177   5.373   6.114   4.148
 2760SOL     OW 9178   1.472   5.701   2.258
 2760SOL    HW1 9179   1.490   5.791   2.218
 2760SOL    HW2 9180   1.535   5.634   2.219
 2761SOL     OW 9181   1.888   4.612   3.967
 2761SOL    HW1 9182   1.937   4.682   4.019
 2761SOL    HW2 9183   1.814   4.655   3.914
 2762SOL     OW 9184   1.067   1.015   5.193
 2762SOL    HW1 9185   1.120   0.934   5.218
 2762SOL    HW2 9186   0.997   1.031   5.262
 2763SOL     OW 9187   5.731   1.967   3.950
 2763SOL    HW1 9188   5.669   1.988   3.874
 2763SOL    HW2 9189   5.702   1.883   3.995
 2764SOL     OW 9190   5.871   0.204   1.136
 2764SOL    HW1 9191   5.804   0.253   1.081
 2764SOL    HW2 9192   5.897   0.119   1.091
 2765SOL     OW 9193   5.432   0.182   1.097
 2765SOL    HW1 9194   5.429   0.250   1.170
 2765SOL    HW2 9195   5.350   0.125   1.101
 2766SOL     OW 9196   5.669   1.647   0.413
 2766SOL    HW1 9197   5.573   1.623   0.423
 2766SOL    HW2 9198   5.679   1.746   0.404
 2767SOL     OW 9199   7.021   5.299   6.894
 2767SOL    HW1 9200   7.018   5.393   6.860
 2767SOL    HW2 9201   6.986   5.296   6.987
 2768SOL     OW 9202   5.278   1.324   0.067
 2768SOL    HW1 9203   5.274   1.280   0.156
 2768SOL    HW2 9204   5.280   1.255   7.016
 2769SOL     OW 9205   6.591   4.569   3.925
 2769SOL    HW1 9206   6.574   4.592   3.829
 2769SOL    HW2 9207   6.675   4.516   3.932
 2770SOL     OW 9208   1.707   5.842   6.310
 2770SOL    HW1 9209   1.759   5.791   6.378
 2770SOL    HW2 9210   1.625   5.790   6.286
 2771SOL     OW 9211   5.505   1.165   1.384
 2771SOL    HW1 9212   5.430   1.104   1.359
 2771SOL    HW2 9213   5.568   1.174   1.307
 2772SOL     OW 9214   4.639   1.938   0.406
 2772SOL    HW1 9215   4.560   1.980   0.360
 2772SOL    HW2 9216   4.691   2.008   0.454
 2773SOL     OW 9217   4.550   3.258   5.981
 2773SOL    HW1 9218   4.624   3.241   6.046
 2773SOL    HW2 9219   4.535   3.177   5.925
 2774SOL     OW 9220   6.622   2.923   3.021
 2774SOL    HW1 9221   6.528   2.955   3.021
 2774SOL    HW2 9222   6.632   2.851   2.952
 2775SOL     OW 9223   0.029   5.338   0.188
 2775SOL    HW1 9224   0.104   5.397   0.217
 2775SOL    HW2 9225   6.973   5.350   0.250
 2776SOL     OW 9226   4.357   5.779   5.583
 2776SOL    HW1 9227   4.390   5.847   5.649
 2776SOL    HW2 9228   4.370   5.815   5.490
 2777SOL     OW 9229   2.956   1.245   2.084
 2777SOL    HW1 9230   3.049   1.280   2.094
 2777SOL    HW2 9231   2.908   1.255   2.171
 2778SOL     OW 9232   1.792   1.096   5.084
 2778SOL    HW1 9233   1.885   1.067   5.109
 2778SOL    HW2 9234   1.789   1.196   5.078
 2779SOL     OW 9235   4.552   0.326   0.437
 2779SOL    HW1 9236   4.521   0.239   0.476
 2779SOL    HW2 9237   4.510   0.401   0.488
 2780SOL     OW 9238   6.089   5.743   5.607
 2780SOL    HW1 9239   6.176   5.791   5.620
 2780SOL    HW2 9240   6.066   5.744   5.510
 2781SOL     OW 9241   6.242   5.537   2.098
 2781SOL    HW1 9242   6.146   5.521   2.079
 2781SOL    HW2 9243   6.255   5.632   2.127
 2782SOL     OW 9244   3.178   2.652   6.310
 2782SOL    HW1 9245   3.148   2.576   6.253
 2782SOL    HW2 9246   3.129   2.650   6.397
 2783SOL     OW 9247   5.906   3.179   5.152
 2783SOL    HW1 9248   5.862   3.134   5.229
 2783SOL    HW2 9249   5.890   3.127   5.068
 2784SOL     OW 9250   2.394   1.896   1.576
 2784SOL    HW1 9251   2.435   1.866   1.490
 2784SOL    HW2 9252   2.377   1.994   1.573
 2785SOL     OW 9253   6.463   1.175   0.182
 2785SOL    HW1 9254   6.442   1.157   0.278
 2785SOL    HW2 9255   6.492   1.091   0.138
 2786SOL     OW 9256   3.962   0.058   1.557
 2786SOL    HW1 9257   3.938   0.127   1.488
 2786SOL    HW2 9258   3.983   6.993   1.511
 2787SOL     OW 9259   2.590   3.026   6.470
 2787SOL    HW1 9260   2.682   3.048   6.502
 2787SOL    HW2 9261   2.526   3.097   6.501
 2788SOL     OW 9262   2.009   3.957   0.427
 2788SOL    HW1 9263   2.049   4.031   0.482
 2788SOL    HW2 9264   1.996   3.989   0.333
 2789SOL     OW 9265   1.593   2.059   3.675
 2789SOL    HW1 9266   1.500   2.025   3.682
 2789SOL    HW2 9267   1.637   2.019   3.594
 2790SOL     OW 9268   3.282   5.482   3.080
 2790SOL    HW1 9269   3.318   5.522   3.165
 2790SOL    HW2 9270   3.287   5.383   3.085
 2791SOL     OW 9271   1.761   4.616   4.653
 2791SOL    HW1 9272   1.680   4.587   4.602
 2791SOL    HW2 9273   1.840   4.616   4.592
 2792SOL     OW 9274   1.254   0.180   4.945
 2792SOL    HW1 9275   1.305   0.250   4.895
 2792SOL    HW2 9276   1.279   0.183   5.041
 2793SOL     OW 9277   4.829   2.264   2.537
 2793SOL    HW1 9278   4.755   2.229   2.595
 2793SOL    HW2 9279   4.797   2.273   2.443
 2794SOL     OW 9280   6.670   3.008   0.477
 2794SOL    HW1 9281   6.585   3.054   0.454
 2794SOL    HW2 9282   6.682   3.008   0.577
 2795SOL     OW 9283   3.012   3.745   1.554
 2795SOL    HW1 9284   2.940   3.746   1.623
 2795SOL    HW2 9285   2.995   3.817   1.487
 2796SOL     OW 9286   6.850   4.149   2.742
 2796SOL    HW1 9287   6.947   4.144   2.768
 2796SOL    HW2 9288   6.796   4.093   2.805
 2797SOL     OW 9289   4.993   5.481   5.027
 2797SOL    HW1 9290   5.034   5.556   4.976
 2797SOL    HW2 9291   5.065   5.416   5.054
 2798SOL     OW 9292   1.283   4.058   2.041
 2798SOL    HW1 9293   1.365   4.115   2.044
 2798SOL    HW2 9294   1.307   3.965   2.012
 2799SOL     OW 9295   0.145   6.007   0.265
 2799SOL    HW1 9296   0.080   6.078   0.237
 2799SOL    HW2 9297   0.188   5.967   0.185
 2800SOL     OW 9298   4.455   4.602   6.965
 2800SOL    HW1 9299   4.426   4.512   6.930
 2800SOL    HW2 9300   4.530   4.589   0.009
 2801SOL     OW 9301   4.483   5.563   4.156
 2801SOL    HW1 9302   4.491   5.571   4.255
 2801SOL    HW2 9303   4.513   5.647   4.112
 2802SOL     OW 9304   4.720   3.368   6.689
 2802SOL    HW1 9305   4.691   3.427   6.764
 2802SOL    HW2 9306   4.660   3.288   6.685
 2803SOL     OW 9307   2.682   5.837   6.238
 2803SOL    HW1 9308   2.707   5.929   6.207
 2803SOL    HW2 9309   2.738   5.813   6.317
 2804SOL     OW 9310   0.045   4.433   4.204
 2804SOL    HW1 9311   0.085   4.510   4.254
 2804SOL    HW2 9312   0.024   4.460   4.110
 2805SOL     OW 9313   4.564   3.261   1.379
 2805SOL    HW1 9314   4.629   3.285   1.452
 2805SOL    HW2 9315   4.568   3.331   1.307
 2806SOL     OW 9316   5.891   4.969   3.605
 2806SOL    HW1 9317   5.847   4.926   3.526
 2806SOL    HW2 9318   5.948   5.045   3.575
 2807SOL     OW 9319   5.417   5.134   3.753
 2807SOL    HW1 9320   5.372   5.172   3.673
 2807SOL    HW2 9321   5.355   5.073   3.802
 2808SOL     OW 9322   4.170   1.547   2.688
 2808SOL    HW1 9323   4.252   1.549   2.631
 2808SOL    HW2 9324   4.191   1.586   2.777
 2809SOL     OW 9325   6.497   3.331   1.520
 2809SOL    HW1 9326   6.502   3.256   1.453
 2809SOL    HW2 9327   6.589   3.362   1.542
 2810SOL     OW 9328   3.633   6.411   4.787
 2810SOL    HW1 9329   3.619   6.477   4.713
 2810SOL    HW2 9330   3.570   6.431   4.862
 2811SOL     OW 9331   0.608   0.749   3.897
 2811SOL    HW1 9332   0.632   0.721   3.804
 2811SOL    HW2 9333   0.509   0.745   3.909
 2812SOL     OW 9334   5.186   3.492   1.302
 2812SOL    HW1 9335   5.285   3.480   1.307
 2812SOL    HW2 9336   5.157   3.496   1.207
 2813SOL     OW 9337   6.302   6.855   5.732
 2813SOL    HW1 9338   6.242   6.924   5.772
 2813SOL    HW2 9339   6.378   6.900   5.685
 2814SOL     OW 9340   4.546   3.122   6.713
 2814SOL    HW1 9341   4.563   3.067   6.631
 2814SOL    HW2 9342   4.454   3.102   6.747
 2815SOL     OW 9343   6.934   1.485   4.973
 2815SOL    HW1 9344   6.846   1.524   4.945
 2815SOL    HW2 9345   6.931   1.461   5.070
 2816SOL     OW 9346   6.657   6.432   3.747
 2816SOL    HW1 9347   6.747   6.402   3.779
 2816SOL    HW2 9348   6.592   6.431   3.822
 2817SOL     OW 9349   1.888   0.209   1.142
 2817SOL    HW1 9350   1.919   0.117   1.166
 2817SOL    HW2 9351   1.900   0.270   1.220
 2818SOL     OW 9352   0.045   5.688   0.126
 2818SOL    HW1 9353   0.034   5.779   0.086
 2818SOL    HW2 9354   6.985   5.633   0.107
 2819SOL     OW 9355   0.223   2.361   0.891
 2819SOL    HW1 9356   0.316   2.325   0.895
 2819SOL    HW2 9357   0.158   2.290   0.918
 2820SOL     OW 9358   0.924   2.111   2.142
 2820SOL    HW1 9359   0.967   2.200   2.133
 2820SOL    HW2 9360   0.973   2.044   2.086
 2821SOL     OW 9361   3.767   3.591   6.866
 2821SOL    HW1 9362   3.677   3.634   6.873
 2821SOL    HW2 9363   3.761   3.510   6.808
 2822SOL     OW 9364   3.989   2.334   0.262
 2822SOL    HW1 9365   3.919   2.272   0.297
 2822SOL    HW2 9366   3.948   2.423   0.244
 2823SOL     OW 9367   2.301   6.505   1.419
 2823SOL    HW1 9368   2.214   6.468   1.452
 2823SOL    HW2 9369   2.377   6.462   1.468
 2824SOL     OW 9370   2.569   1.313   4.277
 2824SOL    HW1 9371   2.550   1.338   4.182
 2824SOL    HW2 9372   2.562   1.214   4.288
 2825SOL     OW 9373   6.270   6.872   0.281
 2825SOL    HW1 9374   6.339   6.800   0.292
 2825SOL    HW2 9375   6.179   6.834   0.300
 2826SOL     OW 9376   5.455   2.265   6.383
 2826SOL    HW1 9377   5.495   2.275   6.475
 2826SOL    HW2 9378   5.427   2.355   6.349
 2827SOL     OW 9379   6.462   0.933   5.554
 2827SOL    HW1 9380   6.538   0.928   5.618
 2827SOL    HW2 9381   6.443   1.029   5.532
 2828SOL     OW 9382   3.224   1.283   6.860
 2828SOL    HW1 9383   3.234   1.195   6.907
 2828SOL    HW2 9384   3.296   1.292   6.791
 2829SOL     OW 9385   3.660   4.157   6.273
 2829SOL    HW1 9386   3.647   4.155   6.174
 2829SOL    HW2 9387   3.708   4.241   6.299
 2830SOL     OW 9388   0.392   3.608   6.581
 2830SOL    HW1 9389   0.391   3.513   6.550
 2830SOL    HW2 9390   0.303   3.630   6.622
 2831SOL     OW 9391   0.098   6.130   3.668
 2831SOL    HW1 9392   0.042   6.102   3.746
 2831SOL    HW2 9393   0.039   6.139   3.587
 2832SOL     OW 9394   0.592   0.926   1.592
 2832SOL    HW1 9395   0.597   0.901   1.496
 2832SOL    HW2 9396   0.660   0.874   1.644
 2833SOL     OW 9397   5.229   2.358   2.023
 2833SOL    HW1 9398   5.151   2.407   2.063
 2833SOL    HW2 9399   5.220   2.356   1.924
 2834SOL     OW 9400   2.916   0.607   5.805
 2834SOL    HW1 9401   2.956   0.645   5.722
 2834SOL    HW2 9402   2.970   0.634   5.884
 2835SOL     OW 9403   0.383   0.221   1.607
 2835SOL    HW1 9404   0.357   0.152   1.675
 2835SOL    HW2 9405   0.302   0.267   1.573
 2836SOL     OW 9406   6.481   0.655   1.330
 2836SOL    HW1 9407   6.461   0.566   1.370
 2836SOL    HW2 9408   6.558   0.697   1.378
 2837SOL     OW 9409   5.764   3.116   3.225
 2837SOL    HW1 9410   5.731   3.022   3.240
 2837SOL    HW2 9411   5.847   3.114   3.169
 2838SOL     OW 9412   1.807   4.139   1.882
 2838SOL    HW1 9413   1.809   4.041   1.864
 2838SOL    HW2 9414   1.900   4.175   1.885
 2839SOL     OW 9415   6.108   1.428   1.933
 2839SOL    HW1 9416   6.172   1.365   1.890
 2839SOL    HW2 9417   6.157   1.486   1.998
 2840SOL     OW 9418   0.357   0.618   4.067
 2840SOL    HW1 9419   0.425   0.546   4.053
 2840SOL    HW2 9420   0.372   0.661   4.156
 2841SOL     OW 9421   0.163   0.713   5.682
 2841SOL    HW1 9422   0.080   0.667   5.651
 2841SOL    HW2 9423   0.149   0.749   5.774
 2842SOL     OW 9424   0.243   1.553   4.079
 2842SOL    HW1 9425   0.231   1.487   4.153
 2842SOL    HW2 9426   0.340   1.557   4.055
 2843SOL     OW 9427   3.627   1.805   3.822
 2843SOL    HW1 9428   3.544   1.786   3.769
 2843SOL    HW2 9429   3.707   1.777   3.769
 2844SOL     OW 9430   1.283   4.540   0.527
 2844SOL    HW1 9431   1.236   4.626   0.506
 2844SOL    HW2 9432   1.382   4.555   0.524
 2845SOL     OW 9433   1.171   3.076   0.604
 2845SOL    HW1 9434   1.221   3.142   0.659
 2845SOL    HW2 9435   1.090   3.045   0.654
 2846SOL     OW 9436   5.012   1.561   6.847
 2846SOL    HW1 9437   5.103   1.566   6.886
 2846SOL    HW2 9438   4.968   1.651   6.854
 2847SOL     OW 9439   5.236   3.663   3.283
 2847SOL    HW1 9440   5.243   3.661   3.383
 2847SOL    HW2 9441   5.140   3.656   3.256
 2848SOL     OW 9442   0.317   4.509   6.328
 2848SOL    HW1 9443   0.320   4.469   6.236
 2848SOL    HW2 9444   0.410   4.531   6.358
 2849SOL     OW 9445   3.274   0.449   1.811
 2849SOL    HW1 9446   3.361   0.496   1.796
 2849SOL    HW2 9447   3.204   0.487   1.751
 2850SOL     OW 9448   2.954   0.154   2.478
 2850SOL    HW1 9449   2.897   0.236   2.470
 2850SOL    HW2 9450   2.968   0.114   2.387
 2851SOL     OW 9451   0.625   3.844   5.539
 2851SOL    HW1 9452   0.545   3.823   5.482
 2851SOL    HW2 9453   0.692   3.893   5.484
 2852SOL     OW 9454   5.804   4.599   0.368
 2852SOL    HW1 9455   5.881   4.541   0.396
 2852SOL    HW2 9456   5.772   4.652   0.447
 2853SOL     OW 9457   2.494   1.966   6.846
 2853SOL    HW1 9458   2.527   2.006   6.932
 2853SOL    HW2 9459   2.571   1.925   6.796
 2854SOL     OW 9460   3.249   1.656   4.004
 2854SOL    HW1 9461   3.180   1.621   3.941
 2854SOL    HW2 9462   3.214   1.651   4.098
 2855SOL     OW 9463   1.722   0.847   6.106
 2855SOL    HW1 9464   1.803   0.849   6.048
 2855SOL    HW2 9465   1.680   0.938   6.109
 2856SOL     OW 9466   2.500   2.776   6.024
 2856SOL    HW1 9467   2.564   2.850   6.006
 2856SOL    HW2 9468   2.510   2.745   6.118
 2857SOL     OW 9469   3.026   1.883   1.752
 2857SOL    HW1 9470   3.101   1.817   1.751
 2857SOL    HW2 9471   3.056   1.968   1.795
 2858SOL     OW 9472   6.101   3.559   1.775
 2858SOL    HW1 9473   6.040   3.635   1.753
 2858SOL    HW2 9474   6.126   3.563   1.872
 2859SOL     OW 9475   5.276   2.144   0.675
 2859SOL    HW1 9476   5.290   2.148   0.576
 2859SOL    HW2 9477   5.260   2.050   0.703
 2860SOL     OW 9478   3.580   1.780   0.947
 2860SOL    HW1 9479   3.578   1.879   0.930
 2860SOL    HW2 9480   3.645   1.737   0.884
 2861SOL     OW 9481   4.802   5.288   5.668
 2861SOL    HW1 9482   4.817   5.208   5.610
 2861SOL    HW2 9483   4.736   5.349   5.625
 2862SOL     OW 9484   5.269   1.555   2.837
 2862SOL    HW1 9485   5.358   1.551   2.883
 2862SOL    HW2 9486   5.228   1.464   2.836
 2863SOL     OW 9487   5.935   1.592   6.972
 2863SOL    HW1 9488   5.974   1.606   6.881
 2863SOL    HW2 9489   5.928   1.680   7.019
 2864SOL     OW 9490   3.789   0.521   1.394
 2864SOL    HW1 9491   3.869   0.575   1.366
 2864SOL    HW2 9492   3.707   0.578   1.388
 2865SOL     OW 9493   5.115   4.179   5.775
 2865SOL    HW1 9494   5.042   4.117   5.745
 2865SOL    HW2 9495   5.119   4.258   5.713
 2866SOL     OW 9496   6.319   6.410   0.273
 2866SOL    HW1 9497   6.392   6.388   0.337
 2866SOL    HW2 9498   6.344   6.492   0.221
 2867SOL     OW 9499   5.522   4.079   2.236
 2867SOL    HW1 9500   5.599   4.021   2.264
 2867SOL    HW2 9501   5.524   4.164   2.289
 2868SOL     OW 9502   0.490   3.052   5.154
 2868SOL    HW1 9503   0.510   2.965   5.200
 2868SOL    HW2 9504   0.391   3.059   5.138
 2869SOL     OW 9505   5.735   1.308   3.494
 2869SOL    HW1 9506   5.760   1.250   3.571
 2869SOL    HW2 9507   5.647   1.353   3.513
 2870SOL     OW 9508   6.690   1.380   4.512
 2870SOL    HW1 9509   6.650   1.443   4.444
 2870SOL    HW2 9510   6.782   1.353   4.483
 2871SOL     OW 9511   1.894   1.367   6.836
 2871SOL    HW1 9512   1.941   1.455   6.832
 2871SOL    HW2 9513   1.959   1.294   6.813
 2872SOL     OW 9514   2.587   1.440   3.462
 2872SOL    HW1 9515   2.590   1.400   3.370
 2872SOL    HW2 9516   2.517   1.393   3.516
 2873SOL     OW 9517   1.411   4.991   3.537
 2873SOL    HW1 9518   1.344   5.064   3.537
 2873SOL    HW2 9519   1.502   5.029   3.519
 2874SOL     OW 9520   4.529   5.202   2.780
 2874SOL    HW1 9521   4.491   5.123   2.732
 2874SOL    HW2 9522   4.586   5.254   2.717
 2875SOL     OW 9523   4.186   6.452   6.645
 2875SOL    HW1 9524   4.265   6.513   6.653
 2875SOL    HW2 9525   4.214   6.369   6.596
 2876SOL     OW 9526   0.851   6.914   1.693
 2876SOL    HW1 9527   0.907   6.878   1.618
 2876SOL    HW2 9528   0.821   6.838   1.751
 2877SOL     OW 9529   3.512   2.895   5.196
 2877SOL    HW1 9530   3.417   2.878   5.169
 2877SOL    HW2 9531   3.534   2.842   5.278
 2878SOL     OW 9532   3.753   5.193   4.672
 2878SOL    HW1 9533   3.796   5.117   4.622
 2878SOL    HW2 9534   3.820   5.265   4.688
 2879SOL     OW 9535   4.740   5.356   6.972
 2879SOL    HW1 9536   4.758   5.435   0.008
 2879SOL    HW2 9537   4.794   5.278   7.003
 2880SOL     OW 9538   5.874   6.539   0.814
 2880SOL    HW1 9539   5.965   6.521   0.852
 2880SOL    HW2 9540   5.845   6.631   0.842
 2881SOL     OW 9541   5.619   6.231   1.192
 2881SOL    HW1 9542   5.692   6.199   1.252
 2881SOL    HW2 9543   5.654   6.239   1.099
 2882SOL     OW 9544   0.740   3.625   2.451
 2882SOL    HW1 9545   0.657   3.570   2.446
 2882SOL    HW2 9546   0.738   3.680   2.534
 2883SOL     OW 9547   5.162   6.280   3.979
 2883SOL    HW1 9548   5.218   6.213   4.030
 2883SOL    HW2 9549   5.066   6.260   3.995
 2884SOL     OW 9550   0.720   5.449   2.930
 2884SOL    HW1 9551   0.756   5.355   2.935
 2884SOL    HW2 9552   0.797   5.513   2.932
 2885SOL     OW 9553   0.115   2.858   2.623
 2885SOL    HW1 9554   0.209   2.823   2.628
 2885SOL    HW2 9555   0.117   2.957   2.616
 2886SOL     OW 9556   2.126   3.422   6.894
 2886SOL    HW1 9557   2.195   3.419   6.822
 2886SOL    HW2 9558   2.060   3.494   6.875
 2887SOL     OW 9559   2.084   7.017   5.040
 2887SOL    HW1 9560   1.993   6.980   5.062
 2887SOL    HW2 9561   2.154   6.949   5.061
 2888SOL     OW 9562   0.179   4.690   6.730
 2888SOL    HW1 9563   0.205   4.651   6.818
 2888SOL    HW2 9564   0.083   4.719   6.734
 2889SOL     OW 9565   1.549   1.085   2.603
 2889SOL    HW1 9566   1.490   1.063   2.525
 2889SOL    HW2 9567   1.580   1.000   2.647
 2890SOL     OW 9568   2.693   0.517   1.175
 2890SOL    HW1 9569   2.757   0.548   1.104
 2890SOL    HW2 9570   2.601   0.551   1.154
 2891SOL     OW 9571   2.409   4.405   3.238
 2891SOL    HW1 9572   2.465   4.455   3.304
 2891SOL    HW2 9573   2.445   4.419   3.146
 2892SOL     OW 9574   5.165   4.007   0.624
 2892SOL    HW1 9575   5.209   3.950   0.694
 2892SOL    HW2 9576   5.212   3.994   0.537
 2893SOL     OW 9577   1.285   6.925   4.868
 2893SOL    HW1 9578   1.298   0.002   4.876
 2893SOL    HW2 9579   1.240   6.890   4.949
 2894SOL     OW 9580   3.154   2.660   6.863
 2894SOL    HW1 9581   3.154   2.755   6.832
 2894SOL    HW2 9582   3.185   2.600   6.789
 2895SOL     OW 9583   4.248   3.057   6.415
 2895SOL    HW1 9584   4.245   3.000   6.497
 2895SOL    HW2 9585   4.284   3.147   6.439
 2896SOL     OW 9586   2.743   4.926   6.261
 2896SOL    HW1 9587   2.673   4.996   6.275
 2896SOL    HW2 9588   2.760   4.879   6.348
 2897SOL     OW 9589   2.620   6.389   3.657
 2897SOL    HW1 9590   2.579   6.428   3.740
 2897SOL    HW2 9591   2.666   6.303   3.679
 2898SOL     OW 9592   4.563   4.878   2.975
 2898SOL    HW1 9593   4.498   4.887   2.900
 2898SOL    HW2 9594   4.523   4.917   3.058
 2899SOL     OW 9595   0.160   1.646   6.553
 2899SOL    HW1 9596   0.065   1.615   6.556
 2899SOL    HW2 9597   0.190   1.671   6.645
 2900SOL     OW 9598   1.254   5.034   5.043
 2900SOL    HW1 9599   1.283   5.117   5.090
 2900SOL    HW2 9600   1.288   5.036   4.949
 2901SOL     OW 9601   1.200   0.055   3.029
 2901SOL    HW1 9602   1.242   0.074   2.940
 2901SOL    HW2 9603   1.107   0.020   3.015
 2902SOL     OW 9604   5.718   6.086   0.703
 2902SOL    HW1 9605   5.738   6.175   0.662
 2902SOL    HW2 9606   5.648   6.095   0.773
 2903SOL     OW 9607   3.150   0.175   1.731
 2903SOL    HW1 9608   3.181   0.261   1.771
 2903SOL    HW2 9609   3.055   0.157   1.759
 2904SOL     OW 9610   2.498   3.238   5.372
 2904SOL    HW1 9611   2.452   3.217   5.459
 2904SOL    HW2 9612   2.482   3.164   5.307
 2905SOL     OW 9613   1.107   2.183   2.691
 2905SOL    HW1 9614   1.026   2.161   2.635
 2905SOL    HW2 9615   1.089   2.157   2.786
 2906SOL     OW 9616   5.512   5.061   2.658
 2906SOL    HW1 9617   5.583   5.015   2.711
 2906SOL    HW2 9618   5.495   5.011   2.574
 2907SOL     OW 9619   6.539   0.743   4.633
 2907SOL    HW1 9620   6.531   0.830   4.585
 2907SOL    HW2 9621   6.508   0.668   4.574
 2908SOL     OW 9622   4.172   6.664   4.058
 2908SOL    HW1 9623   4.233   6.688   4.134
 2908SOL    HW2 9624   4.207   6.703   3.973
 2909SOL     OW 9625   0.445   5.759   4.002
 2909SOL    HW1 9626   0.515   5.701   4.044
 2909SOL    HW2 9627   0.486   5.847   3.979
 2910SOL     OW 9628   4.356   6.727   4.266
 2910SOL    HW1 9629   4.392   6.817   4.242
 2910SOL    HW2 9630   4.430   6.670   4.302
 2911SOL     OW 9631   2.371   5.282   3.695
 2911SOL    HW1 9632   2.352   5.190   3.660
 2911SOL    HW2 9633   2.470   5.295   3.699
 2912SOL     OW 9634   3.604   5.992   0.243
 2912SOL    HW1 9635   3.524   6.042   0.275
 2912SOL    HW2 9636   3.580   5.896   0.228
 2913SOL     OW 9637   2.208   5.003   2.511
 2913SOL    HW1 9638   2.164   4.980   2.425
 2913SOL    HW2 9639   2.138   5.014   2.582
 2914SOL     OW 9640   6.015   5.307   6.675
 2914SOL    HW1 9641   5.923   5.346   6.672
 2914SOL    HW2 9642   6.028   5.245   6.598
 2915SOL     OW 9643   4.613   1.844   4.754
 2915SOL    HW1 9644   4.659   1.931   4.740
 2915SOL    HW2 9645   4.656   1.795   4.830
 2916SOL     OW 9646   6.265   5.159   5.787
 2916SOL    HW1 9647   6.228   5.115   5.706
 2916SOL    HW2 9648   6.255   5.259   5.778
 2917SOL     OW 9649   4.352   0.755   1.613
 2917SOL    HW1 9650   4.268   0.762   1.668
 2917SOL    HW2 9651   4.384   0.846   1.589
 2918SOL     OW 9652   0.081   3.181   3.316
 2918SOL    HW1 9653   0.069   3.269   3.270
 2918SOL    HW2 9654   0.155   3.189   3.383
 2919SOL     OW 9655   6.425   0.891   0.236
 2919SOL    HW1 9656   6.429   0.910   0.138
 2919SOL    HW2 9657   6.381   0.803   0.251
 2920SOL     OW 9658   3.619   1.979   2.328
 2920SOL    HW1 9659   3.539   1.933   2.367
 2920SOL    HW2 9660   3.694   1.977   2.394
 2921SOL     OW 9661   0.242   0.629   2.870
 2921SOL    HW1 9662   0.213   0.577   2.789
 2921SOL    HW2 9663   0.172   0.622   2.941
 2922SOL     OW 9664   5.866   6.499   6.866
 2922SOL    HW1 9665   5.921   6.583   6.863
 2922SOL    HW2 9666   5.857   6.469   6.961
 2923SOL     OW 9667   6.989   5.470   1.715
 2923SOL    HW1 9668   6.932   5.503   1.790
 2923SOL    HW2 9669   6.992   5.538   1.643
 2924SOL     OW 9670   0.040   1.877   6.211
 2924SOL    HW1 9671   0.036   1.977   6.207
 2924SOL    HW2 9672   0.106   1.844   6.143
 2925SOL     OW 9673   5.327   0.593   3.236
 2925SOL    HW1 9674   5.372   0.609   3.148
 2925SOL    HW2 9675   5.351   0.666   3.300
 2926SOL     OW 9676   6.751   1.389   5.596
 2926SOL    HW1 9677   6.699   1.473   5.592
 2926SOL    HW2 9678   6.803   1.385   5.682
 2927SOL     OW 9679   2.000   1.896   2.381
 2927SOL    HW1 9680   2.089   1.893   2.335
 2927SOL    HW2 9681   1.951   1.979   2.354
 2928SOL     OW 9682   6.413   2.335   6.256
 2928SOL    HW1 9683   6.366   2.306   6.173
 2928SOL    HW2 9684   6.448   2.428   6.244
 2929SOL     OW 9685   0.871   1.325   5.584
 2929SOL    HW1 9686   0.871   1.321   5.484
 2929SOL    HW2 9687   0.810   1.254   5.621
 2930SOL     OW 9688   5.043   6.511   4.738
 2930SOL    HW1 9689   5.032   6.591   4.797
 2930SOL    HW2 9690   4.955   6.467   4.724
 2931SOL     OW 9691   5.463   6.286   6.578
 2931SOL    HW1 9692   5.563   6.294   6.579
 2931SOL    HW2 9693   5.438   6.190   6.595
 2932SOL     OW 9694   1.683   5.004   1.900
 2932SOL    HW1 9695   1.617   4.959   1.961
 2932SOL    HW2 9696   1.753   4.938   1.873
 2933SOL     OW 9697   5.581   2.809   3.684
 2933SOL    HW1 9698   5.659   2.872   3.676
 2933SOL    HW2 9699   5.523   2.837   3.761
 2934SOL     OW 9700   3.782   1.251   0.358
 2934SOL    HW1 9701   3.794   1.230   0.455
 2934SOL    HW2 9702   3.687   1.234   0.331
 2935SOL     OW 9703   6.102   3.155   1.733
 2935SOL    HW1 9704   6.097   3.085   1.662
 2935SOL    HW2 9705   6.013   3.200   1.743
 2936SOL     OW 9706   4.948   5.655   1.654
 2936SOL    HW1 9707   4.880   5.611   1.596
 2936SOL    HW2 9708   5.019   5.588   1.677
 2937SOL     OW 9709   3.364   4.995   0.539
 2937SOL    HW1 9710   3.379   5.093   0.526
 2937SOL    HW2 9711   3.366   4.949   0.450
 2938SOL     OW 9712   4.793   4.767   5.600
 2938SOL    HW1 9713   4.707   4.760   5.651
 2938SOL    HW2 9714   4.809   4.683   5.549
 2939SOL     OW 9715   0.541   6.821   4.038
 2939SOL    HW1 9716   0.613   6.751   4.042
 2939SOL    HW2 9717   0.570   6.895   3.977
 2940SOL     OW 9718   5.998   0.079   5.504
 2940SOL    HW1 9719   6.062   0.078   5.580
 2940SOL    HW2 9720   6.035   0.028   5.427
 2941SOL     OW 9721   2.170   2.489   5.443
 2941SOL    HW1 9722   2.267   2.501   5.420
 2941SOL    HW2 9723   2.162   2.434   5.526
 2942SOL     OW 9724   2.363   0.736   2.260
 2942SOL    HW1 9725   2.272   0.717   2.297
 2942SOL    HW2 9726   2.413   0.795   2.322
 2943SOL     OW 9727   5.472   3.387   3.435
 2943SOL    HW1 9728   5.534   3.396   3.358
 2943SOL    HW2 9729   5.386   3.434   3.414
 2944SOL     OW 9730   2.772   5.331   5.499
 2944SOL    HW1 9731   2.791   5.234   5.482
 2944SOL    HW2 9732   2.852   5.374   5.540
 2945SOL     OW 9733   4.044   3.346   3.544
 2945SOL    HW1 9734   4.107   3.403   3.596
 2945SOL    HW2 9735   3.963   3.401   3.519
 2946SOL     OW 9736   6.971   5.268   5.802
 2946SOL    HW1 9737   6.992   5.251   5.899
 2946SOL    HW2 9738   6.946   5.364   5.790
 2947SOL     OW 9739   0.908   4.496   0.729
 2947SOL    HW1 9740   0.875   4.448   0.810
 2947SOL    HW2 9741   1.008   4.501   0.732
 2948SOL     OW 9742   6.406   3.813   5.500
 2948SOL    HW1 9743   6.387   3.829   5.597
 2948SOL    HW2 9744   6.491   3.760   5.491
 2949SOL     OW 9745   1.886   6.103   1.021
 2949SOL    HW1 9746   1.937   6.018   1.030
 2949SOL    HW2 9747   1.860   6.117   0.926
 2950SOL     OW 9748   5.590   3.386   4.580
 2950SOL    HW1 9749   5.652   3.309   4.564
 2950SOL    HW2 9750   5.608   3.423   4.672
 2951SOL     OW 9751   6.648   2.575   6.895
 2951SOL    HW1 9752   6.714   2.580   6.820
 2951SOL    HW2 9753   6.690   2.528   6.973
 2952SOL     OW 9754   1.339   5.221   4.833
 2952SOL    HW1 9755   1.398   5.223   4.753
 2952SOL    HW2 9756   1.394   5.202   4.915
 2953SOL     OW 9757   4.670   2.551   2.368
 2953SOL    HW1 9758   4.648   2.557   2.465
 2953SOL    HW2 9759   4.716   2.635   2.339
 2954SOL     OW 9760   1.195   5.506   1.501
 2954SOL    HW1 9761   1.127   5.494   1.573
 2954SOL    HW2 9762   1.159   5.568   1.431
 2955SOL     OW 9763   0.688   3.371   0.673
 2955SOL    HW1 9764   0.774   3.419   0.658
 2955SOL    HW2 9765   0.645   3.407   0.756
 2956SOL     OW 9766   6.420   5.903   2.852
 2956SOL    HW1 9767   6.374   5.821   2.887
 2956SOL    HW2 9768   6.518   5.896   2.870
 2957SOL     OW 9769   6.405   3.122   1.127
 2957SOL    HW1 9770   6.353   3.182   1.066
 2957SOL    HW2 9771   6.377   3.027   1.112
 2958SOL     OW 9772   2.642   4.645   4.785
 2958SOL    HW1 9773   2.645   4.738   4.747
 2958SOL    HW2 9774   2.728   4.626   4.833
 2959SOL     OW 9775   5.144   4.625   0.431
 2959SOL    HW1 9776   5.087   4.543   0.442
 2959SOL    HW2 9777   5.222   4.620   0.492
 2960SOL     OW 9778   2.726   0.854   6.545
 2960SOL    HW1 9779   2.695   0.799   6.623
 2960SOL    HW2 9780   2.723   0.951   6.569
 2961SOL     OW 9781   5.313   2.589   4.679
 2961SOL    HW1 9782   5.232   2.614   4.733
 2961SOL    HW2 9783   5.388   2.651   4.701
 2962SOL     OW 9784   4.390   0.717   3.980
 2962SOL    HW1 9785   4.479   0.677   3.961
 2962SOL    HW2 9786   4.367   0.704   4.076
 2963SOL     OW 9787   1.488   1.880   5.470
 2963SOL    HW1 9788   1.402   1.829   5.475
 2963SOL    HW2 9789   1.564   1.815   5.468
 2964SOL     OW 9790   1.328   0.124   1.671
 2964SOL    HW1 9791   1.380   0.104   1.754
 2964SOL    HW2 9792   1.250   0.062   1.665
 2965SOL     OW 9793   0.038   1.148   4.998
 2965SOL    HW1 9794   0.011   1.223   5.058
 2965SOL    HW2 9795   7.005   1.067   5.018
 2966SOL     OW 9796   6.088   4.697   3.948
 2966SOL    HW1 9797   6.093   4.661   3.855
 2966SOL    HW2 9798   6.180   4.720   3.981
 2967SOL     OW 9799   6.190   2.699   3.694
 2967SOL    HW1 9800   6.139   2.729   3.613
 2967SOL    HW2 9801   6.127   2.657   3.759
 2968SOL     OW 9802   0.715   4.198   5.815
 2968SOL    HW1 9803   0.632   4.180   5.762
 2968SOL    HW2 9804   0.723   4.131   5.889
 2969SOL     OW 9805   5.847   0.980   4.925
 2969SOL    HW1 9806   5.818   1.005   5.017
 2969SOL    HW2 9807   5.931   1.029   4.902
 2970SOL     OW 9808   1.424   4.330   0.076
 2970SOL    HW1 9809   1.388   4.339   7.005
 2970SOL    HW2 9810   1.350   4.343   0.142
 2971SOL     OW 9811   5.188   2.611   4.981
 2971SOL    HW1 9812   5.154   2.678   5.047
 2971SOL    HW2 9813   5.288   2.608   4.985
 2972SOL     OW 9814   6.449   5.137   6.178
 2972SOL    HW1 9815   6.376   5.205   6.185
 2972SOL    HW2 9816   6.459   5.109   6.082
 2973SOL     OW 9817   5.243   1.033   4.323
 2973SOL    HW1 9818   5.207   1.113   4.369
 2973SOL    HW2 9819   5.275   1.058   4.231
 2974SOL     OW 9820   0.004   3.450   3.213
 2974SOL    HW1 9821   6.938   3.488   3.182
 2974SOL    HW2 9822   0.053   3.411   3.135
 2975SOL     OW 9823   0.301   1.934   5.173
 2975SOL    HW1 9824   0.286   1.915   5.076
 2975SOL    HW2 9825   0.284   2.031   5.190
 2976SOL     OW 9826   3.695   1.391   2.558
 2976SOL    HW1 9827   3.705   1.299   2.518
 2976SOL    HW2 9828   3.693   1.383   2.658
 2977SOL     OW 9829   2.168   0.347   4.479
 2977SOL    HW1 9830   2.186   0.250   4.465
 2977SOL    HW2 9831   2.083   0.358   4.531
 2978SOL     OW 9832   4.229   4.798   6.678
 2978SOL    HW1 9833   4.282   4.845   6.607
 2978SOL    HW2 9834   4.146   4.850   6.698
 2979SOL     OW 9835   4.542   6.684   3.977
 2979SOL    HW1 9836   4.593   6.607   4.015
 2979SOL    HW2 9837   4.564   6.767   4.028
 2980SOL     OW 9838   1.576   5.753   3.936
 2980SOL    HW1 9839   1.647   5.823   3.934
 2980SOL    HW2 9840   1.521   5.760   3.853
 2981SOL     OW 9841   0.802   7.015   5.860
 2981SOL    HW1 9842   0.759   0.040   5.782
 2981SOL    HW2 9843   0.778   6.918   5.858
 2982SOL     OW 9844   4.830   5.993   3.328
 2982SOL    HW1 9845   4.787   5.909   3.296
 2982SOL    HW2 9846   4.911   6.013   3.272
 2983SOL     OW 9847   1.030   1.213   4.251
 2983SOL    HW1 9848   0.937   1.190   4.276
 2983SOL    HW2 9849   1.029   1.276   4.173
 2984SOL     OW 9850   4.781   5.605   1.154
 2984SOL    HW1 9851   4.721   5.682   1.129
 2984SOL    HW2 9852   4.854   5.638   1.213
 2985SOL     OW 9853   0.813   2.473   4.658
 2985SOL    HW1 9854   0.870   2.393   4.675
 2985SOL    HW2 9855   0.765   2.498   4.743
 2986SOL     OW 9856   1.854   4.090   6.491
 2986SOL    HW1 9857   1.875   4.164   6.555
 2986SOL    HW2 9858   1.870   4.122   6.398
 2987SOL     OW 9859   4.887   0.784   3.885
 2987SOL    HW1 9860   4.958   0.801   3.817
 2987SOL    HW2 9861   4.910   0.704   3.939
 2988SOL     OW 9862   0.284   6.866   2.794
 2988SOL    HW1 9863   0.305   6.905   2.704
 2988SOL    HW2 9864   0.225   6.929   2.845
 2989SOL     OW 9865   6.312   6.404   0.960
 2989SOL    HW1 9866   6.353   6.440   0.876
 2989SOL    HW2 9867   6.385   6.378   1.023
 2990SOL     OW 9868   4.332   1.118   3.680
 2990SOL    HW1 9869   4.298   1.041   3.735
 2990SOL    HW2 9870   4.418   1.092   3.636
 2991SOL     OW 9871   6.746   3.740   0.523
 2991SOL    HW1 9872   6.724   3.828   0.480
 2991SOL    HW2 9873   6.717   3.666   0.462
 2992SOL     OW 9874   2.033   5.321   5.649
 2992SOL    HW1 9875   2.110   5.261   5.673
 2992SOL    HW2 9876   2.062   5.416   5.657
 2993SOL     OW 9877   1.250   4.805   1.979
 2993SOL    HW1 9878   1.206   4.796   1.890
 2993SOL    HW2 9879   1.197   4.869   2.036
 2994SOL     OW 9880   3.971   0.936   0.513
 2994SOL    HW1 9881   3.972   0.974   0.420
 2994SOL    HW2 9882   3.960   1.010   0.579
 2995SOL     OW 9883   1.086   3.021   6.930
 2995SOL    HW1 9884   1.182   3.049   6.941
 2995SOL    HW2 9885   1.075   2.976   6.841
 2996SOL     OW 9886   3.057   6.122   4.273
 2996SOL    HW1 9887   3.086   6.038   4.318
 2996SOL    HW2 9888   3.134   6.186   4.267
 2997SOL     OW 9889   4.796   6.563   2.056
 2997SOL    HW1 9890   4.856   6.541   2.134
 2997SOL    HW2 9891   4.787   6.662   2.048
 2998SOL     OW 9892   5.000   6.363   5.085
 2998SOL    HW1 9893   4.947   6.444   5.109
 2998SOL    HW2 9894   5.095   6.388   5.072
 2999SOL     OW 9895   3.757   5.903   3.806
 2999SOL    HW1 9896   3.821   5.947   3.868
 2999SOL    HW2 9897   3.746   5.806   3.831
 3000SOL     OW 9898   1.419   3.794   6.414
 3000SOL    HW1 9899   1.435   3.890   6.437
 3000SOL    HW2 9900   1.437   3.737   6.495
 3001SOL     OW 9901   5.546   0.438   0.114
 3001SOL    HW1 9902   5.623   0.501   0.112
 3001SOL    HW2 9903   5.519   0.416   0.020
 3002SOL     OW 9904   4.233   0.540   5.363
 3002SOL    HW1 9905   4.164   0.603   5.398
 3002SOL    HW2 9906   4.298   0.518   5.435
 3003SOL     OW 9907   2.402   6.431   6.905
 3003SOL    HW1 9908   2.348   6.358   6.863
 3003SOL    HW2 9909   2.385   6.516   6.856
 3004SOL     OW 9910   6.753   5.052   3.938
 3004SOL    HW1 9911   6.714   5.133   3.896
 3004SOL    HW2 9912   6.842   5.074   3.979
 3005SOL     OW 9913   3.442   2.633   0.950
 3005SOL    HW1 9914   3.507   2.706   0.973
 3005SOL    HW2 9915   3.475   2.546   0.987
 3006SOL     OW 9916   6.509   2.286   0.160
 3006SOL    HW1 9917   6.468   2.314   0.073
 3006SOL    HW2 9918   6.563   2.203   0.146
 3007SOL     OW 9919   6.326   5.040   2.553
 3007SOL    HW1 9920   6.311   5.108   2.624
 3007SOL    HW2 9921   6.239   4.995   2.531
 3008SOL     OW 9922   3.703   0.440   6.436
 3008SOL    HW1 9923   3.606   0.444   6.414
 3008SOL    HW2 9924   3.716   0.461   6.533
 3009SOL     OW 9925   0.716   6.409   2.510
 3009SOL    HW1 9926   0.653   6.484   2.527
 3009SOL    HW2 9927   0.767   6.427   2.426
 3010SOL     OW 9928   3.861   5.757   3.327
 3010SOL    HW1 9929   3.803   5.779   3.249
 3010SOL    HW2 9930   3.859   5.832   3.393
 3011SOL     OW 9931   5.531   1.155   0.025
 3011SOL    HW1 9932   5.630   1.148   0.019
 3011SOL    HW2 9933   5.506   1.238   0.075
 3012SOL     OW 9934   1.239   3.847   5.104
 3012SOL    HW1 9935   1.304   3.787   5.058
 3012SOL    HW2 9936   1.189   3.796   5.174
 3013SOL     OW 9937   5.477   5.652   4.022
 3013SOL    HW1 9938   5.469   5.554   4.035
 3013SOL    HW2 9939   5.563   5.684   4.063
 3014SOL     OW 9940   5.051   2.520   3.803
 3014SOL    HW1 9941   5.125   2.454   3.789
 3014SOL    HW2 9942   5.090   2.613   3.805
 3015SOL     OW 9943   3.734   2.383   0.688
 3015SOL    HW1 9944   3.690   2.472   0.696
 3015SOL    HW2 9945   3.810   2.389   0.623
 3016SOL     OW 9946   3.485   5.908   4.437
 3016SOL    HW1 9947   3.413   5.927   4.369
 3016SOL    HW2 9948   3.572   5.944   4.404
 3017SOL     OW 9949   0.990   5.265   1.612
 3017SOL    HW1 9950   0.995   5.182   1.667
 3017SOL    HW2 9951   1.063   5.266   1.544
 3018SOL     OW 9952   3.128   6.801   6.194
 3018SOL    HW1 9953   3.074   6.861   6.135
 3018SOL    HW2 9954   3.072   6.771   6.271
 3019SOL     OW 9955   2.410   6.742   0.942
 3019SOL    HW1 9956   2.499   6.787   0.949
 3019SOL    HW2 9957   2.391   6.692   1.026
 3020SOL     OW 9958   3.546   3.848   1.622
 3020SOL    HW1 9959   3.608   3.770   1.620
 3020SOL    HW2 9960   3.571   3.909   1.698
 3021SOL     OW 9961   2.212   1.567   0.489
 3021SOL    HW1 9962   2.303   1.609   0.497
 3021SOL    HW2 9963   2.142   1.637   0.503
 3022SOL     OW 9964   4.324   6.199   2.736
 3022SOL    HW1 9965   4.383   6.280   2.746
 3022SOL    HW2 9966   4.246   6.208   2.799
 3023SOL     OW 9967   3.706   6.587   2.893
 3023SOL    HW1 9968   3.677   6.674   2.933
 3023SOL    HW2 9969   3.625   6.537   2.861
 3024SOL     OW 9970   3.407   0.474   6.367
 3024SOL    HW1 9971   3.359   0.452   6.451
 3024SOL    HW2 9972   3.406   0.395   6.306
 3025SOL     OW 9973   3.549   2.540   0.304
 3025SOL    HW1 9974   3.450   2.546   0.291
 3025SOL    HW2 9975   3.572   2.575   0.395
 3026SOL     OW 9976   1.451   2.647   0.558
 3026SOL    HW1 9977   1.504   2.567   0.530
 3026SOL    HW2 9978   1.409   2.629   0.648
 3027SOL     OW 9979   3.944   1.032   1.767
 3027SOL    HW1 9980   4.010   0.994   1.702
 3027SOL    HW2 9981   3.897   1.110   1.726
 3028SOL     OW 9982   1.083   4.384   6.640
 3028SOL    HW1 9983   0.991   4.351   6.661
 3028SOL    HW2 9984   1.108   4.355   6.547
 3029SOL     OW 9985   0.043   4.982   4.805
 3029SOL    HW1 9986   0.141   5.001   4.807
 3029SOL    HW2 9987   0.027   4.885   4.819
 3030SOL     OW 9988   0.625   2.231   5.683
 3030SOL    HW1 9989   0.720   2.264   5.684
 3030SOL    HW2 9990   0.567   2.300   5.639
 3031SOL     OW 9991   0.260   3.669   1.048
 3031SOL    HW1 9992   0.335   3.635   1.104
 3031SOL    HW2 9993   0.204   3.733   1.101
 3032SOL     OW 9994   5.206   0.445   0.520
 3032SOL    HW1 9995   5.289   0.499   0.534
 3032SOL    HW2 9996   5.126   0.499   0.543
 3033SOL     OW 9997   0.888   2.739   0.659
 3033SOL    HW1 9998   0.900   2.823   0.711
 3033SOL    HW2 9999   0.948   2.740   0.578
 3034SOL     OW10000   2.117   6.241   3.961
 3034SOL    HW110001   2.168   6.214   4.043
 3034SOL    HW210002   2.137   6.337   3.939
 3035SOL     OW10003   6.843   3.171   0.373
 3035SOL    HW110004   6.799   3.246   0.323
 3035SOL    HW210005   6.774   3.120   0.424
 3036SOL     OW10006   1.622   3.367   6.750
 3036SOL    HW110007   1.645   3.463   6.762
 3036SOL    HW210008   1.694   3.311   6.792
 3037SOL     OW10009   6.140   5.615   4.956
 3037SOL    HW110010   6.104   5.662   5.037
 3037SOL    HW210011   6.070   5.615   4.885
 3038SOL     OW10012   5.686   6.608   6.340
 3038SOL    HW110013   5.608   6.669   6.334
 3038SOL    HW210014   5.770   6.658   6.320
 3039SOL     OW10015   6.466   3.672   2.408
 3039SOL    HW110016   6.550   3.705   2.364
 3039SOL    HW210017   6.487   3.589   2.460
 3040SOL     OW10018   5.147   4.122   6.200
 3040SOL    HW110019   5.124   4.169   6.286
 3040SOL    HW210020   5.071   4.063   6.173
 3041SOL     OW10021   2.209   2.733   5.553
 3041SOL    HW110022   2.202   2.651   5.498
 3041SOL    HW210023   2.169   2.811   5.504
 3042SOL     OW10024   5.140   6.581   1.788
 3042SOL    HW110025   5.160   6.635   1.870
 3042SOL    HW210026   5.170   6.631   1.707
 3043SOL     OW10027   0.728   5.400   0.838
 3043SOL    HW110028   0.766   5.350   0.760
 3043SOL    HW210029   0.713   5.496   0.813
 3044SOL     OW10030   3.148   4.678   6.081
 3044SOL    HW110031   3.062   4.653   6.036
 3044SOL    HW210032   3.130   4.741   6.156
 3045SOL     OW10033   4.957   0.354   2.372
 3045SOL    HW110034   5.033   0.389   2.426
 3045SOL    HW210035   4.875   0.351   2.429
 3046SOL     OW10036   1.654   2.517   5.770
 3046SOL    HW110037   1.745   2.506   5.812
 3046SOL    HW210038   1.587   2.465   5.823
 3047SOL     OW10039   4.893   6.076   2.332
 3047SOL    HW110040   4.877   6.040   2.240
 3047SOL    HW210041   4.811   6.061   2.388
 3048SOL     OW10042   3.373   3.181   1.886
 3048SOL    HW110043   3.452   3.238   1.863
 3048SOL    HW210044   3.327   3.152   1.802
 3049SOL     OW10045   1.213   6.041   1.210
 3049SOL    HW110046   1.220   5.977   1.286
 3049SOL    HW210047   1.304   6.062   1.175
 3050SOL     OW10048   3.457   0.486   3.876
 3050SOL    HW110049   3.397   0.486   3.796
 3050SOL    HW210050   3.420   0.545   3.947
 3051SOL     OW10051   2.818   3.547   0.226
 3051SOL    HW110052   2.791   3.495   0.307
 3051SOL    HW210053   2.743   3.548   0.160
 3052SOL     OW10054   4.533   0.947   2.067
 3052SOL    HW110055   4.455   0.930   2.006
 3052SOL    HW210056   4.517   1.029   2.121
 3053SOL     OW10057   6.482   0.523   6.434
 3053SOL    HW110058   6.456   0.475   6.518
 3053SOL    HW210059   6.429   0.488   6.357
 3054SOL     OW10060   0.682   2.655   0.508
 3054SOL    HW110061   0.744   2.649   0.586
 3054SOL    HW210062   0.706   2.585   0.441
 3055SOL     OW10063   4.696   0.059   3.700
 3055SOL    HW110064   4.667   0.155   3.706
 3055SOL    HW210065   4.668   0.021   3.612
 3056SOL     OW10066   0.217   0.437   6.868
 3056SOL    HW110067   0.280   0.492   6.812
 3056SOL    HW210068   0.136   0.492   6.890
 3057SOL     OW10069   4.223   5.519   2.928
 3057SOL    HW110070   4.300   5.530   2.865
 3057SOL    HW210071   4.145   5.479   2.879
 3058SOL     OW10072   6.743   5.804   1.568
 3058SOL    HW110073   6.685   5.722   1.573
 3058SOL    HW210074   6.730   5.859   1.650
 3059SOL     OW10075   1.851   2.535   5.244
 3059SOL    HW110076   1.802   2.596   5.182
 3059SOL    HW210077   1.795   2.519   5.325
 3060SOL     OW10078   0.329   6.142   0.414
 3060SOL    HW110079   0.363   6.214   0.354
 3060SOL    HW210080   0.269   6.081   0.362
 3061SOL     OW10081   6.612   1.201   4.978
 3061SOL    HW110082   6.555   1.263   5.032
 3061SOL    HW210083   6.707   1.229   4.983
 3062SOL     OW10084   1.473   7.011   0.249
 3062SOL    HW110085   1.399   0.023   0.306
 3062SOL    HW210086   1.446   6.924   0.207
 3063SOL     OW10087   2.834   5.279   2.043
 3063SOL    HW110088   2.879   5.194   2.015
 3063SOL    HW210089   2.753   5.259   2.097
 3064SOL     OW10090   6.036   3.627   3.827
 3064SOL    HW110091   6.066   3.546   3.776
 3064SOL    HW210092   6.100   3.702   3.812
 3065SOL     OW10093   1.676   0.686   6.459
 3065SOL    HW110094   1.596   0.743   6.477
 3065SOL    HW210095   1.758   0.743   6.453
 3066SOL     OW10096   5.728   4.637   0.638
 3066SOL    HW110097   5.714   4.567   0.708
 3066SOL    HW210098   5.811   4.688   0.658
 3067SOL     OW10099   3.502   1.485   4.384
 3067SOL    HW110100   3.566   1.561   4.381
 3067SOL    HW210101   3.508   1.440   4.473
 3068SOL     OW10102   5.321   6.012   0.631
 3068SOL    HW110103   5.330   5.913   0.626
 3068SOL    HW210104   5.225   6.037   0.632
 3069SOL     OW10105   6.511   5.990   1.721
 3069SOL    HW110106   6.462   5.938   1.651
 3069SOL    HW210107   6.451   6.059   1.760
 3070SOL     OW10108   1.729   1.055   2.030
 3070SOL    HW110109   1.806   1.090   1.976
 3070SOL    HW210110   1.742   1.080   2.126
 3071SOL     OW10111   6.067   6.387   3.675
 3071SOL    HW110112   6.017   6.423   3.755
 3071SOL    HW210113   6.086   6.462   3.612
 3072SOL     OW10114   0.656   6.466   0.667
 3072SOL    HW110115   0.712   6.446   0.587
 3072SOL    HW210116   0.568   6.419   0.659
 3073SOL     OW10117   0.893   3.345   4.946
 3073SOL    HW110118   0.810   3.300   4.979
 3073SOL    HW210119   0.899   3.336   4.847
 3074SOL     OW10120   5.571   3.128   0.681
 3074SOL    HW110121   5.561   3.206   0.743
 3074SOL    HW210122   5.492   3.068   0.690
 3075SOL     OW10123   1.750   6.254   1.210
 3075SOL    HW110124   1.813   6.205   1.150
 3075SOL    HW210125   1.777   6.350   1.217
 3076SOL     OW10126   6.299   0.847   4.140
 3076SOL    HW110127   6.266   0.924   4.194
 3076SOL    HW210128   6.399   0.840   4.149
 3077SOL     OW10129   5.273   4.969   2.736
 3077SOL    HW110130   5.357   5.010   2.701
 3077SOL    HW210131   5.289   4.873   2.759
 3078SOL     OW10132   1.951   3.274   1.259
 3078SOL    HW110133   1.967   3.275   1.358
 3078SOL    HW210134   1.948   3.368   1.224
 3079SOL     OW10135   1.925   2.852   4.330
 3079SOL    HW110136   1.908   2.808   4.241
 3079SOL    HW210137   2.016   2.825   4.363
 3080SOL     OW10138   5.649   4.654   2.678
 3080SOL    HW110139   5.634   4.560   2.710
 3080SOL    HW210140   5.745   4.679   2.693
 3081SOL     OW10141   0.578   4.167   6.405
 3081SOL    HW110142   0.483   4.146   6.427
 3081SOL    HW210143   0.589   4.173   6.306
 3082SOL     OW10144   3.685   6.686   3.509
 3082SOL    HW110145   3.774   6.649   3.485
 3082SOL    HW210146   3.626   6.612   3.541
 3083SOL     OW10147   4.101   6.298   3.367
 3083SOL    HW110148   4.050   6.251   3.438
 3083SOL    HW210149   4.078   6.260   3.278
 3084SOL     OW10150   4.801   4.646   4.635
 3084SOL    HW110151   4.870   4.641   4.563
 3084SOL    HW210152   4.839   4.612   4.721
 3085SOL     OW10153   0.402   4.586   2.673
 3085SOL    HW110154   0.358   4.598   2.762
 3085SOL    HW210155   0.486   4.533   2.684
 3086SOL     OW10156   4.098   1.599   1.373
 3086SOL    HW110157   4.063   1.547   1.295
 3086SOL    HW210158   4.175   1.550   1.414
 3087SOL     OW10159   0.568   4.881   3.653
 3087SOL    HW110160   0.651   4.850   3.699
 3087SOL    HW210161   0.579   4.975   3.623
 3088SOL     OW10162   2.311   4.885   5.200
 3088SOL    HW110163   2.211   4.877   5.194
 3088SOL    HW210164   2.353   4.803   5.161
 3089SOL     OW10165   0.887   2.630   0.151
 3089SOL    HW110166   0.937   2.686   0.217
 3089SOL    HW210167   0.853   2.688   0.076
 3090SOL     OW10168   1.619   2.193   1.803
 3090SOL    HW110169   1.553   2.246   1.749
 3090SOL    HW210170   1.570   2.127   1.859
 3091SOL     OW10171   2.787   6.250   0.217
 3091SOL    HW110172   2.786   6.171   0.156
 3091SOL    HW210173   2.786   6.334   0.162
 3092SOL     OW10174   4.988   0.159   6.698
 3092SOL    HW110175   4.924   0.230   6.727
 3092SOL    HW210176   4.936   0.078   6.669
 3093SOL     OW10177   5.621   4.930   5.947
 3093SOL    HW110178   5.585   4.839   5.968
 3093SOL    HW210179   5.714   4.938   5.983
 3094SOL     OW10180   3.382   6.935   5.041
 3094SOL    HW110181   3.355   6.993   4.964
 3094SOL    HW210182   3.322   6.855   5.044
 3095SOL     OW10183   2.595   5.150   4.286
 3095SOL    HW110184   2.567   5.106   4.371
 3095SOL    HW210185   2.634   5.240   4.305
 3096SOL     OW10186   0.749   0.388   4.104
 3096SOL    HW110187   0.664   0.400   4.051
 3096SOL    HW210188   0.825   0.429   4.054
 3097SOL     OW10189   0.527   2.878   0.839
 3097SOL    HW110190   0.438   2.839   0.817
 3097SOL    HW210191   0.563   2.928   0.760
 3098SOL     OW10192   2.344   3.341   1.434
 3098SOL    HW110193   2.340   3.396   1.351
 3098SOL    HW210194   2.439   3.320   1.457
 3099SOL     OW10195   0.034   5.932   5.158
 3099SOL    HW110196   0.095   5.935   5.078
 3099SOL    HW210197   6.962   5.953   5.129
 3100SOL     OW10198   6.673   0.277   4.660
 3100SOL    HW110199   6.690   0.237   4.750
 3100SOL    HW210200   6.760   0.288   4.612
 3101SOL     OW10201   4.580   6.147   5.309
 3101SOL    HW110202   4.612   6.218   5.246
 3101SOL    HW210203   4.488   6.119   5.283
 3102SOL     OW10204   1.397   5.211   2.344
 3102SOL    HW110205   1.370   5.116   2.358
 3102SOL    HW210206   1.424   5.252   2.431
 3103SOL     OW10207   3.041   1.709   1.471
 3103SOL    HW110208   3.011   1.699   1.376
 3103SOL    HW210209   2.966   1.683   1.532
 3104SOL     OW10210   6.038   0.105   4.386
 3104SOL    HW110211   5.976   0.118   4.463
 3104SOL    HW210212   6.037   0.186   4.327
 3105SOL     OW10213   6.656   5.182   3.147
 3105SOL    HW110214   6.606   5.210   3.065
 3105SOL    HW210215   6.722   5.111   3.123
 3106SOL     OW10216   6.768   1.425   3.027
 3106SOL    HW110217   6.772   1.503   3.089
 3106SOL    HW210218   6.674   1.414   2.993
 3107SOL     OW10219   3.320   0.214   4.340
 3107SOL    HW110220   3.337   0.297   4.392
 3107SOL    HW210221   3.248   0.161   4.384
 3108SOL     OW10222   1.925   0.618   4.590
 3108SOL    HW110223   1.928   0.520   4.610
 3108SOL    HW210224   1.894   0.633   4.496
 3109SOL     OW10225   5.967   6.019   2.983
 3109SOL    HW110226   6.040   6.019   3.051
 3109SOL    HW210227   6.001   5.978   2.898
 3110SOL     OW10228   1.262   1.717   3.743
 3110SOL    HW110229   1.190   1.647   3.740
 3110SOL    HW210230   1.311   1.711   3.830
 3111SOL     OW10231   6.654   5.659   4.006
 3111SOL    HW110232   6.684   5.675   4.100
 3111SOL    HW210233   6.556   5.678   3.999
 3112SOL     OW10234   4.985   2.514   6.246
 3112SOL    HW110235   4.886   2.504   6.261
 3112SOL    HW210236   5.029   2.425   6.255
 3113SOL     OW10237   1.855   6.984   4.427
 3113SOL    HW110238   1.802   6.903   4.403
 3113SOL    HW210239   1.939   6.956   4.474
 3114SOL     OW10240   4.849   3.341   0.157
 3114SOL    HW110241   4.930   3.351   0.099
 3114SOL    HW210242   4.773   3.307   0.102
 3115SOL     OW10243   4.981   3.453   0.349
 3115SOL    HW110244   4.931   3.404   0.278
 3115SOL    HW210245   5.050   3.392   0.389
 3116SOL     OW10246   0.483   3.615   6.954
 3116SOL    HW110247   0.471   3.543   6.885
 3116SOL    HW210248   0.523   3.696   6.911
 3117SOL     OW10249   4.550   3.610   5.342
 3117SOL    HW110250   4.480   3.673   5.307
 3117SOL    HW210251   4.609   3.581   5.268
 3118SOL     OW10252   6.919   4.513   6.771
 3118SOL    HW110253   6.869   4.461   6.702
 3118SOL    HW210254   6.938   4.605   6.737
 3119SOL     OW10255   1.984   3.870   5.710
 3119SOL    HW110256   2.058   3.839   5.769
 3119SOL    HW210257   1.923   3.794   5.690
 3120SOL     OW10258   2.283   6.317   4.543
 3120SOL    HW110259   2.270   6.406   4.586
 3120SOL    HW210260   2.198   6.288   4.500
 3121SOL     OW10261   0.706   1.314   2.347
 3121SOL    HW110262   0.640   1.352   2.284
 3121SOL    HW210263   0.799   1.333   2.314
 3122SOL     OW10264   3.238   5.794   6.244
 3122SOL    HW110265   3.245   5.767   6.340
 3122SOL    HW210266   3.186   5.726   6.194
 3123SOL     OW10267   3.640   6.422   3.876
 3123SOL    HW110268   3.669   6.329   3.856
 3123SOL    HW210269   3.603   6.427   3.969
 3124SOL     OW10270   3.982   0.326   4.792
 3124SOL    HW110271   3.940   0.413   4.769
 3124SOL    HW210272   3.973   0.309   4.890
 3125SOL     OW10273   6.091   2.010   6.177
 3125SOL    HW110274   6.030   2.089   6.180
 3125SOL    HW210275   6.051   1.938   6.121
 3126SOL     OW10276   4.983   4.729   6.787
 3126SOL    HW110277   5.065   4.749   6.841
 3126SOL    HW210278   4.920   4.807   6.794
 3127SOL     OW10279   0.567   2.425   3.158
 3127SOL    HW110280   0.656   2.383   3.174
 3127SOL    HW210281   0.511   2.363   3.103
 3128SOL     OW10282   1.853   6.957   0.389
 3128SOL    HW110283   1.834   0.030   0.362
 3128SOL    HW210284   1.952   6.944   0.398
 3129SOL     OW10285   0.678   4.230   6.740
 3129SOL    HW110286   0.679   4.311   6.798
 3129SOL    HW210287   0.639   4.254   6.651
 3130SOL     OW10288   2.517   4.582   2.740
 3130SOL    HW110289   2.575   4.585   2.659
 3130SOL    HW210290   2.421   4.574   2.713
 3131SOL     OW10291   0.857   3.172   2.169
 3131SOL    HW110292   0.828   3.129   2.084
 3131SOL    HW210293   0.920   3.111   2.217
 3132SOL     OW10294   5.265   6.015   5.556
 3132SOL    HW110295   5.245   6.054   5.646
 3132SOL    HW210296   5.182   5.973   5.519
 3133SOL     OW10297   2.544   1.975   3.897
 3133SOL    HW110298   2.467   2.037   3.885
 3133SOL    HW210299   2.551   1.947   3.993
 3134SOL     OW10300   5.428   3.764   1.670
 3134SOL    HW110301   5.403   3.789   1.577
 3134SOL    HW210302   5.460   3.845   1.719
 3135SOL     OW10303   4.229   1.995   4.674
 3135SOL    HW110304   4.271   1.911   4.641
 3135SOL    HW210305   4.261   2.015   4.766
 3136SOL     OW10306   6.100   6.212   5.435
 3136SOL    HW110307   6.113   6.170   5.346
 3136SOL    HW210308   6.101   6.312   5.425
 3137SOL     OW10309   5.445   0.644   4.016
 3137SOL    HW110310   5.364   0.622   4.071
 3137SOL    HW210311   5.467   0.567   3.956
 3138SOL     OW10312   6.657   1.571   4.285
 3138SOL    HW110313   6.752   1.603   4.290
 3138SOL    HW210314   6.601   1.626   4.347
 3139SOL     OW10315   5.029   6.860   6.287
 3139SOL    HW110316   4.986   6.829   6.203
 3139SOL    HW210317   4.962   6.857   6.362
 3140SOL     OW10318   6.251   5.737   6.265
 3140SOL    HW110319   6.192   5.780   6.334
 3140SOL    HW210320   6.193   5.694   6.195
 3141SOL     OW10321   0.727   6.758   6.027
 3141SOL    HW110322   0.791   6.682   6.020
 3141SOL    HW210323   0.715   6.784   6.123
 3142SOL     OW10324   4.816   6.486   0.330
 3142SOL    HW110325   4.863   6.404   0.298
 3142SOL    HW210326   4.747   6.461   0.398
 3143SOL     OW10327   6.845   2.538   6.715
 3143SOL    HW110328   6.899   2.609   6.670
 3143SOL    HW210329   6.892   2.450   6.708
 3144SOL     OW10330   2.626   3.611   0.889
 3144SOL    HW110331   2.675   3.528   0.860
 3144SOL    HW210332   2.533   3.608   0.852
 3145SOL     OW10333   2.302   5.522   2.930
 3145SOL    HW110334   2.284   5.542   3.026
 3145SOL    HW210335   2.399   5.535   2.911
 3146SOL     OW10336   0.975   5.923   3.397
 3146SOL    HW110337   0.878   5.900   3.388
 3146SOL    HW210338   0.999   5.930   3.494
 3147SOL     OW10339   3.964   5.319   6.535
 3147SOL    HW110340   4.048   5.346   6.582
 3147SOL    HW210341   3.942   5.225   6.560
 3148SOL     OW10342   4.302   5.520   4.411
 3148SOL    HW110343   4.375   5.452   4.419
 3148SOL    HW210344   4.217   5.476   4.384
 3149SOL     OW10345   3.240   0.270   5.489
 3149SOL    HW110346   3.258   0.203   5.561
 3149SOL    HW210347   3.205   0.354   5.530
 3150SOL     OW10348   5.137   5.955   4.561
 3150SOL    HW110349   5.211   6.013   4.594
 3150SOL    HW210350   5.068   5.945   4.633
 3151SOL     OW10351   4.726   1.514   6.497
 3151SOL    HW110352   4.794   1.510   6.570
 3151SOL    HW210353   4.760   1.571   6.422
 3152SOL     OW10354   1.240   5.086   1.879
 3152SOL    HW110355   1.210   5.031   1.957
 3152SOL    HW210356   1.243   5.183   1.906
 3153SOL     OW10357   6.612   4.447   1.751
 3153SOL    HW110358   6.678   4.400   1.692
 3153SOL    HW210359   6.571   4.382   1.814
 3154SOL     OW10360   6.445   1.890   0.242
 3154SOL    HW110361   6.393   1.952   0.301
 3154SOL    HW210362   6.432   1.796   0.272
 3155SOL     OW10363   7.010   5.702   1.565
 3155SOL    HW110364   6.930   5.762   1.561
 3155SOL    HW210365   0.041   5.711   1.481
 3156SOL     OW10366   4.118   3.249   4.060
 3156SOL    HW110367   4.071   3.168   4.096
 3156SOL    HW210368   4.123   3.244   3.961
 3157SOL     OW10369   1.664   2.707   4.550
 3157SOL    HW110370   1.727   2.665   4.484
 3157SOL    HW210371   1.687   2.803   4.561
 3158SOL     OW10372   4.409   0.199   0.982
 3158SOL    HW110373   4.449   0.191   1.073
 3158SOL    HW210374   4.452   0.133   0.920
 3159SOL     OW10375   4.940   6.406   6.881
 3159SOL    HW110376   4.873   6.465   6.926
 3159SOL    HW210377   4.980   6.455   6.803
 3160SOL     OW10378   6.304   4.845   6.006
 3160SOL    HW110379   6.359   4.921   5.970
 3160SOL    HW210380   6.284   4.862   6.102
 3161SOL     OW10381   1.456   1.260   2.857
 3161SOL    HW110382   1.482   1.356   2.855
 3161SOL    HW210383   1.503   1.211   2.783
 3162SOL     OW10384   0.440   5.246   6.982
 3162SOL    HW110385   0.535   5.245   6.952
 3162SOL    HW210386   0.433   5.294   0.049
 3163SOL     OW10387   3.700   2.795   6.046
 3163SOL    HW110388   3.678   2.883   6.088
 3163SOL    HW210389   3.615   2.750   6.017
 3164SOL     OW10390   5.157   4.290   1.683
 3164SOL    HW110391   5.126   4.359   1.749
 3164SOL    HW210392   5.252   4.308   1.659
 3165SOL     OW10393   1.480   6.676   1.791
 3165SOL    HW110394   1.473   6.747   1.861
 3165SOL    HW210395   1.399   6.680   1.732
 3166SOL     OW10396   5.070   2.664   6.026
 3166SOL    HW110397   5.012   2.613   6.090
 3166SOL    HW210398   5.166   2.641   6.044
 3167SOL     OW10399   6.494   4.672   1.905
 3167SOL    HW110400   6.397   4.652   1.917
 3167SOL    HW210401   6.533   4.608   1.839
 3168SOL     OW10402   5.130   2.856   0.861
 3168SOL    HW110403   5.072   2.793   0.809
 3168SOL    HW210404   5.199   2.803   0.911
 3169SOL     OW10405   0.893   3.429   5.985
 3169SOL    HW110406   0.819   3.389   6.039
 3169SOL    HW210407   0.860   3.452   5.894
 3170SOL     OW10408   3.721   0.100   0.245
 3170SOL    HW110409   3.718   0.006   0.210
 3170SOL    HW210410   3.707   0.099   0.344
 3171SOL     OW10411   6.192   6.709   1.439
 3171SOL    HW110412   6.188   6.807   1.416
 3171SOL    HW210413   6.217   6.699   1.535
 3172SOL     OW10414   6.621   6.009   4.757
 3172SOL    HW110415   6.564   6.056   4.691
 3172SOL    HW210416   6.628   6.064   4.841
 3173SOL     OW10417   2.551   0.829   1.754
 3173SOL    HW110418   2.501   0.916   1.754
 3173SOL    HW210419   2.561   0.797   1.659
 3174SOL     OW10420   2.437   3.281   6.439
 3174SOL    HW110421   2.463   3.259   6.346
 3174SOL    HW210422   2.468   3.373   6.462
 3175SOL     OW10423   0.962   6.622   6.528
 3175SOL    HW110424   0.995   6.637   6.435
 3175SOL    HW210425   0.881   6.563   6.526
 3176SOL     OW10426   1.684   4.583   6.112
 3176SOL    HW110427   1.658   4.643   6.037
 3176SOL    HW210428   1.611   4.583   6.181
 3177SOL     OW10429   5.574   5.315   5.833
 3177SOL    HW110430   5.527   5.248   5.890
 3177SOL    HW210431   5.640   5.366   5.888
 3178SOL     OW10432   6.978   4.046   1.714
 3178SOL    HW110433   7.014   4.123   1.661
 3178SOL    HW210434   6.893   4.073   1.758
 3179SOL     OW10435   1.818   2.503   2.172
 3179SOL    HW110436   1.900   2.448   2.188
 3179SOL    HW210437   1.760   2.501   2.253
 3180SOL     OW10438   4.279   1.019   5.831
 3180SOL    HW110439   4.359   1.079   5.831
 3180SOL    HW210440   4.306   0.928   5.797
 3181SOL     OW10441   0.600   1.001   4.035
 3181SOL    HW110442   0.509   1.038   4.017
 3181SOL    HW210443   0.604   0.906   4.005
 3182SOL     OW10444   0.435   0.347   5.600
 3182SOL    HW110445   0.481   0.277   5.655
 3182SOL    HW210446   0.482   0.355   5.512
 3183SOL     OW10447   4.055   4.573   1.538
 3183SOL    HW110448   4.043   4.474   1.545
 3183SOL    HW210449   3.986   4.611   1.477
 3184SOL     OW10450   2.604   1.860   2.086
 3184SOL    HW110451   2.666   1.918   2.139
 3184SOL    HW210452   2.644   1.769   2.076
 3185SOL     OW10453   0.007   0.415   5.450
 3185SOL    HW110454   7.017   0.471   5.533
 3185SOL    HW210455   0.078   0.455   5.393
 3186SOL     OW10456   3.541   1.146   3.027
 3186SOL    HW110457   3.478   1.130   3.103
 3186SOL    HW210458   3.635   1.137   3.059
 3187SOL     OW10459   4.052   4.141   6.953
 3187SOL    HW110460   4.025   4.056   7.000
 3187SOL    HW210461   3.974   4.203   6.950
 3188SOL     OW10462   3.545   6.181   2.838
 3188SOL    HW110463   3.533   6.278   2.859
 3188SOL    HW210464   3.533   6.166   2.739
 3189SOL     OW10465   1.978   1.136   2.937
 3189SOL    HW110466   2.039   1.168   3.010
 3189SOL    HW210467   1.944   1.045   2.960
 3190SOL     OW10468   1.161   6.475   1.167
 3190SOL    HW110469   1.085   6.455   1.106
 3190SOL    HW210470   1.127   6.523   1.248
 3191SOL     OW10471   3.532   0.739   1.313
 3191SOL    HW110472   3.518   0.740   1.412
 3191SOL    HW210473   3.457   0.789   1.269
 3192SOL     OW10474   0.564   1.652   0.521
 3192SOL    HW110475   0.560   1.749   0.543
 3192SOL    HW210476   0.584   1.600   0.605
 3193SOL     OW10477   4.462   2.339   6.256
 3193SOL    HW110478   4.428   2.259   6.206
 3193SOL    HW210479   4.450   2.324   6.354
 3194SOL     OW10480   1.508   3.266   6.447
 3194SOL    HW110481   1.450   3.320   6.509
 3194SOL    HW210482   1.601   3.264   6.483
 3195SOL     OW10483   1.742   2.549   3.447
 3195SOL    HW110484   1.765   2.468   3.500
 3195SOL    HW210485   1.772   2.631   3.496
 3196SOL     OW10486   6.875   6.948   4.763
 3196SOL    HW110487   6.963   6.995   4.754
 3196SOL    HW210488   6.878   6.887   4.842
 3197SOL     OW10489   1.241   5.339   2.772
 3197SOL    HW110490   1.160   5.297   2.812
 3197SOL    HW210491   1.323   5.308   2.820
 3198SOL     OW10492   0.014   2.148   6.205
 3198SOL    HW110493   0.009   2.232   6.260
 3198SOL    HW210494   0.106   2.138   6.169
 3199SOL     OW10495   4.658   1.916   1.685
 3199SOL    HW110496   4.697   1.891   1.773
 3199SOL    HW210497   4.558   1.909   1.688
 3200SOL     OW10498   0.017   2.915   0.898
 3200SOL    HW110499   0.095   2.937   0.956
 3200SOL    HW210500   0.002   2.988   0.832
 3201SOL     OW10501   5.194   3.478   3.867
 3201SOL    HW110502   5.266   3.546   3.884
 3201SOL    HW210503   5.197   3.408   3.938
 3202SOL     OW10504   2.055   4.393   2.848
 3202SOL    HW110505   2.054   4.389   2.948
 3202SOL    HW210506   1.971   4.353   2.812
 3203SOL     OW10507   6.270   0.889   1.608
 3203SOL    HW110508   6.244   0.915   1.515
 3203SOL    HW210509   6.361   0.926   1.629
 3204SOL     OW10510   6.029   5.298   1.662
 3204SOL    HW110511   6.065   5.373   1.608
 3204SOL    HW210512   6.073   5.213   1.635
 3205SOL     OW10513   6.497   4.267   6.341
 3205SOL    HW110514   6.448   4.181   6.346
 3205SOL    HW210515   6.595   4.251   6.357
 3206SOL     OW10516   0.185   6.568   5.631
 3206SOL    HW110517   0.240   6.572   5.714
 3206SOL    HW210518   0.107   6.630   5.639
 3207SOL     OW10519   0.841   1.380   5.286
 3207SOL    HW110520   0.772   1.433   5.334
 3207SOL    HW210521   0.805   1.350   5.198
 3208SOL     OW10522   4.389   5.641   5.149
 3208SOL    HW110523   4.449   5.577   5.101
 3208SOL    HW210524   4.418   5.649   5.245
 3209SOL     OW10525   3.039   6.665   4.182
 3209SOL    HW110526   2.945   6.683   4.152
 3209SOL    HW210527   3.072   6.581   4.138
 3210SOL     OW10528   0.149   3.799   2.373
 3210SOL    HW110529   0.061   3.766   2.340
 3210SOL    HW210530   0.141   3.826   2.469
 3211SOL     OW10531   2.470   3.892   0.759
 3211SOL    HW110532   2.446   3.989   0.767
 3211SOL    HW210533   2.421   3.851   0.682
 3212SOL     OW10534   4.566   2.226   6.902
 3212SOL    HW110535   4.615   2.280   6.970
 3212SOL    HW210536   4.474   2.205   6.936
 3213SOL     OW10537   5.864   5.635   3.112
 3213SOL    HW110538   5.792   5.705   3.112
 3213SOL    HW210539   5.830   5.552   3.156
 3214SOL     OW10540   4.473   6.105   6.946
 3214SOL    HW110541   4.399   6.125   6.881
 3214SOL    HW210542   4.560   6.139   6.910
 3215SOL     OW10543   6.619   2.902   0.955
 3215SOL    HW110544   6.681   2.849   1.013
 3215SOL    HW210545   6.557   2.954   1.013
 3216SOL     OW10546   5.629   6.046   3.296
 3216SOL    HW110547   5.651   6.092   3.210
 3216SOL    HW210548   5.565   5.971   3.278
 3217SOL     OW10549   1.111   4.630   3.078
 3217SOL    HW110550   1.025   4.623   3.027
 3217SOL    HW210551   1.120   4.551   3.139
 3218SOL     OW10552   3.960   6.781   3.124
 3218SOL    HW110553   3.898   6.853   3.154
 3218SOL    HW210554   4.046   6.822   3.091
 3219SOL     OW10555   6.990   0.357   3.017
 3219SOL    HW110556   0.021   0.361   2.932
 3219SOL    HW210557   6.929   0.278   3.015
 3220SOL     OW10558   0.161   4.542   4.886
 3220SOL    HW110559   0.117   4.463   4.928
 3220SOL    HW210560   0.094   4.594   4.834
 3221SOL     OW10561   2.485   6.479   2.909
 3221SOL    HW110562   2.529   6.467   2.998
 3221SOL    HW210563   2.546   6.445   2.837
 3222SOL     OW10564   4.909   1.905   3.083
 3222SOL    HW110565   4.858   1.826   3.117
 3222SOL    HW210566   4.876   1.988   3.128
 3223SOL     OW10567   2.718   5.330   6.375
 3223SOL    HW110568   2.645   5.395   6.354
 3223SOL    HW210569   2.760   5.354   6.463
 3224SOL     OW10570   4.496   5.517   6.847
 3224SOL    HW110571   4.501   5.484   6.942
 3224SOL    HW210572   4.503   5.616   6.846
 3225SOL     OW10573   4.397   3.415   6.771
 3225SOL    HW110574   4.485   3.406   6.817
 3225SOL    HW210575   4.396   3.500   6.719
 3226SOL     OW10576   2.359   0.710   4.179
 3226SOL    HW110577   2.411   0.742   4.259
 3226SOL    HW210578   2.346   0.611   4.185
 3227SOL     OW10579   3.784   1.932   6.294
 3227SOL    HW110580   3.842   1.916   6.373
 3227SOL    HW210581   3.749   2.026   6.297
 3228SOL     OW10582   6.332   3.506   4.162
 3228SOL    HW110583   6.367   3.577   4.102
 3228SOL    HW210584   6.254   3.461   4.119
 3229SOL     OW10585   3.611   2.234   6.012
 3229SOL    HW110586   3.521   2.268   5.984
 3229SOL    HW210587   3.679   2.258   5.943
 3230SOL     OW10588   0.577   1.111   2.900
 3230SOL    HW110589   0.591   1.139   2.806
 3230SOL    HW210590   0.483   1.129   2.927
 3231SOL     OW10591   4.582   5.447   1.308
 3231SOL    HW110592   4.614   5.535   1.273
 3231SOL    HW210593   4.579   5.381   1.233
 3232SOL     OW10594   3.686   5.051   5.161
 3232SOL    HW110595   3.666   4.966   5.210
 3232SOL    HW210596   3.775   5.086   5.190
 3233SOL     OW10597   1.177   4.077   1.637
 3233SOL    HW110598   1.230   4.159   1.614
 3233SOL    HW210599   1.086   4.104   1.669
 3234SOL     OW10600   0.007   2.290   0.235
 3234SOL    HW110601   0.084   2.303   0.297
 3234SOL    HW210602   7.004   2.377   0.192
 3235SOL     OW10603   5.861   6.702   2.508
 3235SOL    HW110604   5.955   6.697   2.475
 3235SOL    HW210605   5.856   6.762   2.588
 3236SOL     OW10606   1.238   2.658   1.735
 3236SOL    HW110607   1.247   2.679   1.832
 3236SOL    HW210608   1.329   2.641   1.696
 3237SOL     OW10609   4.774   6.555   4.671
 3237SOL    HW110610   4.689   6.606   4.682
 3237SOL    HW210611   4.781   6.522   4.577
 3238SOL     OW10612   0.621   5.606   6.412
 3238SOL    HW110613   0.647   5.617   6.509
 3238SOL    HW210614   0.553   5.675   6.388
 3239SOL     OW10615   6.263   0.496   6.266
 3239SOL    HW110616   6.242   0.425   6.200
 3239SOL    HW210617   6.204   0.576   6.250
 3240SOL     OW10618   0.520   0.005   4.535
 3240SOL    HW110619   0.495   0.101   4.526
 3240SOL    HW210620   0.619   7.019   4.547
 3241SOL     OW10621   5.133   1.496   4.125
 3241SOL    HW110622   5.046   1.544   4.119
 3241SOL    HW210623   5.118   1.397   4.116
 3242SOL     OW10624   3.545   5.865   6.358
 3242SOL    HW110625   3.636   5.844   6.320
 3242SOL    HW210626   3.527   5.804   6.436
 3243SOL     OW10627   4.526   5.220   0.088
 3243SOL    HW110628   4.590   5.286   0.049
 3243SOL    HW210629   4.465   5.267   0.152
 3244SOL     OW10630   4.370   5.994   5.767
 3244SOL    HW110631   4.435   6.059   5.726
 3244SOL    HW210632   4.344   6.026   5.858
 3245SOL     OW10633   4.283   3.004   6.139
 3245SOL    HW110634   4.259   3.091   6.097
 3245SOL    HW210635   4.288   3.015   6.239
 3246SOL     OW10636   6.015   6.882   2.318
 3246SOL    HW110637   5.972   6.962   2.275
 3246SOL    HW210638   6.026   6.810   2.249
 3247SOL     OW10639   6.985   3.452   4.038
 3247SOL    HW110640   6.976   3.489   3.945
 3247SOL    HW210641   6.960   3.355   4.038
 3248SOL     OW10642   6.241   3.156   2.241
 3248SOL    HW110643   6.151   3.147   2.198
 3248SOL    HW210644   6.230   3.172   2.339
 3249SOL     OW10645   3.415   4.780   5.193
 3249SOL    HW110646   3.384   4.831   5.113
 3249SOL    HW210647   3.342   4.719   5.224
 3250SOL     OW10648   4.962   6.979   2.527
 3250SOL    HW110649   5.031   7.013   2.592
 3250SOL    HW210650   4.959   6.879   2.532
 3251SOL     OW10651   3.704   1.696   2.657
 3251SOL    HW110652   3.674   1.742   2.740
 3251SOL    HW210653   3.650   1.612   2.644
 3252SOL     OW10654   3.418   1.103   2.803
 3252SOL    HW110655   3.347   1.168   2.777
 3252SOL    HW210656   3.446   1.120   2.897
 3253SOL     OW10657   4.585   2.651   1.317
 3253SOL    HW110658   4.519   2.670   1.244
 3253SOL    HW210659   4.675   2.686   1.291
 3254SOL     OW10660   3.928   4.920   3.730
 3254SOL    HW110661   3.920   4.921   3.630
 3254SOL    HW210662   4.004   4.861   3.756
 3255SOL     OW10663   4.454   5.679   0.154
 3255SOL    HW110664   4.420   5.690   0.248
 3255SOL    HW210665   4.533   5.618   0.154
 3256SOL     OW10666   5.391   6.534   5.994
 3256SOL    HW110667   5.347   6.451   5.960
 3256SOL    HW210668   5.490   6.526   5.983
 3257SOL     OW10669   1.790   1.699   0.978
 3257SOL    HW110670   1.721   1.627   0.994
 3257SOL    HW210671   1.746   1.778   0.936
 3258SOL     OW10672   4.872   6.733   1.433
 3258SOL    HW110673   4.857   6.635   1.440
 3258SOL    HW210674   4.898   6.769   1.523
 3259SOL     OW10675   4.496   6.163   4.313
 3259SOL    HW110676   4.434   6.090   4.285
 3259SOL    HW210677   4.448   6.226   4.374
 3260SOL     OW10678   1.542   1.328   0.100
 3260SOL    HW110679   1.495   1.387   0.034
 3260SOL    HW210680   1.475   1.285   0.160
 3261SOL     OW10681   4.183   0.117   1.258
 3261SOL    HW110682   4.147   0.025   1.275
 3261SOL    HW210683   4.128   0.184   1.307
 3262SOL     OW10684   3.525   1.529   3.652
 3262SOL    HW110685   3.443   1.472   3.660
 3262SOL    HW210686   3.555   1.531   3.557
 3263SOL     OW10687   4.289   6.887   2.581
 3263SOL    HW110688   4.194   6.866   2.602
 3263SOL    HW210689   4.323   6.954   2.647
 3264SOL     OW10690   0.397   5.543   6.998
 3264SOL    HW110691   0.365   5.448   6.995
 3264SOL    HW210692   0.440   5.561   0.065
 3265SOL     OW10693   4.289   1.699   6.439
 3265SOL    HW110694   4.198   1.728   6.411
 3265SOL    HW210695   4.322   1.760   6.511
 3266SOL     OW10696   0.025   2.760   6.661
 3266SOL    HW110697   0.079   2.787   6.741
 3266SOL    HW210698   6.990   2.837   6.631
 3267SOL     OW10699   3.265   1.939   1.312
 3267SOL    HW110700   3.166   1.933   1.327
 3267SOL    HW210701   3.311   1.954   1.400
 3268SOL     OW10702   1.320   3.956   0.319
 3268SOL    HW110703   1.260   3.937   0.241
 3268SOL    HW210704   1.267   4.003   0.390
 3269SOL     OW10705   4.332   4.399   1.398
 3269SOL    HW110706   4.238   4.386   1.428
 3269SOL    HW210707   4.383   4.448   1.469
 3270SOL     OW10708   0.319   5.439   3.695
 3270SOL    HW110709   0.331   5.347   3.734
 3270SOL    HW210710   0.281   5.431   3.603
 3271SOL     OW10711   6.174   2.346   1.925
 3271SOL    HW110712   6.256   2.311   1.969
 3271SOL    HW210713   6.131   2.274   1.871
 3272SOL     OW10714   3.809   0.606   0.396
 3272SOL    HW110715   3.740   0.678   0.408
 3272SOL    HW210716   3.787   0.529   0.456
 3273SOL     OW10717   1.152   6.276   2.329
 3273SOL    HW110718   1.054   6.282   2.310
 3273SOL    HW210719   1.191   6.197   2.280
 3274SOL     OW10720   2.714   1.984   5.433
 3274SOL    HW110721   2.795   1.934   5.403
 3274SOL    HW210722   2.737   2.081   5.447
 3275SOL     OW10723   1.993   0.440   6.679
 3275SOL    HW110724   2.036   0.517   6.726
 3275SOL    HW210725   1.943   0.473   6.599
 3276SOL     OW10726   3.410   5.336   6.655
 3276SOL    HW110727   3.508   5.330   6.673
 3276SOL    HW210728   3.395   5.378   6.565
 3277SOL     OW10729   0.065   6.419   5.974
 3277SOL    HW110730   7.006   6.421   5.915
 3277SOL    HW210731   0.065   6.335   6.027
 3278SOL     OW10732   1.210   1.228   5.315
 3278SOL    HW110733   1.215   1.177   5.401
 3278SOL    HW210734   1.163   1.172   5.247
 3279SOL     OW10735   0.050   6.715   1.260
 3279SOL    HW110736   7.019   6.673   1.334
 3279SOL    HW210737   0.133   6.757   1.298
 3280SOL     OW10738   2.548   5.104   5.961
 3280SOL    HW110739   2.542   5.004   5.951
 3280SOL    HW210740   2.627   5.138   5.909
 3281SOL     OW10741   2.388   5.282   0.121
 3281SOL    HW110742   2.387   5.197   0.172
 3281SOL    HW210743   2.468   5.285   0.060
 3282SOL     OW10744   2.714   5.552   3.823
 3282SOL    HW110745   2.811   5.556   3.799
 3282SOL    HW210746   2.681   5.644   3.844
 3283SOL     OW10747   3.144   0.836   3.446
 3283SOL    HW110748   3.234   0.797   3.425
 3283SOL    HW210749   3.074   0.765   3.441
 3284SOL     OW10750   0.292   5.954   0.031
 3284SOL    HW110751   0.322   6.049   0.021
 3284SOL    HW210752   0.293   5.909   6.964
 3285SOL     OW10753   0.330   2.451   2.747
 3285SOL    HW110754   0.286   2.372   2.788
 3285SOL    HW210755   0.429   2.442   2.756
 3286SOL     OW10756   3.272   3.629   4.894
 3286SOL    HW110757   3.333   3.707   4.908
 3286SOL    HW210758   3.205   3.651   4.823
 3287SOL     OW10759   1.842   5.348   0.021
 3287SOL    HW110760   1.912   5.289   7.001
 3287SOL    HW210761   1.851   5.441   7.008
 3288SOL     OW10762   0.743   5.974   6.439
 3288SOL    HW110763   0.720   5.950   6.344
 3288SOL    HW210764   0.663   5.957   6.497
 3289SOL     OW10765   0.755   5.644   5.555
 3289SOL    HW110766   0.715   5.687   5.474
 3289SOL    HW210767   0.707   5.559   5.575
 3290SOL     OW10768   0.166   5.766   1.380
 3290SOL    HW110769   0.239   5.718   1.330
 3290SOL    HW210770   0.206   5.819   1.454
 3291SOL     OW10771   1.858   6.363   6.807
 3291SOL    HW110772   1.875   6.269   6.838
 3291SOL    HW210773   1.761   6.373   6.784
 3292SOL     OW10774   6.988   6.825   6.396
 3292SOL    HW110775   0.004   6.916   6.378
 3292SOL    HW210776   0.010   6.786   6.477
 3293SOL     OW10777   0.044   1.211   3.078
 3293SOL    HW110778   6.984   1.155   3.062
 3293SOL    HW210779   0.055   1.227   3.176
 3294SOL     OW10780   6.739   0.152   6.210
 3294SOL    HW110781   6.775   0.065   6.175
 3294SOL    HW210782   6.640   0.146   6.217
 3295SOL     OW10783   2.608   2.364   0.822
 3295SOL    HW110784   2.581   2.429   0.751
 3295SOL    HW210785   2.534   2.353   0.888
 3296SOL     OW10786   2.015   0.257   2.710
 3296SOL    HW110787   1.953   0.199   2.764
 3296SOL    HW210788   1.965   0.297   2.633
 3297SOL     OW10789   3.151   2.438   5.436
 3297SOL    HW110790   3.154   2.419   5.338
 3297SOL    HW210791   3.239   2.476   5.465
 3298SOL     OW10792   6.646   3.345   3.053
 3298SOL    HW110793   6.595   3.340   2.967
 3298SOL    HW210794   6.715   3.417   3.047
 3299SOL     OW10795   1.272   0.115   5.201
 3299SOL    HW110796   1.306   0.116   5.295
 3299SOL    HW210797   1.182   0.159   5.198
 3300SOL     OW10798   6.124   6.901   4.927
 3300SOL    HW110799   6.209   6.870   4.886
 3300SOL    HW210800   6.061   6.931   4.855
 3301SOL     OW10801   0.601   3.519   3.327
 3301SOL    HW110802   0.627   3.441   3.384
 3301SOL    HW210803   0.510   3.551   3.354
 3302SOL     OW10804   1.217   4.842   3.903
 3302SOL    HW110805   1.270   4.909   3.850
 3302SOL    HW210806   1.221   4.867   4.000
 3303SOL     OW10807   3.897   3.104   3.491
 3303SOL    HW110808   3.816   3.130   3.438
 3303SOL    HW210809   3.958   3.183   3.499
 3304SOL     OW10810   1.383   6.083   3.865
 3304SOL    HW110811   1.381   6.043   3.957
 3304SOL    HW210812   1.291   6.108   3.838
 3305SOL     OW10813   1.772   1.117   1.627
 3305SOL    HW110814   1.794   1.212   1.646
 3305SOL    HW210815   1.825   1.057   1.687
 3306SOL     OW10816   2.143   3.920   3.279
 3306SOL    HW110817   2.204   3.988   3.238
 3306SOL    HW210818   2.163   3.912   3.376
 3307SOL     OW10819   6.848   6.355   0.376
 3307SOL    HW110820   6.906   6.304   0.312
 3307SOL    HW210821   6.790   6.292   0.427
 3308SOL     OW10822   4.419   6.124   0.492
 3308SOL    HW110823   4.514   6.097   0.479
 3308SOL    HW210824   4.394   6.110   0.588
 3309SOL     OW10825   1.258   5.211   3.537
 3309SOL    HW110826   1.273   5.249   3.446
 3309SOL    HW210827   1.175   5.252   3.576
 3310SOL     OW10828   0.857   4.538   2.976
 3310SOL    HW110829   0.795   4.495   3.041
 3310SOL    HW210830   0.884   4.471   2.906
 3311SOL     OW10831   3.978   6.614   1.297
 3311SOL    HW110832   3.985   6.558   1.379
 3311SOL    HW210833   4.069   6.644   1.269
 3312SOL     OW10834   3.120   3.965   6.036
 3312SOL    HW110835   3.135   4.060   6.065
 3312SOL    HW210836   3.200   3.910   6.061
 3313SOL     OW10837   1.065   5.611   3.637
 3313SOL    HW110838   1.134   5.588   3.705
 3313SOL    HW210839   1.109   5.631   3.549
 3314SOL     OW10840   1.731   3.367   5.215
 3314SOL    HW110841   1.655   3.316   5.177
 3314SOL    HW210842   1.702   3.414   5.298
 3315SOL     OW10843   6.663   2.220   3.406
 3315SOL    HW110844   6.726   2.143   3.402
 3315SOL    HW210845   6.599   2.207   3.482
 3316SOL     OW10846   4.869   2.016   5.806
 3316SOL    HW110847   4.861   1.917   5.793
 3316SOL    HW210848   4.779   2.056   5.819
 3317SOL     OW10849   4.539   2.786   1.738
 3317SOL    HW110850   4.541   2.864   1.800
 3317SOL    HW210851   4.497   2.813   1.652
 3318SOL     OW10852   3.001   5.963   5.616
 3318SOL    HW110853   3.010   5.966   5.716
 3318SOL    HW210854   2.952   5.880   5.590
 3319SOL     OW10855   0.718   6.577   4.100
 3319SOL    HW110856   0.792   6.594   4.036
 3319SOL    HW210857   0.750   6.594   4.193
 3320SOL     OW10858   5.879   0.845   5.259
 3320SOL    HW110859   5.861   0.943   5.250
 3320SOL    HW210860   5.889   0.822   5.356
 3321SOL     OW10861   3.933   3.062   2.957
 3321SOL    HW110862   3.840   3.079   2.924
 3321SOL    HW210863   3.997   3.124   2.912
 3322SOL     OW10864   3.875   2.269   0.911
 3322SOL    HW110865   3.929   2.349   0.934
 3322SOL    HW210866   3.846   2.274   0.815
 3323SOL     OW10867   2.182   4.263   6.701
 3323SOL    HW110868   2.253   4.330   6.679
 3323SOL    HW210869   2.178   4.194   6.628
 3324SOL     OW10870   0.941   3.520   0.646
 3324SOL    HW110871   0.971   3.549   0.555
 3324SOL    HW210872   1.007   3.551   0.714
 3325SOL     OW10873   1.565   2.380   0.480
 3325SOL    HW110874   1.596   2.417   0.393
 3325SOL    HW210875   1.484   2.323   0.465
 3326SOL     OW10876   6.605   1.656   1.132
 3326SOL    HW110877   6.642   1.728   1.191
 3326SOL    HW210878   6.505   1.662   1.131
 3327SOL     OW10879   2.833   6.852   2.226
 3327SOL    HW110880   2.740   6.835   2.258
 3327SOL    HW210881   2.838   6.830   2.128
 3328SOL     OW10882   4.998   0.913   2.274
 3328SOL    HW110883   4.975   1.010   2.265
 3328SOL    HW210884   4.921   0.865   2.316
 3329SOL     OW10885   4.069   0.978   5.331
 3329SOL    HW110886   4.070   0.919   5.412
 3329SOL    HW210887   4.007   0.941   5.263
 3330SOL     OW10888   5.906   6.690   2.101
 3330SOL    HW110889   5.821   6.705   2.151
 3330SOL    HW210890   5.972   6.645   2.162
 3331SOL     OW10891   2.099   3.560   3.086
 3331SOL    HW110892   2.083   3.649   3.129
 3331SOL    HW210893   2.105   3.490   3.157
 3332SOL     OW10894   4.378   5.295   0.289
 3332SOL    HW110895   4.412   5.350   0.365
 3332SOL    HW210896   4.314   5.227   0.324
 3333SOL     OW10897   3.151   3.549   1.705
 3333SOL    HW110898   3.095   3.612   1.651
 3333SOL    HW210899   3.142   3.572   1.802
 3334SOL     OW10900   2.017   2.383   2.477
 3334SOL    HW110901   1.918   2.375   2.493
 3334SOL    HW210902   2.041   2.479   2.466
 3335SOL     OW10903   3.523   4.310   5.485
 3335SOL    HW110904   3.464   4.390   5.482
 3335SOL    HW210905   3.533   4.273   5.392
 3336SOL     OW10906   3.797   6.825   3.994
 3336SOL    HW110907   3.873   6.878   4.031
 3336SOL    HW210908   3.769   6.756   4.060
 3337SOL     OW10909   3.779   3.802   2.772
 3337SOL    HW110910   3.748   3.708   2.785
 3337SOL    HW210911   3.870   3.814   2.813
 3338SOL     OW10912   1.888   1.653   1.274
 3338SOL    HW110913   1.947   1.731   1.292
 3338SOL    HW210914   1.830   1.673   1.194
 3339SOL     OW10915   2.320   0.630   5.508
 3339SOL    HW110916   2.325   0.572   5.589
 3339SOL    HW210917   2.367   0.716   5.524
 3340SOL     OW10918   4.322   1.116   4.126
 3340SOL    HW110919   4.378   1.198   4.140
 3340SOL    HW210920   4.295   1.079   4.214
 3341SOL     OW10921   2.749   4.977   2.345
 3341SOL    HW110922   2.766   5.046   2.416
 3341SOL    HW210923   2.651   4.958   2.340
 3342SOL     OW10924   6.162   0.331   2.848
 3342SOL    HW110925   6.214   0.415   2.866
 3342SOL    HW210926   6.065   0.349   2.862
 3343SOL     OW10927   4.556   5.365   6.616
 3343SOL    HW110928   4.653   5.346   6.632
 3343SOL    HW210929   4.524   5.433   6.682
 3344SOL     OW10930   0.545   2.929   1.730
 3344SOL    HW110931   0.637   2.891   1.735
 3344SOL    HW210932   0.501   2.921   1.819
 3345SOL     OW10933   0.651   4.676   0.920
 3345SOL    HW110934   0.704   4.745   0.970
 3345SOL    HW210935   0.555   4.704   0.916
 3346SOL     OW10936   2.435   0.924   6.683
 3346SOL    HW110937   2.452   0.849   6.619
 3346SOL    HW210938   2.347   0.910   6.728
 3347SOL     OW10939   0.717   3.331   6.253
 3347SOL    HW110940   0.796   3.390   6.235
 3347SOL    HW210941   0.642   3.385   6.290
 3348SOL     OW10942   3.893   3.424   6.049
 3348SOL    HW110943   3.870   3.410   6.146
 3348SOL    HW210944   3.811   3.455   6.000
 3349SOL     OW10945   2.540   4.530   3.440
 3349SOL    HW110946   2.485   4.500   3.518
 3349SOL    HW210947   2.637   4.517   3.461
 3350SOL     OW10948   0.258   4.069   5.619
 3350SOL    HW110949   0.208   4.055   5.705
 3350SOL    HW210950   0.213   4.142   5.567
 3351SOL     OW10951   5.344   0.766   0.609
 3351SOL    HW110952   5.388   0.851   0.578
 3351SOL    HW210953   5.245   0.777   0.605
 3352SOL     OW10954   5.269   2.332   6.728
 3352SOL    HW110955   5.203   2.278   6.780
 3352SOL    HW210956   5.355   2.335   6.778
 3353SOL     OW10957   2.219   0.967   1.794
 3353SOL    HW110958   2.274   1.049   1.810
 3353SOL    HW210959   2.219   0.910   1.876
 3354SOL     OW10960   3.869   2.690   5.829
 3354SOL    HW110961   3.795   2.710   5.893
 3354SOL    HW210962   3.851   2.603   5.784
 3355SOL     OW10963   2.036   1.250   4.908
 3355SOL    HW110964   1.945   1.288   4.926
 3355SOL    HW210965   2.039   1.214   4.815
 3356SOL     OW10966   1.481   6.702   5.567
 3356SOL    HW110967   1.400   6.747   5.530
 3356SOL    HW210968   1.453   6.623   5.622
 3357SOL     OW10969   3.272   3.292   2.491
 3357SOL    HW110970   3.309   3.378   2.457
 3357SOL    HW210971   3.172   3.295   2.487
 3358SOL     OW10972   6.154   0.956   2.496
 3358SOL    HW110973   6.138   0.863   2.463
 3358SOL    HW210974   6.107   0.969   2.583
 3359SOL     OW10975   7.005   5.718   4.311
 3359SOL    HW110976   0.054   5.773   4.266
 3359SOL    HW210977   6.979   5.762   4.397
 3360SOL     OW10978   0.130   2.825   5.629
 3360SOL    HW110979   0.051   2.780   5.670
 3360SOL    HW210980   0.199   2.842   5.700
 3361SOL     OW10981   0.573   0.506   4.480
 3361SOL    HW110982   0.524   0.559   4.411
 3361SOL    HW210983   0.613   0.567   4.547
 3362SOL     OW10984   3.582   2.163   3.798
 3362SOL    HW110985   3.488   2.146   3.829
 3362SOL    HW210986   3.632   2.214   3.868
 3363SOL     OW10987   5.797   2.954   1.241
 3363SOL    HW110988   5.737   3.006   1.301
 3363SOL    HW210989   5.892   2.976   1.261
 3364SOL     OW10990   2.448   4.427   2.953
 3364SOL    HW110991   2.487   4.482   2.879
 3364SOL    HW210992   2.387   4.358   2.915
 3365SOL     OW10993   1.903   3.269   4.816
 3365SOL    HW110994   1.820   3.321   4.838
 3365SOL    HW210995   1.979   3.333   4.800
 3366SOL     OW10996   6.672   3.342   4.426
 3366SOL    HW110997   6.601   3.279   4.395
 3366SOL    HW210998   6.725   3.300   4.500
 3367SOL     OW10999   3.280   3.637   4.400
 3367SOL    HW111000   3.344   3.712   4.384
 3367SOL    HW211001   3.237   3.649   4.489
 3368SOL     OW11002   1.556   5.991   6.720
 3368SOL    HW111003   1.614   6.018   6.643
 3368SOL    HW211004   1.612   5.949   6.791
 3369SOL     OW11005   4.411   2.188   1.126
 3369SOL    HW111006   4.329   2.154   1.080
 3369SOL    HW211007   4.397   2.187   1.225
 3370SOL     OW11008   0.218   5.641   1.755
 3370SOL    HW111009   0.142   5.635   1.691
 3370SOL    HW211010   0.262   5.552   1.764
 3371SOL     OW11011   2.186   3.123   3.176
 3371SOL    HW111012   2.242   3.046   3.207
 3371SOL    HW211013   2.188   3.195   3.246
 3372SOL     OW11014   6.436   2.736   1.333
 3372SOL    HW111015   6.497   2.669   1.292
 3372SOL    HW211016   6.412   2.805   1.265
 3373SOL     OW11017   0.226   2.109   1.554
 3373SOL    HW111018   0.213   2.120   1.652
 3373SOL    HW211019   0.323   2.099   1.534
 3374SOL     OW11020   0.952   0.154   3.532
 3374SOL    HW111021   0.919   0.110   3.449
 3374SOL    HW211022   1.045   0.187   3.517
 3375SOL     OW11023   6.858   5.101   6.762
 3375SOL    HW111024   6.895   5.019   6.719
 3375SOL    HW211025   6.931   5.146   6.814
 3376SOL     OW11026   2.389   3.581   5.651
 3376SOL    HW111027   2.450   3.542   5.581
 3376SOL    HW211028   2.420   3.554   5.742
 3377SOL     OW11029   6.119   4.779   3.648
 3377SOL    HW111030   6.192   4.813   3.588
 3377SOL    HW211031   6.039   4.838   3.640
 3378SOL     OW11032   1.638   6.553   6.800
 3378SOL    HW111033   1.611   6.627   6.738
 3378SOL    HW211034   1.733   6.565   6.827
 3379SOL     OW11035   0.815   3.690   4.471
 3379SOL    HW111036   0.840   3.633   4.392
 3379SOL    HW211037   0.883   3.678   4.543
 3380SOL     OW11038   4.148   4.150   5.713
 3380SOL    HW111039   4.062   4.200   5.705
 3380SOL    HW211040   4.183   4.159   5.806
 3381SOL     OW11041   1.251   3.044   1.057
 3381SOL    HW111042   1.327   3.001   1.007
 3381SOL    HW211043   1.280   3.132   1.093
 3382SOL     OW11044   6.882   2.429   0.988
 3382SOL    HW111045   6.936   2.439   1.072
 3382SOL    HW211046   6.836   2.515   0.968
 3383SOL     OW11047   3.949   4.863   6.735
 3383SOL    HW111048   3.918   4.931   6.669
 3383SOL    HW211049   3.919   4.772   6.705
 3384SOL     OW11050   3.273   4.041   0.747
 3384SOL    HW111051   3.307   3.957   0.789
 3384SOL    HW211052   3.174   4.044   0.753
 3385SOL     OW11053   0.417   2.523   3.360
 3385SOL    HW111054   0.463   2.523   3.272
 3385SOL    HW211055   0.482   2.549   3.432
 3386SOL     OW11056   6.685   4.803   6.813
 3386SOL    HW111057   6.598   4.761   6.790
 3386SOL    HW211058   6.708   4.783   6.908
 3387SOL     OW11059   6.360   0.579   3.167
 3387SOL    HW111060   6.268   0.615   3.180
 3387SOL    HW211061   6.404   0.567   3.256
 3388SOL     OW11062   5.486   3.341   1.579
 3388SOL    HW111063   5.400   3.372   1.617
 3388SOL    HW211064   5.541   3.298   1.651
 3389SOL     OW11065   6.097   6.265   0.622
 3389SOL    HW111066   6.108   6.300   0.715
 3389SOL    HW211067   6.052   6.334   0.566
 3390SOL     OW11068   3.963   6.862   6.096
 3390SOL    HW111069   3.886   6.800   6.108
 3390SOL    HW211070   3.931   6.948   6.054
 3391SOL     OW11071   5.878   3.276   3.393
 3391SOL    HW111072   5.838   3.202   3.338
 3391SOL    HW211073   5.963   3.307   3.350
 3392SOL     OW11074   4.286   0.204   5.368
 3392SOL    HW111075   4.383   0.183   5.360
 3392SOL    HW211076   4.251   0.234   5.280
 3393SOL     OW11077   5.064   6.842   1.269
 3393SOL    HW111078   5.132   6.770   1.281
 3393SOL    HW211079   4.978   6.814   1.311
 3394SOL     OW11080   3.210   5.457   1.284
 3394SOL    HW111081   3.169   5.541   1.249
 3394SOL    HW211082   3.197   5.452   1.383
 3395SOL     OW11083   3.993   0.164   3.096
 3395SOL    HW111084   3.947   0.253   3.096
 3395SOL    HW211085   4.027   0.145   3.188
 3396SOL     OW11086   4.685   2.146   4.061
 3396SOL    HW111087   4.652   2.116   4.150
 3396SOL    HW211088   4.621   2.118   3.990
 3397SOL     OW11089   2.205   5.995   6.354
 3397SOL    HW111090   2.193   5.896   6.359
 3397SOL    HW211091   2.235   6.020   6.262
 3398SOL     OW11092   6.980   2.218   5.355
 3398SOL    HW111093   6.975   2.316   5.337
 3398SOL    HW211094   0.034   2.199   5.418
 3399SOL     OW11095   0.505   4.674   3.498
 3399SOL    HW111096   0.428   4.713   3.448
 3399SOL    HW211097   0.546   4.744   3.557
 3400SOL     OW11098   5.717   2.204   5.305
 3400SOL    HW111099   5.650   2.238   5.370
 3400SOL    HW211100   5.701   2.106   5.288
 3401SOL     OW11101   6.560   3.859   5.975
 3401SOL    HW111102   6.485   3.816   5.925
 3401SOL    HW211103   6.554   3.958   5.966
 3402SOL     OW11104   6.854   5.266   1.311
 3402SOL    HW111105   6.798   5.192   1.348
 3402SOL    HW211106   6.825   5.353   1.348
 3403SOL     OW11107   4.579   6.409   6.533
 3403SOL    HW111108   4.643   6.485   6.548
 3403SOL    HW211109   4.560   6.364   6.621
 3404SOL     OW11110   4.911   3.239   5.415
 3404SOL    HW111111   4.993   3.182   5.403
 3404SOL    HW211112   4.937   3.323   5.463
 3405SOL     OW11113   5.253   6.330   5.869
 3405SOL    HW111114   5.212   6.383   5.795
 3405SOL    HW211115   5.189   6.258   5.897
 3406SOL     OW11116   2.085   3.802   2.206
 3406SOL    HW111117   2.126   3.780   2.118
 3406SOL    HW211118   2.122   3.889   2.240
 3407SOL     OW11119   1.749   3.804   0.492
 3407SOL    HW111120   1.691   3.865   0.547
 3407SOL    HW211121   1.834   3.851   0.470
 3408SOL     OW11122   4.972   2.152   3.597
 3408SOL    HW111123   5.025   2.137   3.680
 3408SOL    HW211124   4.884   2.105   3.605
 3409SOL     OW11125   4.418   0.992   0.472
 3409SOL    HW111126   4.373   1.070   0.429
 3409SOL    HW211127   4.352   0.918   0.485
 3410SOL     OW11128   5.554   6.836   2.027
 3410SOL    HW111129   5.586   6.811   2.119
 3410SOL    HW211130   5.501   6.761   1.988
 3411SOL     OW11131   6.676   1.810   0.820
 3411SOL    HW111132   6.664   1.856   0.908
 3411SOL    HW211133   6.766   1.767   0.816
 3412SOL     OW11134   5.308   3.047   1.276
 3412SOL    HW111135   5.282   3.119   1.212
 3412SOL    HW211136   5.231   2.985   1.290
 3413SOL     OW11137   0.231   2.456   6.199
 3413SOL    HW111138   0.274   2.510   6.127
 3413SOL    HW211139   0.162   2.512   6.246
 3414SOL     OW11140   3.915   2.998   0.856
 3414SOL    HW111141   3.877   3.090   0.848
 3414SOL    HW211142   3.912   2.953   0.767
 3415SOL     OW11143   2.415   2.568   4.506
 3415SOL    HW111144   2.447   2.589   4.599
 3415SOL    HW211145   2.333   2.511   4.511
 3416SOL     OW11146   6.333   6.780   6.682
 3416SOL    HW111147   6.301   6.686   6.688
 3416SOL    HW211148   6.260   6.838   6.648
 3417SOL     OW11149   6.647   0.267   3.085
 3417SOL    HW111150   6.649   0.203   3.162
 3417SOL    HW211151   6.699   0.229   3.008
 3418SOL     OW11152   4.534   4.886   2.228
 3418SOL    HW111153   4.485   4.902   2.314
 3418SOL    HW211154   4.555   4.973   2.185
 3419SOL     OW11155   2.952   5.590   6.238
 3419SOL    HW111156   3.028   5.529   6.261
 3419SOL    HW211157   2.936   5.653   6.314
 3420SOL     OW11158   4.789   2.612   3.891
 3420SOL    HW111159   4.885   2.585   3.884
 3420SOL    HW211160   4.756   2.641   3.801
 3421SOL     OW11161   5.580   2.171   3.281
 3421SOL    HW111162   5.529   2.186   3.365
 3421SOL    HW211163   5.631   2.254   3.258
 3422SOL     OW11164   2.103   6.756   1.014
 3422SOL    HW111165   2.170   6.703   1.067
 3422SOL    HW211166   2.151   6.807   0.943
 3423SOL     OW11167   0.801   4.439   5.662
 3423SOL    HW111168   0.732   4.456   5.592
 3423SOL    HW211169   0.778   4.354   5.711
 3424SOL     OW11170   4.695   0.303   1.564
 3424SOL    HW111171   4.730   0.378   1.508
 3424SOL    HW211172   4.622   0.338   1.624
 3425SOL     OW11173   5.663   4.549   1.331
 3425SOL    HW111174   5.650   4.560   1.232
 3425SOL    HW211175   5.575   4.529   1.374
 3426SOL     OW11176   5.636   3.747   0.486
 3426SOL    HW111177   5.699   3.679   0.523
 3426SOL    HW211178   5.661   3.770   0.392
 3427SOL     OW11179   1.289   2.069   0.670
 3427SOL    HW111180   1.260   2.153   0.717
 3427SOL    HW211181   1.264   1.990   0.725
 3428SOL     OW11182   5.054   6.214   5.617
 3428SOL    HW111183   5.108   6.277   5.563
 3428SOL    HW211184   5.001   6.265   5.685
 3429SOL     OW11185   0.148   0.275   1.445
 3429SOL    HW111186   0.141   0.192   1.389
 3429SOL    HW211187   0.135   0.356   1.388
 3430SOL     OW11188   2.159   4.631   5.531
 3430SOL    HW111189   2.229   4.566   5.501
 3430SOL    HW211190   2.129   4.607   5.624
 3431SOL     OW11191   2.496   6.108   3.048
 3431SOL    HW111192   2.477   6.068   3.138
 3431SOL    HW211193   2.410   6.133   3.004
 3432SOL     OW11194   2.569   3.979   0.345
 3432SOL    HW111195   2.636   4.012   0.412
 3432SOL    HW211196   2.541   3.886   0.368
 3433SOL     OW11197   2.487   1.293   6.181
 3433SOL    HW111198   2.405   1.341   6.213
 3433SOL    HW211199   2.488   1.200   6.217
 3434SOL     OW11200   3.040   2.047   1.500
 3434SOL    HW111201   3.059   2.144   1.518
 3434SOL    HW211202   3.019   2.001   1.586
 3435SOL     OW11203   2.012   0.310   0.459
 3435SOL    HW111204   1.980   0.335   0.550
 3435SOL    HW211205   2.068   0.384   0.421
 3436SOL     OW11206   3.693   5.809   1.121
 3436SOL    HW111207   3.719   5.759   1.039
 3436SOL    HW211208   3.655   5.898   1.095
 3437SOL     OW11209   1.445   6.589   6.226
 3437SOL    HW111210   1.490   6.519   6.171
 3437SOL    HW211211   1.463   6.571   6.323
 3438SOL     OW11212   1.041   4.257   1.339
 3438SOL    HW111213   1.102   4.210   1.274
 3438SOL    HW211214   0.959   4.202   1.353
 3439SOL     OW11215   2.106   5.765   2.927
 3439SOL    HW111216   2.162   5.688   2.897
 3439SOL    HW211217   2.104   5.835   2.856
 3440SOL     OW11218   3.805   3.617   4.203
 3440SOL    HW111219   3.891   3.629   4.251
 3440SOL    HW211220   3.729   3.629   4.267
 3441SOL     OW11221   5.278   5.628   5.764
 3441SOL    HW111222   5.268   5.688   5.684
 3441SOL    HW211223   5.355   5.659   5.820
 3442SOL     OW11224   3.192   3.017   1.682
 3442SOL    HW111225   3.139   3.095   1.650
 3442SOL    HW211226   3.160   2.934   1.636
 3443SOL     OW11227   2.510   5.746   2.702
 3443SOL    HW111228   2.603   5.756   2.667
 3443SOL    HW211229   2.469   5.837   2.715
 3444SOL     OW11230   5.677   4.477   1.703
 3444SOL    HW111231   5.584   4.472   1.739
 3444SOL    HW211232   5.693   4.568   1.663
 3445SOL     OW11233   6.375   4.788   3.808
 3445SOL    HW111234   6.399   4.824   3.898
 3445SOL    HW211235   6.283   4.819   3.783
 3446SOL     OW11236   5.053   1.050   1.411
 3446SOL    HW111237   5.045   1.134   1.356
 3446SOL    HW211238   4.983   1.051   1.482
 3447SOL     OW11239   4.989   0.846   0.333
 3447SOL    HW111240   5.058   0.825   0.264
 3447SOL    HW211241   4.989   0.944   0.351
 3448SOL     OW11242   1.675   6.302   4.837
 3448SOL    HW111243   1.671   6.339   4.930
 3448SOL    HW211244   1.589   6.318   4.790
 3449SOL     OW11245   6.678   4.656   5.206
 3449SOL    HW111246   6.638   4.739   5.168
 3449SOL    HW211247   6.647   4.643   5.300
 3450SOL     OW11248   1.486   6.761   0.073
 3450SOL    HW111249   1.452   6.789   7.005
 3450SOL    HW211250   1.573   6.806   0.091
 3451SOL     OW11251   1.945   6.176   0.382
 3451SOL    HW111252   1.894   6.253   0.421
 3451SOL    HW211253   2.025   6.158   0.439
 3452SOL     OW11254   5.080   0.605   5.532
 3452SOL    HW111255   5.155   0.668   5.551
 3452SOL    HW211256   5.026   0.591   5.615
 3453SOL     OW11257   5.091   6.509   5.719
 3453SOL    HW111258   5.049   6.597   5.742
 3453SOL    HW211259   5.105   6.503   5.620
 3454SOL     OW11260   1.138   2.130   2.410
 3454SOL    HW111261   1.161   2.158   2.503
 3454SOL    HW211262   1.050   2.082   2.410
 3455SOL     OW11263   1.705   3.081   5.378
 3455SOL    HW111264   1.614   3.113   5.353
 3455SOL    HW211265   1.771   3.110   5.309
 3456SOL     OW11266   4.857   4.500   2.257
 3456SOL    HW111267   4.821   4.579   2.207
 3456SOL    HW211268   4.781   4.444   2.289
 3457SOL     OW11269   4.138   5.542   5.407
 3457SOL    HW111270   4.109   5.638   5.409
 3457SOL    HW211271   4.227   5.534   5.362
 3458SOL     OW11272   4.184   1.645   2.943
 3458SOL    HW111273   4.216   1.630   3.037
 3458SOL    HW211274   4.126   1.727   2.941
 3459SOL     OW11275   3.990   0.580   3.241
 3459SOL    HW111276   3.974   0.539   3.331
 3459SOL    HW211277   4.049   0.520   3.187
 3460SOL     OW11278   3.846   1.863   5.918
 3460SOL    HW111279   3.772   1.909   5.967
 3460SOL    HW211280   3.931   1.915   5.928
 3461SOL     OW11281   5.397   4.480   6.858
 3461SOL    HW111282   5.457   4.463   6.780
 3461SOL    HW211283   5.440   4.445   6.942
 3462SOL     OW11284   2.593   3.210   6.724
 3462SOL    HW111285   2.548   3.291   6.760
 3462SOL    HW211286   2.680   3.236   6.681
 3463SOL     OW11287   6.617   4.123   1.444
 3463SOL    HW111288   6.580   4.090   1.357
 3463SOL    HW211289   6.580   4.068   1.519
 3464SOL     OW11290   0.139   4.902   6.143
 3464SOL    HW111291   0.223   4.934   6.098
 3464SOL    HW211292   0.136   4.802   6.141
 3465SOL     OW11293   1.856   0.466   1.806
 3465SOL    HW111294   1.910   0.385   1.786
 3465SOL    HW211295   1.801   0.491   1.726
 3466SOL     OW11296   6.453   3.988   5.291
 3466SOL    HW111297   6.496   4.065   5.337
 3466SOL    HW211298   6.411   3.927   5.358
 3467SOL     OW11299   1.766   2.474   6.307
 3467SOL    HW111300   1.668   2.492   6.317
 3467SOL    HW211301   1.782   2.375   6.310
 3468SOL     OW11302   3.533   6.889   4.011
 3468SOL    HW111303   3.477   6.909   3.931
 3468SOL    HW211304   3.627   6.871   3.981
 3469SOL     OW11305   6.049   2.545   3.256
 3469SOL    HW111306   6.045   2.523   3.158
 3469SOL    HW211307   6.094   2.470   3.304
 3470SOL     OW11308   0.705   5.691   0.745
 3470SOL    HW111309   0.656   5.775   0.767
 3470SOL    HW211310   0.798   5.713   0.716
 3471SOL     OW11311   4.027   5.815   4.833
 3471SOL    HW111312   4.125   5.798   4.817
 3471SOL    HW211313   4.017   5.894   4.894
 3472SOL     OW11314   3.101   0.549   4.610
 3472SOL    HW111315   3.086   0.560   4.709
 3472SOL    HW211316   3.103   0.639   4.567
 3473SOL     OW11317   5.868   1.048   6.148
 3473SOL    HW111318   5.788   0.988   6.138
 3473SOL    HW211319   5.893   1.086   6.060
 3474SOL     OW11320   3.902   5.131   1.779
 3474SOL    HW111321   3.897   5.050   1.837
 3474SOL    HW211322   3.975   5.120   1.712
 3475SOL     OW11323   1.335   5.575   4.041
 3475SOL    HW111324   1.247   5.619   4.022
 3475SOL    HW211325   1.408   5.643   4.034
 3476SOL     OW11326   4.322   0.443   4.241
 3476SOL    HW111327   4.353   0.366   4.185
 3476SOL    HW211328   4.223   0.455   4.229
 3477SOL     OW11329   3.995   6.425   1.497
 3477SOL    HW111330   4.052   6.365   1.440
 3477SOL    HW211331   4.023   6.416   1.592
 3478SOL     OW11332   3.662   5.429   6.199
 3478SOL    HW111333   3.604   5.354   6.229
 3478SOL    HW211334   3.606   5.507   6.175
 3479SOL     OW11335   0.732   0.258   1.750
 3479SOL    HW111336   0.642   0.301   1.754
 3479SOL    HW211337   0.733   0.177   1.810
 3480SOL     OW11338   7.018   1.454   3.530
 3480SOL    HW111339   6.971   1.543   3.527
 3480SOL    HW211340   0.067   1.456   3.601
 3481SOL     OW11341   2.531   6.755   6.766
 3481SOL    HW111342   2.440   6.715   6.759
 3481SOL    HW211343   2.525   6.854   6.766
 3482SOL     OW11344   6.767   2.192   0.884
 3482SOL    HW111345   6.705   2.200   0.806
 3482SOL    HW211346   6.802   2.282   0.909
 3483SOL     OW11347   2.098   0.462   1.366
 3483SOL    HW111348   2.129   0.529   1.298
 3483SOL    HW211349   2.121   0.494   1.458
 3484SOL     OW11350   3.534   3.084   3.713
 3484SOL    HW111351   3.566   3.179   3.721
 3484SOL    HW211352   3.496   3.055   3.801
 3485SOL     OW11353   1.379   3.134   5.217
 3485SOL    HW111354   1.370   3.064   5.288
 3485SOL    HW211355   1.311   3.118   5.145
 3486SOL     OW11356   4.376   1.827   1.715
 3486SOL    HW111357   4.297   1.884   1.740
 3486SOL    HW211358   4.403   1.846   1.621
 3487SOL     OW11359   5.794   1.726   6.296
 3487SOL    HW111360   5.726   1.653   6.288
 3487SOL    HW211361   5.847   1.712   6.380
 3488SOL     OW11362   5.866   3.719   3.602
 3488SOL    HW111363   5.807   3.639   3.610
 3488SOL    HW211364   5.894   3.750   3.693
 3489SOL     OW11365   3.749   0.393   1.619
 3489SOL    HW111366   3.811   0.318   1.641
 3489SOL    HW211367   3.755   0.414   1.521
 3490SOL     OW11368   4.772   3.791   0.257
 3490SOL    HW111369   4.783   3.765   0.353
 3490SOL    HW211370   4.862   3.806   0.216
 3491SOL     OW11371   0.007   3.037   5.432
 3491SOL    HW111372   0.074   3.109   5.421
 3491SOL    HW211373   0.039   2.970   5.498
 3492SOL     OW11374   0.060   4.806   6.452
 3492SOL    HW111375   0.061   4.739   6.378
 3492SOL    HW211376   0.148   4.802   6.501
 3493SOL     OW11377   6.471   4.802   1.002
 3493SOL    HW111378   6.378   4.771   0.982
 3493SOL    HW211379   6.534   4.725   0.998
 3494SOL     OW11380   3.434   0.195   1.682
 3494SOL    HW111381   3.340   0.209   1.712
 3494SOL    HW211382   3.496   0.231   1.752
 3495SOL     OW11383   4.481   5.060   1.557
 3495SOL    HW111384   4.439   4.978   1.518
 3495SOL    HW211385   4.435   5.141   1.521
 3496SOL     OW11386   2.018   2.815   0.246
 3496SOL    HW111387   1.944   2.782   0.186
 3496SOL    HW211388   2.073   2.882   0.197
 3497SOL     OW11389   4.144   0.647   3.881
 3497SOL    HW111390   4.117   0.558   3.918
 3497SOL    HW211391   4.235   0.671   3.915
 3498SOL     OW11392   2.462   1.563   1.434
 3498SOL    HW111393   2.475   1.655   1.398
 3498SOL    HW211394   2.404   1.511   1.372
 3499SOL     OW11395   6.777   2.932   4.582
 3499SOL    HW111396   6.817   2.850   4.624
 3499SOL    HW211397   6.804   2.936   4.486
 3500SOL     OW11398   6.606   4.462   6.695
 3500SOL    HW111399   6.615   4.365   6.719
 3500SOL    HW211400   6.586   4.471   6.597
 3501SOL     OW11401   1.747   4.599   4.934
 3501SOL    HW111402   1.765   4.579   4.838
 3501SOL    HW211403   1.821   4.562   4.990
 3502SOL     OW11404   0.630   1.868   0.894
 3502SOL    HW111405   0.554   1.932   0.884
 3502SOL    HW211406   0.703   1.893   0.830
 3503SOL     OW11407   5.015   5.673   5.613
 3503SOL    HW111408   5.022   5.760   5.564
 3503SOL    HW211409   5.107   5.641   5.637
 3504SOL     OW11410   2.610   3.520   1.404
 3504SOL    HW111411   2.570   3.495   1.492
 3504SOL    HW211412   2.621   3.438   1.348
 3505SOL     OW11413   5.294   5.728   5.521
 3505SOL    HW111414   5.307   5.814   5.473
 3505SOL    HW211415   5.383   5.683   5.535
 3506SOL     OW11416   4.411   5.280   3.418
 3506SOL    HW111417   4.488   5.265   3.355
 3506SOL    HW211418   4.335   5.219   3.393
 3507SOL     OW11419   1.279   0.216   6.558
 3507SOL    HW111420   1.332   0.222   6.474
 3507SOL    HW211421   1.340   0.199   6.635
 3508SOL     OW11422   5.614   3.733   0.206
 3508SOL    HW111423   5.608   3.810   0.142
 3508SOL    HW211424   5.545   3.665   0.183
 3509SOL     OW11425   6.772   6.182   6.706
 3509SOL    HW111426   6.712   6.229   6.771
 3509SOL    HW211427   6.763   6.083   6.717
 3510SOL     OW11428   2.121   2.458   2.033
 3510SOL    HW111429   2.066   2.384   2.072
 3510SOL    HW211430   2.197   2.478   2.094
 3511SOL     OW11431   0.262   2.747   6.795
 3511SOL    HW111432   0.322   2.670   6.772
 3511SOL    HW211433   0.306   2.804   6.864
 3512SOL     OW11434   2.492   2.710   0.184
 3512SOL    HW111435   2.559   2.750   0.248
 3512SOL    HW211436   2.412   2.680   0.235
 3513SOL     OW11437   6.478   3.970   1.627
 3513SOL    HW111438   6.564   3.949   1.672
 3513SOL    HW211439   6.422   3.887   1.620
 3514SOL     OW11440   0.836   6.701   1.091
 3514SOL    HW111441   0.779   6.657   1.021
 3514SOL    HW211442   0.792   6.786   1.120
 3515SOL     OW11443   3.032   6.199   3.338
 3515SOL    HW111444   2.998   6.105   3.328
 3515SOL    HW211445   2.957   6.263   3.324
 3516SOL     OW11446   2.993   1.290   0.357
 3516SOL    HW111447   3.013   1.236   0.439
 3516SOL    HW211448   2.898   1.276   0.330
 3517SOL     OW11449   0.911   1.424   6.488
 3517SOL    HW111450   0.858   1.508   6.478
 3517SOL    HW211451   0.982   1.421   6.416
 3518SOL     OW11452   4.794   3.223   6.134
 3518SOL    HW111453   4.845   3.309   6.138
 3518SOL    HW211454   4.847   3.156   6.082
 3519SOL     OW11455   2.117   6.696   6.290
 3519SOL    HW111456   2.207   6.676   6.250
 3519SOL    HW211457   2.112   6.793   6.313
 3520SOL     OW11458   3.783   5.594   0.919
 3520SOL    HW111459   3.810   5.505   0.958
 3520SOL    HW211460   3.757   5.581   0.823
 3521SOL     OW11461   5.750   2.149   1.618
 3521SOL    HW111462   5.845   2.140   1.588
 3521SOL    HW211463   5.690   2.103   1.553
 3522SOL     OW11464   3.365   5.526   2.451
 3522SOL    HW111465   3.451   5.568   2.422
 3522SOL    HW211466   3.324   5.580   2.524
 3523SOL     OW11467   2.916   4.851   4.909
 3523SOL    HW111468   2.884   4.762   4.940
 3523SOL    HW211469   2.845   4.920   4.925
 3524SOL     OW11470   2.823   0.031   0.701
 3524SOL    HW111471   2.904   6.996   0.684
 3524SOL    HW211472   2.813   0.046   0.799
 3525SOL     OW11473   0.583   3.114   2.166
 3525SOL    HW111474   0.601   3.178   2.241
 3525SOL    HW211475   0.640   3.137   2.087
 3526SOL     OW11476   1.132   0.718   2.690
 3526SOL    HW111477   1.117   0.717   2.788
 3526SOL    HW211478   1.046   0.733   2.642
 3527SOL     OW11479   5.311   3.179   6.364
 3527SOL    HW111480   5.281   3.165   6.270
 3527SOL    HW211481   5.333   3.276   6.378
 3528SOL     OW11482   0.352   6.378   3.268
 3528SOL    HW111483   0.351   6.363   3.169
 3528SOL    HW211484   0.428   6.326   3.308
 3529SOL     OW11485   4.458   6.803   5.423
 3529SOL    HW111486   4.369   6.760   5.439
 3529SOL    HW211487   4.464   6.888   5.475
 3530SOL     OW11488   2.773   5.786   2.606
 3530SOL    HW111489   2.794   5.869   2.554
 3530SOL    HW211490   2.816   5.792   2.696
 3531SOL     OW11491   6.218   4.470   0.555
 3531SOL    HW111492   6.230   4.407   0.479
 3531SOL    HW211493   6.187   4.420   0.636
 3532SOL     OW11494   2.639   0.412   6.751
 3532SOL    HW111495   2.605   0.401   6.657
 3532SOL    HW211496   2.732   0.377   6.757
 3533SOL     OW11497   1.014   1.530   3.232
 3533SOL    HW111498   1.023   1.434   3.258
 3533SOL    HW211499   1.102   1.564   3.198
 3534SOL     OW11500   5.518   1.363   4.832
 3534SOL    HW111501   5.461   1.326   4.906
 3534SOL    HW211502   5.523   1.297   4.758
 3535SOL     OW11503   5.879   5.233   6.195
 3535SOL    HW111504   5.868   5.139   6.164
 3535SOL    HW211505   5.790   5.269   6.224
 3536SOL     OW11506   1.795   3.441   3.221
 3536SOL    HW111507   1.773   3.351   3.185
 3536SOL    HW211508   1.815   3.504   3.146
 3537SOL     OW11509   2.068   5.812   0.886
 3537SOL    HW111510   2.114   5.723   0.888
 3537SOL    HW211511   2.100   5.867   0.963
 3538SOL     OW11512   2.730   0.651   3.233
 3538SOL    HW111513   2.663   0.581   3.208
 3538SOL    HW211514   2.682   0.737   3.251
 3539SOL     OW11515   5.301   4.889   6.665
 3539SOL    HW111516   5.276   4.818   6.731
 3539SOL    HW211517   5.374   4.855   6.606
 3540SOL     OW11518   3.251   3.243   6.764
 3540SOL    HW111519   3.290   3.184   6.835
 3540SOL    HW211520   3.258   3.197   6.676
 3541SOL     OW11521   3.097   2.388   1.149
 3541SOL    HW111522   3.027   2.450   1.184
 3541SOL    HW211523   3.060   2.295   1.144
 3542SOL     OW11524   5.507   2.281   5.928
 3542SOL    HW111525   5.575   2.319   5.990
 3542SOL    HW211526   5.531   2.186   5.906
 3543SOL     OW11527   2.121   2.655   3.128
 3543SOL    HW111528   2.213   2.678   3.095
 3543SOL    HW211529   2.128   2.587   3.201
 3544SOL     OW11530   2.895   4.573   5.986
 3544SOL    HW111531   2.868   4.669   5.985
 3544SOL    HW211532   2.867   4.530   5.901
 3545SOL     OW11533   3.507   0.011   1.485
 3545SOL    HW111534   3.445   0.022   1.407
 3545SOL    HW211535   3.474   0.068   1.561
 3546SOL     OW11536   6.619   3.632   3.271
 3546SOL    HW111537   6.679   3.609   3.195
 3546SOL    HW211538   6.650   3.586   3.354
 3547SOL     OW11539   6.713   3.612   5.344
 3547SOL    HW111540   6.667   3.589   5.257
 3547SOL    HW211541   6.805   3.573   5.343
 3548SOL     OW11542   5.464   1.170   5.479
 3548SOL    HW111543   5.396   1.234   5.516
 3548SOL    HW211544   5.494   1.107   5.551
 3549SOL     OW11545   2.960   5.270   6.790
 3549SOL    HW111546   2.949   5.263   6.889
 3549SOL    HW211547   2.877   5.309   6.750
 3550SOL     OW11548   5.118   1.436   5.080
 3550SOL    HW111549   5.085   1.519   5.125
 3550SOL    HW211550   5.040   1.380   5.053
 3551SOL     OW11551   3.786   2.017   4.956
 3551SOL    HW111552   3.707   2.033   5.016
 3551SOL    HW211553   3.787   2.086   4.884
 3552SOL     OW11554   0.146   6.261   2.506
 3552SOL    HW111555   0.196   6.347   2.515
 3552SOL    HW211556   0.076   6.257   2.577
 3553SOL     OW11557   3.810   4.800   5.980
 3553SOL    HW111558   3.781   4.808   6.075
 3553SOL    HW211559   3.792   4.887   5.932
 3554SOL     OW11560   4.389   3.462   1.630
 3554SOL    HW111561   4.366   3.374   1.589
 3554SOL    HW211562   4.328   3.480   1.708
 3555SOL     OW11563   2.427   2.265   4.148
 3555SOL    HW111564   2.348   2.209   4.172
 3555SOL    HW211565   2.491   2.269   4.225
 3556SOL     OW11566   4.013   1.011   5.864
 3556SOL    HW111567   4.111   1.000   5.881
 3556SOL    HW211568   3.981   1.095   5.907
 3557SOL     OW11569   6.833   1.779   1.697
 3557SOL    HW111570   6.814   1.739   1.786
 3557SOL    HW211571   6.822   1.709   1.626
 3558SOL     OW11572   3.297   0.166   1.276
 3558SOL    HW111573   3.307   0.182   1.177
 3558SOL    HW211574   3.276   0.252   1.321
 3559SOL     OW11575   4.307   6.376   4.416
 3559SOL    HW111576   4.239   6.363   4.343
 3559SOL    HW211577   4.369   6.450   4.391
 3560SOL     OW11578   1.691   5.855   5.126
 3560SOL    HW111579   1.784   5.822   5.109
 3560SOL    HW211580   1.646   5.875   5.039
 3561SOL     OW11581   5.138   4.180   5.181
 3561SOL    HW111582   5.130   4.144   5.088
 3561SOL    HW211583   5.202   4.257   5.181
 3562SOL     OW11584   2.355   1.624   5.209
 3562SOL    HW111585   2.370   1.548   5.272
 3562SOL    HW211586   2.299   1.693   5.253
 3563SOL     OW11587   5.527   2.446   5.693
 3563SOL    HW111588   5.512   2.373   5.626
 3563SOL    HW211589   5.555   2.406   5.780
 3564SOL     OW11590   6.909   4.566   2.420
 3564SOL    HW111591   6.884   4.650   2.371
 3564SOL    HW211592   6.888   4.577   2.518
 3565SOL     OW11593   3.494   5.885   3.578
 3565SOL    HW111594   3.531   5.830   3.503
 3565SOL    HW211595   3.424   5.833   3.626
 3566SOL     OW11596   6.677   1.135   5.678
 3566SOL    HW111597   6.701   1.065   5.610
 3566SOL    HW211598   6.715   1.223   5.649
 3567SOL     OW11599   0.342   4.481   6.872
 3567SOL    HW111600   0.345   4.447   6.966
 3567SOL    HW211601   0.429   4.460   6.826
 3568SOL     OW11602   6.141   3.782   6.316
 3568SOL    HW111603   6.237   3.780   6.288
 3568SOL    HW211604   6.116   3.694   6.357
 3569SOL     OW11605   2.701   2.421   5.319
 3569SOL    HW111606   2.717   2.445   5.414
 3569SOL    HW211607   2.778   2.366   5.285
 3570SOL     OW11608   6.403   1.248   4.127
 3570SOL    HW111609   6.452   1.319   4.076
 3570SOL    HW211610   6.434   1.248   4.221
 3571SOL     OW11611   6.157   5.673   6.588
 3571SOL    HW111612   6.158   5.589   6.534
 3571SOL    HW211613   6.223   5.665   6.663
 3572SOL     OW11614   5.725   3.833   4.366
 3572SOL    HW111615   5.637   3.796   4.337
 3572SOL    HW211616   5.727   3.932   4.350
 3573SOL     OW11617   1.258   3.790   3.263
 3573SOL    HW111618   1.329   3.764   3.328
 3573SOL    HW211619   1.244   3.889   3.266
 3574SOL     OW11620   0.139   4.155   0.375
 3574SOL    HW111621   0.200   4.234   0.366
 3574SOL    HW211622   0.044   4.187   0.373
 3575SOL     OW11623   6.513   5.210   2.916
 3575SOL    HW111624   6.420   5.208   2.877
 3575SOL    HW211625   6.571   5.268   2.859
 3576SOL     OW11626   0.374   1.611   6.367
 3576SOL    HW111627   0.422   1.605   6.455
 3576SOL    HW211628   0.287   1.563   6.372
 3577SOL     OW11629   0.861   2.610   6.326
 3577SOL    HW111630   0.953   2.627   6.361
 3577SOL    HW211631   0.801   2.581   6.401
 3578SOL     OW11632   3.114   4.193   6.781
 3578SOL    HW111633   3.130   4.160   6.874
 3578SOL    HW211634   3.187   4.257   6.755
 3579SOL     OW11635   6.984   3.356   4.842
 3579SOL    HW111636   0.010   3.268   4.851
 3579SOL    HW211637   0.008   3.425   4.898
 3580SOL     OW11638   6.117   1.903   1.972
 3580SOL    HW111639   6.115   1.972   1.899
 3580SOL    HW211640   6.176   1.935   2.046
 3581SOL     OW11641   6.929   0.520   2.388
 3581SOL    HW111642   6.969   0.591   2.446
 3581SOL    HW211643   6.834   0.504   2.415
 3582SOL     OW11644   0.733   0.526   5.920
 3582SOL    HW111645   0.699   0.620   5.922
 3582SOL    HW211646   0.662   0.465   5.886
 3583SOL     OW11647   1.158   4.619   0.135
 3583SOL    HW111648   1.096   4.661   0.201
 3583SOL    HW211649   1.244   4.671   0.133
 3584SOL     OW11650   5.607   6.108   6.325
 3584SOL    HW111651   5.512   6.084   6.304
 3584SOL    HW211652   5.642   6.047   6.397
 3585SOL     OW11653   3.518   5.319   4.557
 3585SOL    HW111654   3.444   5.266   4.600
 3585SOL    HW211655   3.606   5.284   4.589
 3586SOL     OW11656   6.494   3.014   5.728
 3586SOL    HW111657   6.583   3.036   5.689
 3586SOL    HW211658   6.423   3.068   5.682
 3587SOL     OW11659   3.537   6.751   0.441
 3587SOL    HW111660   3.560   6.655   0.424
 3587SOL    HW211661   3.464   6.756   0.509
 3588SOL     OW11662   2.017   2.292   5.658
 3588SOL    HW111663   1.993   2.207   5.705
 3588SOL    HW211664   2.038   2.273   5.562
 3589SOL     OW11665   2.892   0.907   5.050
 3589SOL    HW111666   2.811   0.850   5.038
 3589SOL    HW211667   2.867   1.004   5.044
 3590SOL     OW11668   1.238   5.307   6.335
 3590SOL    HW111669   1.306   5.266   6.275
 3590SOL    HW211670   1.146   5.278   6.306
 3591SOL     OW11671   5.387   3.131   5.595
 3591SOL    HW111672   5.457   3.064   5.620
 3591SOL    HW211673   5.392   3.208   5.659
 3592SOL     OW11674   5.143   3.191   2.820
 3592SOL    HW111675   5.150   3.101   2.862
 3592SOL    HW211676   5.176   3.187   2.726
 3593SOL     OW11677   2.023   6.800   4.238
 3593SOL    HW111678   2.023   6.853   4.154
 3593SOL    HW211679   1.929   6.784   4.269
 3594SOL     OW11680   2.102   1.059   3.476
 3594SOL    HW111681   2.167   1.110   3.419
 3594SOL    HW211682   2.009   1.087   3.453
 3595SOL     OW11683   2.552   6.397   5.825
 3595SOL    HW111684   2.507   6.383   5.913
 3595SOL    HW211685   2.633   6.338   5.819
 3596SOL     OW11686   6.294   0.554   2.427
 3596SOL    HW111687   6.223   0.619   2.400
 3596SOL    HW211688   6.251   0.473   2.467
 3597SOL     OW11689   3.883   6.401   4.575
 3597SOL    HW111690   3.804   6.439   4.624
 3597SOL    HW211691   3.907   6.313   4.614
 3598SOL     OW11692   0.704   0.156   5.655
 3598SOL    HW111693   0.723   0.211   5.574
 3598SOL    HW211694   0.683   0.216   5.732
 3599SOL     OW11695   0.009   2.468   5.227
 3599SOL    HW111696   6.952   2.530   5.236
 3599SOL    HW211697   0.085   2.503   5.281
 3600SOL     OW11698   5.966   3.338   1.546
 3600SOL    HW111699   6.062   3.368   1.552
 3600SOL    HW211700   5.918   3.362   1.630
 3601SOL     OW11701   0.284   3.750   0.421
 3601SOL    HW111702   0.340   3.831   0.438
 3601SOL    HW211703   0.331   3.669   0.457
 3602SOL     OW11704   1.839   0.804   0.289
 3602SOL    HW111705   1.909   0.868   0.257
 3602SOL    HW211706   1.748   0.843   0.274
 3603SOL     OW11707   3.946   4.899   4.308
 3603SOL    HW111708   3.966   4.924   4.403
 3603SOL    HW211709   4.022   4.844   4.272
 3604SOL     OW11710   6.861   2.494   2.530
 3604SOL    HW111711   6.897   2.461   2.617
 3604SOL    HW211712   6.929   2.552   2.485
 3605SOL     OW11713   5.805   4.297   6.389
 3605SOL    HW111714   5.737   4.248   6.444
 3605SOL    HW211715   5.762   4.330   6.305
 3606SOL     OW11716   6.683   4.470   5.762
 3606SOL    HW111717   6.738   4.492   5.681
 3606SOL    HW211718   6.670   4.552   5.817
 3607SOL     OW11719   5.451   0.996   0.508
 3607SOL    HW111720   5.387   1.050   0.454
 3607SOL    HW211721   5.470   1.043   0.594
 3608SOL     OW11722   0.513   1.592   1.541
 3608SOL    HW111723   0.519   1.519   1.472
 3608SOL    HW211724   0.442   1.569   1.607
 3609SOL     OW11725   6.483   0.441   4.546
 3609SOL    HW111726   6.538   0.363   4.576
 3609SOL    HW211727   6.410   0.458   4.612
 3610SOL     OW11728   0.825   6.789   4.743
 3610SOL    HW111729   0.796   6.864   4.803
 3610SOL    HW211730   0.919   6.803   4.714
 3611SOL     OW11731   3.261   5.080   5.639
 3611SOL    HW111732   3.283   4.988   5.606
 3611SOL    HW211733   3.336   5.142   5.616
 3612SOL     OW11734   1.215   6.318   6.476
 3612SOL    HW111735   1.213   6.292   6.573
 3612SOL    HW211736   1.121   6.332   6.444
 3613SOL     OW11737   4.953   5.332   0.500
 3613SOL    HW111738   4.883   5.262   0.518
 3613SOL    HW211739   4.947   5.360   0.405
 3614SOL     OW11740   3.825   3.468   3.420
 3614SOL    HW111741   3.800   3.412   3.341
 3614SOL    HW211742   3.743   3.509   3.459
 3615SOL     OW11743   5.877   5.188   5.756
 3615SOL    HW111744   5.872   5.091   5.734
 3615SOL    HW211745   5.794   5.234   5.725
 3616SOL     OW11746   6.521   2.113   6.600
 3616SOL    HW111747   6.552   2.208   6.594
 3616SOL    HW211748   6.534   2.068   6.512
 3617SOL     OW11749   6.088   2.383   6.656
 3617SOL    HW111750   6.180   2.381   6.617
 3617SOL    HW211751   6.025   2.337   6.593
 3618SOL     OW11752   1.374   1.712   5.796
 3618SOL    HW111753   1.457   1.657   5.786
 3618SOL    HW211754   1.392   1.789   5.858
 3619SOL     OW11755   6.011   2.361   4.131
 3619SOL    HW111756   5.945   2.437   4.124
 3619SOL    HW211757   5.964   2.275   4.113
 3620SOL     OW11758   5.646   0.175   6.018
 3620SOL    HW111759   5.568   0.127   5.976
 3620SOL    HW211760   5.681   0.244   5.955
 3621SOL     OW11761   3.236   2.882   5.963
 3621SOL    HW111762   3.294   2.944   5.910
 3621SOL    HW211763   3.293   2.819   6.016
 3622SOL     OW11764   0.809   1.033   3.009
 3622SOL    HW111765   0.718   1.059   2.978
 3622SOL    HW211766   0.876   1.100   2.977
 3623SOL     OW11767   5.932   5.154   4.258
 3623SOL    HW111768   5.854   5.127   4.200
 3623SOL    HW211769   5.928   5.105   4.344
 3624SOL     OW11770   2.226   6.509   3.381
 3624SOL    HW111771   2.263   6.581   3.323
 3624SOL    HW211772   2.295   6.480   3.447
 3625SOL     OW11773   6.468   3.371   6.056
 3625SOL    HW111774   6.440   3.279   6.085
 3625SOL    HW211775   6.554   3.364   6.004
 3626SOL     OW11776   2.149   3.675   4.959
 3626SOL    HW111777   2.164   3.667   5.058
 3626SOL    HW211778   2.119   3.769   4.938
 3627SOL     OW11779   4.091   3.609   3.752
 3627SOL    HW111780   3.993   3.592   3.742
 3627SOL    HW211781   4.117   3.685   3.692
 3628SOL     OW11782   2.405   5.871   2.042
 3628SOL    HW111783   2.389   5.777   2.010
 3628SOL    HW211784   2.472   5.869   2.116
 3629SOL     OW11785   6.445   2.299   4.906
 3629SOL    HW111786   6.495   2.312   4.991
 3629SOL    HW211787   6.462   2.207   4.871
 3630SOL     OW11788   5.806   2.326   4.363
 3630SOL    HW111789   5.854   2.252   4.316
 3630SOL    HW211790   5.707   2.317   4.348
 3631SOL     OW11791   2.341   0.122   4.714
 3631SOL    HW111792   2.421   0.063   4.713
 3631SOL    HW211793   2.279   0.097   4.639
 3632SOL     OW11794   5.541   1.004   1.032
 3632SOL    HW111795   5.451   1.046   1.016
 3632SOL    HW211796   5.603   1.029   0.958
 3633SOL     OW11797   2.923   2.387   5.594
 3633SOL    HW111798   2.838   2.433   5.570
 3633SOL    HW211799   2.997   2.420   5.535
 3634SOL     OW11800   0.595   6.699   4.610
 3634SOL    HW111801   0.532   6.767   4.648
 3634SOL    HW211802   0.684   6.706   4.656
 3635SOL     OW11803   3.202   1.368   5.545
 3635SOL    HW111804   3.298   1.346   5.559
 3635SOL    HW211805   3.150   1.284   5.528
 3636SOL     OW11806   0.027   6.057   5.902
 3636SOL    HW111807   0.044   5.972   5.951
 3636SOL    HW211808   0.026   6.134   5.966
 3637SOL     OW11809   6.211   2.305   1.000
 3637SOL    HW111810   6.196   2.282   1.096
 3637SOL    HW211811   6.124   2.300   0.951
 3638SOL     OW11812   6.802   4.817   3.809
 3638SOL    HW111813   6.816   4.905   3.854
 3638SOL    HW211814   6.757   4.754   3.872
 3639SOL     OW11815   3.525   3.372   1.113
 3639SOL    HW111816   3.590   3.332   1.177
 3639SOL    HW211817   3.472   3.443   1.159
 3640SOL     OW11818   3.568   5.912   6.945
 3640SOL    HW111819   3.650   5.907   6.887
 3640SOL    HW211820   3.590   5.960   0.008
 3641SOL     OW11821   3.492   1.747   4.674
 3641SOL    HW111822   3.514   1.687   4.751
 3641SOL    HW211823   3.431   1.699   4.611
 3642SOL     OW11824   4.887   1.266   5.703
 3642SOL    HW111825   4.981   1.288   5.730
 3642SOL    HW211826   4.869   1.169   5.721
 3643SOL     OW11827   3.207   5.717   4.869
 3643SOL    HW111828   3.137   5.785   4.849
 3643SOL    HW211829   3.190   5.634   4.816
 3644SOL     OW11830   6.909   1.300   1.270
 3644SOL    HW111831   6.823   1.345   1.246
 3644SOL    HW211832   6.917   1.295   1.370
 3645SOL     OW11833   5.401   1.612   4.154
 3645SOL    HW111834   5.302   1.599   4.150
 3645SOL    HW211835   5.442   1.539   4.208
 3646SOL     OW11836   6.582   4.628   5.459
 3646SOL    HW111837   6.564   4.711   5.512
 3646SOL    HW211838   6.667   4.586   5.491
 3647SOL     OW11839   1.832   3.277   0.094
 3647SOL    HW111840   1.788   3.241   0.177
 3647SOL    HW211841   1.923   3.311   0.118
 3648SOL     OW11842   3.912   5.550   3.087
 3648SOL    HW111843   3.822   5.587   3.063
 3648SOL    HW211844   3.912   5.451   3.072
 3649SOL     OW11845   4.286   3.347   0.805
 3649SOL    HW111846   4.283   3.297   0.718
 3649SOL    HW211847   4.192   3.362   0.837
 3650SOL     OW11848   6.808   6.073   0.745
 3650SOL    HW111849   6.847   6.023   0.823
 3650SOL    HW211850   6.823   6.171   0.757
 3651SOL     OW11851   0.933   6.040   2.164
 3651SOL    HW111852   0.917   6.059   2.067
 3651SOL    HW211853   1.032   6.031   2.180
 3652SOL     OW11854   4.724   6.750   3.457
 3652SOL    HW111855   4.675   6.771   3.542
 3652SOL    HW211856   4.661   6.708   3.392
 3653SOL     OW11857   6.430   1.067   3.003
 3653SOL    HW111858   6.390   1.030   3.087
 3653SOL    HW211859   6.499   1.004   2.969
 3654SOL     OW11860   2.178   6.326   0.699
 3654SOL    HW111861   2.138   6.244   0.659
 3654SOL    HW211862   2.106   6.390   0.724
 3655SOL     OW11863   1.419   0.107   3.645
 3655SOL    HW111864   1.501   0.130   3.592
 3655SOL    HW211865   1.338   0.142   3.597
 3656SOL     OW11866   1.518   2.733   1.194
 3656SOL    HW111867   1.479   2.694   1.277
 3656SOL    HW211868   1.457   2.714   1.117
 3657SOL     OW11869   4.463   5.816   6.381
 3657SOL    HW111870   4.553   5.858   6.393
 3657SOL    HW211871   4.474   5.721   6.354
 3658SOL     OW11872   1.111   5.984   4.896
 3658SOL    HW111873   1.200   5.940   4.885
 3658SOL    HW211874   1.090   6.038   4.814
 3659SOL     OW11875   2.596   4.442   6.465
 3659SOL    HW111876   2.549   4.515   6.417
 3659SOL    HW211877   2.537   4.407   6.538
 3660SOL     OW11878   4.950   6.436   2.243
 3660SOL    HW111879   4.977   6.388   2.327
 3660SOL    HW211880   5.031   6.455   2.188
 3661SOL     OW11881   4.811   2.102   6.569
 3661SOL    HW111882   4.822   2.048   6.486
 3661SOL    HW211883   4.870   2.183   6.565
 3662SOL     OW11884   3.474   0.372   4.867
 3662SOL    HW111885   3.454   0.339   4.774
 3662SOL    HW211886   3.411   0.328   4.932
 3663SOL     OW11887   1.304   1.566   0.463
 3663SOL    HW111888   1.319   1.529   0.554
 3663SOL    HW211889   1.354   1.512   0.396
 3664SOL     OW11890   5.244   1.473   1.234
 3664SOL    HW111891   5.229   1.543   1.164
 3664SOL    HW211892   5.340   1.472   1.260
 3665SOL     OW11893   0.354   5.760   5.458
 3665SOL    HW111894   0.442   5.788   5.420
 3665SOL    HW211895   0.350   5.660   5.464
 3666SOL     OW11896   1.709   4.296   3.688
 3666SOL    HW111897   1.705   4.203   3.653
 3666SOL    HW211898   1.803   4.320   3.711
 3667SOL     OW11899   6.218   0.389   0.340
 3667SOL    HW111900   6.135   0.384   0.283
 3667SOL    HW211901   6.261   0.299   0.345
 3668SOL     OW11902   1.833   0.233   2.344
 3668SOL    HW111903   1.820   0.298   2.419
 3668SOL    HW211904   1.854   0.282   2.260
 3669SOL     OW11905   5.906   1.632   4.405
 3669SOL    HW111906   5.885   1.654   4.310
 3669SOL    HW211907   6.005   1.635   4.419
 3670SOL     OW11908   2.452   5.621   0.669
 3670SOL    HW111909   2.495   5.543   0.624
 3670SOL    HW211910   2.403   5.676   0.601
 3671SOL     OW11911   6.486   0.486   3.410
 3671SOL    HW111912   6.407   0.427   3.394
 3671SOL    HW211913   6.471   0.540   3.493
 3672SOL     OW11914   5.979   1.692   0.859
 3672SOL    HW111915   5.985   1.692   0.958
 3672SOL    HW211916   5.887   1.719   0.831
 3673SOL     OW11917   3.881   0.656   6.235
 3673SOL    HW111918   3.819   0.578   6.219
 3673SOL    HW211919   3.976   0.625   6.226
 3674SOL     OW11920   0.531   6.817   5.859
 3674SOL    HW111921   0.460   6.746   5.853
 3674SOL    HW211922   0.599   6.790   5.928
 3675SOL     OW11923   1.765   2.435   5.491
 3675SOL    HW111924   1.764   2.514   5.553
 3675SOL    HW211925   1.810   2.358   5.536
 3676SOL     OW11926   3.944   5.156   4.202
 3676SOL    HW111927   3.919   5.060   4.212
 3676SOL    HW211928   3.862   5.213   4.215
 3677SOL     OW11929   1.074   5.959   2.791
 3677SOL    HW111930   1.155   6.011   2.820
 3677SOL    HW211931   1.102   5.878   2.741
 3678SOL     OW11932   0.767   2.974   3.843
 3678SOL    HW111933   0.850   3.019   3.810
 3678SOL    HW211934   0.790   2.912   3.918
 3679SOL     OW11935   0.215   0.967   2.624
 3679SOL    HW111936   0.197   0.982   2.721
 3679SOL    HW211937   0.130   0.978   2.572
 3680SOL     OW11938   6.602   3.073   4.006
 3680SOL    HW111939   6.515   3.108   3.970
 3680SOL    HW211940   6.614   3.105   4.100
 3681SOL     OW11941   0.645   0.782   5.925
 3681SOL    HW111942   0.568   0.820   5.976
 3681SOL    HW211943   0.729   0.831   5.950
 3682SOL     OW11944   5.842   2.363   5.906
 3682SOL    HW111945   5.827   2.455   5.942
 3682SOL    HW211946   5.798   2.354   5.817
 3683SOL     OW11947   6.956   0.330   5.010
 3683SOL    HW111948   6.903   0.303   5.091
 3683SOL    HW211949   0.029   0.346   5.036
 3684SOL     OW11950   1.799   2.750   1.196
 3684SOL    HW111951   1.699   2.743   1.202
 3684SOL    HW211952   1.825   2.845   1.179
 3685SOL     OW11953   6.355   6.378   5.803
 3685SOL    HW111954   6.395   6.292   5.770
 3685SOL    HW211955   6.277   6.358   5.862
 3686SOL     OW11956   5.938   4.977   3.169
 3686SOL    HW111957   5.909   5.070   3.191
 3686SOL    HW211958   6.036   4.976   3.150
 3687SOL     OW11959   3.427   6.239   5.586
 3687SOL    HW111960   3.349   6.180   5.564
 3687SOL    HW211961   3.412   6.329   5.547
 3688SOL     OW11962   0.972   4.174   0.283
 3688SOL    HW111963   1.022   4.117   0.348
 3688SOL    HW211964   1.033   4.244   0.247
 3689SOL     OW11965   0.808   0.563   5.475
 3689SOL    HW111966   0.846   0.646   5.516
 3689SOL    HW211967   0.768   0.585   5.386
 3690SOL     OW11968   4.442   0.309   6.498
 3690SOL    HW111969   4.493   0.267   6.574
 3690SOL    HW211970   4.473   0.403   6.486
 3691SOL     OW11971   2.592   2.954   6.828
 3691SOL    HW111972   2.578   2.929   6.732
 3691SOL    HW211973   2.582   3.053   6.838
 3692SOL     OW11974   1.108   5.648   4.347
 3692SOL    HW111975   1.194   5.660   4.397
 3692SOL    HW211976   1.031   5.655   4.410
 3693SOL     OW11977   1.780   2.906   2.974
 3693SOL    HW111978   1.837   2.981   2.939
 3693SOL    HW211979   1.818   2.874   3.061
 3694SOL     OW11980   0.914   5.256   3.387
 3694SOL    HW111981   0.971   5.290   3.463
 3694SOL    HW211982   0.872   5.333   3.340
 3695SOL     OW11983   0.873   2.210   2.548
 3695SOL    HW111984   0.799   2.267   2.513
 3695SOL    HW211985   0.888   2.132   2.487
 3696SOL     OW11986   4.377   6.339   5.702
 3696SOL    HW111987   4.425   6.305   5.622
 3696SOL    HW211988   4.433   6.407   5.748
 3697SOL     OW11989   6.932   6.519   3.580
 3697SOL    HW111990   6.935   6.600   3.638
 3697SOL    HW211991   6.837   6.497   3.559
 3698SOL     OW11992   3.840   6.904   5.483
 3698SOL    HW111993   3.886   6.973   5.428
 3698SOL    HW211994   3.748   6.936   5.506
 3699SOL     OW11995   6.798   3.568   3.041
 3699SOL    HW111996   6.735   3.642   3.020
 3699SOL    HW211997   6.886   3.585   2.996
 3700SOL     OW11998   6.136   0.518   3.352
 3700SOL    HW111999   6.046   0.562   3.351
 3700SOL    HW212000   6.148   0.465   3.268
 3701SOL     OW12001   0.343   0.845   3.932
 3701SOL    HW112002   0.254   0.890   3.939
 3701SOL    HW212003   0.351   0.774   4.003
 3702SOL     OW12004   4.607   0.247   1.865
 3702SOL    HW112005   4.699   0.210   1.877
 3702SOL    HW212006   4.612   0.347   1.857
 3703SOL     OW12007   4.221   3.904   5.613
 3703SOL    HW112008   4.315   3.884   5.640
 3703SOL    HW212009   4.186   3.981   5.666
 3704SOL     OW12010   3.021   1.083   1.860
 3704SOL    HW112011   2.990   1.147   1.929
 3704SOL    HW212012   3.000   0.989   1.889
 3705SOL     OW12013   4.866   6.603   3.837
 3705SOL    HW112014   4.855   6.700   3.819
 3705SOL    HW212015   4.952   6.586   3.885
 3706SOL     OW12016   1.469   2.195   4.329
 3706SOL    HW112017   1.383   2.167   4.372
 3706SOL    HW212018   1.484   2.293   4.344
 3707SOL     OW12019   5.533   3.261   5.115
 3707SOL    HW112020   5.598   3.310   5.057
 3707SOL    HW212021   5.495   3.183   5.065
 3708SOL     OW12022   5.809   6.923   6.333
 3708SOL    HW112023   5.856   6.927   6.421
 3708SOL    HW212024   5.712   6.907   6.348
 3709SOL     OW12025   3.582   1.195   6.406
 3709SOL    HW112026   3.524   1.122   6.371
 3709SOL    HW212027   3.606   1.177   6.501
 3710SOL     OW12028   6.868   5.916   0.514
 3710SOL    HW112029   6.869   5.967   0.428
 3710SOL    HW212030   6.861   5.980   0.591
 3711SOL     OW12031   0.551   5.615   2.270
 3711SOL    HW112032   0.619   5.592   2.200
 3711SOL    HW212033   0.494   5.691   2.238
 3712SOL     OW12034   7.021   6.237   6.623
 3712SOL    HW112035   6.926   6.217   6.646
 3712SOL    HW212036   0.008   6.332   6.595
 3713SOL     OW12037   2.162   6.391   4.894
 3713SOL    HW112038   2.227   6.439   4.952
 3713SOL    HW212039   2.077   6.443   4.887
 3714SOL     OW12040   5.248   6.307   4.802
 3714SOL    HW112041   5.161   6.353   4.782
 3714SOL    HW212042   5.317   6.375   4.826
 3715SOL     OW12043   5.769   4.200   4.988
 3715SOL    HW112044   5.766   4.103   5.013
 3715SOL    HW212045   5.830   4.212   4.910
 3716SOL     OW12046   0.297   6.399   4.315
 3716SOL    HW112047   0.292   6.307   4.353
 3716SOL    HW212048   0.206   6.427   4.283
 3717SOL     OW12049   6.177   5.657   0.646
 3717SOL    HW112050   6.144   5.668   0.552
 3717SOL    HW212051   6.173   5.746   0.692
 3718SOL     OW12052   1.778   6.490   6.089
 3718SOL    HW112053   1.723   6.533   6.018
 3718SOL    HW212054   1.822   6.408   6.053
 3719SOL     OW12055   4.667   4.333   1.225
 3719SOL    HW112056   4.756   4.352   1.267
 3719SOL    HW212057   4.640   4.238   1.244
 3720SOL     OW12058   6.088   2.603   6.854
 3720SOL    HW112059   5.989   2.614   6.862
 3720SOL    HW212060   6.109   2.523   6.797
 3721SOL     OW12061   5.456   4.847   0.296
 3721SOL    HW112062   5.372   4.901   0.297
 3721SOL    HW212063   5.477   4.815   0.388
 3722SOL     OW12064   6.774   6.376   2.537
 3722SOL    HW112065   6.795   6.283   2.568
 3722SOL    HW212066   6.675   6.391   2.539
 3723SOL     OW12067   5.771   6.799   1.762
 3723SOL    HW112068   5.692   6.854   1.736
 3723SOL    HW212069   5.745   6.703   1.765
 3724SOL     OW12070   1.899   5.230   6.729
 3724SOL    HW112071   1.835   5.160   6.761
 3724SOL    HW212072   1.900   5.232   6.629
 3725SOL     OW12073   5.525   6.014   6.940
 3725SOL    HW112074   5.603   6.076   6.933
 3725SOL    HW212075   5.476   6.033   0.004
 3726SOL     OW12076   6.881   4.077   1.337
 3726SOL    HW112077   6.787   4.094   1.364
 3726SOL    HW212078   6.902   3.980   1.347
 3727SOL     OW12079   0.212   3.493   6.283
 3727SOL    HW112080   0.143   3.435   6.240
 3727SOL    HW212081   0.195   3.588   6.257
 3728SOL     OW12082   1.508   3.334   0.365
 3728SOL    HW112083   1.410   3.332   0.344
 3728SOL    HW212084   1.548   3.418   0.329
 3729SOL     OW12085   0.832   2.300   3.298
 3729SOL    HW112086   0.876   2.231   3.355
 3729SOL    HW212087   0.861   2.391   3.326
 3730SOL     OW12088   2.678   6.032   0.034
 3730SOL    HW112089   2.587   6.035   7.014
 3730SOL    HW212090   2.748   6.027   6.984
 3731SOL     OW12091   4.749   1.588   0.426
 3731SOL    HW112092   4.727   1.492   0.407
 3731SOL    HW212093   4.675   1.647   0.394
 3732SOL     OW12094   2.336   3.003   6.077
 3732SOL    HW112095   2.359   3.096   6.049
 3732SOL    HW212096   2.359   2.940   6.003
 3733SOL     OW12097   2.124   3.929   1.538
 3733SOL    HW112098   2.173   3.994   1.481
 3733SOL    HW212099   2.156   3.936   1.633
 3734SOL     OW12100   4.319   1.455   1.494
 3734SOL    HW112101   4.395   1.506   1.534
 3734SOL    HW212102   4.309   1.367   1.541
 3735SOL     OW12103   0.756   1.857   2.710
 3735SOL    HW112104   0.781   1.880   2.804
 3735SOL    HW212105   0.840   1.844   2.656
 3736SOL     OW12106   6.999   3.160   0.751
 3736SOL    HW112107   0.076   3.178   0.745
 3736SOL    HW212108   6.952   3.210   0.678
 3737SOL     OW12109   4.822   0.229   3.403
 3737SOL    HW112110   4.873   0.147   3.430
 3737SOL    HW212111   4.737   0.201   3.358
 3738SOL     OW12112   6.392   5.841   3.176
 3738SOL    HW112113   6.392   5.839   3.276
 3738SOL    HW212114   6.346   5.760   3.141
 3739SOL     OW12115   1.836   4.220   2.791
 3739SOL    HW112116   1.848   4.176   2.880
 3739SOL    HW212117   1.854   4.154   2.719
 3740SOL     OW12118   4.462   0.773   6.815
 3740SOL    HW112119   4.472   0.793   6.717
 3740SOL    HW212120   4.549   0.787   6.861
 3741SOL     OW12121   4.436   4.151   1.268
 3741SOL    HW112122   4.417   4.229   1.327
 3741SOL    HW212123   4.377   4.155   1.187
 3742SOL     OW12124   2.187   1.980   5.582
 3742SOL    HW112125   2.238   2.046   5.637
 3742SOL    HW212126   2.146   2.027   5.504
 3743SOL     OW12127   6.179   5.162   0.823
 3743SOL    HW112128   6.188   5.161   0.723
 3743SOL    HW212129   6.270   5.155   0.864
 3744SOL     OW12130   0.833   5.773   3.949
 3744SOL    HW112131   0.795   5.771   3.856
 3744SOL    HW212132   0.893   5.694   3.961
 3745SOL     OW12133   3.159   5.691   2.941
 3745SOL    HW112134   3.187   5.615   2.999
 3745SOL    HW212135   3.163   5.777   2.993
 3746SOL     OW12136   4.276   1.253   1.649
 3746SOL    HW112137   4.342   1.179   1.639
 3746SOL    HW212138   4.253   1.265   1.746
 3747SOL     OW12139   2.981   6.664   6.365
 3747SOL    HW112140   2.958   6.567   6.355
 3747SOL    HW212141   2.902   6.713   6.401
 3748SOL     OW12142   5.502   0.993   2.045
 3748SOL    HW112143   5.496   0.930   2.122
 3748SOL    HW212144   5.568   1.065   2.065
 3749SOL     OW12145   1.522   6.843   4.090
 3749SOL    HW112146   1.441   6.787   4.107
 3749SOL    HW212147   1.510   6.894   4.004
 3750SOL     OW12148   1.498   4.053   0.098
 3750SOL    HW112149   1.470   4.149   0.107
 3750SOL    HW212150   1.470   4.003   0.180
 3751SOL     OW12151   0.172   3.865   2.661
 3751SOL    HW112152   0.091   3.809   2.640
 3751SOL    HW212153   0.148   3.931   2.732
 3752SOL     OW12154   5.153   1.025   5.727
 3752SOL    HW112155   5.137   0.993   5.820
 3752SOL    HW212156   5.181   0.947   5.670
 3753SOL     OW12157   6.238   0.653   4.596
 3753SOL    HW112158   6.258   0.616   4.505
 3753SOL    HW212159   6.277   0.593   4.666
 3754SOL     OW12160   1.836   0.739   2.192
 3754SOL    HW112161   1.754   0.688   2.217
 3754SOL    HW212162   1.832   0.830   2.232
 3755SOL     OW12163   3.319   5.176   4.674
 3755SOL    HW112164   3.252   5.143   4.607
 3755SOL    HW212165   3.362   5.098   4.720
 3756SOL     OW12166   2.923   5.842   7.006
 3756SOL    HW112167   3.017   5.860   0.013
 3756SOL    HW212168   2.908   5.885   6.917
 3757SOL     OW12169   6.413   5.046   1.981
 3757SOL    HW112170   6.333   4.992   1.955
 3757SOL    HW212171   6.496   4.997   1.955
 3758SOL     OW12172   2.088   0.829   4.265
 3758SOL    HW112173   2.016   0.898   4.251
 3758SOL    HW212174   2.146   0.824   4.184
 3759SOL     OW12175   4.980   0.770   4.631
 3759SOL    HW112176   5.030   0.856   4.626
 3759SOL    HW212177   5.044   0.696   4.652
 3760SOL     OW12178   0.149   0.202   3.583
 3760SOL    HW112179   0.145   0.107   3.551
 3760SOL    HW212180   0.143   0.203   3.683
 3761SOL     OW12181   6.147   1.606   4.834
 3761SOL    HW112182   6.115   1.550   4.758
 3761SOL    HW212183   6.209   1.677   4.799
 3762SOL     OW12184   1.598   3.749   2.654
 3762SOL    HW112185   1.689   3.783   2.628
 3762SOL    HW212186   1.583   3.660   2.613
 3763SOL     OW12187   0.034   3.728   0.263
 3763SOL    HW112188   0.036   3.640   0.215
 3763SOL    HW212189   0.124   3.747   0.302
 3764SOL     OW12190   1.723   0.060   2.773
 3764SOL    HW112191   1.652   7.013   2.791
 3764SOL    HW212192   1.785   0.064   2.851
 3765SOL     OW12193   6.356   1.675   1.560
 3765SOL    HW112194   6.339   1.769   1.531
 3765SOL    HW212195   6.379   1.675   1.658
 3766SOL     OW12196   1.901   2.733   4.081
 3766SOL    HW112197   1.930   2.783   3.999
 3766SOL    HW212198   1.947   2.645   4.085
 3767SOL     OW12199   3.104   4.227   6.098
 3767SOL    HW112200   3.006   4.233   6.081
 3767SOL    HW212201   3.125   4.264   6.188
 3768SOL     OW12202   1.435   0.489   4.266
 3768SOL    HW112203   1.530   0.460   4.259
 3768SOL    HW212204   1.411   0.505   4.362
 3769SOL     OW12205   5.717   5.233   4.953
 3769SOL    HW112206   5.814   5.209   4.967
 3769SOL    HW212207   5.704   5.330   4.974
 3770SOL     OW12208   1.189   1.212   0.398
 3770SOL    HW112209   1.124   1.247   0.465
 3770SOL    HW212210   1.167   1.249   0.308
 3771SOL     OW12211   6.644   4.771   0.696
 3771SOL    HW112212   6.565   4.787   0.636
 3771SOL    HW212213   6.612   4.733   0.783
 3772SOL     OW12214   0.897   6.458   7.008
 3772SOL    HW112215   0.862   6.551   6.993
 3772SOL    HW212216   0.989   6.450   6.968
 3773SOL     OW12217   5.542   4.167   5.504
 3773SOL    HW112218   5.524   4.204   5.413
 3773SOL    HW212219   5.619   4.103   5.499
 3774SOL     OW12220   5.653   5.467   1.861
 3774SOL    HW112221   5.629   5.382   1.813
 3774SOL    HW212222   5.686   5.534   1.795
 3775SOL     OW12223   3.848   4.995   3.242
 3775SOL    HW112224   3.828   4.923   3.308
 3775SOL    HW212225   3.811   5.082   3.274
 3776SOL     OW12226   3.903   2.652   6.443
 3776SOL    HW112227   3.988   2.616   6.482
 3776SOL    HW212228   3.917   2.670   6.346
 3777SOL     OW12229   2.737   6.178   3.769
 3777SOL    HW112230   2.816   6.182   3.830
 3777SOL    HW212231   2.708   6.083   3.759
 3778SOL     OW12232   3.104   5.904   4.425
 3778SOL    HW112233   3.011   5.891   4.459
 3778SOL    HW212234   3.152   5.816   4.425
 3779SOL     OW12235   0.179   5.119   0.983
 3779SOL    HW112236   0.156   5.095   1.077
 3779SOL    HW212237   0.110   5.181   0.947
 3780SOL     OW12238   0.224   2.356   2.261
 3780SOL    HW112239   0.202   2.288   2.331
 3780SOL    HW212240   0.321   2.379   2.265
 3781SOL     OW12241   1.483   6.581   5.164
 3781SOL    HW112242   1.398   6.549   5.205
 3781SOL    HW212243   1.466   6.611   5.071
 3782SOL     OW12244   4.021   6.160   2.447
 3782SOL    HW112245   3.960   6.174   2.369
 3782SOL    HW212246   4.010   6.236   2.512
 3783SOL     OW12247   5.368   4.522   5.527
 3783SOL    HW112248   5.428   4.466   5.584
 3783SOL    HW212249   5.364   4.483   5.435
 3784SOL     OW12250   5.344   2.624   2.278
 3784SOL    HW112251   5.261   2.600   2.228
 3784SOL    HW212252   5.335   2.717   2.315
 3785SOL     OW12253   0.539   3.537   5.079
 3785SOL    HW112254   0.619   3.584   5.117
 3785SOL    HW212255   0.546   3.439   5.098
 3786SOL     OW12256   2.264   2.201   3.497
 3786SOL    HW112257   2.262   2.265   3.574
 3786SOL    HW212258   2.177   2.205   3.448
 3787SOL     OW12259   4.133   0.426   2.805
 3787SOL    HW112260   4.164   0.400   2.897
 3787SOL    HW212261   4.100   0.520   2.806
 3788SOL     OW12262   0.097   3.933   4.772
 3788SOL    HW112263   0.065   3.873   4.699
 3788SOL    HW212264   0.081   4.028   4.747
 3789SOL     OW12265   0.736   2.922   3.279
 3789SOL    HW112266   0.658   2.923   3.216
 3789SOL    HW212267   0.714   2.976   3.360
 3790SOL     OW12268   1.344   6.076   0.137
 3790SOL    HW112269   1.413   6.142   0.108
 3790SOL    HW212270   1.329   6.085   0.235
 3791SOL     OW12271   5.400   1.575   5.963
 3791SOL    HW112272   5.329   1.586   6.034
 3791SOL    HW212273   5.457   1.658   5.961
 3792SOL     OW12274   0.872   0.909   4.183
 3792SOL    HW112275   0.896   0.859   4.100
 3792SOL    HW212276   0.952   0.913   4.244
 3793SOL     OW12277   5.997   5.987   1.137
 3793SOL    HW112278   6.089   5.950   1.124
 3793SOL    HW212279   5.944   5.974   1.053
 3794SOL     OW12280   1.586   3.458   1.071
 3794SOL    HW112281   1.568   3.375   1.123
 3794SOL    HW212282   1.578   3.439   0.973
 3795SOL     OW12283   3.059   6.071   0.853
 3795SOL    HW112284   3.113   6.034   0.777
 3795SOL    HW212285   2.967   6.031   0.852
 3796SOL     OW12286   4.215   2.451   1.217
 3796SOL    HW112287   4.314   2.447   1.207
 3796SOL    HW212288   4.173   2.465   1.128
 3797SOL     OW12289   1.401   3.897   2.502
 3797SOL    HW112290   1.473   3.854   2.555
 3797SOL    HW212291   1.313   3.853   2.522
 3798SOL     OW12292   2.308   6.872   3.033
 3798SOL    HW112293   2.255   6.942   2.985
 3798SOL    HW212294   2.396   6.859   2.988
 3799SOL     OW12295   6.393   2.646   2.968
 3799SOL    HW112296   6.374   2.669   3.063
 3799SOL    HW212297   6.488   2.668   2.947
 3800SOL     OW12298   5.030   1.537   3.012
 3800SOL    HW112299   5.117   1.539   2.962
 3800SOL    HW212300   4.961   1.588   2.960
 3801SOL     OW12301   5.177   6.770   2.003
 3801SOL    HW112302   5.110   6.766   2.077
 3801SOL    HW212303   5.150   6.841   1.938
 3802SOL     OW12304   0.526   1.665   1.893
 3802SOL    HW112305   0.599   1.621   1.841
 3802SOL    HW212306   0.522   1.762   1.870
 3803SOL     OW12307   3.270   4.097   3.716
 3803SOL    HW112308   3.337   4.165   3.686
 3803SOL    HW212309   3.271   4.092   3.816
 3804SOL     OW12310   3.686   0.899   4.480
 3804SOL    HW112311   3.669   0.960   4.558
 3804SOL    HW212312   3.659   0.945   4.395
 3805SOL     OW12313   2.477   2.587   0.756
 3805SOL    HW112314   2.435   2.651   0.821
 3805SOL    HW212315   2.574   2.608   0.747
 3806SOL     OW12316   4.292   3.996   6.425
 3806SOL    HW112317   4.240   4.023   6.506
 3806SOL    HW212318   4.250   3.917   6.382
 3807SOL     OW12319   1.664   5.160   4.162
 3807SOL    HW112320   1.731   5.190   4.229
 3807SOL    HW212321   1.697   5.077   4.117
 3808SOL     OW12322   4.895   0.508   5.756
 3808SOL    HW112323   4.869   0.595   5.797
 3808SOL    HW212324   4.824   0.440   5.775
 3809SOL     OW12325   6.389   1.934   1.499
 3809SOL    HW112326   6.473   1.944   1.552
 3809SOL    HW212327   6.393   1.995   1.420
 3810SOL     OW12328   6.815   2.377   2.980
 3810SOL    HW112329   6.715   2.371   2.981
 3810SOL    HW212330   6.843   2.471   2.999
 3811SOL     OW12331   0.276   5.910   4.513
 3811SOL    HW112332   0.219   5.949   4.587
 3811SOL    HW212333   0.347   5.852   4.553
 3812SOL     OW12334   3.369   5.789   6.797
 3812SOL    HW112335   3.352   5.694   6.822
 3812SOL    HW212336   3.431   5.830   6.864
 3813SOL     OW12337   6.039   4.034   1.241
 3813SOL    HW112338   6.031   3.968   1.315
 3813SOL    HW212339   5.949   4.051   1.201
 3814SOL     OW12340   6.749   0.184   3.982
 3814SOL    HW112341   6.755   0.084   3.976
 3814SOL    HW212342   6.672   0.216   3.928
 3815SOL     OW12343   5.287   3.038   0.732
 3815SOL    HW112344   5.262   3.130   0.762
 3815SOL    HW212345   5.218   2.973   0.763
 3816SOL     OW12346   0.364   6.572   4.929
 3816SOL    HW112347   0.386   6.665   4.900
 3816SOL    HW212348   0.347   6.515   4.849
 3817SOL     OW12349   4.842   3.033   2.658
 3817SOL    HW112350   4.809   3.126   2.641
 3817SOL    HW212351   4.921   3.036   2.718
 3818SOL     OW12352   0.067   0.498   1.233
 3818SOL    HW112353   0.022   0.531   1.150
 3818SOL    HW212354   0.102   0.575   1.286
 3819SOL     OW12355   6.682   4.095   2.965
 3819SOL    HW112356   6.595   4.085   3.014
 3819SOL    HW212357   6.735   4.168   3.008
 3820SOL     OW12358   5.525   6.797   3.395
 3820SOL    HW112359   5.495   6.809   3.300
 3820SOL    HW212360   5.445   6.784   3.453
 3821SOL     OW12361   0.923   0.145   0.531
 3821SOL    HW112362   0.927   0.238   0.568
 3821SOL    HW212363   0.869   0.087   0.591
 3822SOL     OW12364   3.516   6.937   0.017
 3822SOL    HW112365   3.572   6.959   0.097
 3822SOL    HW212366   3.459   6.857   0.038
 3823SOL     OW12367   4.622   4.594   6.541
 3823SOL    HW112368   4.554   4.603   6.468
 3823SOL    HW212369   4.713   4.615   6.505
 3824SOL     OW12370   0.806   2.487   0.343
 3824SOL    HW112371   0.841   2.538   0.265
 3824SOL    HW212372   0.714   2.454   0.323
 3825SOL     OW12373   1.202   4.171   1.153
 3825SOL    HW112374   1.196   4.071   1.151
 3825SOL    HW212375   1.259   4.202   1.076
 3826SOL     OW12376   6.932   3.675   2.310
 3826SOL    HW112377   6.911   3.606   2.379
 3826SOL    HW212378   6.850   3.694   2.257
 3827SOL     OW12379   1.093   0.756   1.428
 3827SOL    HW112380   1.069   0.853   1.439
 3827SOL    HW212381   1.134   0.723   1.512
 3828SOL     OW12382   3.596   3.969   5.038
 3828SOL    HW112383   3.632   3.887   5.081
 3828SOL    HW212384   3.497   3.975   5.055
 3829SOL     OW12385   0.754   5.002   2.278
 3829SOL    HW112386   0.667   5.041   2.309
 3829SOL    HW212387   0.810   5.074   2.236
 3830SOL     OW12388   0.431   0.684   5.309
 3830SOL    HW112389   0.506   0.740   5.273
 3830SOL    HW212390   0.435   0.683   5.409
 3831SOL     OW12391   4.202   2.225   2.901
 3831SOL    HW112392   4.107   2.225   2.870
 3831SOL    HW212393   4.217   2.302   2.963
 3832SOL     OW12394   0.234   0.617   1.908
 3832SOL    HW112395   0.288   0.591   1.988
 3832SOL    HW212396   0.293   0.655   1.838
 3833SOL     OW12397   1.896   6.530   6.336
 3833SOL    HW112398   1.978   6.586   6.325
 3833SOL    HW212399   1.840   6.535   6.253
 3834SOL     OW12400   4.115   4.099   1.142
 3834SOL    HW112401   4.024   4.119   1.107
 3834SOL    HW212402   4.180   4.166   1.107
 3835SOL     OW12403   4.024   5.788   5.494
 3835SOL    HW112404   3.954   5.820   5.430
 3835SOL    HW212405   4.066   5.866   5.540
 3836SOL     OW12406   0.373   4.948   5.979
 3836SOL    HW112407   0.424   4.895   5.912
 3836SOL    HW212408   0.361   5.042   5.946
 3837SOL     OW12409   4.166   5.281   5.326
 3837SOL    HW112410   4.247   5.238   5.367
 3837SOL    HW212411   4.148   5.368   5.371
 3838SOL     OW12412   2.131   1.532   3.136
 3838SOL    HW112413   2.082   1.585   3.068
 3838SOL    HW212414   2.190   1.593   3.190
 3839SOL     OW12415   4.360   0.754   2.691
 3839SOL    HW112416   4.284   0.710   2.644
 3839SOL    HW212417   4.347   0.747   2.790
 3840SOL     OW12418   2.584   1.814   5.790
 3840SOL    HW112419   2.575   1.791   5.887
 3840SOL    HW212420   2.623   1.737   5.741
 3841SOL     OW12421   1.096   4.247   3.931
 3841SOL    HW112422   1.194   4.265   3.924
 3841SOL    HW212423   1.079   4.180   4.003
 3842SOL     OW12424   2.612   2.487   4.001
 3842SOL    HW112425   2.591   2.549   4.077
 3842SOL    HW212426   2.673   2.415   4.033
 3843SOL     OW12427   5.755   3.732   0.860
 3843SOL    HW112428   5.772   3.820   0.816
 3843SOL    HW212429   5.834   3.706   0.915
 3844SOL     OW12430   1.021   4.416   7.006
 3844SOL    HW112431   0.935   4.418   0.035
 3844SOL    HW212432   1.074   4.499   0.003
 3845SOL     OW12433   2.231   5.929   6.827
 3845SOL    HW112434   2.195   6.008   6.877
 3845SOL    HW212435   2.164   5.900   6.759
 3846SOL     OW12436   0.340   3.440   4.583
 3846SOL    HW112437   0.253   3.488   4.599
 3846SOL    HW212438   0.409   3.475   4.647
 3847SOL     OW12439   5.385   2.131   4.021
 3847SOL    HW112440   5.338   2.108   3.936
 3847SOL    HW212441   5.321   2.128   4.097
 3848SOL     OW12442   4.981   3.578   2.816
 3848SOL    HW112443   5.015   3.570   2.723
 3848SOL    HW212444   4.917   3.655   2.822
 3849SOL     OW12445   0.690   7.006   6.480
 3849SOL    HW112446   0.615   6.991   6.545
 3849SOL    HW212447   0.656   0.037   6.402
 3850SOL     OW12448   3.031   2.897   1.191
 3850SOL    HW112449   3.094   2.962   1.148
 3850SOL    HW212450   2.959   2.872   1.126
 3851SOL     OW12451   6.721   5.106   3.574
 3851SOL    HW112452   6.712   5.169   3.651
 3851SOL    HW212453   6.672   5.021   3.595
 3852SOL     OW12454   3.605   6.573   4.552
 3852SOL    HW112455   3.666   6.633   4.501
 3852SOL    HW212456   3.524   6.553   4.498
 3853SOL     OW12457   1.297   2.025   3.260
 3853SOL    HW112458   1.388   2.065   3.274
 3853SOL    HW212459   1.305   1.926   3.252
 3854SOL     OW12460   0.929   3.144   3.017
 3854SOL    HW112461   0.937   3.060   3.071
 3854SOL    HW212462   0.919   3.222   3.078
 3855SOL     OW12463   4.018   6.391   0.122
 3855SOL    HW112464   4.006   6.411   0.024
 3855SOL    HW212465   4.094   6.327   0.134
 3856SOL     OW12466   0.385   1.821   5.612
 3856SOL    HW112467   0.305   1.794   5.560
 3856SOL    HW212468   0.457   1.752   5.602
 3857SOL     OW12469   1.225   6.224   5.787
 3857SOL    HW112470   1.278   6.266   5.860
 3857SOL    HW212471   1.281   6.155   5.741
 3858SOL     OW12472   3.189   1.817   5.799
 3858SOL    HW112473   3.139   1.739   5.760
 3858SOL    HW212474   3.278   1.824   5.755
 3859SOL     OW12475   6.122   0.973   1.369
 3859SOL    HW112476   6.026   0.951   1.352
 3859SOL    HW212477   6.147   1.056   1.320
 3860SOL     OW12478   1.943   1.071   4.334
 3860SOL    HW112479   2.041   1.080   4.350
 3860SOL    HW212480   1.893   1.130   4.397
 3861SOL     OW12481   4.655   6.103   3.038
 3861SOL    HW112482   4.625   6.022   3.088
 3861SOL    HW212483   4.748   6.128   3.066
 3862SOL     OW12484   1.138   0.708   4.398
 3862SOL    HW112485   1.135   0.756   4.311
 3862SOL    HW212486   1.217   0.739   4.451
 3863SOL     OW12487   6.001   1.564   6.441
 3863SOL    HW112488   6.056   1.646   6.452
 3863SOL    HW212489   6.059   1.488   6.411
 3864SOL     OW12490   2.315   0.593   5.253
 3864SOL    HW112491   2.370   0.664   5.208
 3864SOL    HW212492   2.320   0.604   5.352
 3865SOL     OW12493   4.086   1.539   0.958
 3865SOL    HW112494   4.070   1.488   1.042
 3865SOL    HW212495   4.184   1.544   0.940
 3866SOL     OW12496   3.465   1.284   6.745
 3866SOL    HW112497   3.523   1.203   6.753
 3866SOL    HW212498   3.519   1.360   6.709
 3867SOL     OW12499   1.265   4.066   3.280
 3867SOL    HW112500   1.171   4.091   3.303
 3867SOL    HW212501   1.325   4.145   3.291
 3868SOL     OW12502   4.198   0.172   6.897
 3868SOL    HW112503   4.144   0.097   6.860
 3868SOL    HW212504   4.235   0.147   6.987
 3869SOL     OW12505   6.612   3.038   3.415
 3869SOL    HW112506   6.554   2.956   3.409
 3869SOL    HW212507   6.589   3.089   3.498
 3870SOL     OW12508   6.608   6.479   1.510
 3870SOL    HW112509   6.648   6.411   1.449
 3870SOL    HW212510   6.508   6.468   1.511
 3871SOL     OW12511   3.541   0.288   3.055
 3871SOL    HW112512   3.555   0.382   3.021
 3871SOL    HW212513   3.486   0.291   3.138
 3872SOL     OW12514   2.968   3.299   4.380
 3872SOL    HW112515   2.967   3.337   4.288
 3872SOL    HW212516   2.973   3.372   4.447
 3873SOL     OW12517   5.571   4.496   0.824
 3873SOL    HW112518   5.504   4.456   0.762
 3873SOL    HW212519   5.529   4.514   0.912
 3874SOL     OW12520   4.213   0.793   0.539
 3874SOL    HW112521   4.171   0.710   0.577
 3874SOL    HW212522   4.142   0.851   0.500
 3875SOL     OW12523   1.997   2.740   3.495
 3875SOL    HW112524   1.928   2.812   3.499
 3875SOL    HW212525   2.077   2.768   3.548
 3876SOL     OW12526   3.477   5.418   1.264
 3876SOL    HW112527   3.386   5.457   1.255
 3876SOL    HW212528   3.512   5.390   1.175
 3877SOL     OW12529   6.541   2.490   1.219
 3877SOL    HW112530   6.539   2.448   1.129
 3877SOL    HW212531   6.601   2.437   1.279
 3878SOL     OW12532   4.778   6.472   4.412
 3878SOL    HW112533   4.773   6.375   4.436
 3878SOL    HW212534   4.844   6.486   4.339
 3879SOL     OW12535   5.929   5.601   1.062
 3879SOL    HW112536   6.002   5.669   1.071
 3879SOL    HW212537   5.968   5.513   1.034
 3880SOL     OW12538   5.111   4.047   4.675
 3880SOL    HW112539   5.141   4.022   4.767
 3880SOL    HW212540   5.190   4.074   4.621
 3881SOL     OW12541   1.296   3.318   1.704
 3881SOL    HW112542   1.355   3.241   1.677
 3881SOL    HW212543   1.224   3.330   1.635
 3882SOL     OW12544   0.211   1.037   6.159
 3882SOL    HW112545   0.192   0.947   6.198
 3882SOL    HW212546   0.309   1.055   6.161
 3883SOL     OW12547   4.178   1.467   2.209
 3883SOL    HW112548   4.223   1.407   2.274
 3883SOL    HW212549   4.079   1.466   2.226
 3884SOL     OW12550   0.702   6.069   2.313
 3884SOL    HW112551   0.750   6.025   2.388
 3884SOL    HW212552   0.762   6.072   2.232
 3885SOL     OW12553   6.684   5.369   2.765
 3885SOL    HW112554   6.755   5.406   2.824
 3885SOL    HW212555   6.602   5.426   2.770
 3886SOL     OW12556   4.482   5.596   5.404
 3886SOL    HW112557   4.524   5.516   5.447
 3886SOL    HW212558   4.425   5.644   5.470
 3887SOL     OW12559   0.935   6.853   0.143
 3887SOL    HW112560   0.874   6.899   0.080
 3887SOL    HW212561   0.885   6.828   0.226
 3888SOL     OW12562   6.876   6.828   4.991
 3888SOL    HW112563   6.905   6.870   5.077
 3888SOL    HW212564   6.845   6.734   5.008
 3889SOL     OW12565   6.667   3.578   0.350
 3889SOL    HW112566   6.722   3.510   0.300
 3889SOL    HW212567   6.611   3.629   0.285
 3890SOL     OW12568   6.410   4.499   3.429
 3890SOL    HW112569   6.379   4.541   3.343
 3890SOL    HW212570   6.507   4.476   3.422
 3891SOL     OW12571   5.206   3.822   4.404
 3891SOL    HW112572   5.257   3.783   4.481
 3891SOL    HW212573   5.145   3.894   4.438
 3892SOL     OW12574   0.453   2.442   1.185
 3892SOL    HW112575   0.542   2.438   1.138
 3892SOL    HW212576   0.451   2.520   1.248
 3893SOL     OW12577   4.487   3.305   0.407
 3893SOL    HW112578   4.558   3.366   0.441
 3893SOL    HW212579   4.498   3.215   0.449
 3894SOL     OW12580   4.550   1.263   0.053
 3894SOL    HW112581   4.483   1.212   7.021
 3894SOL    HW212582   4.642   1.238   0.024
 3895SOL     OW12583   0.933   0.547   5.728
 3895SOL    HW112584   0.887   0.512   5.810
 3895SOL    HW212585   0.867   0.551   5.652
 3896SOL     OW12586   0.437   1.411   5.923
 3896SOL    HW112587   0.506   1.340   5.908
 3896SOL    HW212588   0.453   1.456   6.011
 3897SOL     OW12589   3.755   5.445   2.744
 3897SOL    HW112590   3.666   5.422   2.782
 3897SOL    HW212591   3.763   5.407   2.652
 3898SOL     OW12592   2.876   2.714   5.978
 3898SOL    HW112593   2.955   2.709   5.917
 3898SOL    HW212594   2.908   2.735   6.071
 3899SOL     OW12595   4.674   6.928   5.308
 3899SOL    HW112596   4.758   6.879   5.284
 3899SOL    HW212597   4.604   6.862   5.336
 3900SOL     OW12598   5.067   3.079   3.573
 3900SOL    HW112599   5.008   3.136   3.516
 3900SOL    HW212600   5.011   3.026   3.637
 3901SOL     OW12601   3.140   0.687   6.069
 3901SOL    HW112602   3.217   0.631   6.036
 3901SOL    HW212603   3.173   0.750   6.139
 3902SOL     OW12604   6.001   2.760   1.875
 3902SOL    HW112605   5.947   2.770   1.791
 3902SOL    HW212606   6.008   2.849   1.920
 3903SOL     OW12607   3.733   5.755   0.431
 3903SOL    HW112608   3.808   5.708   0.477
 3903SOL    HW212609   3.712   5.840   0.480
 3904SOL     OW12610   2.102   1.390   5.991
 3904SOL    HW112611   2.116   1.469   5.932
 3904SOL    HW212612   2.150   1.403   6.078
 3905SOL     OW12613   6.936   0.290   6.722
 3905SOL    HW112614   6.862   0.355   6.734
 3905SOL    HW212615   6.963   0.252   6.810
 3906SOL     OW12616   5.815   6.007   5.326
 3906SOL    HW112617   5.726   5.962   5.324
 3906SOL    HW212618   5.862   5.984   5.411
 3907SOL     OW12619   5.671   1.015   3.482
 3907SOL    HW112620   5.678   1.048   3.388
 3907SOL    HW212621   5.762   0.994   3.517
 3908SOL     OW12622   0.884   2.458   6.941
 3908SOL    HW112623   0.913   2.481   0.012
 3908SOL    HW212624   0.819   2.526   6.907
 3909SOL     OW12625   6.343   5.800   5.589
 3909SOL    HW112626   6.400   5.798   5.672
 3909SOL    HW212627   6.384   5.740   5.520
 3910SOL     OW12628   3.327   3.875   2.965
 3910SOL    HW112629   3.241   3.875   3.017
 3910SOL    HW212630   3.373   3.788   2.977
 3911SOL     OW12631   4.991   1.660   5.157
 3911SOL    HW112632   5.036   1.749   5.165
 3911SOL    HW212633   4.939   1.640   5.240
 3912SOL     OW12634   5.264   0.885   5.320
 3912SOL    HW112635   5.209   0.817   5.272
 3912SOL    HW212636   5.297   0.954   5.254
 3913SOL     OW12637   2.647   6.214   6.372
 3913SOL    HW112638   2.704   6.292   6.397
 3913SOL    HW212639   2.551   6.236   6.385
 3914SOL     OW12640   2.759   0.823   1.295
 3914SOL    HW112641   2.823   0.775   1.236
 3914SOL    HW212642   2.689   0.867   1.239
 3915SOL     OW12643   4.658   5.359   1.555
 3915SOL    HW112644   4.647   5.393   1.462
 3915SOL    HW212645   4.697   5.267   1.553
 3916SOL     OW12646   1.303   0.660   4.069
 3916SOL    HW112647   1.290   0.621   3.978
 3916SOL    HW212648   1.369   0.606   4.120
 3917SOL     OW12649   6.918   6.369   0.001
 3917SOL    HW112650   6.833   6.319   0.017
 3917SOL    HW212651   6.933   6.434   0.075
 3918SOL     OW12652   4.915   6.208   1.565
 3918SOL    HW112653   5.014   6.212   1.579
 3918SOL    HW212654   4.894   6.143   1.492
 3919SOL     OW12655   3.303   6.533   6.687
 3919SOL    HW112656   3.285   6.445   6.731
 3919SOL    HW212657   3.311   6.520   6.588
 3920SOL     OW12658   3.126   3.040   0.905
 3920SOL    HW112659   3.164   2.981   0.834
 3920SOL    HW212660   3.190   3.047   0.982
 3921SOL     OW12661   0.298   3.688   1.699
 3921SOL    HW112662   0.240   3.750   1.752
 3921SOL    HW212663   0.391   3.691   1.735
 3922SOL     OW12664   6.343   3.293   1.785
 3922SOL    HW112665   6.411   3.296   1.713
 3922SOL    HW212666   6.263   3.242   1.753
 3923SOL     OW12667   6.680   0.696   7.013
 3923SOL    HW112668   6.718   0.761   6.947
 3923SOL    HW212669   6.754   0.638   0.026
 3924SOL     OW12670   0.008   4.855   3.653
 3924SOL    HW112671   6.957   4.855   3.721
 3924SOL    HW212672   6.994   4.886   3.565
 3925SOL     OW12673   2.904   5.314   1.153
 3925SOL    HW112674   3.004   5.304   1.153
 3925SOL    HW212675   2.880   5.403   1.190
 3926SOL     OW12676   6.846   5.502   2.941
 3926SOL    HW112677   6.820   5.583   2.993
 3926SOL    HW212678   6.908   5.445   2.996
 3927SOL     OW12679   6.401   2.551   3.884
 3927SOL    HW112680   6.403   2.650   3.889
 3927SOL    HW212681   6.398   2.522   3.788
 3928SOL     OW12682   3.781   5.801   6.201
 3928SOL    HW112683   3.844   5.724   6.209
 3928SOL    HW212684   3.832   5.886   6.207
 3929SOL     OW12685   0.105   0.802   5.161
 3929SOL    HW112686   0.032   0.854   5.116
 3929SOL    HW212687   0.160   0.864   5.217
 3930SOL     OW12688   2.649   1.843   3.703
 3930SOL    HW112689   2.619   1.886   3.788
 3930SOL    HW212690   2.570   1.816   3.649
 3931SOL     OW12691   1.210   0.742   1.994
 3931SOL    HW112692   1.287   0.748   1.930
 3931SOL    HW212693   1.143   0.812   1.972
 3932SOL     OW12694   1.709   4.559   3.554
 3932SOL    HW112695   1.723   4.472   3.602
 3932SOL    HW212696   1.712   4.634   3.620
 3933SOL     OW12697   2.328   6.337   0.161
 3933SOL    HW112698   2.393   6.346   0.237
 3933SOL    HW212699   2.375   6.354   0.075
 3934SOL     OW12700   0.017   1.242   0.022
 3934SOL    HW112701   7.004   1.323   0.071
 3934SOL    HW212702   0.057   1.178   0.088
 3935SOL     OW12703   2.763   6.463   0.042
 3935SOL    HW112704   2.829   6.535   0.021
 3935SOL    HW212705   2.682   6.473   7.006
 3936SOL     OW12706   6.964   5.217   5.489
 3936SOL    HW112707   7.005   5.227   5.580
 3936SOL    HW212708   6.941   5.308   5.453
 3937SOL     OW12709   6.860   2.038   3.455
 3937SOL    HW112710   6.807   1.962   3.418
 3937SOL    HW212711   6.938   2.002   3.506
 3938SOL     OW12712   0.495   1.870   3.621
 3938SOL    HW112713   0.442   1.947   3.656
 3938SOL    HW212714   0.476   1.789   3.676
 3939SOL     OW12715   2.519   2.249   2.491
 3939SOL    HW112716   2.616   2.247   2.466
 3939SOL    HW212717   2.470   2.309   2.428
 3940SOL     OW12718   5.173   5.119   0.995
 3940SOL    HW112719   5.079   5.088   1.001
 3940SOL    HW212720   5.197   5.135   0.899
 3941SOL     OW12721   4.947   3.056   5.795
 3941SOL    HW112722   4.954   3.022   5.888
 3941SOL    HW212723   4.864   3.112   5.785
 3942SOL     OW12724   0.457   0.025   6.658
 3942SOL    HW112725   0.416   0.106   6.616
 3942SOL    HW212726   0.467   0.040   6.756
 3943SOL     OW12727   0.052   3.330   2.955
 3943SOL    HW112728   0.124   3.261   2.959
 3943SOL    HW212729   7.005   3.305   2.887
 3944SOL     OW12730   4.679   2.684   4.943
 3944SOL    HW112731   4.678   2.606   5.006
 3944SOL    HW212732   4.606   2.672   4.875
 3945SOL     OW12733   0.165   1.815   0.488
 3945SOL    HW112734   0.222   1.893   0.514
 3945SOL    HW212735   0.072   1.846   0.472
 3946SOL     OW12736   5.515   5.495   5.312
 3946SOL    HW112737   5.560   5.550   5.383
 3946SOL    HW212738   5.421   5.527   5.300
 3947SOL     OW12739   5.493   6.109   0.882
 3947SOL    HW112740   5.449   6.197   0.902
 3947SOL    HW212741   5.429   6.052   0.831
 3948SOL     OW12742   1.599   5.563   2.524
 3948SOL    HW112743   1.678   5.510   2.494
 3948SOL    HW212744   1.586   5.641   2.463
 3949SOL     OW12745   4.318   0.660   3.271
 3949SOL    HW112746   4.269   0.704   3.346
 3949SOL    HW212747   4.393   0.719   3.242
 3950SOL     OW12748   2.002   4.019   0.781
 3950SOL    HW112749   1.980   4.111   0.746
 3950SOL    HW212750   1.918   3.975   0.813
 3951SOL     OW12751   5.288   6.930   1.011
 3951SOL    HW112752   5.236   6.972   1.085
 3951SOL    HW212753   5.232   6.929   0.928
 3952SOL     OW12754   6.231   2.795   2.766
 3952SOL    HW112755   6.159   2.826   2.828
 3952SOL    HW212756   6.301   2.746   2.819
 3953SOL     OW12757   3.802   4.745   1.691
 3953SOL    HW112758   3.881   4.766   1.634
 3953SOL    HW212759   3.776   4.649   1.678
 3954SOL     OW12760   4.181   5.127   4.935
 3954SOL    HW112761   4.237   5.159   4.859
 3954SOL    HW212762   4.185   5.027   4.939
 3955SOL     OW12763   3.105   5.802   6.758
 3955SOL    HW112764   3.048   5.882   6.778
 3955SOL    HW212765   3.200   5.822   6.784
 3956SOL     OW12766   0.295   1.148   3.265
 3956SOL    HW112767   0.225   1.136   3.335
 3956SOL    HW212768   0.258   1.201   3.189
 3957SOL     OW12769   4.767   6.176   4.427
 3957SOL    HW112770   4.676   6.170   4.386
 3957SOL    HW212771   4.819   6.095   4.404
 3958SOL     OW12772   6.098   1.111   4.839
 3958SOL    HW112773   6.176   1.065   4.881
 3958SOL    HW212774   6.130   1.170   4.765
 3959SOL     OW12775   4.138   0.060   0.746
 3959SOL    HW112776   4.182   0.046   0.835
 3959SOL    HW212777   4.113   0.156   0.736
 3960SOL     OW12778   5.094   1.845   6.535
 3960SOL    HW112779   5.017   1.870   6.592
 3960SOL    HW212780   5.114   1.919   6.471
 3961SOL     OW12781   5.442   1.752   2.491
 3961SOL    HW112782   5.412   1.832   2.439
 3961SOL    HW212783   5.542   1.749   2.493
 3962SOL     OW12784   3.025   4.032   0.393
 3962SOL    HW112785   3.100   4.096   0.372
 3962SOL    HW212786   3.058   3.938   0.384
 3963SOL     OW12787   4.945   5.104   3.747
 3963SOL    HW112788   4.867   5.092   3.809
 3963SOL    HW212789   5.025   5.134   3.799
 3964SOL     OW12790   4.422   4.970   4.015
 3964SOL    HW112791   4.459   4.979   4.107
 3964SOL    HW212792   4.323   4.983   4.017
 3965SOL     OW12793   4.958   2.731   4.833
 3965SOL    HW112794   5.033   2.691   4.886
 3965SOL    HW212795   4.875   2.734   4.888
 3966SOL     OW12796   4.951   5.989   6.520
 3966SOL    HW112797   4.917   6.053   6.589
 3966SOL    HW212798   5.042   5.957   6.547
 3967SOL     OW12799   2.144   3.628   2.502
 3967SOL    HW112800   2.137   3.552   2.567
 3967SOL    HW212801   2.138   3.593   2.409
 3968SOL     OW12802   4.826   0.522   0.985
 3968SOL    HW112803   4.863   0.484   0.900
 3968SOL    HW212804   4.834   0.454   1.058
 3969SOL     OW12805   1.513   4.383   2.212
 3969SOL    HW112806   1.554   4.292   2.205
 3969SOL    HW212807   1.453   4.399   2.134
 3970SOL     OW12808   6.209   6.224   3.265
 3970SOL    HW112809   6.129   6.246   3.320
 3970SOL    HW212810   6.181   6.196   3.174
 3971SOL     OW12811   3.288   5.430   3.451
 3971SOL    HW112812   3.263   5.525   3.430
 3971SOL    HW212813   3.293   5.419   3.551
 3972SOL     OW12814   1.344   4.308   0.955
 3972SOL    HW112815   1.429   4.270   0.991
 3972SOL    HW212816   1.349   4.408   0.957
 3973SOL     OW12817   1.354   5.293   6.608
 3973SOL    HW112818   1.315   5.253   6.525
 3973SOL    HW212819   1.301   5.374   6.634
 3974SOL     OW12820   1.962   0.450   5.054
 3974SOL    HW112821   2.038   0.394   5.022
 3974SOL    HW212822   1.876   0.399   5.044
 3975SOL     OW12823   4.974   1.341   5.393
 3975SOL    HW112824   5.052   1.399   5.414
 3975SOL    HW212825   4.899   1.362   5.456
 3976SOL     OW12826   1.405   5.950   1.673
 3976SOL    HW112827   1.434   5.866   1.719
 3976SOL    HW212828   1.469   6.023   1.694
 3977SOL     OW12829   2.585   3.845   5.563
 3977SOL    HW112830   2.638   3.760   5.565
 3977SOL    HW212831   2.494   3.828   5.600
 3978SOL     OW12832   5.721   4.878   4.711
 3978SOL    HW112833   5.723   4.978   4.718
 3978SOL    HW212834   5.739   4.838   4.801
 3979SOL     OW12835   2.948   0.372   0.644
 3979SOL    HW112836   2.909   0.302   0.583
 3979SOL    HW212837   2.874   0.430   0.679
 3980SOL     OW12838   5.740   6.048   0.380
 3980SOL    HW112839   5.658   6.089   0.419
 3980SOL    HW212840   5.786   5.992   0.449
 3981SOL     OW12841   3.189   0.568   0.628
 3981SOL    HW112842   3.144   0.480   0.645
 3981SOL    HW212843   3.232   0.567   0.538
 3982SOL     OW12844   2.446   0.219   3.237
 3982SOL    HW112845   2.360   0.185   3.198
 3982SOL    HW212846   2.428   0.260   3.326
 3983SOL     OW12847   5.116   4.890   4.042
 3983SOL    HW112848   5.155   4.965   4.096
 3983SOL    HW212849   5.017   4.892   4.049
 3984SOL     OW12850   6.548   1.357   2.888
 3984SOL    HW112851   6.571   1.276   2.834
 3984SOL    HW212852   6.451   1.353   2.914
 3985SOL     OW12853   2.861   4.275   6.437
 3985SOL    HW112854   2.770   4.315   6.451
 3985SOL    HW212855   2.852   4.176   6.427
 3986SOL     OW12856   4.710   1.606   2.401
 3986SOL    HW112857   4.762   1.549   2.465
 3986SOL    HW212858   4.687   1.693   2.446
 3987SOL     OW12859   3.641   5.058   3.576
 3987SOL    HW112860   3.639   4.981   3.639
 3987SOL    HW212861   3.637   5.144   3.627
 3988SOL     OW12862   3.432   4.219   6.817
 3988SOL    HW112863   3.389   4.196   6.730
 3988SOL    HW212864   3.506   4.154   6.836
 3989SOL     OW12865   6.671   2.988   6.781
 3989SOL    HW112866   6.707   3.028   6.865
 3989SOL    HW212867   6.631   2.898   6.801
 3990SOL     OW12868   4.472   2.126   2.915
 3990SOL    HW112869   4.372   2.131   2.908
 3990SOL    HW212870   4.502   2.175   2.997
 3991SOL     OW12871   6.014   1.039   2.729
 3991SOL    HW112872   6.074   0.965   2.758
 3991SOL    HW212873   5.925   1.030   2.775
 3992SOL     OW12874   3.053   1.737   0.147
 3992SOL    HW112875   2.999   1.674   0.203
 3992SOL    HW212876   3.003   1.823   0.138
 3993SOL     OW12877   1.473   1.989   2.542
 3993SOL    HW112878   1.566   1.963   2.569
 3993SOL    HW212879   1.469   2.088   2.531
 3994SOL     OW12880   1.889   0.298   5.766
 3994SOL    HW112881   1.878   0.393   5.795
 3994SOL    HW212882   1.950   0.294   5.687
 3995SOL     OW12883   2.624   3.656   6.025
 3995SOL    HW112884   2.540   3.613   5.994
 3995SOL    HW212885   2.695   3.645   5.955
 3996SOL     OW12886   1.077   7.003   4.443
 3996SOL    HW112887   1.063   0.074   4.407
 3996SOL    HW212888   1.151   6.958   4.394
 3997SOL     OW12889   5.246   1.583   3.516
 3997SOL    HW112890   5.247   1.676   3.480
 3997SOL    HW212891   5.230   1.519   3.442
 3998SOL     OW12892   4.121   1.290   3.710
 3998SOL    HW112893   4.211   1.246   3.711
 3998SOL    HW212894   4.052   1.227   3.744
 3999SOL     OW12895   5.299   3.284   4.076
 3999SOL    HW112896   5.317   3.189   4.100
 3999SOL    HW212897   5.229   3.321   4.137
 4000SOL     OW12898   3.438   6.642   3.072
 4000SOL    HW112899   3.517   6.661   3.130
 4000SOL    HW212900   3.435   6.709   2.998
 4001SOL     OW12901   2.352   1.764   3.257
 4001SOL    HW112902   2.423   1.830   3.283
 4001SOL    HW212903   2.394   1.688   3.208
 4002SOL     OW12904   3.113   4.367   0.204
 4002SOL    HW112905   3.135   4.328   0.293
 4002SOL    HW212906   3.150   4.308   0.132
 4003SOL     OW12907   3.505   0.048   4.418
 4003SOL    HW112908   3.436   0.100   4.368
 4003SOL    HW212909   3.592   0.051   4.368
 4004SOL     OW12910   5.293   1.955   3.689
 4004SOL    HW112911   5.261   1.866   3.723
 4004SOL    HW212912   5.259   2.028   3.749
 4005SOL     OW12913   5.033   5.079   6.845
 4005SOL    HW112914   5.055   5.129   6.761
 4005SOL    HW212915   4.940   5.042   6.839
 4006SOL     OW12916   4.503   5.537   2.753
 4006SOL    HW112917   4.553   5.548   2.839
 4006SOL    HW212918   4.557   5.482   2.690
 4007SOL     OW12919   6.845   2.867   0.155
 4007SOL    HW112920   6.917   2.910   0.211
 4007SOL    HW212921   6.756   2.906   0.180
 4008SOL     OW12922   3.018   1.579   3.908
 4008SOL    HW112923   2.942   1.643   3.915
 4008SOL    HW212924   3.021   1.541   3.815
 4009SOL     OW12925   4.329   3.202   1.458
 4009SOL    HW112926   4.309   3.174   1.552
 4009SOL    HW212927   4.427   3.217   1.447
 4010SOL     OW12928   2.234   3.557   1.235
 4010SOL    HW112929   2.282   3.640   1.264
 4010SOL    HW212930   2.158   3.539   1.298
 4011SOL     OW12931   0.784   1.325   1.755
 4011SOL    HW112932   0.790   1.309   1.854
 4011SOL    HW212933   0.723   1.257   1.714
 4012SOL     OW12934   6.169   4.670   1.990
 4012SOL    HW112935   6.073   4.640   1.998
 4012SOL    HW212936   6.226   4.613   2.049
 4013SOL     OW12937   2.769   1.372   5.377
 4013SOL    HW112938   2.812   1.377   5.468
 4013SOL    HW212939   2.811   1.297   5.325
 4014SOL     OW12940   5.229   6.508   2.751
 4014SOL    HW112941   5.294   6.540   2.681
 4014SOL    HW212942   5.154   6.460   2.706
 4015SOL     OW12943   5.117   4.834   6.423
 4015SOL    HW112944   5.178   4.853   6.500
 4015SOL    HW212945   5.141   4.746   6.382
 4016SOL     OW12946   2.527   5.932   5.915
 4016SOL    HW112947   2.556   5.891   6.002
 4016SOL    HW212948   2.530   5.862   5.843
 4017SOL     OW12949   0.164   6.221   0.646
 4017SOL    HW112950   0.222   6.230   0.564
 4017SOL    HW212951   0.098   6.295   0.648
 4018SOL     OW12952   3.991   6.361   2.618
 4018SOL    HW112953   3.976   6.327   2.710
 4018SOL    HW212954   4.067   6.427   2.619
 4019SOL     OW12955   5.427   4.587   3.585
 4019SOL    HW112956   5.468   4.673   3.616
 4019SOL    HW212957   5.466   4.511   3.637
 4020SOL     OW12958   4.672   1.565   5.198
 4020SOL    HW112959   4.728   1.503   5.142
 4020SOL    HW212960   4.731   1.616   5.260
 4021SOL     OW12961   4.061   4.905   5.885
 4021SOL    HW112962   3.962   4.889   5.892
 4021SOL    HW212963   4.109   4.845   5.948
 4022SOL     OW12964   4.815   1.387   6.782
 4022SOL    HW112965   4.907   1.425   6.793
 4022SOL    HW212966   4.759   1.413   6.860
 4023SOL     OW12967   6.374   1.663   4.508
 4023SOL    HW112968   6.304   1.703   4.567
 4023SOL    HW212969   6.442   1.733   4.485
 4024SOL     OW12970   3.304   6.669   3.323
 4024SOL    HW112971   3.318   6.759   3.365
 4024SOL    HW212972   3.356   6.663   3.238
 4025SOL     OW12973   0.452   4.335   3.061
 4025SOL    HW112974   0.500   4.248   3.063
 4025SOL    HW212975   0.501   4.401   3.119
 4026SOL     OW12976   5.865   5.890   3.964
 4026SOL    HW112977   5.827   5.802   3.993
 4026SOL    HW212978   5.897   5.882   3.869
 4027SOL     OW12979   3.417   4.305   1.696
 4027SOL    HW112980   3.340   4.250   1.664
 4027SOL    HW212981   3.393   4.402   1.691
 4028SOL     OW12982   1.547   1.935   4.319
 4028SOL    HW112983   1.551   2.035   4.320
 4028SOL    HW212984   1.630   1.898   4.360
 4029SOL     OW12985   2.844   4.221   6.049
 4029SOL    HW112986   2.801   4.279   6.118
 4029SOL    HW212987   2.776   4.190   5.983
 4030SOL     OW12988   0.791   2.424   5.826
 4030SOL    HW112989   0.704   2.458   5.862
 4030SOL    HW212990   0.840   2.499   5.782
 4031SOL     OW12991   4.671   5.503   3.656
 4031SOL    HW112992   4.767   5.528   3.667
 4031SOL    HW212993   4.638   5.461   3.741
 4032SOL     OW12994   6.686   6.486   4.156
 4032SOL    HW112995   6.606   6.476   4.097
 4032SOL    HW212996   6.764   6.515   4.100
 4033SOL     OW12997   3.299   3.371   4.575
 4033SOL    HW112998   3.376   3.413   4.623
 4033SOL    HW212999   3.261   3.436   4.509
 4034SOL     OW13000   6.077   1.416   4.676
 4034SOL    HW113001   6.158   1.395   4.620
 4034SOL    HW213002   5.994   1.394   4.624
 4035SOL     OW13003   0.391   4.411   0.127
 4035SOL    HW113004   0.392   4.312   0.139
 4035SOL    HW213005   0.474   4.451   0.167
 4036SOL     OW13006   6.097   6.253   2.598
 4036SOL    HW113007   6.017   6.301   2.633
 4036SOL    HW213008   6.122   6.179   2.661
 4037SOL     OW13009   1.493   3.445   6.132
 4037SOL    HW113010   1.541   3.368   6.175
 4037SOL    HW213011   1.519   3.529   6.179
 4038SOL     OW13012   4.937   4.599   2.651
 4038SOL    HW113013   4.977   4.642   2.733
 4038SOL    HW213014   4.840   4.584   2.665
 4039SOL     OW13015   5.524   6.047   0.204
 4039SOL    HW113016   5.458   6.048   0.279
 4039SOL    HW213017   5.616   6.060   0.241
 4040SOL     OW13018   3.162   0.469   1.150
 4040SOL    HW113019   3.150   0.392   1.087
 4040SOL    HW213020   3.109   0.453   1.233
 4041SOL     OW13021   0.843   6.080   2.862
 4041SOL    HW113022   0.858   6.156   2.798
 4041SOL    HW213023   0.918   6.015   2.854
 4042SOL     OW13024   6.050   5.228   2.418
 4042SOL    HW113025   6.092   5.198   2.333
 4042SOL    HW213026   6.044   5.151   2.482
 4043SOL     OW13027   4.725   1.882   2.212
 4043SOL    HW113028   4.642   1.906   2.262
 4043SOL    HW213029   4.744   1.785   2.220
 4044SOL     OW13030   6.102   0.791   3.113
 4044SOL    HW113031   6.179   0.845   3.147
 4044SOL    HW213032   6.049   0.757   3.190
 4045SOL     OW13033   2.264   4.832   6.650
 4045SOL    HW113034   2.204   4.881   6.586
 4045SOL    HW213035   2.231   4.739   6.663
 4046SOL     OW13036   0.725   1.825   2.076
 4046SOL    HW113037   0.715   1.891   2.151
 4046SOL    HW213038   0.636   1.811   2.032
 4047SOL     OW13039   2.741   3.708   1.714
 4047SOL    HW113040   2.643   3.707   1.734
 4047SOL    HW213041   2.777   3.615   1.719
 4048SOL     OW13042   5.522   0.743   1.388
 4048SOL    HW113043   5.514   0.805   1.466
 4048SOL    HW213044   5.594   0.775   1.327
 4049SOL     OW13045   6.034   6.861   5.925
 4049SOL    HW113046   5.986   6.781   5.888
 4049SOL    HW213047   5.991   6.944   5.889
 4050SOL     OW13048   1.897   6.566   0.198
 4050SOL    HW113049   1.990   6.569   0.159
 4050SOL    HW213050   1.903   6.544   0.296
 4051SOL     OW13051   2.803   4.788   0.500
 4051SOL    HW113052   2.727   4.850   0.482
 4051SOL    HW213053   2.879   4.809   0.438
 4052SOL     OW13054   0.603   0.590   0.083
 4052SOL    HW113055   0.598   0.505   0.031
 4052SOL    HW213056   0.661   0.577   0.163
 4053SOL     OW13057   3.413   5.285   3.959
 4053SOL    HW113058   3.376   5.219   4.024
 4053SOL    HW213059   3.510   5.265   3.944
 4054SOL     OW13060   3.264   2.536   0.674
 4054SOL    HW113061   3.176   2.520   0.718
 4054SOL    HW213062   3.254   2.527   0.575
 4055SOL     OW13063   3.060   2.463   6.149
 4055SOL    HW113064   3.055   2.464   6.049
 4055SOL    HW213065   3.052   2.368   6.181
 4056SOL     OW13066   3.755   2.851   6.778
 4056SOL    HW113067   3.691   2.895   6.842
 4056SOL    HW213068   3.751   2.898   6.690
 4057SOL     OW13069   5.092   3.395   0.042
 4057SOL    HW113070   5.045   3.465   7.010
 4057SOL    HW213071   5.148   3.440   0.112
 4058SOL     OW13072   2.628   1.394   4.725
 4058SOL    HW113073   2.578   1.391   4.811
 4058SOL    HW213074   2.654   1.488   4.704
 4059SOL     OW13075   2.091   2.016   4.809
 4059SOL    HW113076   2.090   2.053   4.716
 4059SOL    HW213077   1.999   2.022   4.848
 4060SOL     OW13078   4.116   4.773   4.145
 4060SOL    HW113079   4.169   4.711   4.088
 4060SOL    HW213080   4.087   4.851   4.090
 4061SOL     OW13081   3.598   4.513   1.603
 4061SOL    HW113082   3.568   4.544   1.693
 4061SOL    HW213083   3.521   4.512   1.540
 4062SOL     OW13084   3.324   1.319   2.580
 4062SOL    HW113085   3.253   1.305   2.648
 4062SOL    HW213086   3.314   1.251   2.507
 4063SOL     OW13087   3.271   5.903   5.815
 4063SOL    HW113088   3.229   5.826   5.767
 4063SOL    HW213089   3.231   5.912   5.906
 4064SOL     OW13090   0.874   0.384   2.875
 4064SOL    HW113091   0.854   0.435   2.958
 4064SOL    HW213092   0.798   0.395   2.810
 4065SOL     OW13093   0.038   6.918   1.072
 4065SOL    HW113094   0.123   6.965   1.049
 4065SOL    HW213095   0.058   6.823   1.096
 4066SOL     OW13096   5.517   3.957   1.823
 4066SOL    HW113097   5.521   3.997   1.732
 4066SOL    HW213098   5.507   4.029   1.891
 4067SOL     OW13099   5.622   1.527   2.857
 4067SOL    HW113100   5.606   1.625   2.850
 4067SOL    HW213101   5.707   1.503   2.810
 4068SOL     OW13102   5.480   0.527   4.722
 4068SOL    HW113103   5.575   0.556   4.708
 4068SOL    HW213104   5.475   0.427   4.711
 4069SOL     OW13105   5.531   5.077   0.693
 4069SOL    HW113106   5.619   5.064   0.647
 4069SOL    HW213107   5.547   5.099   0.790
 4070SOL     OW13108   2.068   4.318   3.136
 4070SOL    HW113109   2.028   4.238   3.092
 4070SOL    HW213110   2.161   4.297   3.167
 4071SOL     OW13111   1.619   0.523   4.687
 4071SOL    HW113112   1.654   0.598   4.742
 4071SOL    HW213113   1.659   0.437   4.718
 4072SOL     OW13114   1.510   0.049   4.604
 4072SOL    HW113115   1.517   0.085   4.511
 4072SOL    HW213116   1.598   0.014   4.634
 4073SOL     OW13117   2.573   5.556   6.242
 4073SOL    HW113118   2.633   5.635   6.231
 4073SOL    HW213119   2.581   5.496   6.163
 4074SOL     OW13120   1.009   2.396   1.024
 4074SOL    HW113121   0.970   2.424   0.936
 4074SOL    HW213122   1.081   2.328   1.008
 4075SOL     OW13123   4.479   1.448   3.084
 4075SOL    HW113124   4.390   1.477   3.120
 4075SOL    HW213125   4.542   1.431   3.160
 4076SOL     OW13126   2.137   3.420   4.833
 4076SOL    HW113127   2.173   3.493   4.890
 4076SOL    HW213128   2.148   3.444   4.737
 4077SOL     OW13129   3.736   0.608   0.128
 4077SOL    HW113130   3.758   0.618   0.225
 4077SOL    HW213131   3.729   0.511   0.105
 4078SOL     OW13132   6.236   4.140   1.415
 4078SOL    HW113133   6.223   4.089   1.330
 4078SOL    HW213134   6.320   4.109   1.460
 4079SOL     OW13135   0.820   1.130   3.892
 4079SOL    HW113136   0.866   1.182   3.964
 4079SOL    HW213137   0.761   1.061   3.934
 4080SOL     OW13138   3.399   3.580   1.538
 4080SOL    HW113139   3.363   3.607   1.449
 4080SOL    HW213140   3.325   3.580   1.605
 4081SOL     OW13141   1.959   1.505   5.200
 4081SOL    HW113142   1.973   1.585   5.259
 4081SOL    HW213143   2.010   1.427   5.237
 4082SOL     OW13144   0.843   2.809   5.098
 4082SOL    HW113145   0.847   2.908   5.092
 4082SOL    HW213146   0.933   2.772   5.121
 4083SOL     OW13147   5.773   4.809   3.389
 4083SOL    HW113148   5.771   4.790   3.290
 4083SOL    HW213149   5.808   4.729   3.437
 4084SOL     OW13150   4.534   1.849   3.486
 4084SOL    HW113151   4.490   1.869   3.399
 4084SOL    HW213152   4.528   1.751   3.505
 4085SOL     OW13153   3.124   5.698   1.924
 4085SOL    HW113154   3.027   5.717   1.909
 4085SOL    HW213155   3.178   5.780   1.905
 4086SOL     OW13156   6.381   5.482   6.341
 4086SOL    HW113157   6.295   5.530   6.321
 4086SOL    HW213158   6.457   5.534   6.303
 4087SOL     OW13159   2.485   6.750   2.573
 4087SOL    HW113160   2.577   6.748   2.611
 4087SOL    HW213161   2.424   6.695   2.630
 4088SOL     OW13162   6.857   1.122   5.316
 4088SOL    HW113163   6.901   1.204   5.278
 4088SOL    HW213164   6.761   1.142   5.336
 4089SOL     OW13165   0.183   6.537   3.594
 4089SOL    HW113166   0.091   6.531   3.556
 4089SOL    HW213167   0.181   6.587   3.681
 4090SOL     OW13168   2.354   6.817   5.096
 4090SOL    HW113169   2.402   6.730   5.095
 4090SOL    HW213170   2.412   6.888   5.057
 4091SOL     OW13171   2.085   5.477   1.180
 4091SOL    HW113172   1.991   5.509   1.166
 4091SOL    HW213173   2.117   5.433   1.096
 4092SOL     OW13174   4.946   3.186   4.267
 4092SOL    HW113175   5.016   3.238   4.218
 4092SOL    HW213176   4.894   3.248   4.326
 4093SOL     OW13177   5.370   5.767   2.888
 4093SOL    HW113178   5.284   5.726   2.920
 4093SOL    HW213179   5.436   5.694   2.870
 4094SOL     OW13180   0.249   5.622   6.763
 4094SOL    HW113181   0.297   5.636   6.850
 4094SOL    HW213182   0.253   5.526   6.738
 4095SOL     OW13183   0.582   4.621   0.264
 4095SOL    HW113184   0.605   4.716   0.243
 4095SOL    HW213185   0.551   4.615   0.359
 4096SOL     OW13186   1.792   1.735   6.763
 4096SOL    HW113187   1.792   1.801   6.688
 4096SOL    HW213188   1.699   1.725   6.799
 4097SOL     OW13189   0.038   4.686   5.400
 4097SOL    HW113190   0.058   4.686   5.302
 4097SOL    HW213191   0.098   4.621   5.447
 4098SOL     OW13192   2.445   5.100   2.839
 4098SOL    HW113193   2.501   5.020   2.817
 4098SOL    HW213194   2.461   5.125   2.935
 4099SOL     OW13195   4.565   4.352   5.972
 4099SOL    HW113196   4.586   4.441   6.013
 4099SOL    HW213197   4.473   4.324   6.000
 4100SOL     OW13198   1.739   0.536   3.839
 4100SOL    HW113199   1.745   0.605   3.911
 4100SOL    HW213200   1.653   0.485   3.848
 4101SOL     OW13201   6.330   0.634   0.222
 4101SOL    HW113202   6.270   0.563   0.261
 4101SOL    HW213203   6.382   0.595   0.146
 4102SOL     OW13204   1.701   0.489   0.020
 4102SOL    HW113205   1.725   0.436   6.961
 4102SOL    HW213206   1.606   0.472   0.046
 4103SOL     OW13207   1.217   6.871   2.116
 4103SOL    HW113208   1.299   6.871   2.059
 4103SOL    HW213209   1.243   6.867   2.212
 4104SOL     OW13210   0.334   5.550   3.279
 4104SOL    HW113211   0.247   5.591   3.307
 4104SOL    HW213212   0.358   5.581   3.187
 4105SOL     OW13213   4.567   1.225   0.724
 4105SOL    HW113214   4.633   1.188   0.659
 4105SOL    HW213215   4.611   1.239   0.813
 4106SOL     OW13216   0.084   1.938   3.588
 4106SOL    HW113217   0.132   1.954   3.675
 4106SOL    HW213218   0.150   1.938   3.513
 4107SOL     OW13219   0.375   6.322   6.272
 4107SOL    HW113220   0.317   6.404   6.263
 4107SOL    HW213221   0.459   6.335   6.218
 4108SOL     OW13222   0.247   5.278   4.057
 4108SOL    HW113223   0.315   5.323   4.115
 4108SOL    HW213224   0.192   5.348   4.010
 4109SOL     OW13225   6.178   5.698   3.541
 4109SOL    HW113226   6.113   5.762   3.500
 4109SOL    HW213227   6.223   5.743   3.619
 4110SOL     OW13228   5.136   3.658   0.277
 4110SOL    HW113229   5.227   3.622   0.299
 4110SOL    HW213230   5.066   3.596   0.313
 4111SOL     OW13231   6.871   3.917   5.355
 4111SOL    HW113232   6.893   3.872   5.268
 4111SOL    HW213233   6.892   4.015   5.348
 4112SOL     OW13234   4.423   0.042   4.980
 4112SOL    HW113235   4.425   0.067   4.883
 4112SOL    HW213236   4.340   7.012   4.999
 4113SOL     OW13237   4.753   4.322   4.638
 4113SOL    HW113238   4.714   4.393   4.696
 4113SOL    HW213239   4.699   4.314   4.554
 4114SOL     OW13240   6.411   1.326   3.331
 4114SOL    HW113241   6.410   1.425   3.346
 4114SOL    HW213242   6.505   1.296   3.314
 4115SOL     OW13243   2.803   5.090   3.670
 4115SOL    HW113244   2.738   5.015   3.673
 4115SOL    HW213245   2.785   5.153   3.746
 4116SOL     OW13246   5.696   2.868   3.275
 4116SOL    HW113247   5.626   2.836   3.212
 4116SOL    HW213248   5.750   2.790   3.308
 4117SOL     OW13249   0.977   2.677   1.939
 4117SOL    HW113250   1.055   2.706   1.995
 4117SOL    HW213251   0.895   2.724   1.970
 4118SOL     OW13252   6.741   5.963   6.318
 4118SOL    HW113253   6.651   5.950   6.359
 4118SOL    HW213254   6.761   6.061   6.310
 4119SOL     OW13255   2.188   1.273   3.050
 4119SOL    HW113256   2.205   1.361   3.095
 4119SOL    HW213257   2.234   1.271   2.962
 4120SOL     OW13258   1.737   1.188   6.348
 4120SOL    HW113259   1.761   1.274   6.392
 4120SOL    HW213260   1.722   1.203   6.250
 4121SOL     OW13261   6.972   6.997   2.857
 4121SOL    HW113262   6.993   6.934   2.782
 4121SOL    HW213263   0.033   0.026   2.883
 4122SOL     OW13264   0.716   5.135   4.255
 4122SOL    HW113265   0.672   5.167   4.338
 4122SOL    HW213266   0.772   5.055   4.276
 4123SOL     OW13267   3.720   4.881   2.664
 4123SOL    HW113268   3.682   4.974   2.662
 4123SOL    HW213269   3.710   4.843   2.756
 4124SOL     OW13270   6.480   6.468   0.748
 4124SOL    HW113271   6.560   6.519   0.781
 4124SOL    HW213272   6.437   6.518   0.673
 4125SOL     OW13273   5.577   2.185   1.820
 4125SOL    HW113274   5.608   2.250   1.889
 4125SOL    HW213275   5.638   2.188   1.741
 4126SOL     OW13276   1.229   2.748   2.033
 4126SOL    HW113277   1.278   2.832   2.054
 4126SOL    HW213278   1.263   2.674   2.090
 4127SOL     OW13279   3.647   2.052   4.187
 4127SOL    HW113280   3.673   2.056   4.284
 4127SOL    HW213281   3.566   1.994   4.177
 4128SOL     OW13282   0.268   3.273   1.344
 4128SOL    HW113283   0.357   3.291   1.386
 4128SOL    HW213284   0.195   3.303   1.406
 4129SOL     OW13285   2.794   2.999   0.801
 4129SOL    HW113286   2.842   3.077   0.843
 4129SOL    HW213287   2.840   2.975   0.716
 4130SOL     OW13288   6.098   3.251   1.177
 4130SOL    HW113289   6.188   3.219   1.204
 4130SOL    HW213290   6.029   3.214   1.240
 4131SOL     OW13291   4.680   0.516   1.999
 4131SOL    HW113292   4.622   0.587   2.038
 4131SOL    HW213293   4.764   0.508   2.054
 4132SOL     OW13294   6.456   3.948   4.650
 4132SOL    HW113295   6.388   4.011   4.689
 4132SOL    HW213296   6.523   3.924   4.719
 4133SOL     OW13297   6.225   6.659   1.808
 4133SOL    HW113298   6.148   6.699   1.759
 4133SOL    HW213299   6.207   6.562   1.825
 4134SOL     OW13300   2.335   2.910   1.367
 4134SOL    HW113301   2.423   2.867   1.386
 4134SOL    HW213302   2.279   2.849   1.310
 4135SOL     OW13303   6.969   1.605   2.868
 4135SOL    HW113304   6.914   1.541   2.921
 4135SOL    HW213305   0.043   1.575   2.867
 4136SOL     OW13306   0.969   4.195   1.770
 4136SOL    HW113307   0.899   4.257   1.736
 4136SOL    HW213308   0.926   4.118   1.816
 4137SOL     OW13309   1.715   2.996   0.553
 4137SOL    HW113310   1.764   3.030   0.634
 4137SOL    HW213311   1.765   2.918   0.515
 4138SOL     OW13312   4.534   6.265   1.331
 4138SOL    HW113313   4.579   6.286   1.418
 4138SOL    HW213314   4.441   6.303   1.332
 4139SOL     OW13315   1.662   2.027   3.189
 4139SOL    HW113316   1.679   1.928   3.193
 4139SOL    HW213317   1.592   2.051   3.255
 4140SOL     OW13318   2.502   2.601   4.246
 4140SOL    HW113319   2.458   2.685   4.216
 4140SOL    HW213320   2.474   2.579   4.340
 4141SOL     OW13321   4.062   7.013   6.737
 4141SOL    HW113322   4.024   6.930   6.697
 4141SOL    HW213323   4.111   0.043   6.666
 4142SOL     OW13324   0.093   4.116   2.845
 4142SOL    HW113325   0.102   4.166   2.931
 4142SOL    HW213326   0.099   4.180   2.768
 4143SOL     OW13327   5.808   3.375   0.803
 4143SOL    HW113328   5.749   3.447   0.841
 4143SOL    HW213329   5.804   3.295   0.862
 4144SOL     OW13330   5.677   1.922   0.400
 4144SOL    HW113331   5.694   1.986   0.326
 4144SOL    HW213332   5.588   1.941   0.442
 4145SOL     OW13333   0.316   6.523   0.611
 4145SOL    HW113334   0.231   6.545   0.564
 4145SOL    HW213335   0.348   6.604   0.662
 4146SOL     OW13336   5.694   6.385   3.150
 4146SOL    HW113337   5.727   6.301   3.192
 4146SOL    HW213338   5.627   6.428   3.210
 4147SOL     OW13339   4.661   4.288   5.309
 4147SOL    HW113340   4.571   4.295   5.351
 4147SOL    HW213341   4.659   4.218   5.237
 4148SOL     OW13342   2.825   0.825   5.483
 4148SOL    HW113343   2.792   0.916   5.458
 4148SOL    HW213344   2.748   0.767   5.508
 4149SOL     OW13345   1.919   3.162   0.835
 4149SOL    HW113346   1.985   3.175   0.909
 4149SOL    HW213347   1.959   3.104   0.764
 4150SOL     OW13348   5.977   2.480   6.272
 4150SOL    HW113349   6.012   2.438   6.188
 4150SOL    HW213350   5.991   2.579   6.268
 4151SOL     OW13351   2.124   0.083   4.563
 4151SOL    HW113352   2.136   7.006   4.553
 4151SOL    HW213353   2.040   0.101   4.613
 4152SOL     OW13354   3.392   5.824   1.826
 4152SOL    HW113355   3.470   5.767   1.853
 4152SOL    HW213356   3.403   5.851   1.730
 4153SOL     OW13357   6.790   5.077   1.789
 4153SOL    HW113358   6.793   5.159   1.732
 4153SOL    HW213359   6.740   5.005   1.740
 4154SOL     OW13360   0.541   5.919   4.681
 4154SOL    HW113361   0.559   5.832   4.634
 4154SOL    HW213362   0.625   5.952   4.724
 4155SOL     OW13363   1.019   2.077   1.495
 4155SOL    HW113364   1.112   2.055   1.467
 4155SOL    HW213365   0.956   2.059   1.419
 4156SOL     OW13366   6.850   4.576   5.005
 4156SOL    HW113367   6.794   4.590   5.087
 4156SOL    HW213368   6.819   4.638   4.932
 4157SOL     OW13369   6.773   6.675   2.232
 4157SOL    HW113370   6.791   6.582   2.263
 4157SOL    HW213371   6.842   6.703   2.166
 4158SOL     OW13372   1.998   2.673   1.919
 4158SOL    HW113373   1.910   2.708   1.952
 4158SOL    HW213374   2.029   2.600   1.980
 4159SOL     OW13375   3.136   1.534   2.977
 4159SOL    HW113376   3.123   1.452   3.032
 4159SOL    HW213377   3.105   1.517   2.883
 4160SOL     OW13378   6.755   6.864   6.909
 4160SOL    HW113379   6.690   6.880   6.984
 4160SOL    HW213380   6.707   6.869   6.822
 4161SOL     OW13381   2.153   1.808   1.516
 4161SOL    HW113382   2.249   1.819   1.540
 4161SOL    HW213383   2.143   1.808   1.416
 4162SOL     OW13384   6.384   6.091   1.218
 4162SOL    HW113385   6.348   6.172   1.263
 4162SOL    HW213386   6.400   6.110   1.121
 4163SOL     OW13387   4.397   6.908   1.547
 4163SOL    HW113388   4.444   6.988   1.512
 4163SOL    HW213389   4.464   6.843   1.584
 4164SOL     OW13390   0.245   6.229   4.987
 4164SOL    HW113391   0.320   6.209   4.923
 4164SOL    HW213392   0.282   6.277   5.067
 4165SOL     OW13393   3.875   1.462   5.602
 4165SOL    HW113394   3.828   1.375   5.615
 4165SOL    HW213395   3.969   1.445   5.573
 4166SOL     OW13396   5.737   0.517   3.060
 4166SOL    HW113397   5.814   0.581   3.055
 4166SOL    HW213398   5.654   0.563   3.027
 4167SOL     OW13399   2.840   4.874   5.760
 4167SOL    HW113400   2.811   4.838   5.849
 4167SOL    HW213401   2.926   4.829   5.734
 4168SOL     OW13402   6.957   4.883   0.394
 4168SOL    HW113403   7.008   4.797   0.392
 4168SOL    HW213404   6.930   4.904   0.488
 4169SOL     OW13405   5.187   3.996   4.932
 4169SOL    HW113406   5.196   3.898   4.952
 4169SOL    HW213407   5.267   4.045   4.966
 4170SOL     OW13408   4.800   2.897   4.611
 4170SOL    HW113409   4.820   2.988   4.647
 4170SOL    HW213410   4.814   2.829   4.682
 4171SOL     OW13411   1.541   3.623   1.341
 4171SOL    HW113412   1.569   3.635   1.246
 4171SOL    HW213413   1.516   3.712   1.380
 4172SOL     OW13414   3.539   3.428   0.841
 4172SOL    HW113415   3.448   3.427   0.802
 4172SOL    HW213416   3.534   3.405   0.938
 4173SOL     OW13417   4.297   2.919   5.527
 4173SOL    HW113418   4.300   2.875   5.437
 4173SOL    HW213419   4.329   2.854   5.596
 4174SOL     OW13420   4.642   0.131   4.332
 4174SOL    HW113421   4.645   0.035   4.362
 4174SOL    HW213422   4.725   0.151   4.279
 4175SOL     OW13423   1.551   4.543   6.369
 4175SOL    HW113424   1.611   4.498   6.436
 4175SOL    HW213425   1.456   4.515   6.385
 4176SOL     OW13426   5.189   6.565   0.041
 4176SOL    HW113427   5.181   6.467   0.059
 4176SOL    HW213428   5.285   6.587   0.023
 4177SOL     OW13429   4.857   5.006   4.761
 4177SOL    HW113430   4.877   4.963   4.849
 4177SOL    HW213431   4.788   4.952   4.712
 4178SOL     OW13432   3.849   6.570   2.487
 4178SOL    HW113433   3.876   6.483   2.528
 4178SOL    HW213434   3.882   6.573   2.392
 4179SOL     OW13435   5.363   3.242   4.461
 4179SOL    HW113436   5.387   3.282   4.550
 4179SOL    HW213437   5.446   3.216   4.413
 4180SOL     OW13438   5.854   3.566   0.572
 4180SOL    HW113439   5.861   3.520   0.484
 4180SOL    HW213440   5.827   3.499   0.642
 4181SOL     OW13441   5.081   0.503   5.985
 4181SOL    HW113442   5.080   0.589   6.036
 4181SOL    HW213443   5.017   0.508   5.908
 4182SOL     OW13444   0.639   5.958   4.032
 4182SOL    HW113445   0.708   5.892   4.002
 4182SOL    HW213446   0.677   6.013   4.107
 4183SOL     OW13447   2.170   1.332   1.709
 4183SOL    HW113448   2.258   1.375   1.729
 4183SOL    HW213449   2.129   1.378   1.630
 4184SOL     OW13450   3.515   0.287   2.321
 4184SOL    HW113451   3.433   0.249   2.279
 4184SOL    HW213452   3.491   0.368   2.374
 4185SOL     OW13453   0.428   3.628   3.890
 4185SOL    HW113454   0.464   3.615   3.797
 4185SOL    HW213455   0.498   3.673   3.946
 4186SOL     OW13456   2.015   5.872   6.649
 4186SOL    HW113457   2.036   5.959   6.605
 4186SOL    HW213458   1.970   5.811   6.584
 4187SOL     OW13459   2.366   3.511   0.010
 4187SOL    HW113460   2.323   3.537   0.096
 4187SOL    HW213461   2.297   3.505   6.960
 4188SOL     OW13462   5.528   0.752   5.474
 4188SOL    HW113463   5.576   0.818   5.532
 4188SOL    HW213464   5.523   0.787   5.380
 4189SOL     OW13465   4.720   5.484   3.351
 4189SOL    HW113466   4.651   5.523   3.290
 4189SOL    HW213467   4.688   5.488   3.445
 4190SOL     OW13468   0.174   6.447   0.865
 4190SOL    HW113469   0.122   6.486   0.789
 4190SOL    HW213470   0.267   6.426   0.834
 4191SOL     OW13471   4.954   3.822   6.336
 4191SOL    HW113472   5.032   3.821   6.399
 4191SOL    HW213473   4.899   3.739   6.348
 4192SOL     OW13474   1.134   1.445   2.526
 4192SOL    HW113475   1.143   1.533   2.572
 4192SOL    HW213476   1.038   1.419   2.522
 4193SOL     OW13477   5.736   0.638   0.158
 4193SOL    HW113478   5.738   0.624   0.257
 4193SOL    HW213479   5.804   0.707   0.133
 4194SOL     OW13480   3.847   0.472   5.512
 4194SOL    HW113481   3.769   0.409   5.513
 4194SOL    HW213482   3.899   0.459   5.427
 4195SOL     OW13483   4.386   6.590   1.993
 4195SOL    HW113484   4.434   6.558   2.075
 4195SOL    HW213485   4.382   6.690   1.993
 4196SOL     OW13486   6.949   2.869   3.633
 4196SOL    HW113487   6.977   2.829   3.720
 4196SOL    HW213488   0.000   2.930   3.600
 4197SOL     OW13489   3.958   6.230   5.754
 4197SOL    HW113490   3.924   6.324   5.752
 4197SOL    HW213491   3.880   6.167   5.763
 4198SOL     OW13492   6.636   0.289   2.257
 4198SOL    HW113493   6.620   0.351   2.179
 4198SOL    HW213494   6.548   0.259   2.293
 4199SOL     OW13495   1.598   3.688   6.237
 4199SOL    HW113496   1.613   3.736   6.151
 4199SOL    HW213497   1.530   3.737   6.291
 4200SOL     OW13498   3.535   1.172   5.450
 4200SOL    HW113499   3.633   1.157   5.431
 4200SOL    HW213500   3.507   1.260   5.413
 4201SOL     OW13501   6.009   6.659   3.549
 4201SOL    HW113502   6.068   6.737   3.570
 4201SOL    HW213503   5.983   6.662   3.452
 4202SOL     OW13504   3.347   5.449   6.412
 4202SOL    HW113505   3.400   5.494   6.340
 4202SOL    HW213506   3.253   5.434   6.380
 4203SOL     OW13507   5.019   4.894   0.442
 4203SOL    HW113508   5.013   4.935   0.533
 4203SOL    HW213509   5.056   4.802   0.449
 4204SOL     OW13510   3.966   3.402   5.782
 4204SOL    HW113511   3.952   3.383   5.880
 4204SOL    HW213512   3.915   3.484   5.757
 4205SOL     OW13513   3.619   5.459   5.182
 4205SOL    HW113514   3.690   5.458   5.252
 4205SOL    HW213515   3.657   5.426   5.096
 4206SOL     OW13516   0.726   1.276   5.040
 4206SOL    HW113517   0.630   1.267   5.015
 4206SOL    HW213518   0.783   1.272   4.958
 4207SOL     OW13519   1.958   2.377   1.352
 4207SOL    HW113520   1.879   2.394   1.410
 4207SOL    HW213521   1.949   2.288   1.307
 4208SOL     OW13522   1.157   4.406   5.353
 4208SOL    HW113523   1.219   4.361   5.289
 4208SOL    HW213524   1.191   4.498   5.372
 4209SOL     OW13525   6.512   5.607   2.799
 4209SOL    HW113526   6.421   5.637   2.827
 4209SOL    HW213527   6.581   5.669   2.837
 4210SOL     OW13528   3.973   3.091   4.386
 4210SOL    HW113529   3.956   3.051   4.476
 4210SOL    HW213530   3.952   3.024   4.315
 4211SOL     OW13531   3.410   1.812   5.664
 4211SOL    HW113532   3.509   1.827   5.657
 4211SOL    HW213533   3.367   1.836   5.577
 4212SOL     OW13534   6.960   1.189   3.845
 4212SOL    HW113535   6.918   1.161   3.758
 4212SOL    HW213536   6.964   1.289   3.849
 4213SOL     OW13537   2.887   1.104   3.345
 4213SOL    HW113538   2.862   1.011   3.317
 4213SOL    HW213539   2.985   1.108   3.364
 4214SOL     OW13540   0.569   5.543   4.706
 4214SOL    HW113541   0.669   5.536   4.706
 4214SOL    HW213542   0.532   5.494   4.785
 4215SOL     OW13543   5.226   6.881   5.372
 4215SOL    HW113544   5.198   6.876   5.468
 4215SOL    HW213545   5.324   6.899   5.366
 4216SOL     OW13546   1.461   0.876   2.332
 4216SOL    HW113547   1.452   0.942   2.257
 4216SOL    HW213548   1.403   0.904   2.409
 4217SOL     OW13549   1.121   0.126   2.146
 4217SOL    HW113550   1.130   0.027   2.140
 4217SOL    HW213551   1.127   0.166   2.054
 4218SOL     OW13552   3.346   0.916   1.205
 4218SOL    HW113553   3.256   0.927   1.249
 4218SOL    HW213554   3.335   0.914   1.106
 4219SOL     OW13555   4.520   6.602   4.635
 4219SOL    HW113556   4.458   6.577   4.561
 4219SOL    HW213557   4.482   6.569   4.722
 4220SOL     OW13558   5.492   2.342   2.069
 4220SOL    HW113559   5.537   2.426   2.042
 4220SOL    HW213560   5.393   2.352   2.059
 4221SOL     OW13561   6.689   4.771   0.068
 4221SOL    HW113562   6.693   4.801   0.163
 4221SOL    HW213563   6.647   4.680   0.063
 4222SOL     OW13564   5.250   1.824   3.409
 4222SOL    HW113565   5.244   1.920   3.437
 4222SOL    HW213566   5.317   1.816   3.334
 4223SOL     OW13567   3.883   3.727   0.864
 4223SOL    HW113568   3.916   3.772   0.780
 4223SOL    HW213569   3.899   3.787   0.942
 4224SOL     OW13570   5.528   4.368   4.926
 4224SOL    HW113571   5.467   4.441   4.954
 4224SOL    HW213572   5.577   4.332   5.006
 4225SOL     OW13573   1.672   2.101   5.603
 4225SOL    HW113574   1.626   2.188   5.621
 4225SOL    HW213575   1.607   2.036   5.565
 4226SOL     OW13576   1.172   6.326   4.172
 4226SOL    HW113577   1.250   6.327   4.110
 4226SOL    HW213578   1.090   6.299   4.122
 4227SOL     OW13579   4.848   6.191   1.827
 4227SOL    HW113580   4.893   6.170   1.740
 4227SOL    HW213581   4.915   6.225   1.892
 4228SOL     OW13582   0.622   6.461   5.030
 4228SOL    HW113583   0.674   6.464   4.945
 4228SOL    HW213584   0.524   6.468   5.010
 4229SOL     OW13585   4.891   5.974   5.875
 4229SOL    HW113586   4.917   5.885   5.838
 4229SOL    HW213587   4.798   5.996   5.845
 4230SOL     OW13588   0.851   6.787   2.832
 4230SOL    HW113589   0.940   6.828   2.812
 4230SOL    HW213590   0.807   6.759   2.746
 4231SOL     OW13591   4.898   0.731   5.350
 4231SOL    HW113592   4.864   0.644   5.314
 4231SOL    HW213593   4.959   0.714   5.427
 4232SOL     OW13594   2.127   5.679   3.823
 4232SOL    HW113595   2.043   5.713   3.781
 4232SOL    HW213596   2.148   5.735   3.904
 4233SOL     OW13597   0.458   6.937   4.276
 4233SOL    HW113598   0.507   6.968   4.358
 4233SOL    HW213599   0.523   6.902   4.209
 4234SOL     OW13600   1.918   5.679   5.360
 4234SOL    HW113601   1.881   5.752   5.417
 4234SOL    HW213602   1.951   5.717   5.273
 4235SOL     OW13603   6.501   4.814   5.704
 4235SOL    HW113604   6.435   4.870   5.753
 4235SOL    HW213605   6.539   4.745   5.765
 4236SOL     OW13606   0.533   4.624   1.966
 4236SOL    HW113607   0.439   4.646   1.944
 4236SOL    HW213608   0.542   4.526   1.981
 4237SOL     OW13609   6.173   4.100   4.439
 4237SOL    HW113610   6.265   4.114   4.401
 4237SOL    HW213611   6.131   4.020   4.397
 4238SOL     OW13612   0.944   0.840   3.473
 4238SOL    HW113613   0.919   0.870   3.381
 4238SOL    HW213614   0.894   0.895   3.540
 4239SOL     OW13615   4.393   1.110   2.260
 4239SOL    HW113616   4.370   1.170   2.336
 4239SOL    HW213617   4.323   1.119   2.189
 4240SOL     OW13618   2.014   5.130   7.003
 4240SOL    HW113619   1.928   5.089   6.972
 4240SOL    HW213620   2.054   5.072   0.053
 4241SOL     OW13621   6.054   1.828   0.361
 4241SOL    HW113622   6.033   1.812   0.264
 4241SOL    HW213623   5.985   1.890   0.399
 4242SOL     OW13624   2.314   2.500   3.987
 4242SOL    HW113625   2.367   2.582   3.967
 4242SOL    HW213626   2.361   2.445   4.056
 4243SOL     OW13627   4.433   1.569   2.494
 4243SOL    HW113628   4.518   1.570   2.441
 4243SOL    HW213629   4.359   1.608   2.439
 4244SOL     OW13630   3.467   3.637   1.910
 4244SOL    HW113631   3.375   3.627   1.949
 4244SOL    HW213632   3.489   3.734   1.901
 4245SOL     OW13633   6.523   2.093   6.875
 4245SOL    HW113634   6.606   2.037   6.875
 4245SOL    HW213635   6.489   2.103   6.781
 4246SOL     OW13636   6.182   4.077   3.208
 4246SOL    HW113637   6.163   4.161   3.259
 4246SOL    HW213638   6.223   4.100   3.120
 4247SOL     OW13639   0.912   6.237   4.025
 4247SOL    HW113640   0.845   6.195   4.087
 4247SOL    HW213641   0.864   6.292   3.956
 4248SOL     OW13642   2.459   1.884   4.616
 4248SOL    HW113643   2.426   1.829   4.692
 4248SOL    HW213644   2.491   1.824   4.542
 4249SOL     OW13645   6.407   2.844   4.992
 4249SOL    HW113646   6.356   2.866   5.075
 4249SOL    HW213647   6.345   2.800   4.926
 4250SOL     OW13648   6.818   4.327   3.052
 4250SOL    HW113649   6.909   4.366   3.044
 4250SOL    HW213650   6.806   4.289   3.144
 4251SOL     OW13651   5.915   4.884   0.127
 4251SOL    HW113652   5.908   4.969   0.181
 4251SOL    HW213653   5.827   4.864   0.084
 4252SOL     OW13654   6.528   6.121   5.020
 4252SOL    HW113655   6.461   6.051   4.996
 4252SOL    HW213656   6.558   6.108   5.114
 4253SOL     OW13657   2.795   0.465   2.071
 4253SOL    HW113658   2.834   0.518   2.147
 4253SOL    HW213659   2.732   0.523   2.020
 4254SOL     OW13660   1.053   3.072   1.282
 4254SOL    HW113661   1.115   3.063   1.204
 4254SOL    HW213662   0.963   3.104   1.250
 4255SOL     OW13663   6.141   2.307   3.387
 4255SOL    HW113664   6.200   2.324   3.308
 4255SOL    HW213665   6.138   2.208   3.406
 4256SOL     OW13666   1.325   6.222   0.757
 4256SOL    HW113667   1.359   6.272   0.837
 4256SOL    HW213668   1.229   6.198   0.771
 4257SOL     OW13669   3.594   0.666   5.232
 4257SOL    HW113670   3.567   0.742   5.173
 4257SOL    HW213671   3.580   0.691   5.328
 4258SOL     OW13672   6.046   6.865   1.703
 4258SOL    HW113673   6.096   6.921   1.637
 4258SOL    HW213674   5.949   6.887   1.698
 4259SOL     OW13675   2.717   0.707   6.762
 4259SOL    HW113676   2.807   0.671   6.786
 4259SOL    HW213677   2.647   0.641   6.787
 4260SOL     OW13678   5.234   5.810   4.086
 4260SOL    HW113679   5.317   5.761   4.061
 4260SOL    HW213680   5.204   5.779   4.176
 4261SOL     OW13681   2.111   0.418   2.160
 4261SOL    HW113682   2.110   0.386   2.065
 4261SOL    HW213683   2.155   0.350   2.218
 4262SOL     OW13684   1.270   4.798   5.144
 4262SOL    HW113685   1.369   4.784   5.144
 4262SOL    HW213686   1.249   4.889   5.108
 4263SOL     OW13687   2.652   6.602   4.129
 4263SOL    HW113688   2.727   6.541   4.102
 4263SOL    HW213689   2.621   6.578   4.221
 4264SOL     OW13690   0.008   1.893   2.094
 4264SOL    HW113691   6.948   1.849   2.129
 4264SOL    HW213692   7.017   1.992   2.092
 4265SOL     OW13693   6.051   2.004   6.917
 4265SOL    HW113694   5.982   2.063   6.876
 4265SOL    HW213695   6.124   2.059   6.957
 4266SOL     OW13696   2.309   5.469   0.291
 4266SOL    HW113697   2.358   5.555   0.274
 4266SOL    HW213698   2.339   5.401   0.224
 4267SOL     OW13699   2.070   3.903   5.144
 4267SOL    HW113700   2.145   3.852   5.187
 4267SOL    HW213701   2.105   3.991   5.110
 4268SOL     OW13702   1.742   6.828   0.160
 4268SOL    HW113703   1.791   6.866   0.239
 4268SOL    HW213704   1.768   6.733   0.147
 4269SOL     OW13705   1.892   1.329   0.662
 4269SOL    HW113706   1.937   1.291   0.581
 4269SOL    HW213707   1.911   1.427   0.667
 4270SOL     OW13708   2.975   3.183   3.724
 4270SOL    HW113709   2.956   3.261   3.665
 4270SOL    HW213710   3.054   3.133   3.688
 4271SOL     OW13711   0.070   0.445   5.799
 4271SOL    HW113712   0.161   0.485   5.810
 4271SOL    HW213713   0.023   0.445   5.887
 4272SOL     OW13714   0.564   4.897   4.881
 4272SOL    HW113715   0.645   4.902   4.823
 4272SOL    HW213716   0.516   4.810   4.865
 4273SOL     OW13717   4.721   6.480   4.058
 4273SOL    HW113718   4.788   6.414   4.091
 4273SOL    HW213719   4.761   6.535   3.986
 4274SOL     OW13720   0.616   0.001   2.875
 4274SOL    HW113721   0.640   6.965   2.796
 4274SOL    HW213722   0.608   6.965   2.956
 4275SOL     OW13723   0.226   1.770   6.037
 4275SOL    HW113724   0.300   1.804   5.979
 4275SOL    HW213725   0.217   1.672   6.026
 4276SOL     OW13726   1.681   4.861   2.640
 4276SOL    HW113727   1.608   4.793   2.638
 4276SOL    HW213728   1.767   4.817   2.666
 4277SOL     OW13729   6.862   4.731   4.154
 4277SOL    HW113730   6.896   4.775   4.238
 4277SOL    HW213731   6.763   4.742   4.148
 4278SOL     OW13732   0.301   0.912   4.965
 4278SOL    HW113733   0.267   0.987   4.908
 4278SOL    HW213734   0.233   0.890   5.036
 4279SOL     OW13735   3.651   6.191   5.402
 4279SOL    HW113736   3.629   6.100   5.365
 4279SOL    HW213737   3.591   6.210   5.480
 4280SOL     OW13738   4.746   1.521   5.779
 4280SOL    HW113739   4.818   1.453   5.762
 4280SOL    HW213740   4.678   1.483   5.842
 4281SOL     OW13741   2.294   4.751   4.314
 4281SOL    HW113742   2.386   4.755   4.275
 4281SOL    HW213743   2.245   4.671   4.276
 4282SOL     OW13744   2.198   2.428   6.929
 4282SOL    HW113745   2.226   2.343   6.975
 4282SOL    HW213746   2.279   2.482   6.908
 4283SOL     OW13747   1.929   0.320   4.201
 4283SOL    HW113748   1.988   0.399   4.217
 4283SOL    HW213749   1.912   0.311   4.102
 4284SOL     OW13750   5.330   6.070   2.271
 4284SOL    HW113751   5.417   6.072   2.221
 4284SOL    HW213752   5.348   6.067   2.369
 4285SOL     OW13753   0.468   6.968   6.154
 4285SOL    HW113754   0.535   0.007   6.196
 4285SOL    HW213755   0.514   6.906   6.090
 4286SOL     OW13756   5.124   5.911   0.024
 4286SOL    HW113757   5.079   5.996   7.019
 4286SOL    HW213758   5.128   5.849   6.967
 4287SOL     OW13759   5.961   0.643   5.927
 4287SOL    HW113760   6.036   0.690   5.973
 4287SOL    HW213761   5.990   0.612   5.837
 4288SOL     OW13762   0.558   6.050   3.760
 4288SOL    HW113763   0.649   6.022   3.731
 4288SOL    HW213764   0.549   6.039   3.859
 4289SOL     OW13765   5.953   3.126   1.405
 4289SOL    HW113766   5.962   3.061   1.480
 4289SOL    HW213767   5.965   3.219   1.440
 4290SOL     OW13768   2.133   6.353   1.045
 4290SOL    HW113769   2.096   6.308   1.126
 4290SOL    HW213770   2.061   6.361   0.976
 4291SOL     OW13771   4.655   3.371   1.631
 4291SOL    HW113772   4.714   3.451   1.635
 4291SOL    HW213773   4.559   3.400   1.632
 4292SOL     OW13774   6.433   4.440   5.695
 4292SOL    HW113775   6.386   4.515   5.741
 4292SOL    HW213776   6.526   4.432   5.730
 4293SOL     OW13777   0.234   3.900   6.708
 4293SOL    HW113778   0.160   3.956   6.670
 4293SOL    HW213779   0.210   3.874   6.802
 4294SOL     OW13780   4.499   2.973   0.335
 4294SOL    HW113781   4.578   2.993   0.276
 4294SOL    HW213782   4.417   3.012   0.294
 4295SOL     OW13783   3.842   6.407   4.959
 4295SOL    HW113784   3.812   6.338   5.025
 4295SOL    HW213785   3.775   6.413   4.885
 4296SOL     OW13786   2.860   1.970   0.094
 4296SOL    HW113787   2.919   2.037   0.051
 4296SOL    HW213788   2.855   1.988   0.193
 4297SOL     OW13789   5.417   0.343   5.677
 4297SOL    HW113790   5.397   0.382   5.767
 4297SOL    HW213791   5.419   0.415   5.609
 4298SOL     OW13792   1.783   5.625   6.960
 4298SOL    HW113793   1.690   5.639   6.991
 4298SOL    HW213794   1.827   5.713   6.944
 4299SOL     OW13795   1.112   2.655   6.780
 4299SOL    HW113796   1.145   2.563   6.800
 4299SOL    HW213797   1.182   2.706   6.730
 4300SOL     OW13798   2.983   1.571   6.583
 4300SOL    HW113799   3.034   1.587   6.498
 4300SOL    HW213800   2.944   1.480   6.581
 4301SOL     OW13801   2.533   1.444   0.393
 4301SOL    HW113802   2.513   1.530   0.440
 4301SOL    HW213803   2.483   1.442   0.306
 4302SOL     OW13804   0.925   6.350   5.452
 4302SOL    HW113805   0.871   6.317   5.529
 4302SOL    HW213806   0.879   6.329   5.366
 4303SOL     OW13807   6.149   4.533   3.530
 4303SOL    HW113808   6.244   4.501   3.531
 4303SOL    HW213809   6.139   4.611   3.591
 4304SOL     OW13810   2.956   3.652   4.357
 4304SOL    HW113811   2.877   3.708   4.334
 4304SOL    HW213812   3.009   3.633   4.274
 4305SOL     OW13813   6.171   1.573   3.872
 4305SOL    HW113814   6.130   1.565   3.781
 4305SOL    HW213815   6.266   1.541   3.868
 4306SOL     OW13816   6.932   3.807   6.384
 4306SOL    HW113817   6.928   3.733   6.452
 4306SOL    HW213818   6.854   3.801   6.322
 4307SOL     OW13819   4.911   4.470   5.816
 4307SOL    HW113820   4.995   4.521   5.835
 4307SOL    HW213821   4.909   4.386   5.871
 4308SOL     OW13822   5.407   5.857   6.053
 4308SOL    HW113823   5.420   5.785   6.122
 4308SOL    HW213824   5.496   5.894   6.026
 4309SOL     OW13825   0.770   6.990   6.997
 4309SOL    HW113826   0.673   6.999   6.973
 4309SOL    HW213827   0.821   0.047   6.961
 4310SOL     OW13828   1.536   2.583   3.868
 4310SOL    HW113829   1.482   2.511   3.911
 4310SOL    HW213830   1.574   2.549   3.781
 4311SOL     OW13831   1.516   5.435   2.899
 4311SOL    HW113832   1.490   5.450   2.995
 4311SOL    HW213833   1.614   5.422   2.893
 4312SOL     OW13834   1.757   5.377   1.543
 4312SOL    HW113835   1.670   5.332   1.521
 4312SOL    HW213836   1.776   5.367   1.641
 4313SOL     OW13837   5.258   1.561   2.113
 4313SOL    HW113838   5.299   1.474   2.139
 4313SOL    HW213839   5.233   1.612   2.195
 4314SOL     OW13840   5.415   2.764   3.477
 4314SOL    HW113841   5.363   2.680   3.492
 4314SOL    HW213842   5.475   2.779   3.556
 4315SOL     OW13843   1.570   0.636   2.220
 4315SOL    HW113844   1.528   0.551   2.252
 4315SOL    HW213845   1.534   0.712   2.273
 4316SOL     OW13846   5.179   0.048   1.229
 4316SOL    HW113847   5.117   0.126   1.216
 4316SOL    HW213848   5.126   6.986   1.237
 4317SOL     OW13849   3.268   1.183   4.854
 4317SOL    HW113850   3.367   1.197   4.850
 4317SOL    HW213851   3.235   1.154   4.764
 4318SOL     OW13852   0.968   3.610   3.523
 4318SOL    HW113853   0.937   3.532   3.577
 4318SOL    HW213854   1.058   3.639   3.554
 4319SOL     OW13855   2.395   2.752   0.555
 4319SOL    HW113856   2.433   2.672   0.601
 4319SOL    HW213857   2.308   2.727   0.512
 4320SOL     OW13858   1.522   6.166   1.510
 4320SOL    HW113859   1.444   6.214   1.470
 4320SOL    HW213860   1.515   6.068   1.489
 4321SOL     OW13861   6.450   0.236   4.126
 4321SOL    HW113862   6.493   0.326   4.140
 4321SOL    HW213863   6.384   0.220   4.199
 4322SOL     OW13864   6.212   1.292   6.860
 4322SOL    HW113865   6.132   1.304   6.918
 4322SOL    HW213866   6.191   1.226   6.787
 4323SOL     OW13867   5.618   3.530   1.935
 4323SOL    HW113868   5.536   3.540   1.992
 4323SOL    HW213869   5.651   3.621   1.908
 4324SOL     OW13870   5.466   4.973   6.903
 4324SOL    HW113871   5.391   5.021   6.947
 4324SOL    HW213872   5.457   4.981   6.803
 4325SOL     OW13873   0.826   0.596   6.613
 4325SOL    HW113874   0.914   0.640   6.592
 4325SOL    HW213875   0.834   0.498   6.597
 4326SOL     OW13876   6.412   2.786   5.497
 4326SOL    HW113877   6.456   2.744   5.417
 4326SOL    HW213878   6.315   2.765   5.496
 4327SOL     OW13879   6.269   5.252   2.731
 4327SOL    HW113880   6.201   5.219   2.797
 4327SOL    HW213881   6.237   5.337   2.690
 4328SOL     OW13882   4.848   4.514   6.158
 4328SOL    HW113883   4.803   4.570   6.228
 4328SOL    HW213884   4.803   4.528   6.070
 4329SOL     OW13885   2.760   1.943   6.217
 4329SOL    HW113886   2.782   1.845   6.213
 4329SOL    HW213887   2.745   1.977   6.125
 4330SOL     OW13888   3.141   0.689   5.317
 4330SOL    HW113889   3.201   0.692   5.397
 4330SOL    HW213890   3.109   0.781   5.296
 4331SOL     OW13891   4.944   3.199   1.517
 4331SOL    HW113892   4.936   3.296   1.539
 4331SOL    HW213893   4.857   3.153   1.535
 4332SOL     OW13894   5.520   4.324   2.384
 4332SOL    HW113895   5.526   4.415   2.342
 4332SOL    HW213896   5.425   4.306   2.411
 4333SOL     OW13897   4.449   1.715   5.126
 4333SOL    HW113898   4.523   1.649   5.140
 4333SOL    HW213899   4.394   1.686   5.047
 4334SOL     OW13900   2.730   2.047   2.255
 4334SOL    HW113901   2.713   2.105   2.175
 4334SOL    HW213902   2.762   2.104   2.331
 4335SOL     OW13903   3.108   3.987   3.188
 4335SOL    HW113904   3.114   3.904   3.243
 4335SOL    HW213905   3.050   3.970   3.108
 4336SOL     OW13906   0.935   6.892   5.374
 4336SOL    HW113907   0.924   6.802   5.333
 4336SOL    HW213908   0.956   6.959   5.303
 4337SOL     OW13909   1.404   4.755   0.135
 4337SOL    HW113910   1.423   4.850   0.158
 4337SOL    HW213911   1.489   4.702   0.134
 4338SOL     OW13912   4.783   5.872   4.798
 4338SOL    HW113913   4.800   5.809   4.874
 4338SOL    HW213914   4.814   5.963   4.824
 4339SOL     OW13915   5.415   3.322   5.367
 4339SOL    HW113916   5.421   3.309   5.268
 4339SOL    HW213917   5.384   3.237   5.410
 4340SOL     OW13918   5.603   4.046   3.197
 4340SOL    HW113919   5.622   3.965   3.142
 4340SOL    HW213920   5.650   4.038   3.285
 4341SOL     OW13921   0.982   4.505   1.719
 4341SOL    HW113922   0.961   4.450   1.799
 4341SOL    HW213923   0.961   4.601   1.737
 4342SOL     OW13924   6.689   2.800   4.012
 4342SOL    HW113925   6.662   2.890   4.047
 4342SOL    HW213926   6.781   2.805   3.974
 4343SOL     OW13927   2.490   6.532   6.561
 4343SOL    HW113928   2.582   6.569   6.574
 4343SOL    HW213929   2.428   6.575   6.627
 4344SOL     OW13930   2.186   5.132   3.081
 4344SOL    HW113931   2.275   5.119   3.124
 4344SOL    HW213932   2.123   5.061   3.112
 4345SOL     OW13933   1.974   2.974   5.738
 4345SOL    HW113934   1.876   2.984   5.723
 4345SOL    HW213935   2.021   2.970   5.650
 4346SOL     OW13936   2.061   3.187   1.785
 4346SOL    HW113937   2.081   3.091   1.767
 4346SOL    HW213938   2.117   3.244   1.725
 4347SOL     OW13939   6.474   1.087   1.708
 4347SOL    HW113940   6.391   1.125   1.750
 4347SOL    HW213941   6.471   1.100   1.609
 4348SOL     OW13942   0.185   3.170   2.634
 4348SOL    HW113943   0.194   3.113   2.716
 4348SOL    HW213944   0.228   3.259   2.651
 4349SOL     OW13945   0.001   1.812   3.094
 4349SOL    HW113946   7.004   1.904   3.058
 4349SOL    HW213947   0.097   1.806   3.121
 4350SOL     OW13948   5.225   1.983   4.252
 4350SOL    HW113949   5.152   1.979   4.184
 4350SOL    HW213950   5.186   2.005   4.341
 4351SOL     OW13951   1.938   6.362   0.853
 4351SOL    HW113952   1.884   6.291   0.810
 4351SOL    HW213953   1.886   6.448   0.856
 4352SOL     OW13954   0.920   2.308   1.564
 4352SOL    HW113955   0.974   2.228   1.540
 4352SOL    HW213956   0.965   2.359   1.637
 4353SOL     OW13957   2.976   4.810   0.737
 4353SOL    HW113958   2.997   4.739   0.805
 4353SOL    HW213959   2.914   4.772   0.669
 4354SOL     OW13960   2.084   6.562   5.873
 4354SOL    HW113961   2.071   6.463   5.875
 4354SOL    HW213962   2.006   6.605   5.826
 4355SOL     OW13963   3.373   0.053   2.043
 4355SOL    HW113964   3.303   7.006   2.062
 4355SOL    HW213965   3.449   0.009   1.995
 4356SOL     OW13966   4.852   4.000   1.874
 4356SOL    HW113967   4.944   4.016   1.839
 4356SOL    HW213968   4.789   3.988   1.798
 4357SOL     OW13969   6.403   0.009   6.890
 4357SOL    HW113970   6.372   6.983   6.807
 4357SOL    HW213971   6.463   6.970   6.942
 4358SOL     OW13972   6.706   6.160   0.492
 4358SOL    HW113973   6.726   6.143   0.588
 4358SOL    HW213974   6.677   6.075   0.448
 4359SOL     OW13975   1.311   2.010   5.101
 4359SOL    HW113976   1.337   2.061   5.183
 4359SOL    HW213977   1.392   1.985   5.049
 4360SOL     OW13978   1.704   3.211   3.056
 4360SOL    HW113979   1.609   3.227   3.031
 4360SOL    HW213980   1.760   3.203   2.973
 4361SOL     OW13981   2.997   2.704   1.761
 4361SOL    HW113982   2.971   2.619   1.807
 4361SOL    HW213983   3.028   2.684   1.668
 4362SOL     OW13984   6.273   4.076   5.037
 4362SOL    HW113985   6.352   4.125   5.000
 4362SOL    HW213986   6.202   4.142   5.062
 4363SOL     OW13987   5.113   2.124   5.748
 4363SOL    HW113988   5.028   2.077   5.769
 4363SOL    HW213989   5.177   2.114   5.825
 4364SOL     OW13990   2.909   3.706   5.416
 4364SOL    HW113991   2.974   3.640   5.378
 4364SOL    HW213992   2.890   3.777   5.348
 4365SOL     OW13993   2.638   1.048   2.354
 4365SOL    HW113994   2.701   1.067   2.430
 4365SOL    HW213995   2.555   1.005   2.389
 4366SOL     OW13996   5.659   0.127   0.524
 4366SOL    HW113997   5.559   0.129   0.529
 4366SOL    HW213998   5.693   0.048   0.576
 4367SOL     OW13999   1.093   4.929   5.397
 4367SOL    HW114000   1.109   4.862   5.470
 4367SOL    HW214001   1.109   4.887   5.308
 4368SOL     OW14002   3.858   5.344   0.984
 4368SOL    HW114003   3.935   5.324   1.045
 4368SOL    HW214004   3.826   5.260   0.941
 4369SOL     OW14005   4.292   5.727   2.653
 4369SOL    HW114006   4.356   5.659   2.689
 4369SOL    HW214007   4.332   5.771   2.572
 4370SOL     OW14008   5.125   4.644   2.877
 4370SOL    HW114009   5.059   4.662   2.951
 4370SOL    HW214010   5.216   4.632   2.916
 4371SOL     OW14011   6.521   0.330   1.726
 4371SOL    HW114012   6.613   0.338   1.766
 4371SOL    HW214013   6.458   0.295   1.795
 4372SOL     OW14014   4.269   1.292   2.438
 4372SOL    HW114015   4.174   1.320   2.455
 4372SOL    HW214016   4.330   1.343   2.498
 4373SOL     OW14017   0.304   3.143   6.702
 4373SOL    HW114018   0.215   3.179   6.672
 4373SOL    HW214019   0.368   3.145   6.625
 4374SOL     OW14020   0.977   1.801   1.636
 4374SOL    HW114021   0.931   1.795   1.724
 4374SOL    HW214022   1.011   1.894   1.622
 4375SOL     OW14023   2.779   0.182   4.092
 4375SOL    HW114024   2.855   0.216   4.147
 4375SOL    HW214025   2.784   0.082   4.087
 4376SOL     OW14026   0.174   0.338   2.221
 4376SOL    HW114027   0.152   0.299   2.310
 4376SOL    HW214028   0.163   0.268   2.150
 4377SOL     OW14029   6.120   3.943   0.723
 4377SOL    HW114030   6.023   3.935   0.700
 4377SOL    HW214031   6.143   3.877   0.794
 4378SOL     OW14032   1.681   1.342   3.115
 4378SOL    HW114033   1.634   1.259   3.145
 4378SOL    HW214034   1.769   1.350   3.163
 4379SOL     OW14035   3.103   1.352   4.012
 4379SOL    HW114036   3.081   1.449   4.001
 4379SOL    HW214037   3.030   1.306   4.061
 4380SOL     OW14038   1.153   0.274   1.905
 4380SOL    HW114039   1.145   0.210   1.828
 4380SOL    HW214040   1.214   0.349   1.879
 4381SOL     OW14041   1.369   5.588   4.872
 4381SOL    HW114042   1.412   5.560   4.957
 4381SOL    HW214043   1.360   5.687   4.870
 4382SOL     OW14044   6.837   3.269   6.009
 4382SOL    HW114045   6.835   3.334   5.933
 4382SOL    HW214046   6.870   3.181   5.977
 4383SOL     OW14047   6.324   3.998   6.376
 4383SOL    HW114048   6.242   4.021   6.324
 4383SOL    HW214049   6.362   3.911   6.343
 4384SOL     OW14050   5.909   0.782   3.340
 4384SOL    HW114051   5.934   0.878   3.339
 4384SOL    HW214052   5.886   0.755   3.434
 4385SOL     OW14053   4.401   2.320   5.067
 4385SOL    HW114054   4.312   2.364   5.055
 4385SOL    HW214055   4.401   2.269   5.154
 4386SOL     OW14056   1.462   3.658   5.010
 4386SOL    HW114057   1.395   3.587   5.034
 4386SOL    HW214058   1.544   3.646   5.067
 4387SOL     OW14059   6.579   2.845   1.754
 4387SOL    HW114060   6.617   2.766   1.705
 4387SOL    HW214061   6.549   2.817   1.845
 4388SOL     OW14062   4.845   2.244   6.104
 4388SOL    HW114063   4.893   2.287   6.028
 4388SOL    HW214064   4.798   2.314   6.158
 4389SOL     OW14065   6.602   3.487   1.133
 4389SOL    HW114066   6.585   3.562   1.197
 4389SOL    HW214067   6.675   3.429   1.169
 4390SOL     OW14068   4.501   6.806   1.158
 4390SOL    HW114069   4.559   6.858   1.220
 4390SOL    HW214070   4.487   6.859   1.074
 4391SOL     OW14071   2.759   4.813   6.009
 4391SOL    HW114072   2.766   4.868   6.092
 4391SOL    HW214073   2.662   4.799   5.987
 4392SOL     OW14074   0.750   1.661   4.720
 4392SOL    HW114075   0.688   1.666   4.799
 4392SOL    HW214076   0.791   1.751   4.705
 4393SOL     OW14077   6.052   0.920   1.812
 4393SOL    HW114078   6.010   1.009   1.794
 4393SOL    HW214079   6.141   0.914   1.766
 4394SOL     OW14080   1.226   6.370   1.576
 4394SOL    HW114081   1.248   6.342   1.483
 4394SOL    HW214082   1.185   6.461   1.576
 4395SOL     OW14083   1.634   0.446   1.364
 4395SOL    HW114084   1.635   0.499   1.449
 4395SOL    HW214085   1.686   0.495   1.294
 4396SOL     OW14086   1.652   1.764   3.730
 4396SOL    HW114087   1.751   1.772   3.723
 4396SOL    HW214088   1.630   1.694   3.798
 4397SOL     OW14089   1.788   2.974   4.564
 4397SOL    HW114090   1.834   2.923   4.492
 4397SOL    HW214091   1.718   3.033   4.524
 4398SOL     OW14092   1.836   3.559   6.558
 4398SOL    HW114093   1.780   3.639   6.539
 4398SOL    HW214094   1.808   3.484   6.497
 4399SOL     OW14095   2.139   6.262   1.977
 4399SOL    HW114096   2.222   6.208   1.962
 4399SOL    HW214097   2.096   6.236   2.063
 4400SOL     OW14098   2.176   6.830   3.831
 4400SOL    HW114099   2.155   6.736   3.857
 4400SOL    HW214100   2.261   6.832   3.778
 4401SOL     OW14101   4.098   6.286   4.978
 4401SOL    HW114102   4.009   6.330   4.967
 4401SOL    HW214103   4.099   6.234   5.064
 4402SOL     OW14104   0.747   0.700   2.306
 4402SOL    HW114105   0.650   0.682   2.288
 4402SOL    HW214106   0.793   0.727   2.221
 4403SOL     OW14107   1.050   6.176   0.821
 4403SOL    HW114108   0.988   6.152   0.896
 4403SOL    HW214109   1.047   6.275   0.807
 4404SOL     OW14110   1.106   5.931   5.471
 4404SOL    HW114111   1.190   5.878   5.472
 4404SOL    HW214112   1.095   5.979   5.557
 4405SOL     OW14113   2.570   4.767   2.929
 4405SOL    HW114114   2.474   4.775   2.955
 4405SOL    HW214115   2.581   4.690   2.865
 4406SOL     OW14116   6.816   3.367   1.295
 4406SOL    HW114117   6.798   3.367   1.393
 4406SOL    HW214118   6.915   3.356   1.280
 4407SOL     OW14119   0.175   5.420   1.205
 4407SOL    HW114120   0.242   5.470   1.260
 4407SOL    HW214121   0.173   5.324   1.233
 4408SOL     OW14122   3.005   6.052   6.854
 4408SOL    HW114123   3.078   6.093   6.909
 4408SOL    HW214124   2.953   6.124   6.808
 4409SOL     OW14125   4.156   0.998   1.529
 4409SOL    HW114126   4.171   0.977   1.433
 4409SOL    HW214127   4.182   1.093   1.547
 4410SOL     OW14128   0.088   5.656   0.696
 4410SOL    HW114129   0.064   5.662   0.599
 4410SOL    HW214130   0.171   5.708   0.713
 4411SOL     OW14131   3.697   4.718   5.332
 4411SOL    HW114132   3.601   4.694   5.317
 4411SOL    HW214133   3.705   4.772   5.415
 4412SOL     OW14134   4.991   6.406   4.242
 4412SOL    HW114135   5.040   6.449   4.167
 4412SOL    HW214136   5.038   6.321   4.268
 4413SOL     OW14137   4.633   6.212   4.089
 4413SOL    HW114138   4.617   6.302   4.050
 4413SOL    HW214139   4.591   6.207   4.180
 4414SOL     OW14140   4.572   5.519   1.757
 4414SOL    HW114141   4.603   5.446   1.696
 4414SOL    HW214142   4.567   5.483   1.850
 4415SOL     OW14143   3.635   3.660   0.758
 4415SOL    HW114144   3.593   3.585   0.809
 4415SOL    HW214145   3.729   3.673   0.789
 4416SOL     OW14146   4.005   1.267   3.964
 4416SOL    HW114147   4.010   1.231   4.058
 4416SOL    HW214148   3.990   1.365   3.967
 4417SOL     OW14149   6.312   2.987   4.300
 4417SOL    HW114150   6.289   2.907   4.245
 4417SOL    HW214151   6.239   3.056   4.291
 4418SOL     OW14152   6.143   2.055   2.423
 4418SOL    HW114153   6.099   2.144   2.436
 4418SOL    HW214154   6.086   1.983   2.463
 4419SOL     OW14155   6.617   6.525   6.014
 4419SOL    HW114156   6.577   6.577   5.938
 4419SOL    HW214157   6.543   6.483   6.067
 4420SOL     OW14158   3.298   1.702   0.879
 4420SOL    HW114159   3.395   1.682   0.863
 4420SOL    HW214160   3.291   1.780   0.942
 4421SOL     OW14161   1.478   2.718   5.371
 4421SOL    HW114162   1.447   2.661   5.295
 4421SOL    HW214163   1.572   2.749   5.352
 4422SOL     OW14164   0.917   5.100   0.121
 4422SOL    HW114165   0.921   5.113   0.220
 4422SOL    HW214166   1.010   5.102   0.084
 4423SOL     OW14167   6.674   4.674   5.936
 4423SOL    HW114168   6.720   4.761   5.953
 4423SOL    HW214169   6.631   4.642   6.021
 4424SOL     OW14170   5.234   5.779   4.365
 4424SOL    HW114171   5.204   5.821   4.451
 4424SOL    HW214172   5.332   5.795   4.352
 4425SOL     OW14173   1.815   5.574   1.131
 4425SOL    HW114174   1.757   5.578   1.213
 4425SOL    HW214175   1.812   5.663   1.084
 4426SOL     OW14176   0.899   0.727   3.989
 4426SOL    HW114177   0.840   0.680   3.923
 4426SOL    HW214178   0.880   0.693   4.081
 4427SOL     OW14179   4.013   6.159   2.844
 4427SOL    HW114180   3.962   6.234   2.886
 4427SOL    HW214181   4.025   6.085   2.911
 4428SOL     OW14182   5.133   1.009   4.672
 4428SOL    HW114183   5.193   1.087   4.687
 4428SOL    HW214184   5.147   0.942   4.744
 4429SOL     OW14185   2.842   6.565   3.035
 4429SOL    HW114186   2.879   6.638   3.092
 4429SOL    HW214187   2.876   6.476   3.067
 4430SOL     OW14188   5.671   5.140   4.683
 4430SOL    HW114189   5.683   5.174   4.777
 4430SOL    HW214190   5.629   5.211   4.627
 4431SOL     OW14191   3.262   0.285   3.547
 4431SOL    HW114192   3.194   0.338   3.598
 4431SOL    HW214193   3.299   0.214   3.608
 4432SOL     OW14194   2.160   3.337   6.470
 4432SOL    HW114195   2.138   3.393   6.390
 4432SOL    HW214196   2.258   3.319   6.473
 4433SOL     OW14197   0.486   2.286   4.330
 4433SOL    HW114198   0.488   2.320   4.236
 4433SOL    HW214199   0.526   2.194   4.333
 4434SOL     OW14200   5.705   1.600   1.971
 4434SOL    HW114201   5.623   1.656   1.954
 4434SOL    HW214202   5.776   1.657   2.012
 4435SOL     OW14203   3.983   3.776   0.619
 4435SOL    HW114204   4.073   3.805   0.652
 4435SOL    HW214205   3.993   3.734   0.528
 4436SOL     OW14206   3.824   1.848   1.266
 4436SOL    HW114207   3.751   1.916   1.269
 4436SOL    HW214208   3.858   1.830   1.359
 4437SOL     OW14209   0.328   3.422   2.704
 4437SOL    HW114210   0.337   3.521   2.693
 4437SOL    HW214211   0.365   3.395   2.793
 4438SOL     OW14212   4.599   0.204   5.576
 4438SOL    HW114213   4.615   0.303   5.582
 4438SOL    HW214214   4.620   0.172   5.484
 4439SOL     OW14215   1.077   5.190   2.926
 4439SOL    HW114216   0.977   5.184   2.928
 4439SOL    HW214217   1.113   5.178   3.018
 4440SOL     OW14218   2.838   4.285   1.253
 4440SOL    HW114219   2.848   4.232   1.170
 4440SOL    HW214220   2.743   4.279   1.286
 4441SOL     OW14221   0.054   1.670   0.683
 4441SOL    HW114222   0.084   1.731   0.610
 4441SOL    HW214223   0.126   1.603   0.702
 4442SOL     OW14224   1.122   5.341   5.760
 4442SOL    HW114225   1.137   5.373   5.667
 4442SOL    HW214226   1.033   5.296   5.766
 4443SOL     OW14227   0.562   4.609   6.436
 4443SOL    HW114228   0.590   4.626   6.342
 4443SOL    HW214229   0.643   4.600   6.494
 4444SOL     OW14230   4.532   3.929   0.355
 4444SOL    HW114231   4.498   3.838   0.381
 4444SOL    HW214232   4.607   3.919   0.290
 4445SOL     OW14233   1.417   5.251   0.221
 4445SOL    HW114234   1.455   5.268   0.130
 4445SOL    HW214235   1.375   5.334   0.256
 4446SOL     OW14236   5.506   1.718   0.198
 4446SOL    HW114237   5.583   1.659   0.221
 4446SOL    HW214238   5.420   1.667   0.206
 4447SOL     OW14239   6.013   4.518   5.397
 4447SOL    HW114240   6.021   4.586   5.470
 4447SOL    HW214241   5.995   4.565   5.310
 4448SOL     OW14242   2.949   6.980   1.180
 4448SOL    HW114243   2.912   6.965   1.272
 4448SOL    HW214244   2.879   0.003   1.123
 4449SOL     OW14245   4.430   0.867   6.534
 4449SOL    HW114246   4.428   0.935   6.460
 4449SOL    HW214247   4.337   0.835   6.551
 4450SOL     OW14248   3.333   1.741   0.153
 4450SOL    HW114249   3.331   1.684   0.235
 4450SOL    HW214250   3.240   1.766   0.127
 4451SOL     OW14251   4.788   4.756   4.296
 4451SOL    HW114252   4.809   4.840   4.246
 4451SOL    HW214253   4.756   4.686   4.232
 4452SOL     OW14254   6.026   6.087   4.398
 4452SOL    HW114255   6.041   5.995   4.360
 4452SOL    HW214256   6.101   6.147   4.369
 4453SOL     OW14257   1.085   2.879   1.673
 4453SOL    HW114258   1.121   2.788   1.694
 4453SOL    HW214259   1.101   2.940   1.751
 4454SOL     OW14260   0.329   1.465   6.870
 4454SOL    HW114261   0.413   1.474   6.924
 4454SOL    HW214262   0.298   1.370   6.872
 4455SOL     OW14263   5.751   5.485   5.172
 4455SOL    HW114264   5.665   5.482   5.223
 4455SOL    HW214265   5.732   5.512   5.078
 4456SOL     OW14266   2.263   6.175   3.550
 4456SOL    HW114267   2.267   6.126   3.637
 4456SOL    HW214268   2.297   6.116   3.476
 4457SOL     OW14269   1.814   2.039   4.933
 4457SOL    HW114270   1.800   1.941   4.943
 4457SOL    HW214271   1.843   2.078   5.020
 4458SOL     OW14272   2.034   3.490   1.455
 4458SOL    HW114273   2.004   3.584   1.445
 4458SOL    HW214274   2.096   3.482   1.533
 4459SOL     OW14275   2.106   1.810   4.234
 4459SOL    HW114276   2.130   1.749   4.159
 4459SOL    HW214277   2.096   1.757   4.319
 4460SOL     OW14278   0.552   3.494   4.737
 4460SOL    HW114279   0.585   3.401   4.724
 4460SOL    HW214280   0.582   3.528   4.826
 4461SOL     OW14281   1.768   0.840   1.276
 4461SOL    HW114282   1.816   0.752   1.269
 4461SOL    HW214283   1.709   0.852   1.196
 4462SOL     OW14284   6.089   4.151   2.367
 4462SOL    HW114285   6.119   4.181   2.276
 4462SOL    HW214286   6.016   4.083   2.357
 4463SOL     OW14287   4.946   1.451   1.113
 4463SOL    HW114288   5.034   1.469   1.157
 4463SOL    HW214289   4.891   1.392   1.172
 4464SOL     OW14290   0.798   5.736   0.160
 4464SOL    HW114291   0.802   5.741   0.060
 4464SOL    HW214292   0.748   5.654   0.187
 4465SOL     OW14293   2.853   5.333   0.292
 4465SOL    HW114294   2.919   5.408   0.293
 4465SOL    HW214295   2.761   5.370   0.302
 4466SOL     OW14296   1.850   2.192   3.140
 4466SOL    HW114297   1.782   2.123   3.162
 4466SOL    HW214298   1.808   2.264   3.085
 4467SOL     OW14299   2.550   5.824   3.811
 4467SOL    HW114300   2.636   5.837   3.763
 4467SOL    HW214301   2.498   5.750   3.768
 4468SOL     OW14302   1.012   3.785   0.922
 4468SOL    HW114303   0.927   3.800   0.973
 4468SOL    HW214304   1.083   3.844   0.959
 4469SOL     OW14305   2.379   0.802   1.368
 4469SOL    HW114306   2.295   0.803   1.423
 4469SOL    HW214307   2.457   0.785   1.427
 4470SOL     OW14308   0.658   1.049   2.166
 4470SOL    HW114309   0.586   0.981   2.150
 4470SOL    HW214310   0.674   1.057   2.264
 4471SOL     OW14311   2.017   3.099   6.456
 4471SOL    HW114312   2.088   3.169   6.460
 4471SOL    HW214313   2.019   3.046   6.541
 4472SOL     OW14314   1.384   2.633   0.960
 4472SOL    HW114315   1.368   2.559   1.024
 4472SOL    HW214316   1.307   2.640   0.896
 4473SOL     OW14317   6.479   2.926   3.788
 4473SOL    HW114318   6.533   2.877   3.719
 4473SOL    HW214319   6.538   2.953   3.863
 4474SOL     OW14320   2.829   0.691   1.746
 4474SOL    HW114321   2.791   0.599   1.742
 4474SOL    HW214322   2.755   0.758   1.754
 4475SOL     OW14323   0.954   3.744   1.896
 4475SOL    HW114324   0.884   3.693   1.846
 4475SOL    HW214325   0.991   3.686   1.969
 4476SOL     OW14326   5.976   1.258   4.259
 4476SOL    HW114327   5.935   1.284   4.346
 4476SOL    HW214328   5.938   1.314   4.186
 4477SOL     OW14329   1.708   0.279   5.060
 4477SOL    HW114330   1.675   0.368   5.093
 4477SOL    HW214331   1.681   0.207   5.123
 4478SOL     OW14332   1.133   0.363   1.480
 4478SOL    HW114333   1.183   0.278   1.498
 4478SOL    HW214334   1.156   0.430   1.551
 4479SOL     OW14335   1.021   1.462   0.309
 4479SOL    HW114336   1.038   1.518   0.391
 4479SOL    HW214337   0.933   1.416   0.319
 4480SOL     OW14338   0.773   4.321   4.745
 4480SOL    HW114339   0.745   4.225   4.756
 4480SOL    HW214340   0.758   4.370   4.831
 4481SOL     OW14341   2.384   5.681   5.280
 4481SOL    HW114342   2.313   5.644   5.339
 4481SOL    HW214343   2.465   5.623   5.283
 4482SOL     OW14344   2.650   3.953   6.087
 4482SOL    HW114345   2.612   3.869   6.124
 4482SOL    HW214346   2.597   4.031   6.121
 4483SOL     OW14347   0.557   2.632   1.834
 4483SOL    HW114348   0.605   2.612   1.748
 4483SOL    HW214349   0.465   2.663   1.813
 4484SOL     OW14350   2.507   3.015   0.335
 4484SOL    HW114351   2.446   3.010   0.414
 4484SOL    HW214352   2.518   3.110   0.306
 4485SOL     OW14353   4.660   2.426   5.141
 4485SOL    HW114354   4.568   2.388   5.130
 4485SOL    HW214355   4.712   2.369   5.205
 4486SOL     OW14356   5.731   4.963   5.695
 4486SOL    HW114357   5.780   4.880   5.722
 4486SOL    HW214358   5.664   4.987   5.766
 4487SOL     OW14359   1.853   2.641   6.532
 4487SOL    HW114360   1.835   2.700   6.454
 4487SOL    HW214361   1.950   2.620   6.537
 4488SOL     OW14362   1.179   3.562   3.865
 4488SOL    HW114363   1.159   3.641   3.806
 4488SOL    HW214364   1.183   3.479   3.809
 4489SOL     OW14365   5.082   5.202   5.451
 4489SOL    HW114366   5.123   5.113   5.432
 4489SOL    HW214367   4.991   5.190   5.490
 4490SOL     OW14368   5.694   2.039   1.159
 4490SOL    HW114369   5.771   2.097   1.133
 4490SOL    HW214370   5.650   2.076   1.241
 4491SOL     OW14371   0.657   3.589   3.056
 4491SOL    HW114372   0.649   3.558   3.150
 4491SOL    HW214373   0.694   3.682   3.054
 4492SOL     OW14374   6.002   1.234   1.689
 4492SOL    HW114375   5.935   1.293   1.734
 4492SOL    HW214376   5.974   1.218   1.594
 4493SOL     OW14377   5.719   6.447   4.479
 4493SOL    HW114378   5.722   6.486   4.572
 4493SOL    HW214379   5.664   6.507   4.420
 4494SOL     OW14380   0.693   1.107   5.676
 4494SOL    HW114381   0.771   1.052   5.644
 4494SOL    HW214382   0.611   1.049   5.679
 4495SOL     OW14383   3.792   6.745   2.695
 4495SOL    HW114384   3.760   6.707   2.782
 4495SOL    HW214385   3.821   6.671   2.635
 4496SOL     OW14386   4.756   6.073   6.896
 4496SOL    HW114387   4.732   6.005   6.827
 4496SOL    HW214388   4.856   6.086   6.897
 4497SOL     OW14389   4.240   2.367   0.129
 4497SOL    HW114390   4.162   2.352   0.190
 4497SOL    HW214391   4.256   2.284   0.076
 4498SOL     OW14392   6.834   5.301   6.554
 4498SOL    HW114393   6.778   5.247   6.491
 4498SOL    HW214394   6.849   5.248   6.638
 4499SOL     OW14395   6.272   1.679   3.484
 4499SOL    HW114396   6.196   1.721   3.435
 4499SOL    HW214397   6.346   1.659   3.421
 4500SOL     OW14398   4.309   4.544   6.500
 4500SOL    HW114399   4.235   4.502   6.552
 4500SOL    HW214400   4.342   4.625   6.549
 4501SOL     OW14401   5.983   2.568   2.230
 4501SOL    HW114402   6.048   2.566   2.154
 4501SOL    HW214403   5.953   2.475   2.251
 4502SOL     OW14404   0.754   3.865   0.135
 4502SOL    HW114405   0.704   3.793   0.087
 4502SOL    HW214406   0.783   3.935   0.070
 4503SOL     OW14407   2.832   0.199   2.178
 4503SOL    HW114408   2.925   0.164   2.164
 4503SOL    HW214409   2.828   0.294   2.149
 4504SOL     OW14410   6.596   2.179   3.987
 4504SOL    HW114411   6.587   2.093   4.039
 4504SOL    HW214412   6.664   2.167   3.915
 4505SOL     OW14413   6.807   4.147   2.434
 4505SOL    HW114414   6.897   4.115   2.403
 4505SOL    HW214415   6.804   4.146   2.534
 4506SOL     OW14416   5.520   3.184   3.883
 4506SOL    HW114417   5.440   3.169   3.941
 4506SOL    HW214418   5.505   3.143   3.794
 4507SOL     OW14419   6.881   3.185   3.499
 4507SOL    HW114420   6.798   3.138   3.471
 4507SOL    HW214421   6.948   3.183   3.425
 4508SOL     OW14422   1.193   4.358   0.237
 4508SOL    HW114423   1.247   4.371   0.320
 4508SOL    HW214424   1.177   4.447   0.194
 4509SOL     OW14425   4.878   1.982   2.594
 4509SOL    HW114426   4.872   2.082   2.590
 4509SOL    HW214427   4.936   1.949   2.520
 4510SOL     OW14428   4.315   1.639   4.159
 4510SOL    HW114429   4.308   1.725   4.210
 4510SOL    HW214430   4.224   1.610   4.130
 4511SOL     OW14431   6.818   3.799   1.236
 4511SOL    HW114432   6.860   3.718   1.193
 4511SOL    HW214433   6.801   3.780   1.332
 4512SOL     OW14434   2.976   2.089   5.972
 4512SOL    HW114435   2.966   2.188   5.958
 4512SOL    HW214436   3.073   2.066   5.975
 4513SOL     OW14437   0.514   5.962   6.621
 4513SOL    HW114438   0.553   6.048   6.654
 4513SOL    HW214439   0.431   5.941   6.674
 4514SOL     OW14440   3.635   3.157   6.876
 4514SOL    HW114441   3.595   3.246   6.854
 4514SOL    HW214442   3.689   3.164   6.960
 4515SOL     OW14443   5.622   1.230   4.567
 4515SOL    HW114444   5.692   1.171   4.609
 4515SOL    HW214445   5.541   1.176   4.546
 4516SOL     OW14446   3.053   1.012   5.717
 4516SOL    HW114447   2.955   1.025   5.731
 4516SOL    HW214448   3.098   0.997   5.805
 4517SOL     OW14449   4.468   6.823   6.846
 4517SOL    HW114450   4.409   6.816   6.926
 4517SOL    HW214451   4.445   6.906   6.795
 4518SOL     OW14452   1.216   6.913   1.219
 4518SOL    HW114453   1.255   6.865   1.297
 4518SOL    HW214454   1.289   6.935   1.153
 4519SOL     OW14455   4.989   6.747   0.016
 4519SOL    HW114456   4.918   6.721   6.973
 4519SOL    HW214457   5.053   6.671   0.029
 4520SOL     OW14458   4.333   5.914   5.331
 4520SOL    HW114459   4.304   5.874   5.244
 4520SOL    HW214460   4.295   6.007   5.339
 4521SOL     OW14461   5.123   1.798   4.779
 4521SOL    HW114462   5.186   1.862   4.822
 4521SOL    HW214463   5.042   1.847   4.746
 4522SOL     OW14464   5.506   3.878   3.420
 4522SOL    HW114465   5.448   3.944   3.372
 4522SOL    HW214466   5.483   3.785   3.389
 4523SOL     OW14467   1.089   3.695   6.731
 4523SOL    HW114468   1.113   3.791   6.747
 4523SOL    HW214469   0.993   3.688   6.706
 4524SOL     OW14470   0.093   3.956   2.100
 4524SOL    HW114471   7.015   3.957   2.112
 4524SOL    HW214472   0.131   3.876   2.147
 4525SOL     OW14473   2.508   2.243   5.587
 4525SOL    HW114474   2.507   2.343   5.597
 4525SOL    HW214475   2.504   2.220   5.490
 4526SOL     OW14476   0.179   0.794   6.299
 4526SOL    HW114477   0.145   0.719   6.243
 4526SOL    HW214478   0.258   0.763   6.351
 4527SOL     OW14479   6.970   0.363   2.739
 4527SOL    HW114480   6.895   0.296   2.743
 4527SOL    HW214481   0.002   0.349   2.656
 4528SOL     OW14482   3.980   0.358   6.391
 4528SOL    HW114483   3.893   0.387   6.431
 4528SOL    HW214484   4.055   0.381   6.452
 4529SOL     OW14485   2.842   1.271   6.379
 4529SOL    HW114486   2.814   1.225   6.294
 4529SOL    HW214487   2.942   1.270   6.386
 4530SOL     OW14488   2.369   6.139   4.745
 4530SOL    HW114489   2.292   6.112   4.803
 4530SOL    HW214490   2.342   6.217   4.688
 4531SOL     OW14491   1.398   4.314   6.588
 4531SOL    HW114492   1.394   4.231   6.534
 4531SOL    HW214493   1.348   4.387   6.540
 4532SOL     OW14494   5.008   0.733   2.636
 4532SOL    HW114495   5.048   0.684   2.713
 4532SOL    HW214496   5.071   0.730   2.558
 4533SOL     OW14497   1.559   1.043   2.981
 4533SOL    HW114498   1.490   1.113   2.962
 4533SOL    HW214499   1.528   0.955   2.945
 4534SOL     OW14500   4.230   1.910   5.209
 4534SOL    HW114501   4.314   1.857   5.198
 4534SOL    HW214502   4.160   1.875   5.146
 4535SOL     OW14503   3.548   1.644   1.187
 4535SOL    HW114504   3.521   1.696   1.268
 4535SOL    HW214505   3.556   1.705   1.109
 4536SOL     OW14506   2.313   1.767   5.692
 4536SOL    HW114507   2.407   1.791   5.715
 4536SOL    HW214508   2.269   1.845   5.647
 4537SOL     OW14509   4.032   3.808   3.440
 4537SOL    HW114510   4.004   3.901   3.416
 4537SOL    HW214511   4.080   3.766   3.363
 4538SOL     OW14512   0.949   2.405   1.955
 4538SOL    HW114513   1.007   2.485   1.947
 4538SOL    HW214514   1.004   2.322   1.944
 4539SOL     OW14515   2.542   5.368   4.580
 4539SOL    HW114516   2.446   5.377   4.552
 4539SOL    HW214517   2.556   5.412   4.668
 4540SOL     OW14518   0.977   0.564   0.875
 4540SOL    HW114519   1.045   0.598   0.940
 4540SOL    HW214520   0.885   0.582   0.911
 4541SOL     OW14521   4.481   1.812   6.658
 4541SOL    HW114522   4.474   1.729   6.713
 4541SOL    HW214523   4.539   1.878   6.706
 4542SOL     OW14524   6.967   2.757   1.095
 4542SOL    HW114525   6.969   2.822   1.020
 4542SOL    HW214526   0.036   2.714   1.105
 4543SOL     OW14527   4.406   2.081   0.806
 4543SOL    HW114528   4.439   2.137   0.730
 4543SOL    HW214529   4.484   2.048   0.859
 4544SOL     OW14530   4.684   4.843   1.251
 4544SOL    HW114531   4.715   4.755   1.287
 4544SOL    HW214532   4.730   4.917   1.301
 4545SOL     OW14533   0.575   4.325   5.330
 4545SOL    HW114534   0.614   4.267   5.258
 4545SOL    HW214535   0.491   4.367   5.296
 4546SOL     OW14536   2.750   0.833   5.949
 4546SOL    HW114537   2.796   0.865   6.032
 4546SOL    HW214538   2.778   0.889   5.871
 4547SOL     OW14539   6.445   0.524   7.014
 4547SOL    HW114540   6.532   0.572   7.006
 4547SOL    HW214541   6.459   0.426   7.003
 4548SOL     OW14542   2.541   2.590   3.176
 4548SOL    HW114543   2.493   2.506   3.150
 4548SOL    HW214544   2.485   2.669   3.151
 4549SOL     OW14545   5.124   4.598   2.431
 4549SOL    HW114546   5.051   4.595   2.499
 4549SOL    HW214547   5.118   4.517   2.373
 4550SOL     OW14548   0.808   4.397   3.377
 4550SOL    HW114549   0.876   4.455   3.422
 4550SOL    HW214550   0.751   4.353   3.447
 4551SOL     OW14551   1.006   4.187   5.020
 4551SOL    HW114552   0.909   4.174   5.042
 4551SOL    HW214553   1.041   4.105   4.975
 4552SOL     OW14554   5.895   1.773   2.065
 4552SOL    HW114555   5.968   1.809   2.006
 4552SOL    HW214556   5.857   1.848   2.120
 4553SOL     OW14557   5.171   4.357   6.752
 4553SOL    HW114558   5.098   4.406   6.704
 4553SOL    HW214559   5.249   4.417   6.764
 4554SOL     OW14560   0.266   6.128   0.993
 4554SOL    HW114561   0.322   6.095   1.069
 4554SOL    HW214562   0.229   6.049   0.942
 4555SOL     OW14563   1.032   0.767   6.523
 4555SOL    HW114564   1.074   0.716   6.448
 4555SOL    HW214565   0.987   0.848   6.487
 4556SOL     OW14566   6.059   3.166   5.545
 4556SOL    HW114567   5.965   3.133   5.560
 4556SOL    HW214568   6.073   3.250   5.597
 4557SOL     OW14569   6.031   5.014   5.111
 4557SOL    HW114570   6.067   4.942   5.052
 4557SOL    HW214571   6.018   4.979   5.203
 4558SOL     OW14572   6.714   3.215   4.959
 4558SOL    HW114573   6.766   3.201   5.042
 4558SOL    HW214574   6.762   3.279   4.899
 4559SOL     OW14575   0.245   3.007   2.861
 4559SOL    HW114576   0.255   2.909   2.848
 4559SOL    HW214577   0.176   3.025   2.932
 4560SOL     OW14578   6.373   4.146   2.359
 4560SOL    HW114579   6.291   4.100   2.392
 4560SOL    HW214580   6.372   4.149   2.259
 4561SOL     OW14581   3.429   1.973   3.935
 4561SOL    HW114582   3.415   1.911   4.012
 4561SOL    HW214583   3.512   1.948   3.887
 4562SOL     OW14584   2.453   6.322   0.601
 4562SOL    HW114585   2.358   6.312   0.630
 4562SOL    HW214586   2.514   6.287   0.672
 4563SOL     OW14587   6.751   3.411   1.599
 4563SOL    HW114588   6.734   3.494   1.651
 4563SOL    HW214589   6.841   3.375   1.622
 4564SOL     OW14590   6.670   4.449   2.085
 4564SOL    HW114591   6.634   4.523   2.142
 4564SOL    HW214592   6.728   4.488   2.013
 4565SOL     OW14593   1.611   0.827   4.512
 4565SOL    HW114594   1.682   0.767   4.476
 4565SOL    HW214595   1.616   0.829   4.612
 4566SOL     OW14596   0.438   3.836   1.334
 4566SOL    HW114597   0.472   3.876   1.249
 4566SOL    HW214598   0.369   3.896   1.374
 4567SOL     OW14599   6.888   0.507   0.031
 4567SOL    HW114600   6.841   0.453   6.983
 4567SOL    HW214601   6.957   0.565   7.010
 4568SOL     OW14602   0.663   4.056   4.827
 4568SOL    HW114603   0.683   3.984   4.759
 4568SOL    HW214604   0.573   4.094   4.808
 4569SOL     OW14605   3.155   0.906   2.784
 4569SOL    HW114606   3.174   0.904   2.882
 4569SOL    HW214607   3.225   0.961   2.738
 4570SOL     OW14608   6.252   6.098   1.809
 4570SOL    HW114609   6.233   6.001   1.826
 4570SOL    HW214610   6.327   6.128   1.867
 4571SOL     OW14611   5.045   2.750   6.420
 4571SOL    HW114612   5.136   2.752   6.463
 4571SOL    HW214613   5.046   2.687   6.343
 4572SOL     OW14614   2.733   2.242   6.395
 4572SOL    HW114615   2.719   2.297   6.313
 4572SOL    HW214616   2.686   2.154   6.384
 4573SOL     OW14617   1.006   6.798   0.759
 4573SOL    HW114618   0.927   6.740   0.740
 4573SOL    HW214619   1.032   6.849   0.677
 4574SOL     OW14620   6.138   4.165   6.928
 4574SOL    HW114621   6.233   4.133   6.922
 4574SOL    HW214622   6.115   4.185   0.001
 4575SOL     OW14623   6.130   0.965   3.917
 4575SOL    HW114624   6.124   1.054   3.963
 4575SOL    HW214625   6.210   0.916   3.951
 4576SOL     OW14626   2.653   4.831   5.123
 4576SOL    HW114627   2.599   4.877   5.052
 4576SOL    HW214628   2.705   4.757   5.081
 4577SOL     OW14629   1.223   2.460   2.654
 4577SOL    HW114630   1.197   2.369   2.687
 4577SOL    HW214631   1.269   2.510   2.727
 4578SOL     OW14632   0.150   0.674   3.361
 4578SOL    HW114633   0.182   0.583   3.335
 4578SOL    HW214634   0.221   0.741   3.341
 4579SOL     OW14635   4.471   1.065   1.634
 4579SOL    HW114636   4.533   1.056   1.712
 4579SOL    HW214637   4.498   1.000   1.562
 4580SOL     OW14638   5.448   4.257   0.540
 4580SOL    HW114639   5.475   4.226   0.631
 4580SOL    HW214640   5.520   4.234   0.474
 4581SOL     OW14641   2.756   6.492   2.308
 4581SOL    HW114642   2.740   6.412   2.366
 4581SOL    HW214643   2.681   6.557   2.318
 4582SOL     OW14644   4.661   0.565   2.968
 4582SOL    HW114645   4.595   0.614   3.024
 4582SOL    HW214646   4.624   0.552   2.876
 4583SOL     OW14647   2.035   0.996   6.063
 4583SOL    HW114648   1.980   1.077   6.087
 4583SOL    HW214649   1.980   0.933   6.009
 4584SOL     OW14650   1.864   7.003   5.584
 4584SOL    HW114651   1.906   0.072   5.569
 4584SOL    HW214652   1.895   6.966   5.672
 4585SOL     OW14653   1.505   3.742   3.422
 4585SOL    HW114654   1.512   3.800   3.503
 4585SOL    HW214655   1.573   3.668   3.428
 4586SOL     OW14656   4.962   4.431   0.521
 4586SOL    HW114657   4.920   4.371   0.453
 4586SOL    HW214658   4.924   4.413   0.611
 4587SOL     OW14659   3.353   3.373   5.008
 4587SOL    HW114660   3.395   3.395   5.096
 4587SOL    HW214661   3.318   3.457   4.966
 4588SOL     OW14662   3.243   3.404   5.848
 4588SOL    HW114663   3.247   3.455   5.763
 4588SOL    HW214664   3.260   3.307   5.829
 4589SOL     OW14665   5.971   5.556   2.046
 4589SOL    HW114666   5.885   5.540   2.095
 4589SOL    HW214667   5.957   5.626   1.976
 4590SOL     OW14668   3.653   5.866   2.131
 4590SOL    HW114669   3.601   5.951   2.127
 4590SOL    HW214670   3.592   5.788   2.117
 4591SOL     OW14671   2.557   0.773   5.257
 4591SOL    HW114672   2.506   0.778   5.343
 4591SOL    HW214673   2.589   0.865   5.233
 4592SOL     OW14674   2.735   1.671   3.516
 4592SOL    HW114675   2.679   1.588   3.517
 4592SOL    HW214676   2.720   1.723   3.599
 4593SOL     OW14677   6.718   5.871   2.448
 4593SOL    HW114678   6.760   5.903   2.363
 4593SOL    HW214679   6.778   5.890   2.525
 4594SOL     OW14680   2.687   6.968   2.977
 4594SOL    HW114681   2.716   0.042   2.978
 4594SOL    HW214682   2.684   6.935   2.883
 4595SOL     OW14683   4.819   2.170   5.557
 4595SOL    HW114684   4.873   2.234   5.611
 4595SOL    HW214685   4.750   2.126   5.615
 4596SOL     OW14686   0.357   1.252   1.779
 4596SOL    HW114687   0.270   1.202   1.777
 4596SOL    HW214688   0.381   1.273   1.874
 4597SOL     OW14689   2.199   5.205   6.654
 4597SOL    HW114690   2.194   5.243   6.747
 4597SOL    HW214691   2.113   5.157   6.633
 4598SOL     OW14692   2.190   5.324   6.914
 4598SOL    HW114693   2.244   5.315   6.997
 4598SOL    HW214694   2.121   5.251   6.911
 4599SOL     OW14695   1.724   3.351   1.950
 4599SOL    HW114696   1.726   3.273   1.888
 4599SOL    HW214697   1.808   3.405   1.941
 4600SOL     OW14698   0.279   6.996   6.331
 4600SOL    HW114699   0.290   6.924   6.399
 4600SOL    HW214700   0.346   6.983   6.258
 4601SOL     OW14701   1.018   1.052   4.689
 4601SOL    HW114702   1.042   1.117   4.617
 4601SOL    HW214703   0.991   0.965   4.647
 4602SOL     OW14704   2.696   0.084   6.055
 4602SOL    HW114705   2.791   0.053   6.049
 4602SOL    HW214706   2.664   0.112   5.965
 4603SOL     OW14707   3.986   6.078   1.484
 4603SOL    HW114708   4.003   6.117   1.393
 4603SOL    HW214709   4.057   6.110   1.547
 4604SOL     OW14710   4.932   6.720   5.498
 4604SOL    HW114711   4.983   6.681   5.421
 4604SOL    HW214712   4.983   6.797   5.535
 4605SOL     OW14713   1.966   0.228   1.750
 4605SOL    HW114714   1.999   0.198   1.660
 4605SOL    HW214715   2.042   0.267   1.802
 4606SOL     OW14716   0.468   6.679   2.520
 4606SOL    HW114717   0.423   6.768   2.511
 4606SOL    HW214718   0.420   6.624   2.588
 4607SOL     OW14719   1.959   3.740   3.244
 4607SOL    HW114720   1.867   3.771   3.268
 4607SOL    HW214721   2.013   3.817   3.211
 4608SOL     OW14722   0.314   3.423   4.029
 4608SOL    HW114723   0.368   3.494   3.983
 4608SOL    HW214724   0.228   3.462   4.061
 4609SOL     OW14725   4.688   5.895   6.717
 4609SOL    HW114726   4.678   5.921   6.621
 4609SOL    HW214727   4.753   5.819   6.724
 4610SOL     OW14728   5.618   2.127   6.867
 4610SOL    HW114729   5.542   2.062   6.858
 4610SOL    HW214730   5.591   2.200   6.930
 4611SOL     OW14731   0.291   0.917   5.584
 4611SOL    HW114732   0.233   0.837   5.602
 4611SOL    HW214733   0.261   0.993   5.642
 4612SOL     OW14734   2.381   6.008   2.385
 4612SOL    HW114735   2.443   5.931   2.373
 4612SOL    HW214736   2.409   6.083   2.324
 4613SOL     OW14737   1.859   4.670   2.738
 4613SOL    HW114738   1.828   4.605   2.668
 4613SOL    HW214739   1.959   4.669   2.743
 4614SOL     OW14740   6.207   3.833   3.795
 4614SOL    HW114741   6.283   3.868   3.741
 4614SOL    HW214742   6.137   3.904   3.804
 4615SOL     OW14743   1.146   0.597   1.669
 4615SOL    HW114744   1.207   0.549   1.733
 4615SOL    HW214745   1.051   0.575   1.692
 4616SOL     OW14746   6.623   2.693   4.917
 4616SOL    HW114747   6.596   2.629   4.845
 4616SOL    HW214748   6.544   2.745   4.947
 4617SOL     OW14749   0.944   2.817   2.276
 4617SOL    HW114750   0.873   2.841   2.209
 4617SOL    HW214751   0.941   2.719   2.294
 4618SOL     OW14752   2.711   3.579   5.544
 4618SOL    HW114753   2.784   3.614   5.486
 4618SOL    HW214754   2.743   3.571   5.638
 4619SOL     OW14755   3.171   6.200   3.767
 4619SOL    HW114756   3.193   6.273   3.703
 4619SOL    HW214757   3.250   6.139   3.776
 4620SOL     OW14758   0.603   5.408   1.318
 4620SOL    HW114759   0.669   5.406   1.243
 4620SOL    HW214760   0.642   5.362   1.398
 4621SOL     OW14761   4.903   0.449   1.742
 4621SOL    HW114762   4.954   0.399   1.672
 4621SOL    HW214763   4.873   0.385   1.813
 4622SOL     OW14764   4.328   5.017   0.929
 4622SOL    HW114765   4.350   4.924   0.901
 4622SOL    HW214766   4.357   5.031   1.024
 4623SOL     OW14767   3.718   5.365   1.404
 4623SOL    HW114768   3.725   5.422   1.323
 4623SOL    HW214769   3.644   5.299   1.393
 4624SOL     OW14770   3.903   1.457   3.192
 4624SOL    HW114771   3.914   1.441   3.290
 4624SOL    HW214772   3.961   1.393   3.141
 4625SOL     OW14773   2.155   5.718   1.886
 4625SOL    HW114774   2.162   5.692   1.789
 4625SOL    HW214775   2.060   5.742   1.906
 4626SOL     OW14776   4.149   3.663   1.840
 4626SOL    HW114777   4.089   3.621   1.772
 4626SOL    HW214778   4.123   3.758   1.852
 4627SOL     OW14779   0.241   5.902   4.971
 4627SOL    HW114780   0.273   5.814   4.934
 4627SOL    HW214781   0.312   5.942   5.028
 4628SOL     OW14782   4.415   4.650   3.086
 4628SOL    HW114783   4.458   4.571   3.042
 4628SOL    HW214784   4.479   4.726   3.087
 4629SOL     OW14785   1.852   5.650   6.099
 4629SOL    HW114786   1.807   5.711   6.164
 4629SOL    HW214787   1.797   5.642   6.016
 4630SOL     OW14788   1.432   5.354   2.563
 4630SOL    HW114789   1.508   5.416   2.541
 4630SOL    HW214790   1.365   5.402   2.619
 4631SOL     OW14791   0.913   0.268   3.763
 4631SOL    HW114792   0.920   0.205   3.840
 4631SOL    HW214793   0.932   0.220   3.677
 4632SOL     OW14794   2.599   5.557   2.856
 4632SOL    HW114795   2.677   5.507   2.817
 4632SOL    HW214796   2.572   5.631   2.794
 4633SOL     OW14797   5.021   1.565   4.483
 4633SOL    HW114798   5.049   1.653   4.444
 4633SOL    HW214799   4.934   1.536   4.442
 4634SOL     OW14800   3.014   3.743   5.030
 4634SOL    HW114801   2.973   3.807   5.095
 4634SOL    HW214802   3.082   3.686   5.077
 4635SOL     OW14803   4.367   5.136   1.197
 4635SOL    HW114804   4.462   5.140   1.167
 4635SOL    HW214805   4.359   5.169   1.290
 4636SOL     OW14806   1.826   5.114   0.677
 4636SOL    HW114807   1.758   5.168   0.627
 4636SOL    HW214808   1.893   5.077   0.612
 4637SOL     OW14809   1.455   6.745   0.934
 4637SOL    HW114810   1.492   6.664   0.888
 4637SOL    HW214811   1.357   6.734   0.947
 4638SOL     OW14812   3.152   5.227   6.608
 4638SOL    HW114813   3.080   5.242   6.675
 4638SOL    HW214814   3.233   5.280   6.634
 4639SOL     OW14815   2.835   2.304   6.832
 4639SOL    HW114816   2.843   2.235   6.760
 4639SOL    HW214817   2.893   2.278   6.910
 4640SOL     OW14818   6.007   2.581   5.275
 4640SOL    HW114819   6.104   2.583   5.253
 4640SOL    HW214820   5.953   2.607   5.195
 4641SOL     OW14821   1.968   6.921   3.977
 4641SOL    HW114822   1.885   6.866   3.976
 4641SOL    HW214823   2.034   6.882   3.913
 4642SOL     OW14824   1.711   1.246   4.079
 4642SOL    HW114825   1.748   1.260   4.170
 4642SOL    HW214826   1.785   1.222   4.016
 4643SOL     OW14827   6.661   2.055   0.196
 4643SOL    HW114828   6.584   1.993   0.203
 4643SOL    HW214829   6.741   2.007   0.160
 4644SOL     OW14830   0.168   0.886   5.934
 4644SOL    HW114831   0.090   0.857   5.990
 4644SOL    HW214832   0.232   0.938   5.990
 4645SOL     OW14833   1.722   0.761   4.017
 4645SOL    HW114834   1.731   0.817   4.099
 4645SOL    HW214835   1.710   0.821   3.937
 4646SOL     OW14836   2.484   5.085   4.547
 4646SOL    HW114837   2.398   5.063   4.593
 4646SOL    HW214838   2.501   5.184   4.552
 4647SOL     OW14839   1.848   6.615   3.157
 4647SOL    HW114840   1.913   6.541   3.141
 4647SOL    HW214841   1.892   6.703   3.142
 4648SOL     OW14842   2.896   0.792   4.063
 4648SOL    HW114843   2.810   0.831   4.095
 4648SOL    HW214844   2.970   0.858   4.077
 4649SOL     OW14845   5.911   0.996   1.147
 4649SOL    HW114846   5.928   1.094   1.135
 4649SOL    HW214847   5.894   0.954   1.058
 4650SOL     OW14848   4.584   5.793   0.984
 4650SOL    HW114849   4.496   5.744   0.987
 4650SOL    HW214850   4.584   5.864   1.055
 4651SOL     OW14851   5.896   3.773   6.216
 4651SOL    HW114852   5.823   3.841   6.228
 4651SOL    HW214853   5.982   3.812   6.248
 4652SOL     OW14854   6.987   6.087   3.950
 4652SOL    HW114855   6.973   6.165   4.012
 4652SOL    HW214856   0.055   6.048   3.967
 4653SOL     OW14857   4.880   5.880   0.291
 4653SOL    HW114858   4.800   5.824   0.311
 4653SOL    HW214859   4.963   5.826   0.300
 4654SOL     OW14860   6.819   6.553   5.066
 4654SOL    HW114861   6.815   6.453   5.064
 4654SOL    HW214862   6.888   6.583   5.131
 4655SOL     OW14863   5.280   3.524   1.688
 4655SOL    HW114864   5.209   3.521   1.759
 4655SOL    HW214865   5.325   3.614   1.690
 4656SOL     OW14866   0.672   0.444   1.477
 4656SOL    HW114867   0.718   0.385   1.544
 4656SOL    HW214868   0.741   0.495   1.426
 4657SOL     OW14869   5.763   6.158   1.554
 4657SOL    HW114870   5.811   6.177   1.469
 4657SOL    HW214871   5.772   6.061   1.576
 4658SOL     OW14872   2.802   2.836   5.623
 4658SOL    HW114873   2.783   2.859   5.528
 4658SOL    HW214874   2.888   2.878   5.652
 4659SOL     OW14875   3.639   4.311   1.341
 4659SOL    HW114876   3.589   4.315   1.427
 4659SOL    HW214877   3.601   4.238   1.283
 4660SOL     OW14878   1.535   0.206   4.072
 4660SOL    HW114879   1.614   0.156   4.035
 4660SOL    HW214880   1.452   0.153   4.058
 4661SOL     OW14881   2.365   4.321   5.803
 4661SOL    HW114882   2.340   4.241   5.748
 4661SOL    HW214883   2.317   4.402   5.768
 4662SOL     OW14884   3.040   0.192   5.253
 4662SOL    HW114885   2.976   0.270   5.257
 4662SOL    HW214886   3.097   0.193   5.335
 4663SOL     OW14887   1.185   6.524   7.006
 4663SOL    HW114888   1.238   6.502   0.066
 4663SOL    HW214889   1.247   6.529   6.927
 4664SOL     OW14890   6.924   6.918   0.705
 4664SOL    HW114891   6.963   6.989   0.647
 4664SOL    HW214892   6.970   6.919   0.794
 4665SOL     OW14893   1.895   0.849   5.901
 4665SOL    HW114894   1.802   0.818   5.880
 4665SOL    HW214895   1.956   0.828   5.825
 4666SOL     OW14896   1.912   2.353   0.073
 4666SOL    HW114897   1.858   2.289   0.019
 4666SOL    HW214898   1.974   2.404   0.013
 4667SOL     OW14899   6.590   3.962   1.954
 4667SOL    HW114900   6.643   4.043   1.929
 4667SOL    HW214901   6.635   3.881   1.918
 4668SOL     OW14902   3.986   2.175   5.180
 4668SOL    HW114903   3.915   2.132   5.236
 4668SOL    HW214904   3.973   2.150   5.084
 4669SOL     OW14905   4.780   0.090   6.968
 4669SOL    HW114906   4.696   0.143   6.955
 4669SOL    HW214907   4.770   0.029   0.025
 4670SOL     OW14908   1.058   3.113   0.192
 4670SOL    HW114909   1.073   3.025   0.237
 4670SOL    HW214910   1.072   3.104   0.094
 4671SOL     OW14911   0.781   3.322   0.050
 4671SOL    HW114912   0.843   3.349   6.998
 4671SOL    HW214913   0.834   3.284   0.126
 4672SOL     OW14914   4.545   4.607   6.059
 4672SOL    HW114915   4.490   4.582   6.139
 4672SOL    HW214916   4.494   4.672   6.003
 4673SOL     OW14917   4.948   0.529   6.819
 4673SOL    HW114918   5.034   0.483   6.795
 4673SOL    HW214919   4.932   0.521   6.917
 4674SOL     OW14920   6.674   1.308   0.502
 4674SOL    HW114921   6.719   1.375   0.561
 4674SOL    HW214922   6.696   1.216   0.533
 4675SOL     OW14923   3.675   6.790   6.172
 4675SOL    HW114924   3.607   6.722   6.197
 4675SOL    HW214925   3.642   6.881   6.196
 4676SOL     OW14926   0.779   6.718   4.318
 4676SOL    HW114927   0.870   6.711   4.360
 4676SOL    HW214928   0.710   6.719   4.389
 4677SOL     OW14929   2.787   0.155   7.007
 4677SOL    HW114930   2.842   0.110   0.056
 4677SOL    HW214931   2.846   0.215   6.953
 4678SOL     OW14932   2.015   5.468   1.751
 4678SOL    HW114933   2.069   5.416   1.816
 4678SOL    HW214934   1.985   5.408   1.677
 4679SOL     OW14935   2.649   1.421   5.902
 4679SOL    HW114936   2.692   1.481   5.834
 4679SOL    HW214937   2.581   1.473   5.953
 4680SOL     OW14938   2.455   5.329   1.332
 4680SOL    HW114939   2.479   5.257   1.397
 4680SOL    HW214940   2.473   5.297   1.239
 4681SOL     OW14941   7.002   6.185   4.526
 4681SOL    HW114942   6.933   6.144   4.466
 4681SOL    HW214943   6.956   6.235   4.599
 4682SOL     OW14944   4.187   5.670   6.870
 4682SOL    HW114945   4.255   5.598   6.874
 4682SOL    HW214946   4.175   5.700   6.775
 4683SOL     OW14947   5.552   3.822   2.611
 4683SOL    HW114948   5.641   3.847   2.649
 4683SOL    HW214949   5.543   3.722   2.611
 4684SOL     OW14950   1.128   2.109   4.072
 4684SOL    HW114951   1.224   2.081   4.063
 4684SOL    HW214952   1.121   2.179   4.143
 4685SOL     OW14953   6.634   5.453   4.760
 4685SOL    HW114954   6.576   5.464   4.841
 4685SOL    HW214955   6.726   5.486   4.780
 4686SOL     OW14956   5.209   5.391   0.284
 4686SOL    HW114957   5.291   5.352   0.241
 4686SOL    HW214958   5.165   5.322   0.341
 4687SOL     OW14959   6.634   4.209   4.652
 4687SOL    HW114960   6.595   4.124   4.688
 4687SOL    HW214961   6.725   4.223   4.692
 4688SOL     OW14962   0.821   3.409   6.575
 4688SOL    HW114963   0.895   3.379   6.514
 4688SOL    HW214964   0.820   3.509   6.580
 4689SOL     OW14965   6.224   0.104   5.685
 4689SOL    HW114966   6.324   0.094   5.691
 4689SOL    HW214967   6.195   0.179   5.745
 4690SOL     OW14968   1.129   1.165   6.665
 4690SOL    HW114969   1.059   1.228   6.700
 4690SOL    HW214970   1.088   1.103   6.598
 4691SOL     OW14971   2.749   4.137   0.999
 4691SOL    HW114972   2.787   4.092   0.918
 4691SOL    HW214973   2.680   4.203   0.969
 4692SOL     OW14974   0.090   5.281   2.678
 4692SOL    HW114975   0.174   5.234   2.651
 4692SOL    HW214976   0.018   5.214   2.692
 4693SOL     OW14977   0.175   1.686   4.635
 4693SOL    HW114978   0.259   1.652   4.679
 4693SOL    HW214979   0.179   1.670   4.537
 4694SOL     OW14980   3.070   0.505   0.367
 4694SOL    HW114981   3.008   0.566   0.317
 4694SOL    HW214982   3.018   0.445   0.427
 4695SOL     OW14983   3.877   3.202   1.675
 4695SOL    HW114984   3.966   3.243   1.695
 4695SOL    HW214985   3.887   3.135   1.601
 4696SOL     OW14986   1.312   4.017   6.129
 4696SOL    HW114987   1.258   4.089   6.084
 4696SOL    HW214988   1.251   3.944   6.161
 4697SOL     OW14989   1.703   3.615   0.684
 4697SOL    HW114990   1.705   3.523   0.645
 4697SOL    HW214991   1.721   3.682   0.613
 4698SOL     OW14992   5.201   4.758   2.091
 4698SOL    HW114993   5.230   4.812   2.012
 4698SOL    HW214994   5.107   4.782   2.114
 4699SOL     OW14995   0.067   6.837   2.206
 4699SOL    HW114996   0.020   6.787   2.279
 4699SOL    HW214997   0.100   6.924   2.241
 4700SOL     OW14998   5.437   2.196   1.596
 4700SOL    HW114999   5.377   2.276   1.588
 4700SOL    HW215000   5.479   2.195   1.686
 4701SOL     OW15001   0.932   1.630   0.040
 4701SOL    HW115002   0.866   1.559   0.016
 4701SOL    HW215003   0.960   1.619   0.136
 4702SOL     OW15004   4.550   4.038   6.984
 4702SOL    HW115005   4.466   4.089   7.003
 4702SOL    HW215006   4.629   4.093   7.011
 4703SOL     OW15007   0.949   1.894   2.922
 4703SOL    HW115008   0.984   1.978   2.963
 4703SOL    HW215009   1.024   1.845   2.877
 4704SOL     OW15010   6.961   5.945   0.962
 4704SOL    HW115011   0.015   5.970   0.902
 4704SOL    HW215012   6.995   5.934   1.055
 4705SOL     OW15013   3.466   3.037   3.964
 4705SOL    HW115014   3.481   2.946   4.003
 4705SOL    HW215015   3.480   3.106   4.035
 4706SOL     OW15016   3.733   5.988   6.615
 4706SOL    HW115017   3.766   6.041   6.536
 4706SOL    HW215018   3.665   5.922   6.584
 4707SOL     OW15019   2.116   5.949   1.106
 4707SOL    HW115020   2.156   6.031   1.146
 4707SOL    HW215021   2.097   5.883   1.179
 4708SOL     OW15022   2.728   2.683   0.668
 4708SOL    HW115023   2.702   2.629   0.588
 4708SOL    HW215024   2.810   2.736   0.648
 4709SOL     OW15025   3.954   5.135   5.197
 4709SOL    HW115026   3.989   5.041   5.200
 4709SOL    HW215027   4.023   5.197   5.235
 4710SOL     OW15028   4.673   1.226   6.472
 4710SOL    HW115029   4.669   1.325   6.484
 4710SOL    HW215030   4.694   1.182   6.559
 4711SOL     OW15031   3.596   0.090   2.520
 4711SOL    HW115032   3.616   0.115   2.615
 4711SOL    HW215033   3.579   0.174   2.467
 4712SOL     OW15034   2.487   4.394   1.002
 4712SOL    HW115035   2.544   4.427   1.078
 4712SOL    HW215036   2.442   4.309   1.030
 4713SOL     OW15037   3.350   4.542   1.462
 4713SOL    HW115038   3.350   4.443   1.454
 4713SOL    HW215039   3.272   4.571   1.518
 4714SOL     OW15040   1.648   1.221   0.721
 4714SOL    HW115041   1.688   1.227   0.629
 4714SOL    HW215042   1.694   1.148   0.772
 4715SOL     OW15043   6.641   3.280   2.360
 4715SOL    HW115044   6.719   3.304   2.302
 4715SOL    HW215045   6.568   3.242   2.303
 4716SOL     OW15046   3.992   4.511   6.328
 4716SOL    HW115047   3.985   4.432   6.389
 4716SOL    HW215048   3.910   4.515   6.270
 4717SOL     OW15049   1.208   6.003   2.231
 4717SOL    HW115050   1.155   5.972   2.309
 4717SOL    HW215051   1.280   5.937   2.210
 4718SOL     OW15052   5.161   1.575   6.592
 4718SOL    HW115053   5.111   1.568   6.678
 4718SOL    HW215054   5.157   1.669   6.558
 4719SOL     OW15055   5.003   3.850   3.080
 4719SOL    HW115056   4.972   3.771   3.133
 4719SOL    HW215057   4.958   3.850   2.991
 4720SOL     OW15058   2.214   6.727   5.710
 4720SOL    HW115059   2.193   6.653   5.774
 4720SOL    HW215060   2.163   6.809   5.735
 4721SOL     OW15061   0.586   2.176   1.259
 4721SOL    HW115062   0.524   2.148   1.333
 4721SOL    HW215063   0.533   2.201   1.178
 4722SOL     OW15064   1.765   6.279   0.176
 4722SOL    HW115065   1.802   6.225   0.252
 4722SOL    HW215066   1.823   6.359   0.161
 4723SOL     OW15067   1.970   6.320   5.945
 4723SOL    HW115068   1.917   6.235   5.939
 4723SOL    HW215069   2.050   6.306   6.003
 4724SOL     OW15070   4.171   6.582   2.626
 4724SOL    HW115071   4.263   6.570   2.588
 4724SOL    HW215072   4.123   6.652   2.574
 4725SOL     OW15073   5.173   6.341   3.175
 4725SOL    HW115074   5.147   6.245   3.183
 4725SOL    HW215075   5.109   6.387   3.114
 4726SOL     OW15076   1.041   3.908   6.454
 4726SOL    HW115077   0.943   3.893   6.468
 4726SOL    HW215078   1.081   3.948   6.537
 4727SOL     OW15079   6.834   5.497   0.356
 4727SOL    HW115080   6.843   5.582   0.408
 4727SOL    HW215081   6.817   5.421   0.419
 4728SOL     OW15082   5.952   1.468   0.681
 4728SOL    HW115083   5.852   1.467   0.692
 4728SOL    HW215084   5.989   1.549   0.726
 4729SOL     OW15085   1.524   0.761   2.941
 4729SOL    HW115086   1.439   0.721   2.907
 4729SOL    HW215087   1.514   0.782   3.038
 4730SOL     OW15088   2.793   6.053   5.433
 4730SOL    HW115089   2.870   6.045   5.496
 4730SOL    HW215090   2.708   6.067   5.485
 4731SOL     OW15091   6.017   0.600   5.223
 4731SOL    HW115092   5.958   0.680   5.217
 4731SOL    HW215093   6.006   0.558   5.314
 4732SOL     OW15094   6.918   3.614   6.584
 4732SOL    HW115095   6.912   3.521   6.549
 4732SOL    HW215096   6.888   3.616   6.680
 4733SOL     OW15097   0.415   3.757   2.735
 4733SOL    HW115098   0.332   3.799   2.697
 4733SOL    HW215099   0.423   3.780   2.832
 4734SOL     OW15100   5.547   2.833   6.762
 4734SOL    HW115101   5.479   2.886   6.814
 4734SOL    HW215102   5.597   2.895   6.700
 4735SOL     OW15103   1.255   4.237   3.671
 4735SOL    HW115104   1.322   4.303   3.637
 4735SOL    HW215105   1.163   4.277   3.667
 4736SOL     OW15106   6.963   0.969   6.374
 4736SOL    HW115107   0.003   0.890   6.380
 4736SOL    HW215108   6.917   0.968   6.285
 4737SOL     OW15109   2.488   4.528   2.130
 4737SOL    HW115110   2.570   4.565   2.175
 4737SOL    HW215111   2.465   4.439   2.169
 4738SOL     OW15112   6.765   6.253   1.421
 4738SOL    HW115113   6.864   6.252   1.410
 4738SOL    HW215114   6.723   6.192   1.353
 4739SOL     OW15115   3.775   0.346   2.521
 4739SOL    HW115116   3.849   0.381   2.464
 4739SOL    HW215117   3.799   0.255   2.555
 4740SOL     OW15118   0.538   1.500   2.574
 4740SOL    HW115119   0.619   1.517   2.630
 4740SOL    HW215120   0.485   1.584   2.566
 4741SOL     OW15121   3.860   2.463   1.395
 4741SOL    HW115122   3.938   2.406   1.370
 4741SOL    HW215123   3.865   2.486   1.492
 4742SOL     OW15124   2.329   6.757   0.136
 4742SOL    HW115125   2.316   6.832   0.070
 4742SOL    HW215126   2.426   6.738   0.147
 4743SOL     OW15127   1.928   3.820   2.603
 4743SOL    HW115128   1.901   3.916   2.601
 4743SOL    HW215129   2.025   3.811   2.579
 4744SOL     OW15130   1.783   5.811   0.920
 4744SOL    HW115131   1.881   5.818   0.905
 4744SOL    HW215132   1.744   5.746   0.855
 4745SOL     OW15133   2.572   3.581   0.452
 4745SOL    HW115134   2.552   3.546   0.543
 4745SOL    HW215135   2.545   3.514   0.383
 4746SOL     OW15136   4.668   4.908   4.522
 4746SOL    HW115137   4.597   4.857   4.570
 4746SOL    HW215138   4.739   4.846   4.490
 4747SOL     OW15139   1.446   2.945   0.869
 4747SOL    HW115140   1.523   2.882   0.863
 4747SOL    HW215141   1.466   3.026   0.813
 4748SOL     OW15142   2.037   6.544   2.006
 4748SOL    HW115143   2.017   6.569   1.911
 4748SOL    HW215144   2.067   6.448   2.009
 4749SOL     OW15145   2.487   6.944   0.445
 4749SOL    HW115146   2.518   6.901   0.529
 4749SOL    HW215147   2.423   6.884   0.398
 4750SOL     OW15148   6.072   3.930   5.198
 4750SOL    HW115149   6.111   3.913   5.289
 4750SOL    HW215150   6.144   3.965   5.138
 4751SOL     OW15151   4.531   1.383   2.231
 4751SOL    HW115152   4.604   1.452   2.227
 4751SOL    HW215153   4.529   1.332   2.145
 4752SOL     OW15154   4.936   1.827   0.432
 4752SOL    HW115155   4.892   1.911   0.400
 4752SOL    HW215156   4.892   1.749   0.389
 4753SOL     OW15157   1.792   6.605   4.673
 4753SOL    HW115158   1.807   6.525   4.731
 4753SOL    HW215159   1.872   6.619   4.614
 4754SOL     OW15160   4.452   4.103   6.212
 4754SOL    HW115161   4.397   4.158   6.150
 4754SOL    HW215162   4.396   4.072   6.288
 4755SOL     OW15163   1.346   0.461   1.827
 4755SOL    HW115164   1.359   0.464   1.728
 4755SOL    HW215165   1.434   0.471   1.873
 4756SOL     OW15166   6.762   4.453   0.447
 4756SOL    HW115167   6.816   4.483   0.368
 4756SOL    HW215168   6.708   4.530   0.482
 4757SOL     OW15169   1.184   2.817   1.225
 4757SOL    HW115170   1.130   2.768   1.157
 4757SOL    HW215171   1.236   2.890   1.181
 4758SOL     OW15172   1.628   0.402   3.412
 4758SOL    HW115173   1.580   0.423   3.326
 4758SOL    HW215174   1.660   0.487   3.453
 4759SOL     OW15175   1.025   4.997   0.406
 4759SOL    HW115176   1.086   5.039   0.472
 4759SOL    HW215177   0.933   4.990   0.444
 4760SOL     OW15178   1.363   0.030   0.995
 4760SOL    HW115179   1.272   0.036   0.956
 4760SOL    HW215180   1.410   6.970   0.959
 4761SOL     OW15181   0.345   6.802   0.670
 4761SOL    HW115182   0.268   6.862   0.650
 4761SOL    HW215183   0.374   6.814   0.765
 4762SOL     OW15184   1.892   5.592   2.157
 4762SOL    HW115185   1.908   5.512   2.099
 4762SOL    HW215186   1.793   5.603   2.171
 4763SOL     OW15187   4.882   5.961   2.074
 4763SOL    HW115188   4.897   5.864   2.055
 4763SOL    HW215189   4.886   6.013   1.988
 4764SOL     OW15190   4.895   3.662   5.355
 4764SOL    HW115191   4.899   3.762   5.361
 4764SOL    HW215192   4.814   3.635   5.304
 4765SOL     OW15193   3.172   1.476   5.293
 4765SOL    HW115194   3.163   1.396   5.234
 4765SOL    HW215195   3.182   1.447   5.388
 4766SOL     OW15196   5.886   6.815   4.533
 4766SOL    HW115197   5.836   6.901   4.527
 4766SOL    HW215198   5.898   6.777   4.441
 4767SOL     OW15199   2.399   5.490   5.041
 4767SOL    HW115200   2.392   5.537   5.129
 4767SOL    HW215201   2.431   5.396   5.056
 4768SOL     OW15202   4.692   2.730   6.629
 4768SOL    HW115203   4.728   2.655   6.572
 4768SOL    HW215204   4.769   2.779   6.671
 4769SOL     OW15205   3.366   6.068   1.292
 4769SOL    HW115206   3.399   6.055   1.199
 4769SOL    HW215207   3.442   6.098   1.350
 4770SOL     OW15208   6.567   1.872   5.529
 4770SOL    HW115209   6.631   1.939   5.491
 4770SOL    HW215210   6.519   1.913   5.606
 4771SOL     OW15211   2.437   0.248   5.497
 4771SOL    HW115212   2.520   0.200   5.468
 4771SOL    HW215213   2.365   0.181   5.514
 4772SOL     OW15214   2.937   5.150   0.921
 4772SOL    HW115215   2.851   5.173   0.968
 4772SOL    HW215216   3.014   5.184   0.975
 4773SOL     OW15217   2.421   5.811   4.745
 4773SOL    HW115218   2.424   5.818   4.844
 4773SOL    HW215219   2.414   5.903   4.706
 4774SOL     OW15220   1.760   4.223   0.437
 4774SOL    HW115221   1.699   4.280   0.491
 4774SOL    HW215222   1.821   4.172   0.497
 4775SOL     OW15223   5.163   6.178   4.357
 4775SOL    HW115224   5.145   6.103   4.422
 4775SOL    HW215225   5.190   6.140   4.269
 4776SOL     OW15226   1.160   0.543   5.538
 4776SOL    HW115227   1.171   0.472   5.608
 4776SOL    HW215228   1.119   0.624   5.580
 4777SOL     OW15229   1.304   5.350   0.700
 4777SOL    HW115230   1.216   5.376   0.739
 4777SOL    HW215231   1.377   5.372   0.765
 4778SOL     OW15232   0.999   2.583   4.455
 4778SOL    HW115233   1.016   2.678   4.481
 4778SOL    HW215234   0.947   2.537   4.526
 4779SOL     OW15235   6.218   0.593   4.097
 4779SOL    HW115236   6.264   0.674   4.136
 4779SOL    HW215237   6.141   0.623   4.040
 4780SOL     OW15238   5.396   2.687   5.653
 4780SOL    HW115239   5.307   2.694   5.698
 4780SOL    HW215240   5.435   2.597   5.671
 4781SOL     OW15241   2.113   5.999   2.741
 4781SOL    HW115242   2.213   6.005   2.732
 4781SOL    HW215243   2.071   6.004   2.650
 4782SOL     OW15244   5.172   5.431   5.933
 4782SOL    HW115245   5.131   5.368   5.868
 4782SOL    HW215246   5.189   5.519   5.889
 4783SOL     OW15247   5.772   3.970   0.747
 4783SOL    HW115248   5.842   4.023   0.794
 4783SOL    HW215249   5.812   3.928   0.665
 4784SOL     OW15250   5.783   2.452   6.458
 4784SOL    HW115251   5.842   2.495   6.389
 4784SOL    HW215252   5.694   2.498   6.460
 4785SOL     OW15253   0.461   6.075   3.071
 4785SOL    HW115254   0.456   5.986   3.117
 4785SOL    HW215255   0.546   6.121   3.096
 4786SOL     OW15256   2.687   6.800   1.003
 4786SOL    HW115257   2.747   6.877   0.980
 4786SOL    HW215258   2.707   6.723   0.942
 4787SOL     OW15259   4.151   1.965   4.279
 4787SOL    HW115260   4.123   1.942   4.186
 4787SOL    HW215261   4.127   2.060   4.299
 4788SOL     OW15262   6.299   5.938   0.042
 4788SOL    HW115263   6.266   5.956   6.971
 4788SOL    HW215264   6.282   5.842   0.065
 4789SOL     OW15265   5.156   1.513   1.795
 4789SOL    HW115266   5.088   1.573   1.837
 4789SOL    HW215267   5.239   1.513   1.851
 4790SOL     OW15268   5.360   1.587   5.091
 4790SOL    HW115269   5.367   1.634   5.003
 4790SOL    HW215270   5.275   1.533   5.093
 4791SOL     OW15271   0.197   2.983   1.081
 4791SOL    HW115272   0.229   3.075   1.060
 4791SOL    HW215273   0.259   2.940   1.148
 4792SOL     OW15274   1.757   4.093   4.586
 4792SOL    HW115275   1.744   4.148   4.668
 4792SOL    HW215276   1.847   4.048   4.588
 4793SOL     OW15277   1.428   4.252   6.238
 4793SOL    HW115278   1.390   4.161   6.221
 4793SOL    HW215279   1.513   4.263   6.186
 4794SOL     OW15280   4.815   0.427   3.833
 4794SOL    HW115281   4.893   0.477   3.870
 4794SOL    HW215282   4.846   0.341   3.794
 4795SOL     OW15283   0.575   1.341   3.891
 4795SOL    HW115284   0.545   1.435   3.909
 4795SOL    HW215285   0.641   1.341   3.815
 4796SOL     OW15286   3.539   1.336   6.110
 4796SOL    HW115287   3.514   1.305   6.202
 4796SOL    HW215288   3.541   1.258   6.048
 4797SOL     OW15289   0.334   5.277   4.546
 4797SOL    HW115290   0.332   5.342   4.622
 4797SOL    HW215291   0.273   5.309   4.474
 4798SOL     OW15292   5.079   5.281   6.671
 4798SOL    HW115293   5.073   5.380   6.656
 4798SOL    HW215294   5.154   5.244   6.616
 4799SOL     OW15295   3.253   2.206   6.207
 4799SOL    HW115296   3.165   2.170   6.238
 4799SOL    HW215297   3.327   2.155   6.251
 4800SOL     OW15298   2.022   4.611   0.547
 4800SOL    HW115299   2.060   4.549   0.478
 4800SOL    HW215300   2.080   4.611   0.628
 4801SOL     OW15301   4.974   2.359   1.421
 4801SOL    HW115302   4.923   2.312   1.493
 4801SOL    HW215303   4.994   2.453   1.450
 4802SOL     OW15304   0.441   6.088   2.304
 4802SOL    HW115305   0.417   5.991   2.297
 4802SOL    HW215306   0.540   6.098   2.297
 4803SOL     OW15307   5.663   4.837   7.020
 4803SOL    HW115308   5.662   4.739   0.018
 4803SOL    HW215309   5.573   4.866   6.987
 4804SOL     OW15310   5.091   1.639   0.769
 4804SOL    HW115311   5.077   1.627   0.671
 4804SOL    HW215312   5.056   1.559   0.818
 4805SOL     OW15313   6.680   1.971   1.555
 4805SOL    HW115314   6.717   1.891   1.602
 4805SOL    HW215315   6.745   2.047   1.563
 4806SOL     OW15316   1.426   3.215   2.998
 4806SOL    HW115317   1.357   3.166   2.946
 4806SOL    HW215318   1.394   3.307   3.020
 4807SOL     OW15319   1.132   3.443   6.572
 4807SOL    HW115320   1.221   3.417   6.610
 4807SOL    HW215321   1.120   3.542   6.585
 4808SOL     OW15322   4.052   6.231   1.284
 4808SOL    HW115323   4.130   6.176   1.253
 4808SOL    HW215324   4.010   6.276   1.205
 4809SOL     OW15325   3.474   4.864   1.521
 4809SOL    HW115326   3.430   4.948   1.550
 4809SOL    HW215327   3.411   4.811   1.464
 4810SOL     OW15328   0.866   4.090   3.750
 4810SOL    HW115329   0.912   4.177   3.733
 4810SOL    HW215330   0.821   4.094   3.840
 4811SOL     OW15331   3.327   4.000   4.828
 4811SOL    HW115332   3.330   3.964   4.921
 4811SOL    HW215333   3.418   4.031   4.801
 4812SOL     OW15334   0.592   6.468   1.568
 4812SOL    HW115335   0.528   6.412   1.515
 4812SOL    HW215336   0.540   6.527   1.630
 4813SOL     OW15337   6.396   1.417   0.028
 4813SOL    HW115338   6.386   1.360   0.109
 4813SOL    HW215339   6.342   1.378   6.974
 4814SOL     OW15340   6.786   4.171   1.878
 4814SOL    HW115341   6.853   4.196   1.948
 4814SOL    HW215342   6.802   4.225   1.795
 4815SOL     OW15343   5.687   4.878   2.496
 4815SOL    HW115344   5.643   4.802   2.544
 4815SOL    HW215345   5.753   4.841   2.429
 4816SOL     OW15346   1.657   6.483   1.881
 4816SOL    HW115347   1.731   6.533   1.926
 4816SOL    HW215348   1.585   6.547   1.854
 4817SOL     OW15349   3.534   1.178   1.537
 4817SOL    HW115350   3.566   1.084   1.549
 4817SOL    HW215351   3.479   1.205   1.616
 4818SOL     OW15352   2.812   0.222   4.745
 4818SOL    HW115353   2.748   0.279   4.694
 4818SOL    HW215354   2.848   0.273   4.823
 4819SOL     OW15355   2.628   2.006   1.092
 4819SOL    HW115356   2.662   1.992   1.185
 4819SOL    HW215357   2.593   1.920   1.056
 4820SOL     OW15358   0.412   3.503   2.034
 4820SOL    HW115359   0.398   3.551   2.121
 4820SOL    HW215360   0.396   3.405   2.047
 4821SOL     OW15361   6.626   5.647   1.930
 4821SOL    HW115362   6.651   5.742   1.911
 4821SOL    HW215363   6.544   5.623   1.879
 4822SOL     OW15364   1.874   3.747   3.817
 4822SOL    HW115365   1.929   3.806   3.876
 4822SOL    HW215366   1.844   3.798   3.736
 4823SOL     OW15367   1.295   0.063   4.165
 4823SOL    HW115368   1.230   0.009   4.111
 4823SOL    HW215369   1.337   0.003   4.234
 4824SOL     OW15370   5.055   2.411   2.992
 4824SOL    HW115371   5.151   2.419   2.963
 4824SOL    HW215372   5.012   2.501   2.992
 4825SOL     OW15373   1.766   3.275   4.429
 4825SOL    HW115374   1.695   3.301   4.495
 4825SOL    HW215375   1.854   3.312   4.459
 4826SOL     OW15376   0.228   6.771   0.349
 4826SOL    HW115377   0.237   6.871   0.352
 4826SOL    HW215378   0.291   6.734   0.280
 4827SOL     OW15379   4.694   1.242   0.949
 4827SOL    HW115380   4.785   1.249   0.908
 4827SOL    HW215381   4.698   1.185   1.031
 4828SOL     OW15382   5.629   3.727   1.334
 4828SOL    HW115383   5.537   3.708   1.300
 4828SOL    HW215384   5.641   3.682   1.423
 4829SOL     OW15385   3.343   0.316   6.138
 4829SOL    HW115386   3.323   0.258   6.059
 4829SOL    HW215387   3.263   0.320   6.198
 4830SOL     OW15388   4.926   5.979   3.632
 4830SOL    HW115389   4.913   6.053   3.566
 4830SOL    HW215390   5.019   5.981   3.667
 4831SOL     OW15391   6.485   4.846   5.090
 4831SOL    HW115392   6.553   4.897   5.037
 4831SOL    HW215393   6.406   4.825   5.032
 4832SOL     OW15394   3.530   2.676   5.830
 4832SOL    HW115395   3.449   2.660   5.888
 4832SOL    HW215396   3.506   2.740   5.757
 4833SOL     OW15397   4.680   1.411   3.280
 4833SOL    HW115398   4.664   1.469   3.360
 4833SOL    HW215399   4.684   1.316   3.308
 4834SOL     OW15400   4.010   0.844   0.894
 4834SOL    HW115401   4.090   0.802   0.938
 4834SOL    HW215402   3.989   0.794   0.809
 4835SOL     OW15403   1.546   0.098   6.657
 4835SOL    HW115404   1.618   0.080   6.724
 4835SOL    HW215405   1.586   0.142   6.577
 4836SOL     OW15406   4.817   1.862   4.123
 4836SOL    HW115407   4.770   1.893   4.040
 4836SOL    HW215408   4.805   1.930   4.195
 4837SOL     OW15409   3.115   2.858   1.445
 4837SOL    HW115410   3.117   2.864   1.345
 4837SOL    HW215411   3.140   2.766   1.473
 4838SOL     OW15412   3.717   4.887   2.227
 4838SOL    HW115413   3.700   4.869   2.130
 4838SOL    HW215414   3.761   4.807   2.269
 4839SOL     OW15415   6.927   4.895   5.180
 4839SOL    HW115416   6.996   4.964   5.198
 4839SOL    HW215417   6.968   4.819   5.129
 4840SOL     OW15418   5.584   6.575   0.148
 4840SOL    HW115419   5.572   6.571   0.247
 4840SOL    HW215420   5.588   6.482   0.111
 4841SOL     OW15421   3.401   5.956   1.591
 4841SOL    HW115422   3.485   6.008   1.609
 4841SOL    HW215423   3.331   6.017   1.553
 4842SOL     OW15424   3.714   5.350   2.092
 4842SOL    HW115425   3.661   5.411   2.033
 4842SOL    HW215426   3.790   5.310   2.039
 4843SOL     OW15427   6.926   3.769   0.018
 4843SOL    HW115428   7.016   3.768   6.996
 4843SOL    HW215429   6.936   3.753   0.116
 4844SOL     OW15430   6.834   3.949   6.874
 4844SOL    HW115431   6.902   3.894   6.922
 4844SOL    HW215432   6.872   3.981   6.787
 4845SOL     OW15433   6.344   5.736   4.312
 4845SOL    HW115434   6.330   5.650   4.360
 4845SOL    HW215435   6.256   5.773   4.282
 4846SOL     OW15436   0.509   3.418   0.909
 4846SOL    HW115437   0.509   3.325   0.946
 4846SOL    HW215438   0.569   3.476   0.964
 4847SOL     OW15439   3.556   1.978   5.968
 4847SOL    HW115440   3.581   2.062   6.015
 4847SOL    HW215441   3.501   2.000   5.887
 4848SOL     OW15442   1.848   1.503   3.823
 4848SOL    HW115443   1.944   1.497   3.797
 4848SOL    HW215444   1.838   1.562   3.903
 4849SOL     OW15445   1.655   6.777   6.629
 4849SOL    HW115446   1.752   6.783   6.653
 4849SOL    HW215447   1.642   6.812   6.536
 4850SOL     OW15448   3.554   0.904   2.141
 4850SOL    HW115449   3.551   0.826   2.204
 4850SOL    HW215450   3.566   0.988   2.193
 4851SOL     OW15451   4.219   6.384   5.468
 4851SOL    HW115452   4.221   6.477   5.432
 4851SOL    HW215453   4.241   6.384   5.565
 4852SOL     OW15454   1.396   0.524   0.082
 4852SOL    HW115455   1.378   0.475   7.018
 4852SOL    HW215456   1.373   0.620   0.070
 4853SOL     OW15457   3.495   1.535   2.399
 4853SOL    HW115458   3.568   1.483   2.443
 4853SOL    HW215459   3.407   1.491   2.417
 4854SOL     OW15460   4.665   6.081   2.478
 4854SOL    HW115461   4.567   6.070   2.459
 4854SOL    HW215462   4.678   6.109   2.573
 4855SOL     OW15463   5.655   1.908   2.169
 4855SOL    HW115464   5.589   1.899   2.094
 4855SOL    HW215465   5.613   1.961   2.243
 4856SOL     OW15466   2.763   4.807   3.275
 4856SOL    HW115467   2.842   4.771   3.326
 4856SOL    HW215468   2.727   4.736   3.214
 4857SOL     OW15469   1.159   1.770   5.612
 4857SOL    HW115470   1.232   1.765   5.680
 4857SOL    HW215471   1.087   1.705   5.637
 4858SOL     OW15472   1.829   1.636   4.094
 4858SOL    HW115473   1.908   1.584   4.126
 4858SOL    HW215474   1.855   1.732   4.080
 4859SOL     OW15475   1.513   5.750   4.285
 4859SOL    HW115476   1.585   5.684   4.263
 4859SOL    HW215477   1.443   5.706   4.340
 4860SOL     OW15478   3.989   5.326   1.975
 4860SOL    HW115479   3.949   5.289   1.891
 4860SOL    HW215480   4.026   5.251   2.029
 4861SOL     OW15481   5.355   5.269   6.886
 4861SOL    HW115482   5.349   5.296   6.790
 4861SOL    HW215483   5.275   5.214   6.910
 4862SOL     OW15484   2.178   5.252   4.156
 4862SOL    HW115485   2.104   5.290   4.099
 4862SOL    HW215486   2.156   5.158   4.181
 4863SOL     OW15487   5.976   4.794   0.541
 4863SOL    HW115488   5.994   4.843   0.626
 4863SOL    HW215489   6.061   4.785   0.489
 4864SOL     OW15490   3.374   0.980   3.788
 4864SOL    HW115491   3.452   0.952   3.845
 4864SOL    HW215492   3.324   1.053   3.835
 4865SOL     OW15493   2.423   0.352   5.170
 4865SOL    HW115494   2.402   0.278   5.234
 4865SOL    HW215495   2.384   0.438   5.204
 4866SOL     OW15496   6.261   4.026   1.070
 4866SOL    HW115497   6.288   3.959   1.001
 4866SOL    HW215498   6.167   4.007   1.100
 4867SOL     OW15499   4.486   5.495   2.405
 4867SOL    HW115500   4.422   5.520   2.332
 4867SOL    HW215501   4.538   5.575   2.432
 4868SOL     OW15502   6.758   5.009   2.044
 4868SOL    HW115503   6.852   5.016   2.077
 4868SOL    HW215504   6.748   5.060   1.958
 4869SOL     OW15505   1.356   1.527   0.881
 4869SOL    HW115506   1.321   1.474   0.804
 4869SOL    HW215507   1.291   1.524   0.957
 4870SOL     OW15508   0.540   6.187   1.935
 4870SOL    HW115509   0.501   6.105   1.893
 4870SOL    HW215510   0.637   6.193   1.912
 4871SOL     OW15511   1.148   0.531   4.809
 4871SOL    HW115512   1.228   0.493   4.764
 4871SOL    HW215513   1.137   0.627   4.783
 4872SOL     OW15514   6.717   6.889   2.981
 4872SOL    HW115515   6.651   6.933   2.920
 4872SOL    HW215516   6.807   6.931   2.969
 4873SOL     OW15517   6.909   5.523   4.809
 4873SOL    HW115518   6.944   5.493   4.720
 4873SOL    HW215519   6.966   5.598   4.843
 4874SOL     OW15520   4.865   2.545   2.664
 4874SOL    HW115521   4.820   2.635   2.664
 4874SOL    HW215522   4.824   2.487   2.594
 4875SOL     OW15523   5.188   0.334   6.823
 4875SOL    HW115524   5.149   0.270   6.757
 4875SOL    HW215525   5.168   0.303   6.916
 4876SOL     OW15526   6.854   1.662   3.543
 4876SOL    HW115527   6.875   1.694   3.636
 4876SOL    HW215528   6.820   1.738   3.488
 4877SOL     OW15529   0.314   2.178   5.312
 4877SOL    HW115530   0.288   2.158   5.406
 4877SOL    HW215531   0.331   2.276   5.302
 4878SOL     OW15532   6.780   1.872   2.261
 4878SOL    HW115533   6.772   1.827   2.350
 4878SOL    HW215534   6.770   1.971   2.272
 4879SOL     OW15535   4.701   1.600   2.025
 4879SOL    HW115536   4.622   1.631   1.973
 4879SOL    HW215537   4.706   1.501   2.022
 4880SOL     OW15538   6.168   3.758   0.463
 4880SOL    HW115539   6.129   3.712   0.384
 4880SOL    HW215540   6.222   3.693   0.517
 4881SOL     OW15541   1.717   1.892   0.794
 4881SOL    HW115542   1.638   1.921   0.740
 4881SOL    HW215543   1.799   1.892   0.736
 4882SOL     OW15544   4.282   2.345   5.428
 4882SOL    HW115545   4.308   2.258   5.386
 4882SOL    HW215546   4.362   2.385   5.473
 4883SOL     OW15547   5.117   3.890   1.583
 4883SOL    HW115548   5.026   3.906   1.543
 4883SOL    HW215549   5.119   3.925   1.676
 4884SOL     OW15550   3.234   5.294   0.542
 4884SOL    HW115551   3.275   5.273   0.454
 4884SOL    HW215552   3.183   5.214   0.575
 4885SOL     OW15553   2.313   4.315   2.246
 4885SOL    HW115554   2.354   4.347   2.332
 4885SOL    HW215555   2.241   4.378   2.217
 4886SOL     OW15556   3.031   6.992   1.499
 4886SOL    HW115557   2.969   0.043   1.528
 4886SOL    HW215558   3.119   7.002   1.545
 4887SOL     OW15559   1.050   6.224   1.745
 4887SOL    HW115560   1.049   6.138   1.693
 4887SOL    HW215561   1.115   6.287   1.703
 4888SOL     OW15562   2.223   0.018   2.849
 4888SOL    HW115563   2.252   6.999   2.762
 4888SOL    HW215564   2.240   0.116   2.847
 4889SOL     OW15565   6.688   1.751   5.292
 4889SOL    HW115566   6.687   1.777   5.195
 4889SOL    HW215567   6.596   1.760   5.330
 4890SOL     OW15568   0.926   2.435   5.538
 4890SOL    HW115569   1.022   2.457   5.520
 4890SOL    HW215570   0.915   2.336   5.547
 4891SOL     OW15571   2.539   5.125   6.318
 4891SOL    HW115572   2.597   5.203   6.341
 4891SOL    HW215573   2.443   5.148   6.337
 4892SOL     OW15574   5.150   5.893   2.151
 4892SOL    HW115575   5.074   5.958   2.157
 4892SOL    HW215576   5.236   5.940   2.169
 4893SOL     OW15577   6.834   3.289   2.190
 4893SOL    HW115578   6.909   3.355   2.179
 4893SOL    HW215579   6.845   3.215   2.124
 4894SOL     OW15580   3.050   0.022   2.230
 4894SOL    HW115581   2.976   6.977   2.217
 4894SOL    HW215582   3.135   6.996   2.251
 4895SOL     OW15583   0.814   5.094   3.174
 4895SOL    HW115584   0.839   5.149   3.254
 4895SOL    HW215585   0.865   5.008   3.176
 4896SOL     OW15586   2.658   5.156   2.605
 4896SOL    HW115587   2.688   5.089   2.673
 4896SOL    HW215588   2.563   5.182   2.625
 4897SOL     OW15589   1.616   6.111   5.538
 4897SOL    HW115590   1.617   6.139   5.442
 4897SOL    HW215591   1.667   6.177   5.593
 4898SOL     OW15592   4.065   1.249   5.291
 4898SOL    HW115593   4.060   1.154   5.321
 4898SOL    HW215594   3.985   1.271   5.235
 4899SOL     OW15595   6.079   5.140   2.897
 4899SOL    HW115596   6.084   5.043   2.917
 4899SOL    HW215597   6.010   5.183   2.956
 4900SOL     OW15598   4.181   6.277   5.882
 4900SOL    HW115599   4.098   6.252   5.832
 4900SOL    HW215600   4.256   6.289   5.817
 4901SOL     OW15601   1.743   1.774   5.005
 4901SOL    HW115602   1.747   1.739   5.098
 4901SOL    HW215603   1.716   1.700   4.943
 4902SOL     OW15604   1.502   0.516   6.310
 4902SOL    HW115605   1.548   0.515   6.221
 4902SOL    HW215606   1.552   0.576   6.373
 4903SOL     OW15607   4.415   5.523   0.884
 4903SOL    HW115608   4.375   5.431   0.894
 4903SOL    HW215609   4.372   5.584   0.951
 4904SOL     OW15610   1.858   1.095   5.410
 4904SOL    HW115611   1.791   1.043   5.463
 4904SOL    HW215612   1.817   1.180   5.379
 4905SOL     OW15613   2.287   0.504   3.454
 4905SOL    HW115614   2.314   0.595   3.422
 4905SOL    HW215615   2.204   0.476   3.407
 4906SOL     OW15616   4.825   2.682   5.600
 4906SOL    HW115617   4.874   2.766   5.576
 4906SOL    HW215618   4.738   2.705   5.643
 4907SOL     OW15619   4.945   1.411   0.843
 4907SOL    HW115620   4.868   1.438   0.785
 4907SOL    HW215621   4.921   1.426   0.939
 4908SOL     OW15622   4.874   0.149   0.435
 4908SOL    HW115623   4.820   0.148   0.519
 4908SOL    HW215624   4.935   0.070   0.434
 4909SOL     OW15625   6.868   4.489   3.982
 4909SOL    HW115626   6.865   4.583   4.017
 4909SOL    HW215627   6.885   4.491   3.884
 4910SOL     OW15628   5.821   0.947   4.068
 4910SOL    HW115629   5.781   1.026   4.022
 4910SOL    HW215630   5.807   0.954   4.166
 4911SOL     OW15631   1.774   3.190   3.471
 4911SOL    HW115632   1.743   3.119   3.407
 4911SOL    HW215633   1.872   3.178   3.490
 4912SOL     OW15634   5.292   2.047   5.549
 4912SOL    HW115635   5.263   2.005   5.463
 4912SOL    HW215636   5.213   2.060   5.608
 4913SOL     OW15637   5.464   3.352   5.786
 4913SOL    HW115638   5.544   3.405   5.814
 4913SOL    HW215639   5.382   3.392   5.827
 4914SOL     OW15640   4.416   0.555   5.572
 4914SOL    HW115641   4.508   0.518   5.579
 4914SOL    HW215642   4.349   0.484   5.597
 4915SOL     OW15643   3.132   6.391   5.211
 4915SOL    HW115644   3.154   6.443   5.294
 4915SOL    HW215645   3.176   6.301   5.216
 4916SOL     OW15646   6.803   0.642   4.267
 4916SOL    HW115647   6.821   0.612   4.361
 4916SOL    HW215648   6.815   0.741   4.260
 4917SOL     OW15649   4.033   5.727   0.982
 4917SOL    HW115650   3.999   5.796   1.045
 4917SOL    HW215651   3.957   5.681   0.937
 4918SOL     OW15652   6.437   6.159   2.001
 4918SOL    HW115653   6.401   6.231   2.060
 4918SOL    HW215654   6.514   6.115   2.047
 4919SOL     OW15655   3.653   2.822   2.207
 4919SOL    HW115656   3.584   2.796   2.139
 4919SOL    HW215657   3.716   2.746   2.222
 4920SOL     OW15658   5.449   0.376   5.264
 4920SOL    HW115659   5.418   0.285   5.237
 4920SOL    HW215660   5.448   0.437   5.185
 4921SOL     OW15661   1.869   5.004   0.399
 4921SOL    HW115662   1.830   4.923   0.444
 4921SOL    HW215663   1.962   4.983   0.368
 4922SOL     OW15664   3.161   2.081   5.228
 4922SOL    HW115665   3.206   2.020   5.162
 4922SOL    HW215666   3.177   2.176   5.201
 4923SOL     OW15667   2.491   1.989   2.979
 4923SOL    HW115668   2.477   2.071   2.923
 4923SOL    HW215669   2.538   1.920   2.924
 4924SOL     OW15670   2.255   2.245   5.146
 4924SOL    HW115671   2.212   2.157   5.126
 4924SOL    HW215672   2.190   2.319   5.128
 4925SOL     OW15673   4.453   0.290   2.857
 4925SOL    HW115674   4.466   0.375   2.805
 4925SOL    HW215675   4.515   0.288   2.935
 4926SOL     OW15676   5.627   1.638   1.475
 4926SOL    HW115677   5.595   1.733   1.469
 4926SOL    HW215678   5.706   1.633   1.536
 4927SOL     OW15679   3.054   2.849   6.180
 4927SOL    HW115680   3.115   2.880   6.107
 4927SOL    HW215681   3.098   2.775   6.231
 4928SOL     OW15682   1.278   1.195   0.086
 4928SOL    HW115683   1.219   1.119   0.060
 4928SOL    HW215684   1.239   1.281   0.052
 4929SOL     OW15685   6.901   6.890   3.557
 4929SOL    HW115686   6.875   6.981   3.588
 4929SOL    HW215687   6.844   6.864   3.479
 4930SOL     OW15688   6.454   6.617   2.173
 4930SOL    HW115689   6.502   6.660   2.248
 4930SOL    HW215690   6.395   6.683   2.127
 4931SOL     OW15691   6.222   6.286   1.337
 4931SOL    HW115692   6.168   6.324   1.262
 4931SOL    HW215693   6.161   6.246   1.405
 4932SOL     OW15694   3.565   4.122   3.430
 4932SOL    HW115695   3.517   4.156   3.349
 4932SOL    HW215696   3.526   4.034   3.457
 4933SOL     OW15697   2.223   6.548   3.771
 4933SOL    HW115698   2.128   6.541   3.801
 4933SOL    HW215699   2.228   6.542   3.672
 4934SOL     OW15700   3.771   6.111   3.080
 4934SOL    HW115701   3.803   6.020   3.053
 4934SOL    HW215702   3.733   6.158   3.000
 4935SOL     OW15703   1.634   1.779   0.084
 4935SOL    HW115704   1.675   1.709   0.142
 4935SOL    HW215705   1.647   1.869   0.126
 4936SOL     OW15706   2.426   4.670   0.883
 4936SOL    HW115707   2.500   4.697   0.821
 4936SOL    HW215708   2.444   4.578   0.919
 4937SOL     OW15709   5.323   3.296   4.752
 4937SOL    HW115710   5.321   3.205   4.793
 4937SOL    HW215711   5.414   3.337   4.765
 4938SOL     OW15712   3.426   5.508   5.855
 4938SOL    HW115713   3.458   5.421   5.895
 4938SOL    HW215714   3.505   5.564   5.831
 4939SOL     OW15715   5.451   2.352   5.241
 4939SOL    HW115716   5.366   2.403   5.228
 4939SOL    HW215717   5.449   2.269   5.185
 4940SOL     OW15718   1.641   0.872   4.796
 4940SOL    HW115719   1.561   0.833   4.842
 4940SOL    HW215720   1.630   0.971   4.789
 4941SOL     OW15721   3.982   1.708   6.843
 4941SOL    HW115722   3.940   1.641   6.904
 4941SOL    HW215723   3.912   1.747   6.784
 4942SOL     OW15724   4.939   3.301   4.962
 4942SOL    HW115725   4.903   3.250   5.040
 4942SOL    HW215726   4.891   3.389   4.955
 4943SOL     OW15727   4.426   2.209   0.532
 4943SOL    HW115728   4.331   2.225   0.561
 4943SOL    HW215729   4.427   2.181   0.436
 4944SOL     OW15730   2.285   4.211   2.885
 4944SOL    HW115731   2.260   4.115   2.894
 4944SOL    HW215732   2.210   4.260   2.841
 4945SOL     OW15733   1.323   0.577   3.789
 4945SOL    HW115734   1.376   0.496   3.764
 4945SOL    HW215735   1.377   0.659   3.773
 4946SOL     OW15736   0.833   3.190   1.178
 4946SOL    HW115737   0.839   3.282   1.137
 4946SOL    HW215738   0.740   3.154   1.167
 4947SOL     OW15739   1.072   6.925   0.526
 4947SOL    HW115740   1.090   6.849   0.464
 4947SOL    HW215741   1.012   6.991   0.480
 4948SOL     OW15742   2.749   0.993   2.685
 4948SOL    HW115743   2.700   0.924   2.632
 4948SOL    HW215744   2.803   1.051   2.623
 4949SOL     OW15745   4.599   0.769   5.853
 4949SOL    HW115746   4.544   0.794   5.773
 4949SOL    HW215747   4.556   0.692   5.900
 4950SOL     OW15748   2.716   5.927   4.049
 4950SOL    HW115749   2.805   5.893   4.019
 4950SOL    HW215750   2.645   5.891   3.988
 4951SOL     OW15751   4.808   1.483   4.336
 4951SOL    HW115752   4.808   1.386   4.313
 4951SOL    HW215753   4.718   1.522   4.316
 4952SOL     OW15754   0.133   6.010   4.723
 4952SOL    HW115755   0.068   6.082   4.746
 4952SOL    HW215756   0.150   5.953   4.803
 4953SOL     OW15757   2.578   5.559   1.367
 4953SOL    HW115758   2.673   5.530   1.364
 4953SOL    HW215759   2.519   5.484   1.338
 4954SOL     OW15760   4.726   4.808   0.405
 4954SOL    HW115761   4.824   4.824   0.418
 4954SOL    HW215762   4.701   4.830   0.310
 4955SOL     OW15763   1.631   5.951   7.009
 4955SOL    HW115764   1.547   5.897   7.009
 4955SOL    HW215765   1.681   5.934   0.072
 4956SOL     OW15766   4.031   6.902   5.682
 4956SOL    HW115767   4.049   6.808   5.710
 4956SOL    HW215768   3.966   6.902   5.607
 4957SOL     OW15769   0.053   1.271   4.502
 4957SOL    HW115770   0.131   1.333   4.510
 4957SOL    HW215771   0.029   1.260   4.406
 4958SOL     OW15772   0.739   6.624   5.674
 4958SOL    HW115773   0.725   6.723   5.672
 4958SOL    HW215774   0.826   6.604   5.720
 4959SOL     OW15775   1.090   0.781   6.794
 4959SOL    HW115776   1.079   0.795   6.696
 4959SOL    HW215777   1.075   0.684   6.816
 4960SOL     OW15778   3.691   6.630   4.189
 4960SOL    HW115779   3.652   6.538   4.185
 4960SOL    HW215780   3.622   6.695   4.218
 4961SOL     OW15781   5.481   0.515   5.030
 4961SOL    HW115782   5.507   0.608   5.007
 4961SOL    HW215783   5.418   0.479   4.962
 4962SOL     OW15784   5.643   2.963   1.948
 4962SOL    HW115785   5.619   2.867   1.965
 4962SOL    HW215786   5.575   3.004   1.886
 4963SOL     OW15787   0.323   5.871   1.555
 4963SOL    HW115788   0.407   5.829   1.519
 4963SOL    HW215789   0.309   5.842   1.650
 4964SOL     OW15790   3.547   5.706   3.371
 4964SOL    HW115791   3.560   5.763   3.290
 4964SOL    HW215792   3.610   5.629   3.369
 4965SOL     OW15793   0.426   0.039   4.907
 4965SOL    HW115794   0.377   6.998   4.846
 4965SOL    HW215795   0.444   0.125   4.859
 4966SOL     OW15796   2.848   5.879   4.529
 4966SOL    HW115797   2.821   5.974   4.541
 4966SOL    HW215798   2.767   5.820   4.539
 4967SOL     OW15799   4.158   2.613   6.548
 4967SOL    HW115800   4.208   2.528   6.561
 4967SOL    HW215801   4.222   2.686   6.525
 4968SOL     OW15802   5.285   2.986   3.427
 4968SOL    HW115803   5.321   2.905   3.473
 4968SOL    HW215804   5.209   3.025   3.480
 4969SOL     OW15805   1.435   1.299   1.807
 4969SOL    HW115806   1.412   1.202   1.809
 4969SOL    HW215807   1.374   1.349   1.870
 4970SOL     OW15808   1.170   2.142   4.878
 4970SOL    HW115809   1.192   2.108   4.969
 4970SOL    HW215810   1.249   2.128   4.817
 4971SOL     OW15811   6.525   5.966   3.693
 4971SOL    HW115812   6.494   6.061   3.689
 4971SOL    HW215813   6.597   5.957   3.761
 4972SOL     OW15814   2.331   3.565   0.879
 4972SOL    HW115815   2.270   3.495   0.915
 4972SOL    HW215816   2.306   3.654   0.918
 4973SOL     OW15817   6.074   6.173   1.602
 4973SOL    HW115818   6.135   6.128   1.668
 4973SOL    HW215819   6.090   6.272   1.606
 4974SOL     OW15820   5.765   5.595   2.410
 4974SOL    HW115821   5.773   5.514   2.468
 4974SOL    HW215822   5.810   5.672   2.454
 4975SOL     OW15823   5.943   5.972   0.870
 4975SOL    HW115824   6.004   5.929   0.804
 4975SOL    HW215825   5.856   5.994   0.827
 4976SOL     OW15826   3.322   0.411   4.594
 4976SOL    HW115827   3.242   0.471   4.602
 4976SOL    HW215828   3.393   0.459   4.543
 4977SOL     OW15829   4.523   3.854   0.817
 4977SOL    HW115830   4.442   3.872   0.761
 4977SOL    HW215831   4.504   3.880   0.912
 4978SOL     OW15832   6.049   4.171   5.740
 4978SOL    HW115833   5.958   4.132   5.729
 4978SOL    HW215834   6.075   4.220   5.657
 4979SOL     OW15835   0.158   1.604   4.911
 4979SOL    HW115836   0.062   1.577   4.925
 4979SOL    HW215837   0.218   1.529   4.937
 4980SOL     OW15838   3.489   5.755   2.791
 4980SOL    HW115839   3.574   5.768   2.740
 4980SOL    HW215840   3.470   5.657   2.800
 4981SOL     OW15841   4.443   7.004   5.616
 4981SOL    HW115842   4.363   0.017   5.667
 4981SOL    HW215843   4.510   0.056   5.606
 4982SOL     OW15844   2.032   1.615   6.825
 4982SOL    HW115845   1.942   1.654   6.807
 4982SOL    HW215846   2.083   1.608   6.739
 4983SOL     OW15847   5.585   3.174   4.264
 4983SOL    HW115848   5.531   3.109   4.211
 4983SOL    HW215849   5.680   3.171   4.233
 4984SOL     OW15850   5.411   3.697   4.569
 4984SOL    HW115851   5.355   3.621   4.602
 4984SOL    HW215852   5.459   3.670   4.485
 4985SOL     OW15853   5.671   5.478   3.802
 4985SOL    HW115854   5.675   5.471   3.702
 4985SOL    HW215855   5.746   5.425   3.842
 4986SOL     OW15856   6.171   4.405   2.700
 4986SOL    HW115857   6.119   4.324   2.672
 4986SOL    HW215858   6.265   4.377   2.721
 4987SOL     OW15859   0.258   3.196   0.736
 4987SOL    HW115860   0.345   3.204   0.686
 4987SOL    HW215861   0.275   3.198   0.834
 4988SOL     OW15862   0.121   1.810   3.950
 4988SOL    HW115863   0.178   1.743   3.999
 4988SOL    HW215864   0.029   1.772   3.938
 4989SOL     OW15865   5.981   1.657   1.365
 4989SOL    HW115866   6.018   1.564   1.358
 4989SOL    HW215867   5.907   1.658   1.433
 4990SOL     OW15868   0.804   2.701   5.693
 4990SOL    HW115869   0.715   2.705   5.737
 4990SOL    HW215870   0.793   2.711   5.594
 4991SOL     OW15871   0.597   3.346   4.414
 4991SOL    HW115872   0.601   3.403   4.331
 4991SOL    HW215873   0.510   3.360   4.459
 4992SOL     OW15874   3.617   0.635   4.840
 4992SOL    HW115875   3.585   0.562   4.901
 4992SOL    HW215876   3.558   0.638   4.759
 4993SOL     OW15877   2.978   5.549   3.949
 4993SOL    HW115878   2.974   5.479   4.020
 4993SOL    HW215879   3.073   5.576   3.934
 4994SOL     OW15880   1.121   6.578   2.706
 4994SOL    HW115881   1.107   6.617   2.797
 4994SOL    HW215882   1.089   6.484   2.704
 4995SOL     OW15883   6.705   3.235   6.244
 4995SOL    HW115884   6.614   3.205   6.216
 4995SOL    HW215885   6.761   3.250   6.162
 4996SOL     OW15886   0.147   1.495   1.566
 4996SOL    HW115887   0.187   1.465   1.480
 4996SOL    HW215888   0.221   1.518   1.631
 4997SOL     OW15889   6.384   2.200   2.914
 4997SOL    HW115890   6.406   2.160   3.003
 4997SOL    HW215891   6.427   2.146   2.842
 4998SOL     OW15892   1.719   4.934   4.971
 4998SOL    HW115893   1.716   4.839   4.942
 4998SOL    HW215894   1.807   4.974   4.947
 4999SOL     OW15895   5.110   5.348   1.153
 4999SOL    HW115896   5.130   5.441   1.123
 4999SOL    HW215897   5.158   5.283   1.094
 5000SOL     OW15898   0.905   0.437   4.721
 5000SOL    HW115899   0.999   0.457   4.747
 5000SOL    HW215900   0.881   0.488   4.638
 5001SOL     OW15901   2.248   3.905   6.077
 5001SOL    HW115902   2.175   3.967   6.050
 5001SOL    HW215903   2.242   3.821   6.023
 5002SOL     OW15904   1.715   1.855   2.623
 5002SOL    HW115905   1.711   1.763   2.585
 5002SOL    HW215906   1.709   1.850   2.723
 5003SOL     OW15907   0.459   6.680   2.982
 5003SOL    HW115908   0.406   6.735   2.917
 5003SOL    HW215909   0.399   6.650   3.056
 5004SOL     OW15910   2.315   5.683   6.044
 5004SOL    HW115911   2.299   5.627   6.125
 5004SOL    HW215912   2.291   5.631   5.962
 5005SOL     OW15913   3.980   2.385   0.551
 5005SOL    HW115914   4.045   2.329   0.603
 5005SOL    HW215915   3.982   2.357   0.455
 5006SOL     OW15916   5.806   6.760   5.367
 5006SOL    HW115917   5.792   6.676   5.314
 5006SOL    HW215918   5.839   6.833   5.307
 5007SOL     OW15919   3.878   0.719   5.911
 5007SOL    HW115920   3.828   0.777   5.974
 5007SOL    HW215921   3.856   0.623   5.928
 5008SOL     OW15922   6.320   1.365   3.057
 5008SOL    HW115923   6.226   1.341   3.029
 5008SOL    HW215924   6.340   1.321   3.144
 5009SOL     OW15925   1.224   5.915   1.483
 5009SOL    HW115926   1.148   5.948   1.539
 5009SOL    HW215927   1.308   5.919   1.537
 5010SOL     OW15928   3.660   4.066   4.322
 5010SOL    HW115929   3.701   4.034   4.237
 5010SOL    HW215930   3.729   4.068   4.394
 5011SOL     OW15931   2.001   3.277   2.295
 5011SOL    HW115932   2.044   3.226   2.221
 5011SOL    HW215933   2.040   3.369   2.298
 5012SOL     OW15934   6.663   2.771   5.730
 5012SOL    HW115935   6.629   2.688   5.774
 5012SOL    HW215936   6.588   2.834   5.714
 5013SOL     OW15937   4.260   0.659   6.439
 5013SOL    HW115938   4.242   0.573   6.487
 5013SOL    HW215939   4.359   0.671   6.431
 5014SOL     OW15940   6.182   5.906   0.746
 5014SOL    HW115941   6.190   5.883   0.842
 5014SOL    HW215942   6.230   5.992   0.728
 5015SOL     OW15943   4.231   1.993   3.565
 5015SOL    HW115944   4.311   2.032   3.520
 5015SOL    HW215945   4.166   2.066   3.588
 5016SOL     OW15946   1.798   0.893   2.931
 5016SOL    HW115947   1.729   0.951   2.976
 5016SOL    HW215948   1.766   0.798   2.929
 5017SOL     OW15949   2.350   1.978   0.288
 5017SOL    HW115950   2.288   1.969   0.366
 5017SOL    HW215951   2.321   1.914   0.216
 5018SOL     OW15952   0.012   4.333   2.314
 5018SOL    HW115953   7.007   4.262   2.378
 5018SOL    HW215954   6.981   4.416   2.332
 5019SOL     OW15955   2.840   3.538   0.518
 5019SOL    HW115956   2.907   3.603   0.482
 5019SOL    HW215957   2.747   3.569   0.496
 5020SOL     OW15958   5.439   5.595   6.232
 5020SOL    HW115959   5.351   5.621   6.273
 5020SOL    HW215960   5.423   5.527   6.161
 5021SOL     OW15961   1.574   4.737   5.925
 5021SOL    HW115962   1.539   4.682   5.850
 5021SOL    HW215963   1.655   4.788   5.895
 5022SOL     OW15964   1.769   6.185   0.745
 5022SOL    HW115965   1.784   6.108   0.683
 5022SOL    HW215966   1.689   6.238   0.715
 5023SOL     OW15967   6.302   3.043   0.770
 5023SOL    HW115968   6.325   3.127   0.721
 5023SOL    HW215969   6.224   3.061   0.831
 5024SOL     OW15970   6.690   3.987   3.454
 5024SOL    HW115971   6.761   3.917   3.465
 5024SOL    HW215972   6.607   3.945   3.418
 5025SOL     OW15973   4.840   1.224   2.791
 5025SOL    HW115974   4.818   1.247   2.886
 5025SOL    HW215975   4.865   1.127   2.785
 5026SOL     OW15976   6.193   5.421   5.131
 5026SOL    HW115977   6.169   5.491   5.064
 5026SOL    HW215978   6.248   5.350   5.087
 5027SOL     OW15979   0.284   6.272   3.003
 5027SOL    HW115980   0.345   6.351   2.991
 5027SOL    HW215981   0.337   6.188   2.992
 5028SOL     OW15982   0.392   6.137   1.478
 5028SOL    HW115983   0.352   6.047   1.490
 5028SOL    HW215984   0.492   6.130   1.475
 5029SOL     OW15985   6.759   2.566   1.935
 5029SOL    HW115986   6.681   2.588   1.994
 5029SOL    HW215987   6.838   2.621   1.962
 5030SOL     OW15988   6.475   0.297   6.863
 5030SOL    HW115989   6.418   0.345   6.797
 5030SOL    HW215990   6.461   0.199   6.854
 5031SOL     OW15991   5.809   1.398   4.058
 5031SOL    HW115992   5.881   1.464   4.080
 5031SOL    HW215993   5.826   1.360   3.967
 5032SOL     OW15994   1.954   5.482   0.537
 5032SOL    HW115995   1.915   5.464   0.447
 5032SOL    HW215996   2.046   5.443   0.542
 5033SOL     OW15997   2.514   4.685   5.453
 5033SOL    HW115998   2.428   4.699   5.403
 5033SOL    HW215999   2.586   4.658   5.389
 5034SOL     OW16000   6.444   2.465   2.532
 5034SOL    HW116001   6.391   2.475   2.447
 5034SOL    HW216002   6.381   2.445   2.607
 5035SOL     OW16003   4.577   5.453   0.465
 5035SOL    HW116004   4.656   5.484   0.519
 5035SOL    HW216005   4.494   5.496   0.501
 5036SOL     OW16006   1.417   6.395   6.864
 5036SOL    HW116007   1.473   6.473   6.837
 5036SOL    HW216008   1.470   6.335   6.924
 5037SOL     OW16009   4.088   1.782   3.460
 5037SOL    HW116010   4.106   1.701   3.516
 5037SOL    HW216011   4.137   1.861   3.498
 5038SOL     OW16012   1.071   5.776   5.905
 5038SOL    HW116013   1.126   5.695   5.923
 5038SOL    HW216014   0.974   5.752   5.908
 5039SOL     OW16015   2.637   2.868   5.341
 5039SOL    HW116016   2.575   2.867   5.419
 5039SOL    HW216017   2.600   2.926   5.269
 5040SOL     OW16018   2.802   3.335   6.983
 5040SOL    HW116019   2.719   3.280   6.996
 5040SOL    HW216020   2.863   3.323   0.040
 5041SOL     OW16021   1.048   3.919   1.419
 5041SOL    HW116022   0.959   3.964   1.421
 5041SOL    HW216023   1.092   3.927   1.509
 5042SOL     OW16024   6.419   3.745   6.615
 5042SOL    HW116025   6.380   3.718   6.527
 5042SOL    HW216026   6.367   3.704   6.689
 5043SOL     OW16027   3.617   1.057   4.223
 5043SOL    HW116028   3.581   1.138   4.176
 5043SOL    HW216029   3.708   1.078   4.259
 5044SOL     OW16030   6.352   6.164   3.914
 5044SOL    HW116031   6.257   6.133   3.917
 5044SOL    HW216032   6.371   6.204   3.824
 5045SOL     OW16033   6.373   3.548   0.244
 5045SOL    HW116034   6.275   3.568   0.238
 5045SOL    HW216035   6.391   3.489   0.323
 5046SOL     OW16036   3.728   2.901   4.803
 5046SOL    HW116037   3.783   2.943   4.875
 5046SOL    HW216038   3.669   2.831   4.844
 5047SOL     OW16039   5.753   0.661   2.703
 5047SOL    HW116040   5.830   0.603   2.677
 5047SOL    HW216041   5.755   0.676   2.802
 5048SOL     OW16042   0.087   2.623   1.995
 5048SOL    HW116043   0.054   2.571   2.074
 5048SOL    HW216044   0.180   2.596   1.973
 5049SOL     OW16045   0.889   1.744   1.882
 5049SOL    HW116046   0.838   1.681   1.823
 5049SOL    HW216047   0.833   1.769   1.961
 5050SOL     OW16048   0.412   2.323   1.723
 5050SOL    HW116049   0.427   2.249   1.788
 5050SOL    HW216050   0.489   2.327   1.659
 5051SOL     OW16051   2.433   3.851   1.026
 5051SOL    HW116052   2.448   3.835   0.929
 5051SOL    HW216053   2.501   3.800   1.079
 5052SOL     OW16054   3.999   4.677   0.901
 5052SOL    HW116055   4.053   4.715   0.827
 5052SOL    HW216056   4.024   4.721   0.987
 5053SOL     OW16057   2.326   4.236   1.936
 5053SOL    HW116058   2.285   4.263   2.023
 5053SOL    HW216059   2.412   4.286   1.923
 5054SOL     OW16060   3.520   6.173   5.056
 5054SOL    HW116061   3.512   6.271   5.038
 5054SOL    HW216062   3.479   6.122   4.980
 5055SOL     OW16063   0.768   1.920   4.988
 5055SOL    HW116064   0.862   1.892   5.010
 5055SOL    HW216065   0.703   1.863   5.037
 5056SOL     OW16066   0.112   3.640   5.972
 5056SOL    HW116067   0.116   3.652   5.873
 5056SOL    HW216068   0.020   3.615   6.000
 5057SOL     OW16069   0.764   5.626   3.645
 5057SOL    HW116070   0.856   5.590   3.666
 5057SOL    HW216071   0.699   5.550   3.640
 5058SOL     OW16072   4.092   4.514   7.020
 5058SOL    HW116073   4.077   4.558   0.086
 5058SOL    HW216074   4.157   4.439   0.009
 5059SOL     OW16075   3.548   1.996   5.132
 5059SOL    HW116076   3.531   1.902   5.162
 5059SOL    HW216077   3.614   2.039   5.194
 5060SOL     OW16078   0.285   3.620   5.170
 5060SOL    HW116079   0.249   3.706   5.134
 5060SOL    HW216080   0.376   3.603   5.132
 5061SOL     OW16081   3.075   3.650   4.586
 5061SOL    HW116082   3.019   3.703   4.650
 5061SOL    HW216083   3.031   3.650   4.496
 5062SOL     OW16084   4.525   1.231   2.706
 5062SOL    HW116085   4.618   1.262   2.726
 5062SOL    HW216086   4.529   1.151   2.646
 5063SOL     OW16087   1.545   6.527   2.172
 5063SOL    HW116088   1.605   6.509   2.249
 5063SOL    HW216089   1.591   6.585   2.105
 5064SOL     OW16090   4.805   5.584   0.545
 5064SOL    HW116091   4.822   5.613   0.639
 5064SOL    HW216092   4.889   5.546   0.505
 5065SOL     OW16093   2.036   0.465   3.310
 5065SOL    HW116094   2.080   0.411   3.238
 5065SOL    HW216095   1.954   0.509   3.273
 5066SOL     OW16096   2.048   5.011   1.798
 5066SOL    HW116097   2.114   5.046   1.731
 5066SOL    HW216098   2.091   5.007   1.888
 5067SOL     OW16099   3.874   2.159   1.536
 5067SOL    HW116100   3.948   2.214   1.496
 5067SOL    HW216101   3.791   2.214   1.542
 5068SOL     OW16102   3.877   6.167   0.885
 5068SOL    HW116103   3.788   6.122   0.895
 5068SOL    HW216104   3.934   6.115   0.821
 5069SOL     OW16105   2.744   4.030   6.480
 5069SOL    HW116106   2.764   3.974   6.400
 5069SOL    HW216107   2.813   4.013   6.551
 5070SOL     OW16108   5.548   3.444   4.129
 5070SOL    HW116109   5.622   3.390   4.089
 5070SOL    HW216110   5.460   3.401   4.107
 5071SOL     OW16111   3.819   1.112   3.831
 5071SOL    HW116112   3.794   1.179   3.762
 5071SOL    HW216113   3.878   1.154   3.900
 5072SOL     OW16114   1.318   0.508   0.765
 5072SOL    HW116115   1.263   0.584   0.730
 5072SOL    HW216116   1.267   0.461   0.837
 5073SOL     OW16117   2.616   6.274   2.717
 5073SOL    HW116118   2.689   6.250   2.781
 5073SOL    HW216119   2.652   6.273   2.624
 5074SOL     OW16120   3.338   2.009   1.573
 5074SOL    HW116121   3.289   2.083   1.528
 5074SOL    HW216122   3.372   2.040   1.661
 5075SOL     OW16123   1.348   3.003   0.028
 5075SOL    HW116124   1.435   2.983   0.072
 5075SOL    HW216125   1.274   2.956   0.076
 5076SOL     OW16126   5.125   0.758   0.112
 5076SOL    HW116127   5.148   0.847   0.074
 5076SOL    HW216128   5.208   0.702   0.118
 5077SOL     OW16129   1.340   4.085   4.682
 5077SOL    HW116130   1.379   4.001   4.721
 5077SOL    HW216131   1.391   4.111   4.600
 5078SOL     OW16132   0.384   1.132   3.865
 5078SOL    HW116133   0.475   1.173   3.865
 5078SOL    HW216134   0.392   1.033   3.863
 5079SOL     OW16135   1.890   2.090   5.774
 5079SOL    HW116136   1.905   1.992   5.791
 5079SOL    HW216137   1.809   2.103   5.717
 5080SOL     OW16138   5.969   5.386   5.931
 5080SOL    HW116139   5.934   5.294   5.910
 5080SOL    HW216140   5.934   5.451   5.863
 5081SOL     OW16141   3.306   5.842   5.172
 5081SOL    HW116142   3.217   5.797   5.166
 5081SOL    HW216143   3.363   5.811   5.096
 5082SOL     OW16144   4.722   6.282   0.538
 5082SOL    HW116145   4.717   6.182   0.533
 5082SOL    HW216146   4.795   6.309   0.601
 5083SOL     OW16147   2.671   0.742   2.578
 5083SOL    HW116148   2.666   0.751   2.478
 5083SOL    HW216149   2.758   0.700   2.603
 5084SOL     OW16150   0.875   5.308   5.284
 5084SOL    HW116151   0.869   5.224   5.231
 5084SOL    HW216152   0.884   5.386   5.222
 5085SOL     OW16153   1.574   3.748   5.767
 5085SOL    HW116154   1.490   3.697   5.750
 5085SOL    HW216155   1.574   3.783   5.860
 5086SOL     OW16156   1.151   4.939   2.778
 5086SOL    HW116157   1.114   5.031   2.794
 5086SOL    HW216158   1.236   4.928   2.831
 5087SOL     OW16159   6.877   5.225   2.274
 5087SOL    HW116160   6.918   5.162   2.339
 5087SOL    HW216161   6.826   5.295   2.323
 5088SOL     OW16162   4.402   6.089   2.495
 5088SOL    HW116163   4.318   6.053   2.454
 5088SOL    HW216164   4.380   6.144   2.575
 5089SOL     OW16165   5.602   3.756   4.765
 5089SOL    HW116166   5.688   3.728   4.723
 5089SOL    HW216167   5.530   3.760   4.695
 5090SOL     OW16168   1.716   0.185   3.685
 5090SOL    HW116169   1.766   0.119   3.628
 5090SOL    HW216170   1.781   0.237   3.740
 5091SOL     OW16171   6.531   0.247   0.365
 5091SOL    HW116172   6.452   0.200   0.327
 5091SOL    HW216173   6.614   0.213   0.322
 5092SOL     OW16174   3.333   3.865   4.581
 5092SOL    HW116175   3.315   3.894   4.675
 5092SOL    HW216176   3.267   3.908   4.519
 5093SOL     OW16177   2.479   1.086   2.794
 5093SOL    HW116178   2.417   1.021   2.749
 5093SOL    HW216179   2.522   1.143   2.724
 5094SOL     OW16180   2.488   5.446   6.733
 5094SOL    HW116181   2.391   5.444   6.706
 5094SOL    HW216182   2.509   5.536   6.772
 5095SOL     OW16183   0.586   1.299   3.591
 5095SOL    HW116184   0.548   1.216   3.550
 5095SOL    HW216185   0.518   1.372   3.584
 5096SOL     OW16186   5.360   3.796   6.426
 5096SOL    HW116187   5.368   3.699   6.406
 5096SOL    HW216188   5.270   3.815   6.466
 5097SOL     OW16189   6.489   6.289   6.860
 5097SOL    HW116190   6.416   6.292   6.929
 5097SOL    HW216191   6.448   6.274   6.770
 5098SOL     OW16192   3.902   2.119   1.880
 5098SOL    HW116193   3.823   2.131   1.940
 5098SOL    HW216194   3.876   2.143   1.786
 5099SOL     OW16195   0.507   5.973   1.775
 5099SOL    HW116196   0.419   5.998   1.734
 5099SOL    HW216197   0.575   5.962   1.702
 5100SOL     OW16198   4.714   4.808   2.573
 5100SOL    HW116199   4.712   4.725   2.516
 5100SOL    HW216200   4.629   4.859   2.560
 5101SOL     OW16201   3.936   0.312   5.042
 5101SOL    HW116202   3.866   0.245   5.065
 5101SOL    HW216203   3.925   0.393   5.100
 5102SOL     OW16204   4.841   5.513   4.218
 5102SOL    HW116205   4.848   5.613   4.218
 5102SOL    HW216206   4.836   5.481   4.313
 5103SOL     OW16207   0.675   0.561   4.924
 5103SOL    HW116208   0.700   0.464   4.928
 5103SOL    HW216209   0.578   0.571   4.943
 5104SOL     OW16210   3.518   6.351   2.258
 5104SOL    HW116211   3.470   6.401   2.186
 5104SOL    HW216212   3.451   6.318   2.325
 5105SOL     OW16213   2.993   3.274   0.186
 5105SOL    HW116214   3.004   3.370   0.212
 5105SOL    HW216215   3.010   3.215   0.265
 5106SOL     OW16216   4.106   2.399   0.950
 5106SOL    HW116217   4.193   2.412   0.901
 5106SOL    HW216218   4.094   2.303   0.973
 5107SOL     OW16219   5.618   2.817   1.103
 5107SOL    HW116220   5.550   2.887   1.081
 5107SOL    HW216221   5.693   2.859   1.156
 5108SOL     OW16222   4.668   4.118   5.872
 5108SOL    HW116223   4.743   4.082   5.927
 5108SOL    HW216224   4.636   4.204   5.912
 5109SOL     OW16225   1.687   3.200   1.510
 5109SOL    HW116226   1.740   3.271   1.556
 5109SOL    HW216227   1.748   3.130   1.475
 5110SOL     OW16228   6.982   6.419   6.354
 5110SOL    HW116229   0.031   6.458   6.413
 5110SOL    HW216230   6.934   6.493   6.307
 5111SOL     OW16231   1.158   6.310   4.791
 5111SOL    HW116232   1.088   6.313   4.862
 5111SOL    HW216233   1.208   6.397   4.790
 5112SOL     OW16234   0.568   0.158   2.593
 5112SOL    HW116235   0.661   0.135   2.620
 5112SOL    HW216236   0.511   0.167   2.674
 5113SOL     OW16237   1.899   5.321   0.285
 5113SOL    HW116238   1.901   5.227   0.317
 5113SOL    HW216239   1.900   5.323   0.185
 5114SOL     OW16240   3.670   0.159   0.903
 5114SOL    HW116241   3.725   0.226   0.953
 5114SOL    HW216242   3.573   0.179   0.918
 5115SOL     OW16243   1.924   3.721   1.532
 5115SOL    HW116244   1.874   3.731   1.618
 5115SOL    HW216245   2.017   3.757   1.544
 5116SOL     OW16246   2.809   6.731   6.747
 5116SOL    HW116247   2.712   6.753   6.755
 5116SOL    HW216248   2.820   6.658   6.679
 5117SOL     OW16249   0.729   3.287   4.651
 5117SOL    HW116250   0.682   3.299   4.564
 5117SOL    HW216251   0.791   3.209   4.645
 5118SOL     OW16252   5.899   0.227   0.410
 5118SOL    HW116253   5.821   0.187   0.457
 5118SOL    HW216254   5.943   0.294   0.469
 5119SOL     OW16255   5.401   1.646   0.481
 5119SOL    HW116256   5.335   1.720   0.466
 5119SOL    HW216257   5.389   1.609   0.574
 5120SOL     OW16258   5.061   0.407   5.014
 5120SOL    HW116259   5.050   0.445   5.106
 5120SOL    HW216260   5.071   0.482   4.948
 5121SOL     OW16261   3.293   3.859   6.939
 5121SOL    HW116262   3.253   3.946   6.912
 5121SOL    HW216263   3.229   3.810   6.999
 5122SOL     OW16264   3.762   5.207   3.386
 5122SOL    HW116265   3.716   5.295   3.384
 5122SOL    HW216266   3.731   5.154   3.465
 5123SOL     OW16267   5.186   2.193   2.328
 5123SOL    HW116268   5.227   2.249   2.256
 5123SOL    HW216269   5.099   2.157   2.296
 5124SOL     OW16270   1.848   6.285   3.625
 5124SOL    HW116271   1.899   6.356   3.578
 5124SOL    HW216272   1.754   6.315   3.640
 5125SOL     OW16273   0.213   1.465   3.743
 5125SOL    HW116274   0.122   1.494   3.773
 5125SOL    HW216275   0.246   1.393   3.804
 5126SOL     OW16276   1.014   6.476   0.505
 5126SOL    HW116277   1.015   6.437   0.597
 5126SOL    HW216278   1.103   6.461   0.462
 5127SOL     OW16279   2.064   5.872   0.153
 5127SOL    HW116280   2.100   5.789   0.195
 5127SOL    HW216281   1.974   5.891   0.190
 5128SOL     OW16282   0.035   5.964   1.240
 5128SOL    HW116283   0.067   5.879   1.282
 5128SOL    HW216284   7.015   6.022   1.310
 5129SOL     OW16285   4.580   6.355   1.622
 5129SOL    HW116286   4.652   6.395   1.677
 5129SOL    HW216287   4.495   6.350   1.676
 5130SOL     OW16288   6.938   4.620   2.820
 5130SOL    HW116289   6.898   4.540   2.775
 5130SOL    HW216290   6.871   4.695   2.818
 5131SOL     OW16291   1.160   3.205   3.286
 5131SOL    HW116292   1.242   3.254   3.259
 5131SOL    HW216293   1.097   3.199   3.208
 5132SOL     OW16294   3.326   3.818   6.140
 5132SOL    HW116295   3.315   3.725   6.105
 5132SOL    HW216296   3.418   3.851   6.117
 5133SOL     OW16297   3.413   5.366   0.077
 5133SOL    HW116298   3.326   5.324   0.053
 5133SOL    HW216299   3.487   5.299   0.064
 5134SOL     OW16300   0.770   3.102   1.924
 5134SOL    HW116301   0.747   3.196   1.899
 5134SOL    HW216302   0.783   3.048   1.841
 5135SOL     OW16303   6.840   2.432   6.022
 5135SOL    HW116304   6.872   2.471   6.109
 5135SOL    HW216305   6.799   2.343   6.039
 5136SOL     OW16306   5.332   0.679   4.541
 5136SOL    HW116307   5.280   0.618   4.481
 5136SOL    HW216308   5.383   0.625   4.608
 5137SOL     OW16309   5.996   3.126   6.472
 5137SOL    HW116310   5.980   3.152   6.377
 5137SOL    HW216311   6.048   3.041   6.476
 5138SOL     OW16312   4.276   3.161   6.782
 5138SOL    HW116313   4.328   3.243   6.758
 5138SOL    HW216314   4.180   3.173   6.756
 5139SOL     OW16315   1.648   6.756   3.706
 5139SOL    HW116316   1.554   6.788   3.695
 5139SOL    HW216317   1.654   6.659   3.680
 5140SOL     OW16318   2.461   1.675   0.512
 5140SOL    HW116319   2.408   1.736   0.570
 5140SOL    HW216320   2.558   1.697   0.521
 5141SOL     OW16321   5.784   3.872   1.128
 5141SOL    HW116322   5.754   3.816   1.205
 5141SOL    HW216323   5.776   3.969   1.152
 5142SOL     OW16324   6.284   2.543   4.476
 5142SOL    HW116325   6.330   2.587   4.553
 5142SOL    HW216326   6.328   2.570   4.391
 5143SOL     OW16327   0.939   4.409   4.323
 5143SOL    HW116328   0.848   4.443   4.345
 5143SOL    HW216329   0.952   4.318   4.362
 5144SOL     OW16330   1.628   6.609   5.890
 5144SOL    HW116331   1.617   6.698   5.935
 5144SOL    HW216332   1.538   6.567   5.877
 5145SOL     OW16333   2.276   5.548   6.295
 5145SOL    HW116334   2.366   5.507   6.302
 5145SOL    HW216335   2.206   5.478   6.309
 5146SOL     OW16336   4.279   3.812   6.745
 5146SOL    HW116337   4.317   3.803   6.837
 5146SOL    HW216338   4.190   3.767   6.740
 5147SOL     OW16339   0.474   4.032   1.622
 5147SOL    HW116340   0.443   4.111   1.568
 5147SOL    HW216341   0.486   3.954   1.561
 5148SOL     OW16342   0.572   5.917   0.783
 5148SOL    HW116343   0.598   5.979   0.858
 5148SOL    HW216344   0.571   5.968   0.697
 5149SOL     OW16345   6.072   0.299   3.555
 5149SOL    HW116346   6.095   0.375   3.494
 5149SOL    HW216347   6.059   0.216   3.501
 5150SOL     OW16348   2.023   5.967   4.168
 5150SOL    HW116349   2.099   5.911   4.135
 5150SOL    HW216350   2.057   6.057   4.195
 5151SOL     OW16351   5.769   1.033   6.728
 5151SOL    HW116352   5.681   1.007   6.769
 5151SOL    HW216353   5.763   1.127   6.695
 5152SOL     OW16354   2.170   4.907   0.057
 5152SOL    HW116355   2.115   4.835   0.015
 5152SOL    HW216356   2.247   4.929   7.019
 5153SOL     OW16357   2.005   1.884   6.972
 5153SOL    HW116358   1.967   1.792   6.983
 5153SOL    HW216359   2.073   1.884   6.900
 5154SOL     OW16360   2.167   3.366   6.036
 5154SOL    HW116361   2.166   3.421   6.119
 5154SOL    HW216362   2.117   3.281   6.051
 5155SOL     OW16363   4.067   6.148   2.134
 5155SOL    HW116364   4.150   6.182   2.178
 5155SOL    HW216365   4.001   6.222   2.125
 5156SOL     OW16366   6.775   2.552   6.269
 5156SOL    HW116367   6.679   2.540   6.242
 5156SOL    HW216368   6.781   2.620   6.342
 5157SOL     OW16369   4.847   3.038   3.745
 5157SOL    HW116370   4.852   3.134   3.774
 5157SOL    HW216371   4.799   2.985   3.815
 5158SOL     OW16372   2.780   2.004   1.336
 5158SOL    HW116373   2.796   1.986   1.433
 5158SOL    HW216374   2.759   2.101   1.323
 5159SOL     OW16375   1.133   3.963   4.884
 5159SOL    HW116376   1.161   3.929   4.973
 5159SOL    HW216377   1.213   3.976   4.826
 5160SOL     OW16378   1.331   3.730   4.308
 5160SOL    HW116379   1.349   3.638   4.272
 5160SOL    HW216380   1.362   3.799   4.243
 5161SOL     OW16381   1.091   4.416   5.650
 5161SOL    HW116382   0.993   4.435   5.643
 5161SOL    HW216383   1.125   4.385   5.561
 5162SOL     OW16384   0.022   5.143   4.578
 5162SOL    HW116385   0.029   5.069   4.644
 5162SOL    HW216386   0.094   5.134   4.509
 5163SOL     OW16387   4.878   5.201   1.219
 5163SOL    HW116388   4.954   5.259   1.190
 5163SOL    HW216389   4.912   5.133   1.284
 5164SOL     OW16390   5.807   2.257   5.643
 5164SOL    HW116391   5.863   2.291   5.567
 5164SOL    HW216392   5.789   2.159   5.630
 5165SOL     OW16393   5.709   4.819   4.963
 5165SOL    HW116394   5.639   4.768   5.012
 5165SOL    HW216395   5.792   4.824   5.019
 5166SOL     OW16396   1.844   5.177   1.757
 5166SOL    HW116397   1.925   5.120   1.758
 5166SOL    HW216398   1.764   5.123   1.784
 5167SOL     OW16399   6.477   6.870   5.309
 5167SOL    HW116400   6.389   6.863   5.356
 5167SOL    HW216401   6.479   6.804   5.233
 5168SOL     OW16402   4.514   2.471   3.570
 5168SOL    HW116403   4.529   2.527   3.651
 5168SOL    HW216404   4.559   2.514   3.491
 5169SOL     OW16405   3.347   3.585   6.558
 5169SOL    HW116406   3.325   3.678   6.529
 5169SOL    HW216407   3.266   3.527   6.550
 5170SOL     OW16408   6.933   4.534   6.038
 5170SOL    HW116409   6.928   4.595   5.960
 5170SOL    HW216410   6.969   4.445   6.009
 5171SOL     OW16411   2.530   4.510   4.252
 5171SOL    HW116412   2.553   4.481   4.345
 5171SOL    HW216413   2.462   4.448   4.214
 5172SOL     OW16414   0.713   3.381   1.871
 5172SOL    HW116415   0.750   3.408   1.960
 5172SOL    HW216416   0.744   3.445   1.801
 5173SOL     OW16417   5.907   4.162   6.771
 5173SOL    HW116418   5.931   4.130   6.679
 5173SOL    HW216419   5.989   4.163   6.828
 5174SOL     OW16420   2.160   4.685   4.868
 5174SOL    HW116421   2.143   4.779   4.839
 5174SOL    HW216422   2.121   4.670   4.959
 5175SOL     OW16423   1.766   4.181   0.168
 5175SOL    HW116424   1.688   4.125   0.140
 5175SOL    HW216425   1.764   4.195   0.267
 5176SOL     OW16426   3.917   3.189   0.274
 5176SOL    HW116427   3.966   3.103   0.262
 5176SOL    HW216428   3.840   3.176   0.337
 5177SOL     OW16429   4.675   0.462   5.564
 5177SOL    HW116430   4.715   0.468   5.473
 5177SOL    HW216431   4.743   0.490   5.632
 5178SOL     OW16432   2.261   2.465   1.528
 5178SOL    HW116433   2.311   2.528   1.588
 5178SOL    HW216434   2.163   2.485   1.532
 5179SOL     OW16435   4.851   6.594   5.154
 5179SOL    HW116436   4.831   6.659   5.081
 5179SOL    HW216437   4.936   6.621   5.200
 5180SOL     OW16438   3.427   2.394   6.817
 5180SOL    HW116439   3.420   2.388   6.917
 5180SOL    HW216440   3.396   2.308   6.777
 5181SOL     OW16441   3.602   0.808   2.992
 5181SOL    HW116442   3.627   0.812   2.896
 5181SOL    HW216443   3.674   0.851   3.047
 5182SOL     OW16444   5.876   4.868   1.718
 5182SOL    HW116445   5.863   4.893   1.813
 5182SOL    HW216446   5.937   4.789   1.712
 5183SOL     OW16447   4.465   6.864   2.044
 5183SOL    HW116448   4.487   6.875   2.141
 5183SOL    HW216449   4.549   6.866   1.990
 5184SOL     OW16450   0.850   1.620   3.869
 5184SOL    HW116451   0.839   1.688   3.797
 5184SOL    HW216452   0.833   1.529   3.832
 5185SOL     OW16453   3.836   6.978   2.871
 5185SOL    HW116454   3.781   6.895   2.878
 5185SOL    HW216455   3.866   6.991   2.777
 5186SOL     OW16456   6.420   3.751   0.957
 5186SOL    HW116457   6.479   3.670   0.954
 5186SOL    HW216458   6.477   3.833   0.955
 5187SOL     OW16459   6.713   1.447   3.373
 5187SOL    HW116460   6.798   1.499   3.376
 5187SOL    HW216461   6.733   1.349   3.368
 5188SOL     OW16462   0.520   4.987   0.131
 5188SOL    HW116463   0.509   5.077   0.090
 5188SOL    HW216464   0.603   4.944   0.095
 5189SOL     OW16465   4.589   5.024   6.908
 5189SOL    HW116466   4.581   5.092   6.981
 5189SOL    HW216467   4.685   5.011   6.884
 5190SOL     OW16468   0.851   2.021   3.812
 5190SOL    HW116469   0.840   1.932   3.767
 5190SOL    HW216470   0.915   2.077   3.759
 5191SOL     OW16471   3.335   1.252   1.910
 5191SOL    HW116472   3.431   1.278   1.903
 5191SOL    HW216473   3.324   1.157   1.881
 5192SOL     OW16474   4.925   5.434   2.507
 5192SOL    HW116475   4.962   5.518   2.466
 5192SOL    HW216476   4.984   5.406   2.583
 5193SOL     OW16477   4.601   4.328   3.829
 5193SOL    HW116478   4.510   4.366   3.845
 5193SOL    HW216479   4.608   4.296   3.734
 5194SOL     OW16480   4.877   0.742   5.918
 5194SOL    HW116481   4.937   0.818   5.943
 5194SOL    HW216482   4.781   0.770   5.928
 5195SOL     OW16483   6.213   6.791   4.490
 5195SOL    HW116484   6.186   6.885   4.512
 5195SOL    HW216485   6.276   6.757   4.560
 5196SOL     OW16486   0.513   4.122   1.872
 5196SOL    HW116487   0.576   4.150   1.800
 5196SOL    HW216488   0.440   4.066   1.832
 5197SOL     OW16489   1.643   6.343   4.299
 5197SOL    HW116490   1.605   6.366   4.388
 5197SOL    HW216491   1.598   6.261   4.263
 5198SOL     OW16492   2.703   6.652   4.720
 5198SOL    HW116493   2.732   6.664   4.625
 5198SOL    HW216494   2.755   6.578   4.762
 5199SOL     OW16495   2.148   5.364   1.488
 5199SOL    HW116496   2.148   5.397   1.394
 5199SOL    HW216497   2.218   5.414   1.540
 5200SOL     OW16498   1.052   1.867   5.037
 5200SOL    HW116499   1.023   1.790   5.094
 5200SOL    HW216500   1.140   1.901   5.069
 5201SOL     OW16501   5.465   4.959   4.511
 5201SOL    HW116502   5.526   4.919   4.580
 5201SOL    HW216503   5.514   5.033   4.464
 5202SOL     OW16504   5.221   3.111   0.071
 5202SOL    HW116505   5.160   3.044   0.112
 5202SOL    HW216506   5.167   3.184   0.029
 5203SOL     OW16507   1.571   0.425   6.710
 5203SOL    HW116508   1.636   0.369   6.658
 5203SOL    HW216509   1.605   0.520   6.714
 5204SOL     OW16510   3.721   6.870   6.857
 5204SOL    HW116511   3.793   6.888   6.925
 5204SOL    HW216512   3.634   6.901   6.894
 5205SOL     OW16513   6.501   5.768   0.942
 5205SOL    HW116514   6.557   5.816   1.009
 5205SOL    HW216515   6.471   5.681   0.980
 5206SOL     OW16516   0.816   4.508   4.955
 5206SOL    HW116517   0.748   4.511   5.028
 5206SOL    HW216518   0.899   4.555   4.986
 5207SOL     OW16519   0.218   6.971   4.180
 5207SOL    HW116520   0.156   0.009   4.231
 5207SOL    HW216521   0.302   6.958   4.232
 5208SOL     OW16522   4.934   2.414   0.472
 5208SOL    HW116523   4.843   2.449   0.493
 5208SOL    HW216524   4.943   2.400   0.374
 5209SOL     OW16525   4.557   0.012   3.434
 5209SOL    HW116526   4.497   6.954   3.420
 5209SOL    HW216527   4.634   0.006   3.370
 5210SOL     OW16528   5.061   4.542   1.136
 5210SOL    HW116529   5.035   4.624   1.086
 5210SOL    HW216530   5.106   4.477   1.075
 5211SOL     OW16531   5.113   2.123   3.851
 5211SOL    HW116532   5.081   2.210   3.888
 5211SOL    HW216533   5.072   2.047   3.902
 5212SOL     OW16534   1.305   2.127   1.270
 5212SOL    HW116535   1.220   2.074   1.269
 5212SOL    HW216536   1.363   2.097   1.194
 5213SOL     OW16537   4.068   3.603   2.359
 5213SOL    HW116538   4.053   3.515   2.312
 5213SOL    HW216539   4.135   3.591   2.432
 5214SOL     OW16540   5.553   4.447   6.622
 5214SOL    HW116541   5.532   4.378   6.553
 5214SOL    HW216542   5.651   4.447   6.642
 5215SOL     OW16543   0.069   3.101   4.847
 5215SOL    HW116544   0.019   3.018   4.870
 5215SOL    HW216545   0.137   3.081   4.777
 5216SOL     OW16546   5.597   4.947   1.144
 5216SOL    HW116547   5.536   5.018   1.108
 5216SOL    HW216548   5.638   4.897   1.068
 5217SOL     OW16549   3.905   5.819   4.192
 5217SOL    HW116550   3.903   5.864   4.102
 5217SOL    HW216551   3.984   5.758   4.197
 5218SOL     OW16552   0.550   0.738   0.879
 5218SOL    HW116553   0.623   0.693   0.929
 5218SOL    HW216554   0.589   0.800   0.811
 5219SOL     OW16555   2.678   2.108   5.046
 5219SOL    HW116556   2.654   2.085   4.952
 5219SOL    HW216557   2.653   2.031   5.106
 5220SOL     OW16558   2.234   5.598   3.190
 5220SOL    HW116559   2.233   5.693   3.221
 5220SOL    HW216560   2.274   5.540   3.261
 5221SOL     OW16561   6.816   0.503   1.611
 5221SOL    HW116562   6.889   0.555   1.655
 5221SOL    HW216563   6.774   0.558   1.539
 5222SOL     OW16564   4.460   4.785   1.500
 5222SOL    HW116565   4.471   4.804   1.402
 5222SOL    HW216566   4.532   4.722   1.530
 5223SOL     OW16567   0.152   3.305   0.477
 5223SOL    HW116568   0.170   3.253   0.394
 5223SOL    HW216569   0.178   3.251   0.557
 5224SOL     OW16570   1.024   1.873   4.309
 5224SOL    HW116571   1.122   1.863   4.295
 5224SOL    HW216572   0.982   1.904   4.224
 5225SOL     OW16573   6.546   0.921   4.920
 5225SOL    HW116574   6.584   1.014   4.924
 5225SOL    HW216575   6.613   0.859   4.879
 5226SOL     OW16576   0.435   5.847   3.252
 5226SOL    HW116577   0.429   5.806   3.343
 5226SOL    HW216578   0.449   5.775   3.184
 5227SOL     OW16579   0.109   3.698   5.713
 5227SOL    HW116580   0.132   3.710   5.616
 5227SOL    HW216581   0.023   3.648   5.720
 5228SOL     OW16582   1.394   3.000   5.832
 5228SOL    HW116583   1.297   3.009   5.811
 5228SOL    HW216584   1.424   2.906   5.819
 5229SOL     OW16585   3.980   6.697   6.951
 5229SOL    HW116586   4.070   6.659   6.971
 5229SOL    HW216587   3.971   6.714   6.853
 5230SOL     OW16588   0.079   0.121   2.115
 5230SOL    HW116589   0.083   0.054   2.040
 5230SOL    HW216590   7.005   0.133   2.143
 5231SOL     OW16591   5.505   1.483   3.239
 5231SOL    HW116592   5.416   1.520   3.212
 5231SOL    HW216593   5.574   1.556   3.234
 5232SOL     OW16594   1.887   3.758   6.088
 5232SOL    HW116595   1.926   3.762   6.180
 5232SOL    HW216596   1.944   3.700   6.030
 5233SOL     OW16597   3.012   0.914   2.527
 5233SOL    HW116598   2.996   0.818   2.508
 5233SOL    HW216599   3.052   0.925   2.618
 5234SOL     OW16600   1.518   2.385   0.772
 5234SOL    HW116601   1.560   2.362   0.684
 5234SOL    HW216602   1.526   2.483   0.788
 5235SOL     OW16603   2.412   1.555   0.948
 5235SOL    HW116604   2.373   1.581   0.860
 5235SOL    HW216605   2.461   1.634   0.987
 5236SOL     OW16606   3.367   5.261   2.349
 5236SOL    HW116607   3.274   5.234   2.376
 5236SOL    HW216608   3.386   5.352   2.385
 5237SOL     OW16609   1.826   2.450   4.400
 5237SOL    HW116610   1.899   2.409   4.346
 5237SOL    HW216611   1.758   2.492   4.339
 5238SOL     OW16612   1.321   4.962   2.995
 5238SOL    HW116613   1.347   4.922   3.083
 5238SOL    HW216614   1.383   5.037   2.972
 5239SOL     OW16615   3.179   3.663   1.367
 5239SOL    HW116616   3.130   3.703   1.290
 5239SOL    HW216617   3.120   3.664   1.448
 5240SOL     OW16618   2.733   2.972   5.993
 5240SOL    HW116619   2.774   2.882   5.977
 5240SOL    HW216620   2.797   3.029   6.044
 5241SOL     OW16621   1.496   5.937   2.128
 5241SOL    HW116622   1.465   6.024   2.166
 5241SOL    HW216623   1.454   5.925   2.037
 5242SOL     OW16624   5.002   1.022   1.006
 5242SOL    HW116625   4.975   0.927   0.991
 5242SOL    HW216626   4.935   1.066   1.066
 5243SOL     OW16627   2.065   5.994   1.625
 5243SOL    HW116628   2.006   6.018   1.548
 5243SOL    HW216629   2.155   5.966   1.590
 5244SOL     OW16630   5.202   3.589   0.848
 5244SOL    HW116631   5.137   3.570   0.775
 5244SOL    HW216632   5.160   3.652   0.914
 5245SOL     OW16633   4.274   4.476   0.503
 5245SOL    HW116634   4.299   4.441   0.413
 5245SOL    HW216635   4.182   4.515   0.500
 5246SOL     OW16636   6.523   2.676   2.133
 5246SOL    HW116637   6.470   2.749   2.088
 5246SOL    HW216638   6.614   2.711   2.155
 5247SOL     OW16639   3.674   1.622   5.524
 5247SOL    HW116640   3.690   1.717   5.553
 5247SOL    HW216641   3.751   1.565   5.553
 5248SOL     OW16642   6.857   1.855   2.735
 5248SOL    HW116643   6.917   1.786   2.775
 5248SOL    HW216644   6.902   1.898   2.657
 5249SOL     OW16645   1.245   4.814   0.459
 5249SOL    HW116646   1.151   4.848   0.467
 5249SOL    HW216647   1.284   4.844   0.372
 5250SOL     OW16648   2.107   5.587   0.162
 5250SOL    HW116649   2.136   5.622   0.073
 5250SOL    HW216650   2.181   5.532   0.201
 5251SOL     OW16651   1.316   4.267   1.490
 5251SOL    HW116652   1.277   4.195   1.433
 5251SOL    HW216653   1.258   4.349   1.486
 5252SOL     OW16654   3.134   6.683   2.129
 5252SOL    HW116655   3.107   6.589   2.154
 5252SOL    HW216656   3.060   6.727   2.079
 5253SOL     OW16657   5.777   4.374   4.729
 5253SOL    HW116658   5.831   4.294   4.700
 5253SOL    HW216659   5.701   4.343   4.786
 5254SOL     OW16660   5.585   0.247   3.082
 5254SOL    HW116661   5.650   0.173   3.064
 5254SOL    HW216662   5.634   0.335   3.081
 5255SOL     OW16663   5.736   2.083   4.689
 5255SOL    HW116664   5.788   2.090   4.604
 5255SOL    HW216665   5.651   2.032   4.672
 5256SOL     OW16666   4.616   0.983   3.129
 5256SOL    HW116667   4.575   1.055   3.073
 5256SOL    HW216668   4.635   1.019   3.221
 5257SOL     OW16669   4.038   0.420   6.877
 5257SOL    HW116670   4.079   0.336   6.912
 5257SOL    HW216671   4.063   0.432   6.781
 5258SOL     OW16672   5.497   1.479   2.561
 5258SOL    HW116673   5.453   1.567   2.541
 5258SOL    HW216674   5.466   1.447   2.651
 5259SOL     OW16675   5.112   5.687   2.962
 5259SOL    HW116676   5.044   5.616   2.941
 5259SOL    HW216677   5.092   5.726   3.052
 5260SOL     OW16678   2.923   5.664   0.241
 5260SOL    HW116679   2.850   5.732   0.247
 5260SOL    HW216680   2.972   5.676   0.154
 5261SOL     OW16681   6.694   4.915   1.123
 5261SOL    HW116682   6.672   4.935   1.219
 5261SOL    HW216683   6.612   4.879   1.077
 5262SOL     OW16684   2.377   0.665   3.100
 5262SOL    HW116685   2.428   0.643   3.017
 5262SOL    HW216686   2.291   0.710   3.075
 5263SOL     OW16687   1.567   1.115   3.250
 5263SOL    HW116688   1.555   1.044   3.181
 5263SOL    HW216689   1.653   1.101   3.298
 5264SOL     OW16690   6.885   2.198   1.933
 5264SOL    HW116691   6.804   2.245   1.900
 5264SOL    HW216692   6.917   2.133   1.864
 5265SOL     OW16693   5.311   2.584   4.399
 5265SOL    HW116694   5.282   2.490   4.385
 5265SOL    HW216695   5.346   2.595   4.492
 5266SOL     OW16696   2.406   6.481   0.838
 5266SOL    HW116697   2.333   6.441   0.782
 5266SOL    HW216698   2.385   6.577   0.856
 5267SOL     OW16699   4.368   2.313   4.449
 5267SOL    HW116700   4.399   2.219   4.434
 5267SOL    HW216701   4.423   2.376   4.395
 5268SOL     OW16702   5.604   0.760   6.948
 5268SOL    HW116703   5.690   0.775   6.996
 5268SOL    HW216704   5.616   0.692   6.876
 5269SOL     OW16705   0.543   6.593   2.276
 5269SOL    HW116706   0.479   6.617   2.203
 5269SOL    HW216707   0.505   6.622   2.364
 5270SOL     OW16708   6.276   2.024   0.400
 5270SOL    HW116709   6.176   2.026   0.394
 5270SOL    HW216710   6.308   2.107   0.447
 5271SOL     OW16711   6.341   5.240   5.004
 5271SOL    HW116712   6.277   5.226   4.928
 5271SOL    HW216713   6.434   5.218   4.974
 5272SOL     OW16714   4.018   6.616   0.764
 5272SOL    HW116715   3.954   6.603   0.688
 5272SOL    HW216716   3.979   6.577   0.848
 5273SOL     OW16717   1.151   3.268   2.653
 5273SOL    HW116718   1.203   3.354   2.651
 5273SOL    HW216719   1.064   3.283   2.699
 5274SOL     OW16720   4.628   6.600   2.434
 5274SOL    HW116721   4.605   6.594   2.337
 5274SOL    HW216722   4.694   6.529   2.457
 5275SOL     OW16723   2.859   0.346   1.031
 5275SOL    HW116724   2.858   0.430   0.978
 5275SOL    HW216725   2.797   0.354   1.108
 5276SOL     OW16726   2.232   6.841   1.648
 5276SOL    HW116727   2.328   6.816   1.635
 5276SOL    HW216728   2.225   6.934   1.684
 5277SOL     OW16729   2.851   1.123   2.489
 5277SOL    HW116730   2.906   1.206   2.480
 5277SOL    HW216731   2.907   1.043   2.470
 5278SOL     OW16732   3.976   4.836   2.794
 5278SOL    HW116733   3.877   4.825   2.801
 5278SOL    HW216734   4.002   4.849   2.699
 5279SOL     OW16735   2.902   5.569   1.190
 5279SOL    HW116736   2.834   5.604   1.125
 5279SOL    HW216737   2.979   5.633   1.195
 5280SOL     OW16738   3.298   6.163   5.249
 5280SOL    HW116739   3.385   6.155   5.200
 5280SOL    HW216740   3.298   6.100   5.326
 5281SOL     OW16741   0.059   1.567   2.414
 5281SOL    HW116742   0.059   1.646   2.476
 5281SOL    HW216743   0.138   1.509   2.434
 5282SOL     OW16744   2.363   1.928   3.512
 5282SOL    HW116745   2.382   1.927   3.414
 5282SOL    HW216746   2.294   1.996   3.532
 5283SOL     OW16747   5.168   5.574   1.018
 5283SOL    HW116748   5.078   5.592   0.978
 5283SOL    HW216749   5.227   5.653   1.004
 5284SOL     OW16750   5.336   4.309   3.029
 5284SOL    HW116751   5.301   4.232   2.974
 5284SOL    HW216752   5.324   4.288   3.126
 5285SOL     OW16753   3.289   4.950   4.055
 5285SOL    HW116754   3.344   4.916   4.131
 5285SOL    HW216755   3.318   4.906   3.970
 5286SOL     OW16756   2.107   4.177   1.218
 5286SOL    HW116757   2.030   4.241   1.217
 5286SOL    HW216758   2.073   4.083   1.208
 5287SOL     OW16759   2.450   1.033   0.658
 5287SOL    HW116760   2.445   1.129   0.628
 5287SOL    HW216761   2.397   0.976   0.595
 5288SOL     OW16762   3.124   0.248   0.995
 5288SOL    HW116763   3.027   0.272   0.996
 5288SOL    HW216764   3.148   0.207   0.907
 5289SOL     OW16765   0.982   5.200   0.918
 5289SOL    HW116766   1.074   5.166   0.937
 5289SOL    HW216767   0.915   5.130   0.941
 5290SOL     OW16768   3.849   5.815   7.014
 5290SOL    HW116769   3.900   5.806   6.929
 5290SOL    HW216770   3.853   5.910   0.024
 5291SOL     OW16771   1.585   4.869   5.595
 5291SOL    HW116772   1.582   4.785   5.541
 5291SOL    HW216773   1.668   4.871   5.651
 5292SOL     OW16774   5.036   3.236   6.760
 5292SOL    HW116775   5.053   3.302   6.832
 5292SOL    HW216776   5.017   3.146   6.801
 5293SOL     OW16777   0.850   0.521   4.467
 5293SOL    HW116778   0.770   0.465   4.443
 5293SOL    HW216779   0.909   0.530   4.387
 5294SOL     OW16780   5.855   2.914   6.131
 5294SOL    HW116781   5.930   2.848   6.126
 5294SOL    HW216782   5.823   2.934   6.038
 5295SOL     OW16783   5.793   1.119   2.940
 5295SOL    HW116784   5.746   1.031   2.953
 5295SOL    HW216785   5.727   1.193   2.945
 5296SOL     OW16786   1.852   4.476   0.720
 5296SOL    HW116787   1.857   4.479   0.819
 5296SOL    HW216788   1.903   4.552   0.681
 5297SOL     OW16789   2.346   1.342   1.307
 5297SOL    HW116790   2.338   1.252   1.350
 5297SOL    HW216791   2.386   1.332   1.216
 5298SOL     OW16792   6.350   4.707   1.372
 5298SOL    HW116793   6.363   4.799   1.335
 5298SOL    HW216794   6.403   4.698   1.456
 5299SOL     OW16795   3.129   0.907   1.567
 5299SOL    HW116796   3.035   0.913   1.600
 5299SOL    HW216797   3.131   0.924   1.469
 5300SOL     OW16798   0.320   6.769   3.528
 5300SOL    HW116799   0.399   6.760   3.468
 5300SOL    HW216800   0.276   6.679   3.539
 5301SOL     OW16801   4.433   1.559   6.786
 5301SOL    HW116802   4.350   1.571   6.841
 5301SOL    HW216803   4.413   1.499   6.709
 5302SOL     OW16804   6.334   4.452   2.979
 5302SOL    HW116805   6.411   4.449   3.041
 5302SOL    HW216806   6.325   4.544   2.940
 5303SOL     OW16807   6.840   4.565   3.716
 5303SOL    HW116808   6.892   4.535   3.636
 5303SOL    HW216809   6.843   4.665   3.722
 5304SOL     OW16810   4.759   1.780   5.780
 5304SOL    HW116811   4.771   1.681   5.780
 5304SOL    HW216812   4.663   1.803   5.793
 5305SOL     OW16813   2.514   0.976   3.489
 5305SOL    HW116814   2.614   0.974   3.498
 5305SOL    HW216815   2.473   1.006   3.575
 5306SOL     OW16816   2.890   6.401   6.328
 5306SOL    HW116817   2.956   6.328   6.347
 5306SOL    HW216818   2.838   6.379   6.245
 5307SOL     OW16819   4.677   0.044   6.380
 5307SOL    HW116820   4.692   6.968   6.364
 5307SOL    HW216821   4.626   0.083   6.303
 5308SOL     OW16822   6.831   1.163   3.383
 5308SOL    HW116823   6.930   1.154   3.373
 5308SOL    HW216824   6.787   1.151   3.293
 5309SOL     OW16825   3.780   3.980   4.097
 5309SOL    HW116826   3.703   3.967   4.035
 5309SOL    HW216827   3.857   3.922   4.067
 5310SOL     OW16828   5.527   1.903   1.565
 5310SOL    HW116829   5.487   1.993   1.549
 5310SOL    HW216830   5.457   1.842   1.602
 5311SOL     OW16831   1.914   5.525   6.718
 5311SOL    HW116832   1.878   5.564   6.802
 5311SOL    HW216833   1.891   5.428   6.713
 5312SOL     OW16834   1.188   4.240   3.020
 5312SOL    HW116835   1.151   4.176   3.088
 5312SOL    HW216836   1.283   4.215   3.000
 5313SOL     OW16837   1.152   5.929   6.345
 5313SOL    HW116838   1.074   5.933   6.407
 5313SOL    HW216839   1.237   5.946   6.395
 5314SOL     OW16840   3.955   5.505   6.904
 5314SOL    HW116841   4.024   5.576   6.890
 5314SOL    HW216842   3.971   5.459   6.991
 5315SOL     OW16843   5.886   3.390   2.063
 5315SOL    HW116844   5.813   3.447   2.025
 5315SOL    HW216845   5.947   3.447   2.119
 5316SOL     OW16846   6.900   4.586   4.510
 5316SOL    HW116847   6.927   4.494   4.482
 5316SOL    HW216848   6.888   4.644   4.430
 5317SOL     OW16849   5.283   0.367   2.350
 5317SOL    HW116850   5.216   0.377   2.423
 5317SOL    HW216851   5.305   0.456   2.312
 5318SOL     OW16852   0.404   2.943   4.409
 5318SOL    HW116853   0.333   2.875   4.391
 5318SOL    HW216854   0.361   3.030   4.436
 5319SOL     OW16855   4.946   0.324   0.222
 5319SOL    HW116856   4.944   0.241   0.279
 5319SOL    HW216857   5.030   0.326   0.169
 5320SOL     OW16858   5.709   3.594   6.664
 5320SOL    HW116859   5.746   3.533   6.594
 5320SOL    HW216860   5.710   3.547   6.752
 5321SOL     OW16861   1.358   5.767   5.522
 5321SOL    HW116862   1.432   5.745   5.459
 5321SOL    HW216863   1.369   5.713   5.606
 5322SOL     OW16864   3.479   5.206   6.224
 5322SOL    HW116865   3.395   5.226   6.275
 5322SOL    HW216866   3.490   5.107   6.216
 5323SOL     OW16867   4.403   2.083   0.298
 5323SOL    HW116868   4.423   2.081   0.200
 5323SOL    HW216869   4.305   2.075   0.312
 5324SOL     OW16870   4.156   2.868   1.674
 5324SOL    HW116871   4.181   2.829   1.586
 5324SOL    HW216872   4.065   2.835   1.701
 5325SOL     OW16873   5.283   6.444   2.339
 5325SOL    HW116874   5.332   6.457   2.425
 5325SOL    HW216875   5.243   6.353   2.336
 5326SOL     OW16876   6.664   5.918   1.326
 5326SOL    HW116877   6.709   5.865   1.398
 5326SOL    HW216878   6.566   5.924   1.345
 5327SOL     OW16879   6.558   6.771   4.244
 5327SOL    HW116880   6.577   6.857   4.290
 5327SOL    HW216881   6.638   6.712   4.248
 5328SOL     OW16882   3.605   3.927   0.223
 5328SOL    HW116883   3.643   3.846   0.269
 5328SOL    HW216884   3.678   3.991   0.200
 5329SOL     OW16885   0.443   4.369   0.754
 5329SOL    HW116886   0.344   4.373   0.735
 5329SOL    HW216887   0.458   4.324   0.842
 5330SOL     OW16888   3.616   3.829   1.265
 5330SOL    HW116889   3.563   3.787   1.191
 5330SOL    HW216890   3.625   3.927   1.248
 5331SOL     OW16891   4.653   2.354   0.537
 5331SOL    HW116892   4.561   2.315   0.531
 5331SOL    HW216893   4.652   2.431   0.602
 5332SOL     OW16894   6.289   4.337   0.323
 5332SOL    HW116895   6.306   4.432   0.298
 5332SOL    HW216896   6.214   4.302   0.267
 5333SOL     OW16897   1.857   1.163   3.464
 5333SOL    HW116898   1.817   1.197   3.549
 5333SOL    HW216899   1.876   1.241   3.403
 5334SOL     OW16900   4.531   4.469   2.891
 5334SOL    HW116901   4.618   4.518   2.885
 5334SOL    HW216902   4.514   4.422   2.804
 5335SOL     OW16903   0.216   4.695   1.552
 5335SOL    HW116904   0.176   4.770   1.605
 5335SOL    HW216905   0.221   4.722   1.456
 5336SOL     OW16906   1.749   2.116   4.178
 5336SOL    HW116907   1.665   2.167   4.159
 5336SOL    HW216908   1.777   2.132   4.272
 5337SOL     OW16909   0.036   4.580   1.234
 5337SOL    HW116910   6.994   4.509   1.203
 5337SOL    HW216911   7.007   4.653   1.279
 5338SOL     OW16912   6.599   3.516   0.775
 5338SOL    HW116913   6.651   3.593   0.740
 5338SOL    HW216914   6.627   3.432   0.728
 5339SOL     OW16915   5.628   2.678   2.797
 5339SOL    HW116916   5.606   2.692   2.701
 5339SOL    HW216917   5.697   2.607   2.806
 5340SOL     OW16918   5.550   2.721   2.550
 5340SOL    HW116919   5.558   2.818   2.526
 5340SOL    HW216920   5.559   2.666   2.467
 5341SOL     OW16921   4.567   5.215   3.654
 5341SOL    HW116922   4.655   5.190   3.613
 5341SOL    HW216923   4.502   5.237   3.582
 5342SOL     OW16924   5.906   0.192   4.608
 5342SOL    HW116925   5.916   0.289   4.584
 5342SOL    HW216926   5.849   0.183   4.689
 5343SOL     OW16927   4.017   3.645   5.607
 5343SOL    HW116928   4.076   3.723   5.630
 5343SOL    HW216929   4.064   3.587   5.541
 5344SOL     OW16930   0.629   1.856   5.990
 5344SOL    HW116931   0.631   1.917   6.069
 5344SOL    HW216932   0.544   1.871   5.938
 5345SOL     OW16933   5.594   1.834   6.787
 5345SOL    HW116934   5.571   1.736   6.788
 5345SOL    HW216935   5.673   1.849   6.728
 5346SOL     OW16936   2.860   5.214   3.980
 5346SOL    HW116937   2.865   5.270   4.063
 5346SOL    HW216938   2.767   5.220   3.942
 5347SOL     OW16939   6.293   1.945   4.171
 5347SOL    HW116940   6.361   1.990   4.228
 5347SOL    HW216941   6.321   1.951   4.075
 5348SOL     OW16942   5.366   2.257   3.530
 5348SOL    HW116943   5.302   2.197   3.482
 5348SOL    HW216944   5.441   2.203   3.568
 5349SOL     OW16945   0.463   3.463   2.442
 5349SOL    HW116946   0.404   3.427   2.514
 5349SOL    HW216947   0.509   3.388   2.395
 5350SOL     OW16948   2.315   6.614   6.012
 5350SOL    HW116949   2.231   6.571   5.980
 5350SOL    HW216950   2.385   6.544   6.027
 5351SOL     OW16951   0.558   5.666   1.834
 5351SOL    HW116952   0.552   5.684   1.736
 5351SOL    HW216953   0.492   5.595   1.859
 5352SOL     OW16954   2.009   3.707   4.338
 5352SOL    HW116955   2.038   3.637   4.403
 5352SOL    HW216956   1.940   3.669   4.276
 5353SOL     OW16957   4.495   5.892   3.094
 5353SOL    HW116958   4.450   5.946   3.164
 5353SOL    HW216959   4.445   5.900   3.008
 5354SOL     OW16960   3.714   5.463   0.396
 5354SOL    HW116961   3.636   5.495   0.342
 5354SOL    HW216962   3.733   5.367   0.373
 5355SOL     OW16963   5.117   4.900   5.388
 5355SOL    HW116964   5.207   4.858   5.402
 5355SOL    HW216965   5.080   4.870   5.300
 5356SOL     OW16966   0.288   4.912   1.317
 5356SOL    HW116967   0.213   4.977   1.332
 5356SOL    HW216968   0.375   4.956   1.340
 5357SOL     OW16969   4.953   4.849   2.165
 5357SOL    HW116970   4.985   4.852   2.260
 5357SOL    HW216971   4.927   4.940   2.135
 5358SOL     OW16972   4.477   1.698   0.546
 5358SOL    HW116973   4.406   1.693   0.476
 5358SOL    HW216974   4.536   1.777   0.527
 5359SOL     OW16975   1.580   2.202   6.539
 5359SOL    HW116976   1.594   2.141   6.461
 5359SOL    HW216977   1.666   2.246   6.564
 5360SOL     OW16978   4.995   4.714   3.092
 5360SOL    HW116979   4.935   4.672   3.161
 5360SOL    HW216980   5.071   4.760   3.138
 5361SOL     OW16981   2.828   6.000   2.452
 5361SOL    HW116982   2.830   5.996   2.352
 5361SOL    HW216983   2.898   6.064   2.484
 5362SOL     OW16984   5.840   0.581   1.771
 5362SOL    HW116985   5.907   0.507   1.777
 5362SOL    HW216986   5.851   0.629   1.683
 5363SOL     OW16987   5.455   5.153   5.082
 5363SOL    HW116988   5.543   5.176   5.041
 5363SOL    HW216989   5.435   5.056   5.067
 5364SOL     OW16990   4.816   0.792   2.447
 5364SOL    HW116991   4.724   0.774   2.482
 5364SOL    HW216992   4.883   0.754   2.510
 5365SOL     OW16993   3.185   2.972   4.373
 5365SOL    HW116994   3.136   3.034   4.435
 5365SOL    HW216995   3.183   3.009   4.280
 5366SOL     OW16996   6.257   6.383   1.828
 5366SOL    HW116997   6.246   6.286   1.806
 5366SOL    HW216998   6.281   6.393   1.924
 5367SOL     OW16999   6.736   6.142   1.685
 5367SOL    HW117000   6.731   6.200   1.604
 5367SOL    HW217001   6.660   6.078   1.685
 5368SOL     OW17002   6.821   5.768   3.656
 5368SOL    HW117003   6.777   5.840   3.709
 5368SOL    HW217004   6.767   5.748   3.575
 5369SOL     OW17005   2.777   6.199   2.159
 5369SOL    HW117006   2.714   6.229   2.087
 5369SOL    HW217007   2.859   6.161   2.117
 5370SOL     OW17008   2.835   3.965   1.719
 5370SOL    HW117009   2.779   3.884   1.706
 5370SOL    HW217010   2.808   4.036   1.653
 5371SOL     OW17011   6.573   5.182   4.891
 5371SOL    HW117012   6.620   5.102   4.929
 5371SOL    HW217013   6.616   5.207   4.804
 5372SOL     OW17014   0.734   0.037   2.384
 5372SOL    HW117015   0.692   0.080   2.464
 5372SOL    HW217016   0.809   0.095   2.352
 5373SOL     OW17017   3.488   0.750   6.372
 5373SOL    HW117018   3.457   0.659   6.345
 5373SOL    HW217019   3.488   0.757   6.472
 5374SOL     OW17020   3.088   5.290   1.765
 5374SOL    HW117021   3.156   5.346   1.812
 5374SOL    HW217022   3.045   5.228   1.830
 5375SOL     OW17023   0.833   5.774   4.714
 5375SOL    HW117024   0.838   5.691   4.770
 5375SOL    HW217025   0.811   5.852   4.772
 5376SOL     OW17026   0.509   1.614   6.635
 5376SOL    HW117027   0.480   1.708   6.616
 5376SOL    HW217028   0.464   1.581   6.718
 5377SOL     OW17029   2.338   0.753   3.376
 5377SOL    HW117030   2.365   0.738   3.281
 5377SOL    HW217031   2.378   0.838   3.409
 5378SOL     OW17032   5.696   1.173   2.144
 5378SOL    HW117033   5.776   1.126   2.108
 5378SOL    HW217034   5.672   1.135   2.234
 5379SOL     OW17035   1.227   3.154   6.239
 5379SOL    HW117036   1.327   3.165   6.234
 5379SOL    HW217037   1.199   3.153   6.335
 5380SOL     OW17038   4.468   6.911   0.916
 5380SOL    HW117039   4.424   6.887   0.829
 5380SOL    HW217040   4.567   6.909   0.904
 5381SOL     OW17041   4.543   6.108   3.579
 5381SOL    HW117042   4.500   6.042   3.517
 5381SOL    HW217043   4.631   6.136   3.541
 5382SOL     OW17044   3.884   1.868   1.532
 5382SOL    HW117045   3.964   1.838   1.584
 5382SOL    HW217046   3.898   1.961   1.500
 5383SOL     OW17047   2.254   2.814   4.120
 5383SOL    HW117048   2.200   2.734   4.143
 5383SOL    HW217049   2.254   2.878   4.197
 5384SOL     OW17050   5.005   5.941   5.532
 5384SOL    HW117051   5.032   6.034   5.554
 5384SOL    HW217052   4.908   5.938   5.510
 5385SOL     OW17053   5.139   2.677   5.761
 5385SOL    HW117054   5.056   2.707   5.714
 5385SOL    HW217055   5.127   2.685   5.859
 5386SOL     OW17056   6.337   4.345   3.916
 5386SOL    HW117057   6.387   4.409   3.974
 5386SOL    HW217058   6.293   4.276   3.973
 5387SOL     OW17059   1.843   1.582   2.444
 5387SOL    HW117060   1.885   1.515   2.383
 5387SOL    HW217061   1.915   1.631   2.494
 5388SOL     OW17062   0.577   6.944   2.188
 5388SOL    HW117063   0.618   6.977   2.273
 5388SOL    HW217064   0.511   6.872   2.208
 5389SOL     OW17065   4.208   1.960   3.998
 5389SOL    HW117066   4.294   1.988   4.040
 5389SOL    HW217067   4.227   1.895   3.924
 5390SOL     OW17068   6.597   3.224   3.607
 5390SOL    HW117069   6.499   3.229   3.624
 5390SOL    HW217070   6.631   3.315   3.581
 5391SOL     OW17071   1.983   2.358   0.628
 5391SOL    HW117072   1.984   2.376   0.530
 5391SOL    HW217073   1.922   2.423   0.674
 5392SOL     OW17074   5.940   2.066   3.464
 5392SOL    HW117075   5.898   2.156   3.452
 5392SOL    HW217076   5.870   2.000   3.490
 5393SOL     OW17077   3.681   1.861   5.657
 5393SOL    HW117078   3.686   1.834   5.753
 5393SOL    HW217079   3.729   1.948   5.645
 5394SOL     OW17080   1.741   0.563   1.169
 5394SOL    HW117081   1.807   0.521   1.106
 5394SOL    HW217082   1.667   0.605   1.117
 5395SOL     OW17083   5.681   1.703   1.115
 5395SOL    HW117084   5.750   1.644   1.156
 5395SOL    HW217085   5.681   1.792   1.160
 5396SOL     OW17086   5.890   5.408   3.446
 5396SOL    HW117087   5.796   5.375   3.445
 5396SOL    HW217088   5.953   5.331   3.453
 5397SOL     OW17089   6.657   1.163   3.165
 5397SOL    HW117090   6.689   1.245   3.118
 5397SOL    HW217091   6.584   1.120   3.112
 5398SOL     OW17092   4.940   1.749   3.457
 5398SOL    HW117093   4.905   1.841   3.442
 5398SOL    HW217094   5.025   1.753   3.510
 5399SOL     OW17095   2.846   0.308   5.759
 5399SOL    HW117096   2.848   0.408   5.751
 5399SOL    HW217097   2.751   0.277   5.760
 5400SOL     OW17098   3.608   3.275   1.605
 5400SOL    HW117099   3.702   3.241   1.616
 5400SOL    HW217100   3.587   3.338   1.680
 5401SOL     OW17101   6.076   4.332   1.502
 5401SOL    HW117102   6.135   4.355   1.579
 5401SOL    HW217103   6.109   4.248   1.458
 5402SOL     OW17104   1.658   0.046   1.159
 5402SOL    HW117105   1.720   0.124   1.147
 5402SOL    HW217106   1.568   0.080   1.184
 5403SOL     OW17107   5.216   3.335   0.433
 5403SOL    HW117108   5.280   3.341   0.356
 5403SOL    HW217109   5.263   3.364   0.517
 5404SOL     OW17110   6.572   1.042   1.043
 5404SOL    HW117111   6.516   1.010   1.120
 5404SOL    HW217112   6.534   1.127   1.007
 5405SOL     OW17113   5.028   6.143   6.926
 5405SOL    HW117114   4.999   6.236   6.907
 5405SOL    HW217115   5.123   6.131   6.897
 5406SOL     OW17116   2.625   0.520   3.516
 5406SOL    HW117117   2.566   0.567   3.450
 5406SOL    HW217118   2.708   0.489   3.470
 5407SOL     OW17119   1.825   0.360   2.090
 5407SOL    HW117120   1.900   0.416   2.126
 5407SOL    HW217121   1.834   0.350   1.991
 5408SOL     OW17122   3.180   2.164   4.543
 5408SOL    HW117123   3.107   2.137   4.605
 5408SOL    HW217124   3.250   2.214   4.593
 5409SOL     OW17125   1.251   2.783   0.746
 5409SOL    HW117126   1.168   2.825   0.708
 5409SOL    HW217127   1.323   2.852   0.753
 5410SOL     OW17128   0.871   2.477   0.783
 5410SOL    HW117129   0.785   2.427   0.785
 5410SOL    HW217130   0.860   2.560   0.729
 5411SOL     OW17131   3.335   4.822   6.820
 5411SOL    HW117132   3.261   4.858   6.763
 5411SOL    HW217133   3.350   4.726   6.798
 5412SOL     OW17134   0.262   2.635   5.888
 5412SOL    HW117135   0.273   2.720   5.940
 5412SOL    HW217136   0.168   2.601   5.900
 5413SOL     OW17137   7.004   6.820   4.061
 5413SOL    HW117138   0.051   6.812   4.133
 5413SOL    HW217139   0.011   6.889   3.995
 5414SOL     OW17140   6.164   3.925   5.458
 5414SOL    HW117141   6.258   3.907   5.486
 5414SOL    HW217142   6.103   3.912   5.537
 5415SOL     OW17143   3.648   0.660   0.709
 5415SOL    HW117144   3.575   0.592   0.711
 5415SOL    HW217145   3.734   0.618   0.739
 5416SOL     OW17146   3.092   5.333   6.352
 5416SOL    HW117147   3.134   5.261   6.407
 5416SOL    HW217148   2.995   5.312   6.338
 5417SOL     OW17149   4.686   5.857   3.686
 5417SOL    HW117150   4.651   5.774   3.643
 5417SOL    HW217151   4.767   5.889   3.637
 5418SOL     OW17152   6.075   3.871   4.819
 5418SOL    HW117153   6.128   3.954   4.802
 5418SOL    HW217154   6.008   3.859   4.745
 5419SOL     OW17155   4.277   0.156   6.322
 5419SOL    HW117156   4.190   0.130   6.364
 5419SOL    HW217157   4.328   0.215   6.386
 5420SOL     OW17158   1.028   0.949   1.925
 5420SOL    HW117159   1.055   1.046   1.931
 5420SOL    HW217160   0.990   0.930   1.835
 5421SOL     OW17161   3.828   5.186   2.271
 5421SOL    HW117162   3.779   5.250   2.213
 5421SOL    HW217163   3.788   5.095   2.262
 5422SOL     OW17164   2.233   6.157   4.208
 5422SOL    HW117165   2.257   6.254   4.208
 5422SOL    HW217166   2.282   6.109   4.280
 5423SOL     OW17167   6.173   6.121   2.282
 5423SOL    HW117168   6.173   6.192   2.212
 5423SOL    HW217169   6.116   6.149   2.359
 5424SOL     OW17170   4.484   3.850   5.688
 5424SOL    HW117171   4.517   3.905   5.610
 5424SOL    HW217172   4.562   3.821   5.743
 5425SOL     OW17173   0.523   3.280   5.535
 5425SOL    HW117174   0.556   3.375   5.534
 5425SOL    HW217175   0.444   3.273   5.595
 5426SOL     OW17176   5.775   5.314   2.343
 5426SOL    HW117177   5.773   5.407   2.306
 5426SOL    HW217178   5.870   5.287   2.359
 5427SOL     OW17179   4.740   2.416   6.534
 5427SOL    HW117180   4.672   2.375   6.594
 5427SOL    HW217181   4.832   2.393   6.566
 5428SOL     OW17182   6.930   5.155   3.227
 5428SOL    HW117183   7.010   5.179   3.172
 5428SOL    HW217184   6.880   5.238   3.251
 5429SOL     OW17185   2.810   6.929   3.906
 5429SOL    HW117186   2.893   6.981   3.931
 5429SOL    HW217187   2.828   6.878   3.822
 5430SOL     OW17188   2.702   3.671   6.281
 5430SOL    HW117189   2.802   3.672   6.275
 5430SOL    HW217190   2.663   3.676   6.189
 5431SOL     OW17191   3.523   4.883   6.176
 5431SOL    HW117192   3.474   4.918   6.097
 5431SOL    HW217193   3.497   4.788   6.192
 5432SOL     OW17194   5.239   5.023   0.313
 5432SOL    HW117195   5.284   5.089   0.373
 5432SOL    HW217196   5.169   4.974   0.364
 5433SOL     OW17197   1.662   6.805   1.089
 5433SOL    HW117198   1.651   6.900   1.117
 5433SOL    HW217199   1.576   6.769   1.055
 5434SOL     OW17200   5.208   0.458   4.436
 5434SOL    HW117201   5.242   0.394   4.505
 5434SOL    HW217202   5.110   0.470   4.447
 5435SOL     OW17203   6.768   4.009   1.051
 5435SOL    HW117204   6.771   3.926   1.107
 5435SOL    HW217205   6.758   3.984   0.955
 5436SOL     OW17206   1.557   4.401   3.083
 5436SOL    HW117207   1.494   4.386   3.007
 5436SOL    HW217208   1.605   4.488   3.070
 5437SOL     OW17209   3.956   5.934   1.148
 5437SOL    HW117210   3.924   5.894   1.234
 5437SOL    HW217211   3.914   6.025   1.137
 5438SOL     OW17212   4.856   4.948   3.025
 5438SOL    HW117213   4.903   4.860   3.014
 5438SOL    HW217214   4.767   4.945   2.980
 5439SOL     OW17215   1.500   5.327   1.619
 5439SOL    HW117216   1.468   5.241   1.659
 5439SOL    HW217217   1.519   5.393   1.692
 5440SOL     OW17218   5.893   5.915   3.659
 5440SOL    HW117219   5.865   5.929   3.564
 5440SOL    HW217220   5.894   6.003   3.707
 5441SOL     OW17221   4.874   2.624   3.295
 5441SOL    HW117222   4.816   2.560   3.245
 5441SOL    HW217223   4.829   2.713   3.301
 5442SOL     OW17224   4.793   6.887   5.042
 5442SOL    HW117225   4.738   6.970   5.034
 5442SOL    HW217226   4.877   6.909   5.092
 5443SOL     OW17227   4.220   0.552   4.500
 5443SOL    HW117228   4.310   0.592   4.480
 5443SOL    HW217229   4.148   0.618   4.474
 5444SOL     OW17230   6.676   0.671   4.848
 5444SOL    HW117231   6.624   0.708   4.771
 5444SOL    HW217232   6.633   0.586   4.879
 5445SOL     OW17233   5.367   5.383   5.644
 5445SOL    HW117234   5.345   5.454   5.711
 5445SOL    HW217235   5.442   5.327   5.679
 5446SOL     OW17236   0.584   4.643   6.159
 5446SOL    HW117237   0.504   4.617   6.105
 5446SOL    HW217238   0.662   4.587   6.132
 5447SOL     OW17239   1.162   1.432   0.098
 5447SOL    HW117240   1.159   1.516   0.043
 5447SOL    HW217241   1.122   1.450   0.188
 5448SOL     OW17242   4.461   5.478   3.150
 5448SOL    HW117243   4.404   5.495   3.231
 5448SOL    HW217244   4.403   5.477   3.068
 5449SOL     OW17245   2.757   1.996   1.801
 5449SOL    HW117246   2.826   1.950   1.858
 5449SOL    HW217247   2.797   2.077   1.760
 5450SOL     OW17248   4.131   5.744   1.492
 5450SOL    HW117249   4.036   5.776   1.493
 5450SOL    HW217250   4.134   5.649   1.462
 5451SOL     OW17251   0.825   0.227   3.142
 5451SOL    HW117252   0.851   0.304   3.201
 5451SOL    HW217253   0.726   0.229   3.126
 5452SOL     OW17254   2.209   5.042   2.024
 5452SOL    HW117255   2.306   5.052   2.002
 5452SOL    HW217256   2.179   5.118   2.082
 5453SOL     OW17257   5.615   4.294   3.021
 5453SOL    HW117258   5.522   4.320   2.996
 5453SOL    HW217259   5.617   4.198   3.047
 5454SOL     OW17260   5.614   5.403   3.551
 5454SOL    HW117261   5.534   5.392   3.609
 5454SOL    HW217262   5.587   5.443   3.463
 5455SOL     OW17263   0.730   1.772   3.032
 5455SOL    HW117264   0.704   1.677   3.051
 5455SOL    HW217265   0.801   1.775   2.963
 5456SOL     OW17266   6.005   1.317   0.014
 5456SOL    HW117267   6.083   1.308   0.076
 5456SOL    HW217268   5.991   1.413   7.014
 5457SOL     OW17269   6.116   2.848   0.373
 5457SOL    HW117270   6.076   2.925   0.422
 5457SOL    HW217271   6.214   2.842   0.393
 5458SOL     OW17272   6.395   4.605   0.755
 5458SOL    HW117273   6.327   4.678   0.742
 5458SOL    HW217274   6.387   4.539   0.681
 5459SOL     OW17275   2.244   3.816   5.540
 5459SOL    HW117276   2.312   3.757   5.583
 5459SOL    HW217277   2.160   3.764   5.526
 5460SOL     OW17278   2.098   0.460   6.969
 5460SOL    HW117279   2.027   0.401   6.931
 5460SOL    HW217280   2.057   0.524   0.013
 5461SOL     OW17281   6.475   1.611   6.052
 5461SOL    HW117282   6.485   1.555   6.134
 5461SOL    HW217283   6.417   1.564   5.986
 5462SOL     OW17284   5.597   5.464   6.910
 5462SOL    HW117285   5.509   5.418   6.921
 5462SOL    HW217286   5.606   5.537   6.979
 5463SOL     OW17287   0.049   3.016   0.017
 5463SOL    HW117288   0.003   2.933   7.007
 5463SOL    HW217289   0.136   3.026   6.990
 5464SOL     OW17290   6.839   6.257   5.290
 5464SOL    HW117291   6.903   6.193   5.333
 5464SOL    HW217292   6.809   6.324   5.358
 5465SOL     OW17293   6.740   6.415   3.327
 5465SOL    HW117294   6.648   6.381   3.307
 5465SOL    HW217295   6.760   6.492   3.266
 5466SOL     OW17296   5.724   2.600   5.552
 5466SOL    HW117297   5.649   2.578   5.614
 5466SOL    HW217298   5.717   2.543   5.470
 5467SOL     OW17299   5.482   3.652   3.767
 5467SOL    HW117300   5.518   3.559   3.761
 5467SOL    HW217301   5.467   3.676   3.863
 5468SOL     OW17302   0.426   1.325   2.047
 5468SOL    HW117303   0.346   1.383   2.032
 5468SOL    HW217304   0.491   1.373   2.105
 5469SOL     OW17305   2.250   1.045   5.349
 5469SOL    HW117306   2.177   1.113   5.339
 5469SOL    HW217307   2.209   0.956   5.368
 5470SOL     OW17308   3.725   5.345   4.211
 5470SOL    HW117309   3.637   5.317   4.250
 5470SOL    HW217310   3.713   5.433   4.165
 5471SOL     OW17311   4.725   0.297   3.056
 5471SOL    HW117312   4.775   0.281   2.970
 5471SOL    HW217313   4.718   0.395   3.072
 5472SOL     OW17314   2.513   1.621   6.459
 5472SOL    HW117315   2.560   1.565   6.391
 5472SOL    HW217316   2.493   1.711   6.419
 5473SOL     OW17317   2.577   4.253   1.328
 5473SOL    HW117318   2.508   4.208   1.271
 5473SOL    HW217319   2.531   4.309   1.397
 5474SOL     OW17320   0.552   5.395   3.354
 5474SOL    HW117321   0.585   5.395   3.448
 5474SOL    HW217322   0.475   5.458   3.346
 5475SOL     OW17323   0.097   2.052   5.922
 5475SOL    HW117324   0.079   2.150   5.928
 5475SOL    HW217325   0.181   2.030   5.971
 5476SOL     OW17326   2.417   6.369   6.363
 5476SOL    HW117327   2.421   6.458   6.408
 5476SOL    HW217328   2.365   6.305   6.420
 5477SOL     OW17329   2.252   5.657   4.373
 5477SOL    HW117330   2.285   5.562   4.373
 5477SOL    HW217331   2.152   5.658   4.381
 5478SOL     OW17332   5.366   4.625   6.555
 5478SOL    HW117333   5.427   4.563   6.604
 5478SOL    HW217334   5.306   4.572   6.496
 5479SOL     OW17335   3.416   2.105   4.900
 5479SOL    HW117336   3.434   2.078   4.995
 5479SOL    HW217337   3.318   2.122   4.889
 5480SOL     OW17338   6.493   4.314   5.083
 5480SOL    HW117339   6.443   4.373   5.147
 5480SOL    HW217340   6.494   4.357   4.993
 5481SOL     OW17341   4.696   0.868   6.662
 5481SOL    HW117342   4.608   0.873   6.614
 5481SOL    HW217343   4.708   0.950   6.718
 5482SOL     OW17344   4.152   3.295   1.721
 5482SOL    HW117345   4.217   3.220   1.735
 5482SOL    HW217346   4.154   3.357   1.800
 5483SOL     OW17347   6.769   3.763   5.861
 5483SOL    HW117348   6.764   3.778   5.763
 5483SOL    HW217349   6.690   3.805   5.906
 5484SOL     OW17350   6.909   6.343   3.797
 5484SOL    HW117351   6.954   6.354   3.709
 5484SOL    HW217352   6.977   6.346   3.870
 5485SOL     OW17353   4.194   6.925   5.066
 5485SOL    HW117354   4.255   6.853   5.100
 5485SOL    HW217355   4.100   6.906   5.096
 5486SOL     OW17356   1.071   0.725   3.074
 5486SOL    HW117357   1.006   0.707   3.000
 5486SOL    HW217358   1.035   0.796   3.134
 5487SOL     OW17359   6.343   4.569   0.193
 5487SOL    HW117360   6.337   4.500   0.121
 5487SOL    HW217361   6.364   4.658   0.152
 5488SOL     OW17362   5.001   2.318   6.580
 5488SOL    HW117363   5.057   2.236   6.591
 5488SOL    HW217364   5.060   2.398   6.571
 5489SOL     OW17365   1.753   4.738   2.365
 5489SOL    HW117366   1.675   4.682   2.337
 5489SOL    HW217367   1.723   4.832   2.381
 5490SOL     OW17368   3.199   1.024   0.451
 5490SOL    HW117369   3.162   1.104   0.499
 5490SOL    HW217370   3.145   1.007   0.368
 5491SOL     OW17371   1.789   4.745   0.489
 5491SOL    HW117372   1.864   4.679   0.495
 5491SOL    HW217373   1.734   4.742   0.572
 5492SOL     OW17374   0.958   2.374   6.603
 5492SOL    HW117375   1.026   2.355   6.674
 5492SOL    HW217376   0.925   2.468   6.613
 5493SOL     OW17377   3.990   3.092   5.953
 5493SOL    HW117378   3.954   3.085   6.046
 5493SOL    HW217379   4.085   3.121   5.957
 5494SOL     OW17380   6.358   3.742   1.636
 5494SOL    HW117381   6.382   3.676   1.707
 5494SOL    HW217382   6.299   3.699   1.568
 5495SOL     OW17383   4.071   3.796   2.167
 5495SOL    HW117384   4.072   3.730   2.241
 5495SOL    HW217385   4.163   3.832   2.153
 5496SOL     OW17386   3.505   6.099   2.132
 5496SOL    HW117387   3.579   6.116   2.067
 5496SOL    HW217388   3.499   6.175   2.197
 5497SOL     OW17389   0.447   1.668   2.923
 5497SOL    HW117390   0.485   1.751   2.881
 5497SOL    HW217391   0.504   1.590   2.901
 5498SOL     OW17392   4.452   1.498   5.950
 5498SOL    HW117393   4.466   1.419   6.010
 5498SOL    HW217394   4.359   1.496   5.913
 5499SOL     OW17395   6.796   1.657   3.159
 5499SOL    HW117396   6.746   1.721   3.100
 5499SOL    HW217397   6.894   1.676   3.153
 5500SOL     OW17398   2.430   5.340   0.644
 5500SOL    HW117399   2.383   5.294   0.720
 5500SOL    HW217400   2.529   5.334   0.657
 5501SOL     OW17401   2.505   0.264   1.872
 5501SOL    HW117402   2.446   0.185   1.853
 5501SOL    HW217403   2.516   0.274   1.971
 5502SOL     OW17404   6.005   4.016   5.975
 5502SOL    HW117405   6.002   3.917   5.961
 5502SOL    HW217406   6.047   4.059   5.895
 5503SOL     OW17407   1.240   4.784   3.435
 5503SOL    HW117408   1.275   4.877   3.445
 5503SOL    HW217409   1.317   4.719   3.442
 5504SOL     OW17410   3.180   1.630   5.036
 5504SOL    HW117411   3.194   1.586   5.125
 5504SOL    HW217412   3.112   1.578   4.984
 5505SOL     OW17413   2.707   5.601   5.087
 5505SOL    HW117414   2.724   5.694   5.120
 5505SOL    HW217415   2.776   5.575   5.020
 5506SOL     OW17416   6.924   0.613   4.961
 5506SOL    HW117417   6.938   0.520   4.994
 5506SOL    HW217418   6.837   0.618   4.912
 5507SOL     OW17419   2.790   6.836   3.494
 5507SOL    HW117420   2.757   6.754   3.447
 5507SOL    HW217421   2.718   6.906   3.491
 5508SOL     OW17422   2.243   0.697   6.117
 5508SOL    HW117423   2.295   0.736   6.193
 5508SOL    HW217424   2.253   0.756   6.036
 5509SOL     OW17425   5.895   6.474   0.103
 5509SOL    HW117426   5.890   6.443   0.197
 5509SOL    HW217427   5.900   6.574   0.101
 5510SOL     OW17428   4.538   0.169   6.205
 5510SOL    HW117429   4.567   0.264   6.191
 5510SOL    HW217430   4.452   0.168   6.256
 5511SOL     OW17431   0.425   0.766   2.682
 5511SOL    HW117432   0.371   0.800   2.605
 5511SOL    HW217433   0.365   0.716   2.744
 5512SOL     OW17434   0.204   1.477   0.128
 5512SOL    HW117435   0.205   1.540   0.206
 5512SOL    HW217436   0.113   1.474   0.088
 5513SOL     OW17437   4.621   4.501   4.813
 5513SOL    HW117438   4.649   4.504   4.909
 5513SOL    HW217439   4.522   4.517   4.807
 5514SOL     OW17440   5.728   4.895   2.949
 5514SOL    HW117441   5.792   4.865   3.020
 5514SOL    HW217442   5.638   4.912   2.989
 5515SOL     OW17443   6.773   2.737   2.225
 5515SOL    HW117444   6.752   2.743   2.322
 5515SOL    HW217445   6.841   2.666   2.210
 5516SOL     OW17446   1.354   2.763   6.647
 5516SOL    HW117447   1.417   2.687   6.661
 5516SOL    HW217448   1.353   2.788   6.550
 5517SOL     OW17449   3.021   2.109   1.219
 5517SOL    HW117450   3.108   2.118   1.266
 5517SOL    HW217451   2.955   2.062   1.278
 5518SOL     OW17452   5.400   4.875   6.205
 5518SOL    HW117453   5.316   4.855   6.155
 5518SOL    HW217454   5.425   4.971   6.191
 5519SOL     OW17455   5.295   3.669   3.566
 5519SOL    HW117456   5.385   3.681   3.606
 5519SOL    HW217457   5.243   3.754   3.574
 5520SOL     OW17458   1.699   3.623   2.995
 5520SOL    HW117459   1.692   3.568   2.911
 5520SOL    HW217460   1.615   3.676   3.007
 5521SOL     OW17461   5.184   6.493   2.098
 5521SOL    HW117462   5.217   6.580   2.062
 5521SOL    HW217463   5.240   6.465   2.175
 5522SOL     OW17464   2.560   3.419   1.665
 5522SOL    HW117465   2.490   3.423   1.737
 5522SOL    HW217466   2.650   3.408   1.706
 5523SOL     OW17467   3.183   6.835   2.992
 5523SOL    HW117468   3.115   6.771   3.027
 5523SOL    HW217469   3.224   6.885   3.068
 5524SOL     OW17470   1.107   5.517   4.933
 5524SOL    HW117471   1.147   5.476   5.015
 5524SOL    HW217472   1.179   5.535   4.866
 5525SOL     OW17473   6.718   5.093   0.048
 5525SOL    HW117474   6.698   5.117   0.143
 5525SOL    HW217475   6.811   5.057   0.042
 5526SOL     OW17476   6.096   3.365   3.254
 5526SOL    HW117477   6.145   3.348   3.168
 5526SOL    HW217478   6.057   3.457   3.252
 5527SOL     OW17479   0.994   2.689   1.437
 5527SOL    HW117480   0.904   2.674   1.397
 5527SOL    HW217481   0.991   2.668   1.535
 5528SOL     OW17482   0.105   2.588   4.953
 5528SOL    HW117483   0.196   2.556   4.928
 5528SOL    HW217484   0.077   2.546   5.039
 5529SOL     OW17485   2.469   0.810   4.729
 5529SOL    HW117486   2.439   0.720   4.761
 5529SOL    HW217487   2.441   0.880   4.795
 5530SOL     OW17488   0.124   2.503   0.677
 5530SOL    HW117489   0.038   2.459   0.648
 5530SOL    HW217490   0.167   2.447   0.747
 5531SOL     OW17491   3.962   3.201   4.651
 5531SOL    HW117492   3.917   3.284   4.683
 5531SOL    HW217493   4.007   3.219   4.563
 5532SOL     OW17494   1.547   0.712   0.336
 5532SOL    HW117495   1.511   0.631   0.383
 5532SOL    HW217496   1.594   0.683   0.252
 5533SOL     OW17497   2.887   0.855   3.217
 5533SOL    HW117498   2.842   0.775   3.257
 5533SOL    HW217499   2.883   0.848   3.117
 5534SOL     OW17500   1.374   3.272   6.706
 5534SOL    HW117501   1.456   3.318   6.740
 5534SOL    HW217502   1.373   3.178   6.741
 5535SOL     OW17503   6.824   2.866   3.381
 5535SOL    HW117504   6.744   2.926   3.386
 5535SOL    HW217505   6.842   2.827   3.471
 5536SOL     OW17506   2.459   0.690   4.452
 5536SOL    HW117507   2.423   0.622   4.517
 5536SOL    HW217508   2.535   0.740   4.494
 5537SOL     OW17509   3.827   0.048   5.081
 5537SOL    HW117510   3.746   0.068   5.025
 5537SOL    HW217511   3.872   6.987   5.046
 5538SOL     OW17512   4.084   0.777   5.524
 5538SOL    HW117513   3.987   0.749   5.523
 5538SOL    HW217514   4.137   0.711   5.577
 5539SOL     OW17515   0.984   1.371   1.564
 5539SOL    HW117516   0.918   1.348   1.635
 5539SOL    HW217517   1.037   1.290   1.539
 5540SOL     OW17518   5.092   2.841   1.334
 5540SOL    HW117519   5.076   2.787   1.251
 5540SOL    HW217520   5.022   2.819   1.402
 5541SOL     OW17521   5.521   3.765   5.522
 5541SOL    HW117522   5.433   3.768   5.474
 5541SOL    HW217523   5.570   3.683   5.495
 5542SOL     OW17524   5.298   5.170   6.580
 5542SOL    HW117525   5.282   5.072   6.594
 5542SOL    HW217526   5.395   5.190   6.589
 5543SOL     OW17527   2.428   5.784   6.396
 5543SOL    HW117528   2.470   5.795   6.306
 5543SOL    HW217529   2.386   5.694   6.403
 5544SOL     OW17530   5.378   5.348   6.120
 5544SOL    HW117531   5.289   5.376   6.085
 5544SOL    HW217532   5.410   5.268   6.070
 5545SOL     OW17533   3.960   1.358   2.762
 5545SOL    HW117534   4.048   1.404   2.776
 5545SOL    HW217535   3.886   1.426   2.767
 5546SOL     OW17536   1.073   6.568   4.212
 5546SOL    HW117537   1.129   6.487   4.231
 5546SOL    HW217538   1.019   6.590   4.294
 5547SOL     OW17539   4.243   1.832   5.815
 5547SOL    HW117540   4.205   1.908   5.867
 5547SOL    HW217541   4.202   1.746   5.846
 5548SOL     OW17542   6.774   4.228   5.837
 5548SOL    HW117543   6.738   4.320   5.823
 5548SOL    HW217544   6.712   4.176   5.895
 5549SOL     OW17545   4.125   3.093   1.311
 5549SOL    HW117546   4.144   3.105   1.213
 5549SOL    HW217547   4.200   3.133   1.364
 5550SOL     OW17548   2.301   4.138   3.257
 5550SOL    HW117549   2.390   4.173   3.227
 5550SOL    HW217550   2.278   4.177   3.346
 5551SOL     OW17551   1.639   5.902   2.565
 5551SOL    HW117552   1.673   5.851   2.644
 5551SOL    HW217553   1.547   5.935   2.583
 5552SOL     OW17554   6.515   6.887   5.980
 5552SOL    HW117555   6.429   6.864   6.025
 5552SOL    HW217556   6.527   6.828   5.900
 5553SOL     OW17557   4.449   0.192   6.762
 5553SOL    HW117558   4.520   0.227   6.824
 5553SOL    HW217559   4.360   0.199   6.806
 5554SOL     OW17560   4.694   3.091   1.636
 5554SOL    HW117561   4.705   3.188   1.658
 5554SOL    HW217562   4.628   3.051   1.698
 5555SOL     OW17563   0.795   3.831   2.242
 5555SOL    HW117564   0.826   3.754   2.297
 5555SOL    HW217565   0.869   3.899   2.236
 5556SOL     OW17566   6.213   1.046   3.683
 5556SOL    HW117567   6.196   1.035   3.781
 5556SOL    HW217568   6.197   0.958   3.637
 5557SOL     OW17569   3.663   5.779   1.589
 5557SOL    HW117570   3.658   5.879   1.590
 5557SOL    HW217571   3.575   5.741   1.618
 5558SOL     OW17572   3.721   3.665   0.332
 5558SOL    HW117573   3.733   3.632   0.238
 5558SOL    HW217574   3.810   3.691   0.369
 5559SOL     OW17575   1.067   0.394   2.425
 5559SOL    HW117576   1.013   0.479   2.422
 5559SOL    HW217577   1.155   0.412   2.470
 5560SOL     OW17578   0.166   5.733   2.010
 5560SOL    HW117579   0.177   5.683   1.924
 5560SOL    HW217580   0.069   5.746   2.029
 5561SOL     OW17581   2.896   0.397   4.991
 5561SOL    HW117582   2.913   0.443   5.079
 5561SOL    HW217583   2.942   0.448   4.918
 5562SOL     OW17584   4.348   4.411   0.250
 5562SOL    HW117585   4.349   4.357   0.165
 5562SOL    HW217586   4.393   4.499   0.234
 5563SOL     OW17587   2.881   5.479   2.916
 5563SOL    HW117588   2.853   5.389   2.950
 5563SOL    HW217589   2.946   5.520   2.980
 5564SOL     OW17590   4.921   6.830   6.542
 5564SOL    HW117591   4.883   6.880   6.620
 5564SOL    HW217592   5.014   6.801   6.564
 5565SOL     OW17593   4.298   2.911   6.656
 5565SOL    HW117594   4.370   2.864   6.706
 5565SOL    HW217595   4.271   2.994   6.706
 5566SOL     OW17596   2.187   4.610   0.267
 5566SOL    HW117597   2.208   4.515   0.242
 5566SOL    HW217598   2.266   4.668   0.247
 5567SOL     OW17599   0.851   3.990   1.897
 5567SOL    HW117600   0.804   4.022   1.979
 5567SOL    HW217601   0.899   3.904   1.918
 5568SOL     OW17602   4.573   0.737   3.183
 5568SOL    HW117603   4.540   0.830   3.169
 5568SOL    HW217604   4.605   0.726   3.277
 5569SOL     OW17605   2.104   1.988   2.774
 5569SOL    HW117606   2.101   1.986   2.874
 5569SOL    HW217607   2.185   2.039   2.744
 5570SOL     OW17608   6.491   3.207   3.210
 5570SOL    HW117609   6.543   3.145   3.270
 5570SOL    HW217610   6.554   3.270   3.164
 5571SOL     OW17611   6.628   5.386   2.042
 5571SOL    HW117612   6.687   5.358   2.118
 5571SOL    HW217613   6.664   5.469   2.000
 5572SOL     OW17614   1.808   4.180   4.875
 5572SOL    HW117615   1.766   4.092   4.896
 5572SOL    HW217616   1.798   4.242   4.952
 5573SOL     OW17617   1.519   5.748   5.305
 5573SOL    HW117618   1.560   5.809   5.238
 5573SOL    HW217619   1.491   5.663   5.260
 5574SOL     OW17620   0.347   3.073   0.416
 5574SOL    HW117621   0.417   3.095   0.484
 5574SOL    HW217622   0.262   3.047   0.462
 5575SOL     OW17623   6.910   0.330   0.667
 5575SOL    HW117624   6.900   0.324   0.766
 5575SOL    HW217625   6.825   0.362   0.626
 5576SOL     OW17626   1.550   4.141   2.492
 5576SOL    HW117627   1.490   4.217   2.519
 5576SOL    HW217628   1.494   4.062   2.467
 5577SOL     OW17629   2.287   2.868   6.770
 5577SOL    HW117630   2.335   2.851   6.684
 5577SOL    HW217631   2.307   2.794   6.835
 5578SOL     OW17632   3.593   4.158   2.068
 5578SOL    HW117633   3.500   4.154   2.106
 5578SOL    HW217634   3.626   4.252   2.071
 5579SOL     OW17635   0.424   3.559   1.241
 5579SOL    HW117636   0.504   3.569   1.183
 5579SOL    HW217637   0.407   3.644   1.291
 5580SOL     OW17638   4.361   2.114   6.106
 5580SOL    HW117639   4.375   2.128   6.008
 5580SOL    HW217640   4.377   2.018   6.129
 5581SOL     OW17641   1.417   0.933   1.487
 5581SOL    HW117642   1.472   0.896   1.563
 5581SOL    HW217643   1.328   0.963   1.523
 5582SOL     OW17644   2.952   3.995   6.647
 5582SOL    HW117645   3.005   4.078   6.664
 5582SOL    HW217646   3.009   3.915   6.662
 5583SOL     OW17647   4.252   1.042   2.609
 5583SOL    HW117648   4.280   1.111   2.543
 5583SOL    HW217649   4.314   0.964   2.605
 5584SOL     OW17650   6.168   3.703   4.383
 5584SOL    HW117651   6.262   3.701   4.419
 5584SOL    HW217652   6.140   3.610   4.359
 5585SOL     OW17653   5.019   5.328   3.144
 5585SOL    HW117654   4.949   5.272   3.188
 5585SOL    HW217655   5.038   5.408   3.200
 5586SOL     OW17656   0.046   4.005   5.774
 5586SOL    HW117657   0.057   3.906   5.775
 5586SOL    HW217658   0.009   4.036   5.861
 5587SOL     OW17659   4.584   0.339   0.793
 5587SOL    HW117660   4.549   0.417   0.741
 5587SOL    HW217661   4.543   0.338   0.884
 5588SOL     OW17662   2.746   5.998   3.030
 5588SOL    HW117663   2.650   6.014   3.005
 5588SOL    HW217664   2.759   6.017   3.127
 5589SOL     OW17665   6.299   4.136   6.645
 5589SOL    HW117666   6.316   4.068   6.574
 5589SOL    HW217667   6.347   4.111   6.729
 5590SOL     OW17668   6.476   6.527   3.569
 5590SOL    HW117669   6.500   6.476   3.486
 5590SOL    HW217670   6.549   6.519   3.636
 5591SOL     OW17671   6.908   2.431   1.648
 5591SOL    HW117672   6.879   2.460   1.739
 5591SOL    HW217673   7.005   2.407   1.650
 5592SOL     OW17674   2.262   6.037   3.810
 5592SOL    HW117675   2.344   5.999   3.853
 5592SOL    HW217676   2.220   6.103   3.872
 5593SOL     OW17677   6.924   2.998   6.605
 5593SOL    HW117678   6.989   3.063   6.568
 5593SOL    HW217679   6.851   3.047   6.654
 5594SOL     OW17680   5.143   0.584   4.783
 5594SOL    HW117681   5.158   0.666   4.838
 5594SOL    HW217682   5.226   0.563   4.732
 5595SOL     OW17683   0.919   1.493   4.607
 5595SOL    HW117684   0.861   1.554   4.660
 5595SOL    HW217685   0.936   1.533   4.517
 5596SOL     OW17686   4.204   6.551   2.952
 5596SOL    HW117687   4.167   6.541   2.859
 5596SOL    HW217688   4.217   6.460   2.992
 5597SOL     OW17689   4.554   2.484   4.338
 5597SOL    HW117690   4.567   2.510   4.242
 5597SOL    HW217691   4.585   2.559   4.397
 5598SOL     OW17692   5.582   3.558   4.368
 5598SOL    HW117693   5.587   3.488   4.438
 5598SOL    HW217694   5.587   3.515   4.277
 5599SOL     OW17695   1.204   1.467   4.230
 5599SOL    HW117696   1.239   1.374   4.217
 5599SOL    HW217697   1.164   1.499   4.144
 5600SOL     OW17698   1.082   1.204   1.966
 5600SOL    HW117699   0.988   1.236   1.958
 5600SOL    HW217700   1.145   1.275   1.934
 5601SOL     OW17701   2.472   0.872   5.522
 5601SOL    HW117702   2.498   0.861   5.618
 5601SOL    HW217703   2.467   0.970   5.501
 5602SOL     OW17704   6.402   1.751   0.846
 5602SOL    HW117705   6.338   1.802   0.788
 5602SOL    HW217706   6.492   1.794   0.843
 5603SOL     OW17707   5.897   2.204   6.519
 5603SOL    HW117708   5.881   2.135   6.448
 5603SOL    HW217709   5.833   2.280   6.506
 5604SOL     OW17710   6.500   2.515   4.729
 5604SOL    HW117711   6.462   2.446   4.791
 5604SOL    HW217712   6.578   2.478   4.680
 5605SOL     OW17713   0.662   0.691   4.688
 5605SOL    HW117714   0.648   0.787   4.712
 5605SOL    HW217715   0.680   0.638   4.771
 5606SOL     OW17716   4.734   6.662   0.650
 5606SOL    HW117717   4.714   6.644   0.554
 5606SOL    HW217718   4.765   6.578   0.694
 5607SOL     OW17719   5.392   0.206   2.742
 5607SOL    HW117720   5.398   0.305   2.744
 5607SOL    HW217721   5.395   0.170   2.836
 5608SOL     OW17722   4.944   0.162   5.095
 5608SOL    HW117723   4.854   0.163   5.052
 5608SOL    HW217724   4.997   0.241   5.063
 5609SOL     OW17725   2.692   5.220   0.998
 5609SOL    HW117726   2.753   5.282   1.048
 5609SOL    HW217727   2.599   5.229   1.033
 5610SOL     OW17728   4.658   6.624   1.045
 5610SOL    HW117729   4.593   6.598   0.973
 5610SOL    HW217730   4.623   6.705   1.093
 5611SOL     OW17731   1.065   5.604   2.510
 5611SOL    HW117732   1.125   5.563   2.441
 5611SOL    HW217733   0.986   5.546   2.525
 5612SOL     OW17734   3.552   1.563   6.694
 5612SOL    HW117735   3.463   1.609   6.686
 5612SOL    HW217736   3.608   1.586   6.615
 5613SOL     OW17737   5.559   3.912   3.818
 5613SOL    HW117738   5.526   3.822   3.790
 5613SOL    HW217739   5.601   3.906   3.909
 5614SOL     OW17740   4.650   2.735   4.433
 5614SOL    HW117741   4.617   2.783   4.351
 5614SOL    HW217742   4.693   2.801   4.495
 5615SOL     OW17743   0.600   1.241   4.489
 5615SOL    HW117744   0.560   1.323   4.447
 5615SOL    HW217745   0.529   1.172   4.501
 5616SOL     OW17746   2.285   1.646   4.740
 5616SOL    HW117747   2.192   1.677   4.758
 5616SOL    HW217748   2.340   1.655   4.823
 5617SOL     OW17749   2.768   0.104   6.644
 5617SOL    HW117750   2.787   0.194   6.682
 5617SOL    HW217751   2.850   0.047   6.651
 5618SOL     OW17752   6.931   4.159   3.843
 5618SOL    HW117753   6.921   4.159   3.942
 5618SOL    HW217754   6.843   4.142   3.800
 5619SOL     OW17755   2.979   3.717   6.210
 5619SOL    HW117756   3.041   3.643   6.185
 5619SOL    HW217757   2.989   3.792   6.146
 5620SOL     OW17758   3.591   3.057   0.816
 5620SOL    HW117759   3.651   3.129   0.852
 5620SOL    HW217760   3.553   3.004   0.892
 5621SOL     OW17761   0.987   2.803   5.884
 5621SOL    HW117762   0.947   2.772   5.798
 5621SOL    HW217763   1.026   2.894   5.871
 5622SOL     OW17764   4.689   0.359   5.853
 5622SOL    HW117765   4.597   0.322   5.851
 5622SOL    HW217766   4.755   0.287   5.830
 5623SOL     OW17767   1.869   6.051   5.907
 5623SOL    HW117768   1.832   5.968   5.948
 5623SOL    HW217769   1.960   6.031   5.869
 5624SOL     OW17770   0.950   4.856   3.204
 5624SOL    HW117771   1.020   4.912   3.248
 5624SOL    HW217772   0.988   4.768   3.177
 5625SOL     OW17773   6.545   1.421   3.991
 5625SOL    HW117774   6.603   1.431   3.910
 5625SOL    HW217775   6.583   1.476   4.066
 5626SOL     OW17776   2.611   6.378   4.304
 5626SOL    HW117777   2.515   6.377   4.277
 5626SOL    HW217778   2.657   6.297   4.268
 5627SOL     OW17779   1.161   6.046   6.938
 5627SOL    HW117780   1.064   6.040   6.961
 5627SOL    HW217781   1.213   6.071   7.019
 5628SOL     OW17782   1.365   2.620   6.060
 5628SOL    HW117783   1.419   2.633   6.144
 5628SOL    HW217784   1.271   2.650   6.076
 5629SOL     OW17785   3.086   3.897   2.380
 5629SOL    HW117786   3.015   3.849   2.329
 5629SOL    HW217787   3.070   3.886   2.478
 5630SOL     OW17788   1.953   4.826   0.812
 5630SOL    HW117789   1.863   4.809   0.852
 5630SOL    HW217790   1.945   4.898   0.743
 5631SOL     OW17791   4.530   1.951   0.038
 5631SOL    HW117792   4.591   1.886   0.084
 5631SOL    HW217793   4.560   1.962   6.964
 5632SOL     OW17794   3.926   2.705   6.140
 5632SOL    HW117795   3.998   2.724   6.074
 5632SOL    HW217796   3.839   2.741   6.106
 5633SOL     OW17797   6.413   3.259   3.915
 5633SOL    HW117798   6.404   3.280   3.818
 5633SOL    HW217799   6.353   3.320   3.968
 5634SOL     OW17800   2.330   6.071   5.374
 5634SOL    HW117801   2.377   6.014   5.306
 5634SOL    HW217802   2.256   6.122   5.330
 5635SOL     OW17803   2.301   3.731   5.246
 5635SOL    HW117804   2.348   3.815   5.219
 5635SOL    HW217805   2.360   3.676   5.304
 5636SOL     OW17806   3.627   6.729   3.227
 5636SOL    HW117807   3.656   6.824   3.211
 5636SOL    HW217808   3.645   6.705   3.322
 5637SOL     OW17809   5.034   6.741   3.466
 5637SOL    HW117810   4.939   6.710   3.462
 5637SOL    HW217811   5.067   6.761   3.373
 5638SOL     OW17812   5.460   4.067   1.338
 5638SOL    HW117813   5.499   4.045   1.249
 5638SOL    HW217814   5.420   3.985   1.378
 5639SOL     OW17815   0.600   0.384   6.874
 5639SOL    HW117816   0.676   0.320   6.878
 5639SOL    HW217817   0.514   0.336   6.893
 5640SOL     OW17818   2.623   0.890   3.848
 5640SOL    HW117819   2.579   0.816   3.898
 5640SOL    HW217820   2.687   0.938   3.908
 5641SOL     OW17821   0.588   5.085   5.294
 5641SOL    HW117822   0.643   5.112   5.373
 5641SOL    HW217823   0.539   5.000   5.315
 5642SOL     OW17824   2.088   6.945   6.419
 5642SOL    HW117825   2.130   6.942   6.509
 5642SOL    HW217826   2.123   0.003   6.369
 5643SOL     OW17827   4.661   1.043   4.673
 5643SOL    HW117828   4.570   1.064   4.636
 5643SOL    HW217829   4.729   1.102   4.629
 5644SOL     OW17830   3.396   0.265   5.257
 5644SOL    HW117831   3.327   0.264   5.329
 5644SOL    HW217832   3.355   0.298   5.172
 5645SOL     OW17833   6.687   4.081   3.750
 5645SOL    HW117834   6.701   4.025   3.668
 5645SOL    HW217835   6.607   4.139   3.737
 5646SOL     OW17836   1.775   5.349   2.892
 5646SOL    HW117837   1.820   5.362   2.803
 5646SOL    HW217838   1.845   5.345   2.964
 5647SOL     OW17839   5.015   6.501   1.238
 5647SOL    HW117840   4.949   6.482   1.310
 5647SOL    HW217841   4.965   6.523   1.153
 5648SOL     OW17842   1.861   6.101   3.150
 5648SOL    HW117843   1.790   6.031   3.154
 5648SOL    HW217844   1.902   6.114   3.240
 5649SOL     OW17845   1.435   6.985   3.890
 5649SOL    HW117846   1.474   7.018   3.804
 5649SOL    HW217847   1.337   7.001   3.890
 5650SOL     OW17848   1.301   4.508   1.216
 5650SOL    HW117849   1.342   4.417   1.225
 5650SOL    HW217850   1.202   4.502   1.235
 5651SOL     OW17851   1.563   0.803   0.026
 5651SOL    HW117852   1.488   0.856   0.066
 5651SOL    HW217853   1.623   0.865   6.996
 5652SOL     OW17854   6.711   5.923   1.056
 5652SOL    HW117855   6.800   5.925   1.009
 5652SOL    HW217856   6.726   5.908   1.154
 5653SOL     OW17857   0.667   6.050   7.006
 5653SOL    HW117858   0.597   5.983   0.010
 5653SOL    HW217859   0.630   6.111   6.936
 5654SOL     OW17860   1.398   5.296   4.158
 5654SOL    HW117861   1.490   5.261   4.174
 5654SOL    HW217862   1.402   5.370   4.091
 5655SOL     OW17863   0.158   2.573   3.038
 5655SOL    HW117864   0.158   2.512   3.117
 5655SOL    HW217865   0.211   2.532   2.964
 5656SOL     OW17866   6.761   4.393   6.162
 5656SOL    HW117867   6.837   4.448   6.128
 5656SOL    HW217868   6.675   4.433   6.132
 5657SOL     OW17869   4.623   4.461   5.082
 5657SOL    HW117870   4.703   4.459   5.142
 5657SOL    HW217871   4.561   4.386   5.106
 5658SOL     OW17872   3.368   3.162   5.977
 5658SOL    HW117873   3.278   3.181   6.016
 5658SOL    HW217874   3.438   3.185   6.044
 5659SOL     OW17875   3.611   3.621   6.246
 5659SOL    HW117876   3.652   3.675   6.172
 5659SOL    HW217877   3.537   3.565   6.208
 5660SOL     OW17878   4.502   7.005   6.599
 5660SOL    HW117879   4.459   0.065   6.639
 5660SOL    HW217880   4.557   0.011   6.520
 5661SOL     OW17881   1.196   5.402   5.189
 5661SOL    HW117882   1.210   5.322   5.248
 5661SOL    HW217883   1.122   5.459   5.227
 5662SOL     OW17884   2.302   6.973   2.599
 5662SOL    HW117885   2.365   6.901   2.570
 5662SOL    HW217886   2.210   6.954   2.563
 5663SOL     OW17887   1.402   2.210   0.941
 5663SOL    HW117888   1.400   2.280   1.012
 5663SOL    HW217889   1.415   2.253   0.852
 5664SOL     OW17890   5.876   3.920   4.632
 5664SOL    HW117891   5.878   3.850   4.560
 5664SOL    HW217892   5.818   3.996   4.603
 5665SOL     OW17893   1.081   5.725   0.177
 5665SOL    HW117894   0.982   5.717   0.180
 5665SOL    HW217895   1.116   5.744   0.269
 5666SOL     OW17896   5.827   0.748   3.602
 5666SOL    HW117897   5.859   0.742   3.697
 5666SOL    HW217898   5.747   0.690   3.591
 5667SOL     OW17899   1.835   5.390   4.850
 5667SOL    HW117900   1.845   5.462   4.780
 5667SOL    HW217901   1.747   5.400   4.896
 5668SOL     OW17902   6.258   2.710   3.208
 5668SOL    HW117903   6.329   2.686   3.274
 5668SOL    HW217904   6.185   2.641   3.210
 5669SOL     OW17905   6.657   5.117   0.359
 5669SOL    HW117906   6.728   5.174   0.400
 5669SOL    HW217907   6.687   5.021   0.359
 5670SOL     OW17908   1.605   3.315   3.628
 5670SOL    HW117909   1.650   3.311   3.717
 5670SOL    HW217910   1.660   3.266   3.560
 5671SOL     OW17911   6.329   5.423   5.368
 5671SOL    HW117912   6.298   5.436   5.274
 5671SOL    HW217913   6.289   5.339   5.405
 5672SOL     OW17914   4.695   4.104   5.126
 5672SOL    HW117915   4.769   4.117   5.060
 5672SOL    HW217916   4.699   4.012   5.165
 5673SOL     OW17917   0.981   6.633   1.329
 5673SOL    HW117918   0.913   6.672   1.268
 5673SOL    HW217919   0.935   6.589   1.407
 5674SOL     OW17920   2.310   5.082   4.775
 5674SOL    HW117921   2.225   5.030   4.776
 5674SOL    HW217922   2.303   5.158   4.839
 5675SOL     OW17923   3.846   1.906   0.438
 5675SOL    HW117924   3.943   1.886   0.455
 5675SOL    HW217925   3.797   1.820   0.424
 5676SOL     OW17926   2.997   1.808   2.033
 5676SOL    HW117927   2.926   1.749   2.071
 5676SOL    HW217928   3.049   1.756   1.964
 5677SOL     OW17929   0.195   0.637   0.172
 5677SOL    HW117930   0.278   0.688   0.149
 5677SOL    HW217931   0.141   0.623   0.089
 5678SOL     OW17932   4.018   1.261   1.896
 5678SOL    HW117933   3.997   1.183   1.836
 5678SOL    HW217934   4.013   1.346   1.843
 5679SOL     OW17935   5.966   2.031   5.038
 5679SOL    HW117936   5.997   2.124   5.059
 5679SOL    HW217937   6.045   1.973   5.018
 5680SOL     OW17938   1.760   4.971   6.066
 5680SOL    HW117939   1.667   4.935   6.071
 5680SOL    HW217940   1.780   5.024   6.149
 5681SOL     OW17941   0.072   4.107   2.512
 5681SOL    HW117942   0.134   4.030   2.528
 5681SOL    HW217943   0.114   4.190   2.548
 5682SOL     OW17944   2.316   5.592   4.074
 5682SOL    HW117945   2.290   5.529   4.001
 5682SOL    HW217946   2.415   5.588   4.088
 5683SOL     OW17947   4.425   2.635   6.246
 5683SOL    HW117948   4.424   2.667   6.341
 5683SOL    HW217949   4.456   2.540   6.243
 5684SOL     OW17950   2.026   3.768   6.340
 5684SOL    HW117951   1.966   3.724   6.407
 5684SOL    HW217952   2.066   3.850   6.380
 5685SOL     OW17953   1.852   2.348   3.595
 5685SOL    HW117954   1.932   2.372   3.648
 5685SOL    HW217955   1.880   2.322   3.502
 5686SOL     OW17956   3.160   0.887   4.921
 5686SOL    HW117957   3.177   0.897   4.823
 5686SOL    HW217958   3.068   0.920   4.942
 5687SOL     OW17959   0.348   6.066   6.153
 5687SOL    HW117960   0.281   6.042   6.223
 5687SOL    HW217961   0.355   6.165   6.145
 5688SOL     OW17962   2.220   2.870   3.331
 5688SOL    HW117963   2.237   2.863   3.429
 5688SOL    HW217964   2.178   2.786   3.298
 5689SOL     OW17965   2.185   0.290   1.873
 5689SOL    HW117966   2.239   0.206   1.878
 5689SOL    HW217967   2.246   0.367   1.855
 5690SOL     OW17968   1.017   5.181   6.744
 5690SOL    HW117969   1.025   5.116   6.668
 5690SOL    HW217970   1.088   5.161   6.812
 5691SOL     OW17971   4.053   0.860   2.613
 5691SOL    HW117972   4.017   0.836   2.523
 5691SOL    HW217973   4.126   0.929   2.603
 5692SOL     OW17974   4.617   4.820   0.991
 5692SOL    HW117975   4.626   4.854   1.084
 5692SOL    HW217976   4.706   4.824   0.946
 5693SOL     OW17977   4.449   0.199   1.261
 5693SOL    HW117978   4.456   0.299   1.258
 5693SOL    HW217979   4.353   0.172   1.258
 5694SOL     OW17980   0.252   0.042   2.306
 5694SOL    HW117981   0.332   0.081   2.259
 5694SOL    HW217982   0.169   0.085   2.270
 5695SOL     OW17983   0.878   0.769   2.873
 5695SOL    HW117984   0.805   0.742   2.810
 5695SOL    HW217985   0.858   0.859   2.911
 5696SOL     OW17986   1.704   0.410   4.333
 5696SOL    HW117987   1.778   0.359   4.289
 5696SOL    HW217988   1.661   0.351   4.402
 5697SOL     OW17989   6.103   2.130   1.772
 5697SOL    HW117990   6.031   2.113   1.705
 5697SOL    HW217991   6.181   2.072   1.752
 5698SOL     OW17992   1.806   3.609   4.191
 5698SOL    HW117993   1.745   3.604   4.271
 5698SOL    HW217994   1.751   3.606   4.108
 5699SOL     OW17995   1.752   2.510   2.725
 5699SOL    HW117996   1.851   2.516   2.739
 5699SOL    HW217997   1.719   2.595   2.683
 5700SOL     OW17998   6.543   0.398   2.706
 5700SOL    HW117999   6.488   0.407   2.789
 5700SOL    HW218000   6.634   0.363   2.730
 5701SOL     OW18001   6.859   1.055   1.088
 5701SOL    HW118002   6.760   1.058   1.077
 5701SOL    HW218003   6.887   1.118   1.160
 5702SOL     OW18004   1.466   6.442   4.472
 5702SOL    HW118005   1.368   6.430   4.457
 5702SOL    HW218006   1.490   6.538   4.464
 5703SOL     OW18007   0.075   4.306   6.704
 5703SOL    HW118008   0.095   4.256   6.788
 5703SOL    HW218009   0.024   4.389   6.726
 5704SOL     OW18010   4.790   4.094   3.788
 5704SOL    HW118011   4.834   4.139   3.866
 5704SOL    HW218012   4.824   4.001   3.780
 5705SOL     OW18013   5.897   5.816   6.959
 5705SOL    HW118014   5.931   5.856   0.022
 5705SOL    HW218015   5.914   5.718   6.958
 5706SOL     OW18016   4.901   2.805   1.538
 5706SOL    HW118017   4.829   2.838   1.476
 5706SOL    HW218018   4.884   2.840   1.630
 5707SOL     OW18019   5.789   6.922   1.123
 5707SOL    HW118020   5.787   6.920   1.222
 5707SOL    HW218021   5.699   6.949   1.088
 5708SOL     OW18022   5.087   6.166   2.792
 5708SOL    HW118023   5.064   6.093   2.727
 5708SOL    HW218024   5.160   6.134   2.853
 5709SOL     OW18025   6.716   0.926   2.485
 5709SOL    HW118026   6.637   0.941   2.544
 5709SOL    HW218027   6.695   0.855   2.418
 5710SOL     OW18028   2.874   2.226   0.810
 5710SOL    HW118029   2.893   2.143   0.862
 5710SOL    HW218030   2.784   2.261   0.835
 5711SOL     OW18031   4.897   0.934   1.708
 5711SOL    HW118032   4.990   0.972   1.703
 5711SOL    HW218033   4.900   0.842   1.746
 5712SOL     OW18034   6.271   6.778   0.734
 5712SOL    HW118035   6.234   6.864   0.700
 5712SOL    HW218036   6.307   6.791   0.826
 5713SOL     OW18037   3.034   5.066   0.661
 5713SOL    HW118038   3.021   4.968   0.673
 5713SOL    HW218039   3.003   5.114   0.743
 5714SOL     OW18040   6.376   6.645   1.238
 5714SOL    HW118041   6.423   6.556   1.241
 5714SOL    HW218042   6.299   6.644   1.302
 5715SOL     OW18043   0.291   6.865   1.322
 5715SOL    HW118044   0.362   6.835   1.258
 5715SOL    HW218045   0.305   6.818   1.410
 5716SOL     OW18046   0.527   5.363   6.384
 5716SOL    HW118047   0.613   5.315   6.406
 5716SOL    HW218048   0.545   5.460   6.370
 5717SOL     OW18049   2.212   5.367   1.915
 5717SOL    HW118050   2.228   5.443   1.978
 5717SOL    HW218051   2.298   5.320   1.896
 5718SOL     OW18052   0.822   3.156   0.504
 5718SOL    HW118053   0.768   3.239   0.516
 5718SOL    HW218054   0.888   3.170   0.429
 5719SOL     OW18055   3.039   3.660   1.091
 5719SOL    HW118056   3.054   3.588   1.024
 5719SOL    HW218057   2.940   3.676   1.101
 5720SOL     OW18058   1.913   6.509   4.970
 5720SOL    HW118059   1.940   6.571   5.043
 5720SOL    HW218060   1.862   6.433   5.009
 5721SOL     OW18061   5.772   4.146   1.190
 5721SOL    HW118062   5.703   4.186   1.129
 5721SOL    HW218063   5.763   4.186   1.281
 5722SOL     OW18064   0.266   1.878   4.906
 5722SOL    HW118065   0.319   1.859   4.824
 5722SOL    HW218066   0.182   1.823   4.906
 5723SOL     OW18067   3.824   3.383   6.688
 5723SOL    HW118068   3.902   3.415   6.636
 5723SOL    HW218069   3.742   3.385   6.631
 5724SOL     OW18070   6.546   2.403   2.972
 5724SOL    HW118071   6.488   2.338   2.924
 5724SOL    HW218072   6.489   2.476   3.012
 5725SOL     OW18073   6.205   5.282   3.312
 5725SOL    HW118074   6.243   5.374   3.324
 5725SOL    HW218075   6.274   5.215   3.339
 5726SOL     OW18076   5.893   5.040   3.863
 5726SOL    HW118077   5.983   5.032   3.906
 5726SOL    HW218078   5.894   4.997   3.773
 5727SOL     OW18079   0.179   2.354   4.542
 5727SOL    HW118080   0.132   2.298   4.610
 5727SOL    HW218081   0.261   2.306   4.509
 5728SOL     OW18082   4.821   5.980   5.301
 5728SOL    HW118083   4.775   5.892   5.306
 5728SOL    HW218084   4.753   6.053   5.290
 5729SOL     OW18085   1.191   2.662   5.767
 5729SOL    HW118086   1.252   2.630   5.839
 5729SOL    HW218087   1.115   2.713   5.808
 5730SOL     OW18088   6.436   4.387   6.055
 5730SOL    HW118089   6.426   4.424   6.148
 5730SOL    HW218090   6.382   4.441   5.992
 5731SOL     OW18091   6.560   6.735   1.562
 5731SOL    HW118092   6.513   6.805   1.508
 5731SOL    HW218093   6.566   6.651   1.509
 5732SOL     OW18094   1.264   6.511   3.893
 5732SOL    HW118095   1.360   6.498   3.866
 5732SOL    HW218096   1.206   6.493   3.814
 5733SOL     OW18097   4.406   6.368   5.109
 5733SOL    HW118098   4.346   6.323   5.175
 5733SOL    HW218099   4.484   6.407   5.157
 5734SOL     OW18100   1.458   6.728   4.882
 5734SOL    HW118101   1.416   6.817   4.864
 5734SOL    HW218102   1.557   6.738   4.886
 5735SOL     OW18103   2.893   1.492   1.877
 5735SOL    HW118104   2.896   1.395   1.854
 5735SOL    HW218105   2.981   1.534   1.854
 5736SOL     OW18106   0.709   4.476   6.856
 5736SOL    HW118107   0.711   4.452   6.953
 5736SOL    HW218108   0.732   4.573   6.846
 5737SOL     OW18109   5.750   6.164   6.942
 5737SOL    HW118110   5.743   6.206   6.852
 5737SOL    HW218111   5.846   6.140   6.959
 5738SOL     OW18112   1.694   3.529   0.137
 5738SOL    HW118113   1.717   3.549   0.233
 5738SOL    HW218114   1.739   3.444   0.109
 5739SOL     OW18115   1.776   0.912   6.696
 5739SOL    HW118116   1.741   0.819   6.687
 5739SOL    HW218117   1.721   0.961   6.764
 5740SOL     OW18118   4.347   5.991   0.242
 5740SOL    HW118119   4.382   6.061   0.304
 5740SOL    HW218120   4.252   6.009   0.220
 5741SOL     OW18121   6.526   5.858   4.485
 5741SOL    HW118122   6.495   5.809   4.566
 5741SOL    HW218123   6.474   5.826   4.405
 5742SOL     OW18124   5.648   6.436   2.127
 5742SOL    HW118125   5.624   6.454   2.032
 5742SOL    HW218126   5.632   6.518   2.182
 5743SOL     OW18127   2.585   6.980   5.017
 5743SOL    HW118128   2.660   6.918   5.038
 5743SOL    HW218129   2.609   0.051   5.047
 5744SOL     OW18130   5.039   1.533   0.503
 5744SOL    HW118131   5.089   1.545   0.417
 5744SOL    HW218132   4.942   1.553   0.489
 5745SOL     OW18133   1.680   1.693   4.623
 5745SOL    HW118134   1.717   1.760   4.558
 5745SOL    HW218135   1.581   1.700   4.625
 5746SOL     OW18136   5.133   1.530   0.230
 5746SOL    HW118137   5.180   1.465   0.170
 5746SOL    HW218138   5.127   1.619   0.184
 5747SOL     OW18139   0.392   5.078   2.097
 5747SOL    HW118140   0.490   5.091   2.082
 5747SOL    HW218141   0.359   5.142   2.166
 5748SOL     OW18142   2.470   4.762   1.958
 5748SOL    HW118143   2.394   4.770   1.894
 5748SOL    HW218144   2.467   4.671   2.001
 5749SOL     OW18145   2.194   1.598   4.072
 5749SOL    HW118146   2.211   1.641   3.983
 5749SOL    HW218147   2.173   1.501   4.058
 5750SOL     OW18148   5.982   4.708   4.570
 5750SOL    HW118149   6.071   4.718   4.525
 5750SOL    HW218150   5.910   4.739   4.508
 5751SOL     OW18151   2.140   3.155   5.048
 5751SOL    HW118152   2.130   3.205   4.962
 5751SOL    HW218153   2.229   3.108   5.048
 5752SOL     OW18154   6.792   6.937   6.073
 5752SOL    HW118155   6.749   6.856   6.034
 5752SOL    HW218156   6.886   6.945   6.039
 5753SOL     OW18157   3.494   2.872   6.582
 5753SOL    HW118158   3.403   2.891   6.619
 5753SOL    HW218159   3.487   2.858   6.483
 5754SOL     OW18160   6.034   5.262   1.951
 5754SOL    HW118161   6.046   5.284   1.855
 5754SOL    HW218162   5.999   5.342   2.000
 5755SOL     OW18163   3.114   3.668   6.972
 5755SOL    HW118164   3.031   3.625   6.937
 5755SOL    HW218165   3.158   3.607   0.017
 5756SOL     OW18166   6.577   4.886   3.589
 5756SOL    HW118167   6.590   4.863   3.493
 5756SOL    HW218168   6.604   4.808   3.646
 5757SOL     OW18169   6.352   5.735   1.694
 5757SOL    HW118170   6.282   5.780   1.749
 5757SOL    HW218171   6.382   5.652   1.740
 5758SOL     OW18172   2.641   2.464   4.899
 5758SOL    HW118173   2.720   2.403   4.895
 5758SOL    HW218174   2.557   2.410   4.899
 5759SOL     OW18175   5.175   2.135   6.454
 5759SOL    HW118176   5.274   2.146   6.464
 5759SOL    HW218177   5.140   2.202   6.389
 5760SOL     OW18178   2.050   5.698   2.352
 5760SOL    HW118179   2.006   5.653   2.274
 5760SOL    HW218180   2.124   5.757   2.319
 5761SOL     OW18181   5.206   6.980   4.956
 5761SOL    HW118182   5.267   6.914   4.913
 5761SOL    HW218183   5.134   6.932   5.005
 5762SOL     OW18184   5.709   6.907   0.688
 5762SOL    HW118185   5.768   6.855   0.749
 5762SOL    HW218186   5.646   6.963   0.742
 5763SOL     OW18187   1.277   0.316   0.209
 5763SOL    HW118188   1.318   0.375   0.140
 5763SOL    HW218189   1.347   0.260   0.252
 5764SOL     OW18190   5.724   4.481   5.541
 5764SOL    HW118191   5.679   4.537   5.610
 5764SOL    HW218192   5.798   4.429   5.584
 5765SOL     OW18193   6.931   4.149   0.075
 5765SOL    HW118194   0.004   4.175   0.062
 5765SOL    HW218195   6.901   4.092   7.019
 5766SOL     OW18196   3.174   1.590   1.892
 5766SOL    HW118197   3.208   1.637   1.973
 5766SOL    HW218198   3.250   1.544   1.845
 5767SOL     OW18199   0.539   6.044   0.567
 5767SOL    HW118200   0.453   6.074   0.526
 5767SOL    HW218201   0.608   6.116   0.556
 5768SOL     OW18202   6.855   0.885   2.876
 5768SOL    HW118203   6.891   0.794   2.856
 5768SOL    HW218204   6.756   0.886   2.861
 5769SOL     OW18205   2.980   6.430   3.597
 5769SOL    HW118206   2.911   6.400   3.532
 5769SOL    HW218207   3.071   6.420   3.557
 5770SOL     OW18208   6.749   6.941   1.195
 5770SOL    HW118209   6.779   0.015   1.194
 5770SOL    HW218210   6.821   6.885   1.236
 5771SOL     OW18211   1.165   0.649   1.071
 5771SOL    HW118212   1.205   0.568   1.027
 5771SOL    HW218213   1.211   0.667   1.157
 5772SOL     OW18214   6.080   3.563   0.285
 5772SOL    HW118215   6.064   3.468   0.313
 5772SOL    HW218216   5.997   3.601   0.246
 5773SOL     OW18217   5.459   6.491   3.494
 5773SOL    HW118218   5.414   6.574   3.525
 5773SOL    HW218219   5.429   6.469   3.401
 5774SOL     OW18220   2.254   4.312   3.458
 5774SOL    HW118221   2.298   4.345   3.542
 5774SOL    HW218222   2.301   4.352   3.379
 5775SOL     OW18223   6.632   6.936   6.632
 5775SOL    HW118224   6.534   6.941   6.616
 5775SOL    HW218225   6.675   7.020   6.598
 5776SOL     OW18226   5.198   0.714   6.126
 5776SOL    HW118227   5.280   0.687   6.076
 5776SOL    HW218228   5.201   0.673   6.218
 5777SOL     OW18229   6.154   1.227   4.031
 5777SOL    HW118230   6.086   1.271   4.090
 5777SOL    HW218231   6.245   1.238   4.071
 5778SOL     OW18232   1.073   6.618   2.990
 5778SOL    HW118233   1.162   6.607   3.035
 5778SOL    HW218234   1.028   6.528   2.984
 5779SOL     OW18235   3.933   1.177   1.347
 5779SOL    HW118236   3.963   1.091   1.390
 5779SOL    HW218237   3.880   1.156   1.265
 5780SOL     OW18238   6.949   4.337   1.192
 5780SOL    HW118239   0.006   4.322   1.132
 5780SOL    HW218240   6.942   4.260   1.256
 5781SOL     OW18241   1.950   4.421   5.044
 5781SOL    HW118242   2.023   4.355   5.024
 5781SOL    HW218243   1.983   4.487   5.112
 5782SOL     OW18244   2.155   0.818   1.533
 5782SOL    HW118245   2.062   0.846   1.510
 5782SOL    HW218246   2.188   0.871   1.611
 5783SOL     OW18247   1.426   0.185   1.228
 5783SOL    HW118248   1.432   0.285   1.222
 5783SOL    HW218249   1.389   0.149   1.142
 5784SOL     OW18250   0.919   6.030   0.112
 5784SOL    HW118251   0.941   5.932   0.102
 5784SOL    HW218252   0.841   6.053   0.054
 5785SOL     OW18253   1.698   1.264   0.431
 5785SOL    HW118254   1.767   1.331   0.459
 5785SOL    HW218255   1.738   1.201   0.365
 5786SOL     OW18256   1.483   3.097   1.652
 5786SOL    HW118257   1.523   3.008   1.676
 5786SOL    HW218258   1.557   3.162   1.633
 5787SOL     OW18259   6.229   2.454   4.942
 5787SOL    HW118260   6.170   2.433   4.864
 5787SOL    HW218261   6.305   2.389   4.944
 5788SOL     OW18262   3.407   1.176   2.319
 5788SOL    HW118263   3.340   1.105   2.340
 5788SOL    HW218264   3.493   1.157   2.368
 5789SOL     OW18265   4.299   4.104   0.332
 5789SOL    HW118266   4.383   4.055   0.355
 5789SOL    HW218267   4.320   4.200   0.314
 5790SOL     OW18268   5.681   5.524   4.649
 5790SOL    HW118269   5.602   5.496   4.595
 5790SOL    HW218270   5.761   5.470   4.622
 5791SOL     OW18271   3.931   1.089   2.805
 5791SOL    HW118272   3.957   1.184   2.785
 5791SOL    HW218273   3.991   1.027   2.754
 5792SOL     OW18274   4.791   4.037   2.751
 5792SOL    HW118275   4.750   4.058   2.663
 5792SOL    HW218276   4.891   4.041   2.744
 5793SOL     OW18277   5.437   2.113   5.092
 5793SOL    HW118278   5.391   2.059   5.021
 5793SOL    HW218279   5.536   2.098   5.085
 5794SOL     OW18280   3.334   6.466   6.048
 5794SOL    HW118281   3.382   6.464   5.960
 5794SOL    HW218282   3.360   6.385   6.101
 5795SOL     OW18283   1.106   4.957   2.142
 5795SOL    HW118284   1.115   5.040   2.196
 5795SOL    HW218285   1.039   4.896   2.184
 5796SOL     OW18286   4.490   1.541   6.328
 5796SOL    HW118287   4.407   1.581   6.365
 5796SOL    HW218288   4.552   1.515   6.403
 5797SOL     OW18289   5.077   2.678   0.034
 5797SOL    HW118290   5.176   2.695   0.034
 5797SOL    HW218291   5.050   2.642   6.966
 5798SOL     OW18292   1.882   4.149   5.347
 5798SOL    HW118293   1.845   4.074   5.291
 5798SOL    HW218294   1.962   4.188   5.302
 5799SOL     OW18295   1.427   6.289   3.444
 5799SOL    HW118296   1.483   6.363   3.406
 5799SOL    HW218297   1.381   6.322   3.526
 5800SOL     OW18298   0.410   6.854   0.935
 5800SOL    HW118299   0.481   6.844   1.005
 5800SOL    HW218300   0.365   6.943   0.945
 5801SOL     OW18301   2.398   2.441   2.346
 5801SOL    HW118302   2.399   2.527   2.397
 5801SOL    HW218303   2.371   2.459   2.251
 5802SOL     OW18304   0.091   1.630   2.162
 5802SOL    HW118305   0.065   1.611   2.257
 5802SOL    HW218306   0.069   1.724   2.139
 5803SOL     OW18307   0.994   5.366   4.328
 5803SOL    HW118308   1.067   5.433   4.319
 5803SOL    HW218309   0.997   5.303   4.250
 5804SOL     OW18310   5.782   0.046   3.534
 5804SOL    HW118311   5.881   0.033   3.546
 5804SOL    HW218312   5.734   0.001   3.609
 5805SOL     OW18313   2.161   3.112   1.424
 5805SOL    HW118314   2.212   3.197   1.417
 5805SOL    HW218315   2.223   3.034   1.414
 5806SOL     OW18316   0.337   3.219   3.437
 5806SOL    HW118317   0.389   3.225   3.521
 5806SOL    HW218318   0.398   3.199   3.360
 5807SOL     OW18319   1.112   6.684   0.351
 5807SOL    HW118320   1.062   6.729   0.276
 5807SOL    HW218321   1.046   6.641   0.413
 5808SOL     OW18322   5.861   0.759   4.779
 5808SOL    HW118323   5.959   0.742   4.791
 5808SOL    HW218324   5.839   0.852   4.809
 5809SOL     OW18325   0.559   2.576   5.882
 5809SOL    HW118326   0.593   2.557   5.974
 5809SOL    HW218327   0.462   2.601   5.887
 5810SOL     OW18328   3.913   0.092   4.676
 5810SOL    HW118329   3.930   0.185   4.709
 5810SOL    HW218330   3.815   0.073   4.683
 5811SOL     OW18331   2.791   3.711   5.804
 5811SOL    HW118332   2.810   3.808   5.820
 5811SOL    HW218333   2.875   3.658   5.815
 5812SOL     OW18334   5.783   3.225   0.563
 5812SOL    HW118335   5.830   3.268   0.639
 5812SOL    HW218336   5.711   3.165   0.598
 5813SOL     OW18337   4.576   6.707   1.621
 5813SOL    HW118338   4.534   6.626   1.659
 5813SOL    HW218339   4.647   6.741   1.682
 5814SOL     OW18340   5.003   1.613   1.975
 5814SOL    HW118341   4.909   1.590   2.002
 5814SOL    HW218342   5.067   1.567   2.036
 5815SOL     OW18343   6.289   1.318   3.798
 5815SOL    HW118344   6.338   1.240   3.760
 5815SOL    HW218345   6.236   1.289   3.877
 5816SOL     OW18346   6.676   3.804   2.945
 5816SOL    HW118347   6.679   3.809   2.846
 5816SOL    HW218348   6.696   3.894   2.984
 5817SOL     OW18349   5.562   4.810   3.646
 5817SOL    HW118350   5.590   4.843   3.737
 5817SOL    HW218351   5.634   4.829   3.580
 5818SOL     OW18352   2.060   0.464   5.345
 5818SOL    HW118353   2.025   0.432   5.256
 5818SOL    HW218354   2.153   0.500   5.333
 5819SOL     OW18355   4.147   5.189   6.930
 5819SOL    HW118356   4.111   5.098   6.950
 5819SOL    HW218357   4.215   5.214   6.998
 5820SOL     OW18358   6.006   5.002   2.554
 5820SOL    HW118359   5.951   4.957   2.484
 5820SOL    HW218360   5.993   4.957   2.642
 5821SOL     OW18361   6.171   0.663   1.282
 5821SOL    HW118362   6.207   0.671   1.189
 5821SOL    HW218363   6.145   0.754   1.316
 5822SOL     OW18364   1.782   3.005   2.561
 5822SOL    HW118365   1.708   3.048   2.509
 5822SOL    HW218366   1.861   3.066   2.563
 5823SOL     OW18367   1.958   6.576   3.840
 5823SOL    HW118368   1.875   6.632   3.845
 5823SOL    HW218369   1.981   6.542   3.931
 5824SOL     OW18370   0.724   0.039   1.943
 5824SOL    HW118371   0.669   0.108   1.991
 5824SOL    HW218372   0.764   6.998   2.010
 5825SOL     OW18373   6.301   0.157   4.332
 5825SOL    HW118374   6.215   0.107   4.336
 5825SOL    HW218375   6.333   0.178   4.424
 5826SOL     OW18376   0.324   6.910   4.705
 5826SOL    HW118377   0.391   6.942   4.638
 5826SOL    HW218378   0.275   6.831   4.669
 5827SOL     OW18379   1.723   4.674   5.315
 5827SOL    HW118380   1.733   4.770   5.290
 5827SOL    HW218381   1.812   4.629   5.307
 5828SOL     OW18382   4.426   0.035   4.699
 5828SOL    HW118383   4.456   0.129   4.681
 5828SOL    HW218384   4.341   0.017   4.649
 5829SOL     OW18385   2.256   0.883   3.847
 5829SOL    HW118386   2.185   0.869   3.917
 5829SOL    HW218387   2.315   0.802   3.843
 5830SOL     OW18388   3.976   5.609   5.137
 5830SOL    HW118389   4.032   5.528   5.118
 5830SOL    HW218390   3.903   5.585   5.200
 5831SOL     OW18391   1.753   1.350   5.331
 5831SOL    HW118392   1.774   1.354   5.233
 5831SOL    HW218393   1.655   1.334   5.344
 5832SOL     OW18394   3.312   4.901   0.775
 5832SOL    HW118395   3.215   4.883   0.785
 5832SOL    HW218396   3.334   4.916   0.679
 5833SOL     OW18397   3.954   3.731   6.163
 5833SOL    HW118398   4.022   3.768   6.100
 5833SOL    HW218399   3.930   3.638   6.135
 5834SOL     OW18400   5.763   3.927   6.843
 5834SOL    HW118401   5.715   3.893   6.762
 5834SOL    HW218402   5.810   4.012   6.820
 5835SOL     OW18403   5.355   0.814   2.640
 5835SOL    HW118404   5.312   0.797   2.551
 5835SOL    HW218405   5.414   0.894   2.634
 5836SOL     OW18406   3.888   0.366   2.251
 5836SOL    HW118407   3.948   0.392   2.175
 5836SOL    HW218408   3.834   0.286   2.225
 5837SOL     OW18409   3.817   4.320   6.998
 5837SOL    HW118410   3.727   4.363   6.991
 5837SOL    HW218411   3.808   4.233   0.027
 5838SOL     OW18412   3.040   1.814   1.045
 5838SOL    HW118413   2.962   1.872   1.020
 5838SOL    HW218414   3.125   1.859   1.018
 5839SOL     OW18415   1.650   1.743   1.435
 5839SOL    HW118416   1.732   1.689   1.420
 5839SOL    HW218417   1.650   1.823   1.374
 5840SOL     OW18418   1.024   3.567   2.400
 5840SOL    HW118419   0.931   3.589   2.429
 5840SOL    HW218420   1.080   3.649   2.402
 5841SOL     OW18421   5.387   2.015   0.400
 5841SOL    HW118422   5.409   2.005   0.303
 5841SOL    HW218423   5.309   1.957   0.423
 5842SOL     OW18424   3.083   1.610   0.510
 5842SOL    HW118425   3.074   1.544   0.584
 5842SOL    HW218426   3.156   1.675   0.532
 5843SOL     OW18427   1.850   3.019   1.147
 5843SOL    HW118428   1.912   3.067   1.210
 5843SOL    HW218429   1.881   3.033   1.053
 5844SOL     OW18430   0.782   0.800   4.966
 5844SOL    HW118431   0.758   0.858   4.888
 5844SOL    HW218432   0.740   0.710   4.955
 5845SOL     OW18433   1.085   5.767   1.902
 5845SOL    HW118434   1.011   5.711   1.938
 5845SOL    HW218435   1.164   5.761   1.963
 5846SOL     OW18436   6.306   3.895   5.734
 5846SOL    HW118437   6.270   3.872   5.825
 5846SOL    HW218438   6.340   3.989   5.735
 5847SOL     OW18439   2.955   2.823   0.641
 5847SOL    HW118440   2.952   2.777   0.553
 5847SOL    HW218441   3.043   2.805   0.685
 5848SOL     OW18442   2.227   5.852   3.618
 5848SOL    HW118443   2.205   5.768   3.670
 5848SOL    HW218444   2.222   5.931   3.680
 5849SOL     OW18445   2.587   5.825   5.448
 5849SOL    HW118446   2.679   5.785   5.443
 5849SOL    HW218447   2.522   5.764   5.403
 5850SOL     OW18448   0.614   1.839   1.422
 5850SOL    HW118449   0.562   1.772   1.476
 5850SOL    HW218450   0.595   1.824   1.324
 5851SOL     OW18451   5.562   2.905   4.804
 5851SOL    HW118452   5.535   2.858   4.720
 5851SOL    HW218453   5.661   2.917   4.805
 5852SOL     OW18454   5.257   5.124   2.973
 5852SOL    HW118455   5.260   5.068   2.890
 5852SOL    HW218456   5.163   5.128   3.006
 5853SOL     OW18457   4.015   4.721   5.600
 5853SOL    HW118458   3.926   4.756   5.632
 5853SOL    HW218459   4.052   4.782   5.530
 5854SOL     OW18460   2.507   4.843   5.919
 5854SOL    HW118461   2.424   4.789   5.937
 5854SOL    HW218462   2.513   4.864   5.822
 5855SOL     OW18463   1.995   2.528   3.801
 5855SOL    HW118464   1.960   2.620   3.787
 5855SOL    HW218465   2.035   2.522   3.893
 5856SOL     OW18466   1.599   0.382   2.697
 5856SOL    HW118467   1.513   0.415   2.658
 5856SOL    HW218468   1.594   0.283   2.710
 5857SOL     OW18469   0.102   4.301   6.430
 5857SOL    HW118470   0.127   4.307   6.527
 5857SOL    HW218471   0.029   4.366   6.411
 5858SOL     OW18472   1.919   1.381   3.255
 5858SOL    HW118473   1.992   1.419   3.199
 5858SOL    HW218474   1.902   1.441   3.334
 5859SOL     OW18475   6.285   6.985   2.290
 5859SOL    HW118476   6.200   6.951   2.330
 5859SOL    HW218477   6.315   6.923   2.217
 5860SOL     OW18478   0.482   3.055   3.838
 5860SOL    HW118479   0.407   3.006   3.793
 5860SOL    HW218480   0.569   3.026   3.800
 5861SOL     OW18481   5.189   0.810   4.931
 5861SOL    HW118482   5.280   0.849   4.935
 5861SOL    HW218483   5.135   0.844   5.009
 5862SOL     OW18484   6.929   4.965   3.432
 5862SOL    HW118485   6.876   5.010   3.504
 5862SOL    HW218486   6.954   5.032   3.362
 5863SOL     OW18487   3.810   0.180   5.335
 5863SOL    HW118488   3.754   0.261   5.317
 5863SOL    HW218489   3.834   0.137   5.248
 5864SOL     OW18490   2.939   3.586   2.712
 5864SOL    HW118491   2.875   3.536   2.653
 5864SOL    HW218492   3.029   3.591   2.667
 5865SOL     OW18493   5.836   1.102   5.202
 5865SOL    HW118494   5.776   1.149   5.267
 5865SOL    HW218495   5.891   1.169   5.152
 5866SOL     OW18496   3.854   3.220   2.340
 5866SOL    HW118497   3.886   3.169   2.420
 5866SOL    HW218498   3.792   3.162   2.287
 5867SOL     OW18499   2.610   2.553   1.447
 5867SOL    HW118500   2.646   2.505   1.527
 5867SOL    HW218501   2.576   2.486   1.380
 5868SOL     OW18502   0.528   1.595   6.119
 5868SOL    HW118503   0.477   1.605   6.204
 5868SOL    HW218504   0.555   1.685   6.085
 5869SOL     OW18505   1.288   4.670   4.465
 5869SOL    HW118506   1.364   4.721   4.426
 5869SOL    HW218507   1.231   4.635   4.390
 5870SOL     OW18508   4.285   4.865   4.977
 5870SOL    HW118509   4.356   4.917   5.024
 5870SOL    HW218510   4.310   4.768   4.976
 5871SOL     OW18511   3.644   3.515   3.071
 5871SOL    HW118512   3.675   3.427   3.106
 5871SOL    HW218513   3.692   3.589   3.118
 5872SOL     OW18514   3.573   6.535   2.476
 5872SOL    HW118515   3.665   6.574   2.484
 5872SOL    HW218516   3.573   6.464   2.406
 5873SOL     OW18517   3.590   5.153   2.629
 5873SOL    HW118518   3.611   5.194   2.540
 5873SOL    HW218519   3.492   5.161   2.647
 5874SOL     OW18520   2.122   4.470   5.759
 5874SOL    HW118521   2.096   4.483   5.855
 5874SOL    HW218522   2.096   4.379   5.729
 5875SOL     OW18523   3.501   1.205   0.404
 5875SOL    HW118524   3.428   1.272   0.413
 5875SOL    HW218525   3.502   1.145   0.485
 5876SOL     OW18526   3.818   3.354   1.996
 5876SOL    HW118527   3.907   3.364   1.952
 5876SOL    HW218528   3.800   3.257   2.014
 5877SOL     OW18529   5.956   5.155   1.266
 5877SOL    HW118530   5.980   5.080   1.328
 5877SOL    HW218531   5.863   5.186   1.286
 5878SOL     OW18532   2.288   4.782   2.894
 5878SOL    HW118533   2.259   4.713   2.827
 5878SOL    HW218534   2.252   4.871   2.868
 5879SOL     OW18535   0.239   4.024   0.137
 5879SOL    HW118536   0.185   4.049   0.217
 5879SOL    HW218537   0.245   3.925   0.130
 5880SOL     OW18538   2.672   6.480   1.325
 5880SOL    HW118539   2.614   6.413   1.371
 5880SOL    HW218540   2.768   6.458   1.341
 5881SOL     OW18541   0.526   4.418   3.589
 5881SOL    HW118542   0.530   4.510   3.551
 5881SOL    HW218543   0.556   4.419   3.684
 5882SOL     OW18544   5.121   0.352   1.182
 5882SOL    HW118545   5.164   0.438   1.210
 5882SOL    HW218546   5.024   0.367   1.166
 5883SOL     OW18547   6.484   2.766   6.803
 5883SOL    HW118548   6.558   2.700   6.794
 5883SOL    HW218549   6.399   2.718   6.824
 5884SOL     OW18550   0.772   1.361   3.344
 5884SOL    HW118551   0.725   1.333   3.427
 5884SOL    HW218552   0.871   1.350   3.356
 5885SOL     OW18553   6.064   6.428   1.147
 5885SOL    HW118554   6.085   6.526   1.148
 5885SOL    HW218555   6.065   6.395   1.053
 5886SOL     OW18556   0.524   2.349   5.111
 5886SOL    HW118557   0.556   2.367   5.204
 5886SOL    HW218558   0.563   2.263   5.078
 5887SOL     OW18559   3.188   0.985   4.649
 5887SOL    HW118560   3.189   1.071   4.599
 5887SOL    HW218561   3.219   0.911   4.590
 5888SOL     OW18562   2.010   6.160   3.378
 5888SOL    HW118563   1.960   6.242   3.403
 5888SOL    HW218564   2.099   6.160   3.424
 5889SOL     OW18565   2.271   0.351   1.134
 5889SOL    HW118566   2.208   0.345   1.212
 5889SOL    HW218567   2.326   0.434   1.143
 5890SOL     OW18568   2.263   6.451   5.267
 5890SOL    HW118569   2.340   6.430   5.328
 5890SOL    HW218570   2.224   6.366   5.231
 5891SOL     OW18571   4.009   2.941   6.964
 5891SOL    HW118572   4.011   2.972   6.869
 5891SOL    HW218573   4.004   2.841   6.967
 5892SOL     OW18574   0.377   6.361   1.328
 5892SOL    HW118575   0.337   6.286   1.380
 5892SOL    HW218576   0.304   6.420   1.292
 5893SOL     OW18577   1.318   2.249   3.547
 5893SOL    HW118578   1.340   2.281   3.640
 5893SOL    HW218579   1.264   2.165   3.552
 5894SOL     OW18580   1.393   4.029   3.517
 5894SOL    HW118581   1.342   4.106   3.556
 5894SOL    HW218582   1.343   3.993   3.438
 5895SOL     OW18583   5.158   2.900   4.722
 5895SOL    HW118584   5.101   2.829   4.764
 5895SOL    HW218585   5.103   2.957   4.662
 5896SOL     OW18586   3.878   2.198   6.659
 5896SOL    HW118587   3.816   2.274   6.676
 5896SOL    HW218588   3.854   2.122   6.720
 5897SOL     OW18589   3.804   1.219   0.618
 5897SOL    HW118590   3.722   1.205   0.674
 5897SOL    HW218591   3.879   1.250   0.676
 5898SOL     OW18592   1.698   0.193   1.734
 5898SOL    HW118593   1.659   0.171   1.645
 5898SOL    HW218594   1.797   0.176   1.732
 5899SOL     OW18595   5.442   6.829   4.912
 5899SOL    HW118596   5.393   6.781   4.985
 5899SOL    HW218597   5.534   6.852   4.942
 5900SOL     OW18598   4.981   5.021   2.790
 5900SOL    HW118599   5.047   4.952   2.762
 5900SOL    HW218600   4.940   4.995   2.878
 5901SOL     OW18601   2.166   6.635   6.546
 5901SOL    HW118602   2.147   6.686   6.463
 5901SOL    HW218603   2.110   6.552   6.548
 5902SOL     OW18604   6.797   2.750   0.482
 5902SOL    HW118605   6.831   2.738   0.576
 5902SOL    HW218606   6.749   2.838   0.475
 5903SOL     OW18607   6.078   4.502   0.047
 5903SOL    HW118608   6.164   4.476   0.004
 5903SOL    HW218609   6.009   4.517   6.999
 5904SOL     OW18610   0.354   3.657   2.262
 5904SOL    HW118611   0.374   3.585   2.329
 5904SOL    HW218612   0.293   3.725   2.304
 5905SOL     OW18613   6.851   6.150   2.710
 5905SOL    HW118614   6.755   6.122   2.723
 5905SOL    HW218615   6.868   6.233   2.761
 5906SOL     OW18616   5.632   1.087   3.914
 5906SOL    HW118617   5.566   1.012   3.916
 5906SOL    HW218618   5.583   1.175   3.912
 5907SOL     OW18619   0.596   6.215   1.261
 5907SOL    HW118620   0.547   6.132   1.235
 5907SOL    HW218621   0.530   6.284   1.291
 5908SOL     OW18622   0.594   2.416   5.354
 5908SOL    HW118623   0.675   2.470   5.327
 5908SOL    HW218624   0.579   2.426   5.452
 5909SOL     OW18625   1.164   5.986   0.631
 5909SOL    HW118626   1.236   6.031   0.577
 5909SOL    HW218627   1.126   6.052   0.696
 5910SOL     OW18628   1.437   2.220   2.924
 5910SOL    HW118629   1.411   2.234   3.020
 5910SOL    HW218630   1.536   2.231   2.914
 5911SOL     OW18631   6.555   5.553   6.927
 5911SOL    HW118632   6.575   5.565   0.003
 5911SOL    HW218633   6.639   5.566   6.874
 5912SOL     OW18634   6.230   1.475   5.891
 5912SOL    HW118635   6.188   1.533   5.821
 5912SOL    HW218636   6.180   1.389   5.897
 5913SOL     OW18637   5.374   3.476   0.662
 5913SOL    HW118638   5.354   3.401   0.725
 5913SOL    HW218639   5.406   3.555   0.714
 5914SOL     OW18640   0.981   6.742   6.194
 5914SOL    HW118641   1.075   6.776   6.208
 5914SOL    HW218642   0.959   6.747   6.097
 5915SOL     OW18643   3.721   6.831   0.212
 5915SOL    HW118644   3.677   6.798   0.295
 5915SOL    HW218645   3.819   6.839   0.227
 5916SOL     OW18646   1.251   6.705   1.652
 5916SOL    HW118647   1.209   6.788   1.687
 5916SOL    HW218648   1.273   6.718   1.555
 5917SOL     OW18649   3.099   4.405   6.341
 5917SOL    HW118650   3.032   4.455   6.287
 5917SOL    HW218651   3.053   4.337   6.398
 5918SOL     OW18652   2.702   6.147   5.859
 5918SOL    HW118653   2.777   6.086   5.885
 5918SOL    HW218654   2.616   6.095   5.859
 5919SOL     OW18655   3.517   3.505   3.453
 5919SOL    HW118656   3.435   3.546   3.492
 5919SOL    HW218657   3.506   3.405   3.448
 5920SOL     OW18658   5.814   0.738   6.144
 5920SOL    HW118659   5.874   0.706   6.070
 5920SOL    HW218660   5.745   0.668   6.163
 5921SOL     OW18661   3.666   4.792   6.510
 5921SOL    HW118662   3.628   4.869   6.562
 5921SOL    HW218663   3.707   4.827   6.425
 5922SOL     OW18664   6.335   3.651   3.177
 5922SOL    HW118665   6.431   3.659   3.205
 5922SOL    HW218666   6.278   3.706   3.238
 5923SOL     OW18667   6.067   1.383   1.347
 5923SOL    HW118668   5.979   1.344   1.374
 5923SOL    HW218669   6.093   1.348   1.257
 5924SOL     OW18670   5.742   0.114   2.797
 5924SOL    HW118671   5.740   0.084   2.892
 5924SOL    HW218672   5.649   0.124   2.762
 5925SOL     OW18673   4.628   5.221   1.135
 5925SOL    HW118674   4.723   5.203   1.158
 5925SOL    HW218675   4.617   5.219   1.035
 5926SOL     OW18676   4.040   4.927   3.053
 5926SOL    HW118677   3.966   4.967   3.107
 5926SOL    HW218678   4.005   4.900   2.963
 5927SOL     OW18679   1.503   3.563   2.054
 5927SOL    HW118680   1.597   3.580   2.082
 5927SOL    HW218681   1.460   3.498   2.117
 5928SOL     OW18682   4.213   0.714   0.999
 5928SOL    HW118683   4.235   0.676   1.088
 5928SOL    HW218684   4.295   0.719   0.943
 5929SOL     OW18685   6.812   0.400   5.280
 5929SOL    HW118686   6.877   0.436   5.347
 5929SOL    HW218687   6.734   0.463   5.272
 5930SOL     OW18688   1.168   3.320   1.456
 5930SOL    HW118689   1.110   3.257   1.404
 5930SOL    HW218690   1.190   3.399   1.399
 5931SOL     OW18691   5.605   6.225   2.818
 5931SOL    HW118692   5.588   6.222   2.719
 5931SOL    HW218693   5.539   6.285   2.862
 5932SOL     OW18694   3.074   0.240   6.562
 5932SOL    HW118695   3.169   0.265   6.584
 5932SOL    HW218696   3.074   0.160   6.503
 5933SOL     OW18697   6.973   5.428   4.541
 5933SOL    HW118698   0.037   5.479   4.536
 5933SOL    HW218699   6.993   5.331   4.554
 5934SOL     OW18700   3.474   3.905   5.877
 5934SOL    HW118701   3.386   3.863   5.899
 5934SOL    HW218702   3.460   3.979   5.811
 5935SOL     OW18703   0.413   6.126   4.793
 5935SOL    HW118704   0.456   6.052   4.741
 5935SOL    HW218705   0.340   6.168   4.738
 5936SOL     OW18706   3.753   3.278   3.147
 5936SOL    HW118707   3.836   3.250   3.100
 5936SOL    HW218708   3.715   3.201   3.198
 5937SOL     OW18709   0.500   2.681   2.191
 5937SOL    HW118710   0.536   2.714   2.278
 5937SOL    HW218711   0.498   2.581   2.191
 5938SOL     OW18712   5.955   5.385   5.299
 5938SOL    HW118713   6.037   5.422   5.255
 5938SOL    HW218714   5.875   5.403   5.242
 5939SOL     OW18715   3.740   6.839   4.406
 5939SOL    HW118716   3.834   6.811   4.425
 5939SOL    HW218717   3.740   6.933   4.372
 5940SOL     OW18718   4.919   5.488   2.927
 5940SOL    HW118719   4.937   5.407   2.982
 5940SOL    HW218720   4.829   5.525   2.951
 5941SOL     OW18721   6.492   2.079   2.188
 5941SOL    HW118722   6.492   2.010   2.260
 5941SOL    HW218723   6.579   2.129   2.189
 5942SOL     OW18724   6.542   3.090   6.004
 5942SOL    HW118725   6.595   3.016   6.045
 5942SOL    HW218726   6.525   3.071   5.907
 5943SOL     OW18727   4.186   3.319   0.481
 5943SOL    HW118728   4.278   3.356   0.472
 5943SOL    HW218729   4.120   3.383   0.442
 5944SOL     OW18730   0.316   2.982   6.920
 5944SOL    HW118731   0.355   3.053   6.860
 5944SOL    HW218732   0.372   2.974   7.003
 5945SOL     OW18733   0.750   6.092   4.789
 5945SOL    HW118734   0.710   6.176   4.755
 5945SOL    HW218735   0.832   6.113   4.843
 5946SOL     OW18736   3.942   4.333   6.544
 5946SOL    HW118737   3.864   4.276   6.570
 5946SOL    HW218738   4.021   4.309   6.600
 5947SOL     OW18739   3.263   2.936   4.706
 5947SOL    HW118740   3.342   2.889   4.667
 5947SOL    HW218741   3.183   2.920   4.648
 5948SOL     OW18742   5.060   3.851   2.069
 5948SOL    HW118743   5.008   3.895   1.996
 5948SOL    HW218744   5.136   3.910   2.097
 5949SOL     OW18745   5.918   5.486   1.361
 5949SOL    HW118746   5.921   5.556   1.290
 5949SOL    HW218747   5.949   5.399   1.324
 5950SOL     OW18748   5.468   2.271   5.503
 5950SOL    HW118749   5.418   2.187   5.521
 5950SOL    HW218750   5.453   2.299   5.408
 5951SOL     OW18751   0.912   5.117   5.081
 5951SOL    HW118752   0.982   5.139   5.013
 5951SOL    HW218753   0.899   5.018   5.084
 5952SOL     OW18754   4.064   5.069   2.060
 5952SOL    HW118755   4.122   5.037   1.986
 5952SOL    HW218756   3.992   5.002   2.078
 5953SOL     OW18757   6.311   2.730   4.759
 5953SOL    HW118758   6.331   2.779   4.673
 5953SOL    HW218759   6.378   2.657   4.770
 5954SOL     OW18760   0.447   5.608   5.119
 5954SOL    HW118761   0.416   5.703   5.129
 5954SOL    HW218762   0.545   5.603   5.136
 5955SOL     OW18763   5.210   4.669   1.318
 5955SOL    HW118764   5.149   4.605   1.272
 5955SOL    HW218765   5.191   4.762   1.287
 5956SOL     OW18766   5.031   2.658   4.345
 5956SOL    HW118767   5.127   2.639   4.365
 5956SOL    HW218768   5.011   2.754   4.366
 5957SOL     OW18769   1.274   0.966   2.782
 5957SOL    HW118770   1.332   0.951   2.703
 5957SOL    HW218771   1.180   0.939   2.760
 5958SOL     OW18772   3.471   0.035   3.042
 5958SOL    HW118773   3.385   0.040   3.093
 5958SOL    HW218774   3.509   0.127   3.032
 5959SOL     OW18775   4.980   2.305   5.059
 5959SOL    HW118776   4.924   2.331   5.137
 5959SOL    HW218777   4.922   2.288   4.980
 5960SOL     OW18778   3.482   6.530   5.242
 5960SOL    HW118779   3.491   6.460   5.313
 5960SOL    HW218780   3.514   6.618   5.277
 5961SOL     OW18781   3.842   1.969   2.494
 5961SOL    HW118782   3.808   1.985   2.587
 5961SOL    HW218783   3.888   1.880   2.490
 5962SOL     OW18784   5.068   6.481   6.661
 5962SOL    HW118785   5.089   6.435   6.574
 5962SOL    HW218786   5.150   6.480   6.719
 5963SOL     OW18787   3.859   4.630   6.634
 5963SOL    HW118788   3.886   4.546   6.587
 5963SOL    HW218789   3.792   4.679   6.578
 5964SOL     OW18790   2.083   0.459   2.889
 5964SOL    HW118791   2.112   0.540   2.838
 5964SOL    HW218792   2.076   0.381   2.827
 5965SOL     OW18793   1.775   0.044   6.816
 5965SOL    HW118794   1.805   6.975   6.789
 5965SOL    HW218795   1.732   0.039   6.906
 5966SOL     OW18796   1.681   0.345   5.547
 5966SOL    HW118797   1.728   0.286   5.612
 5966SOL    HW218798   1.730   0.432   5.541
 5967SOL     OW18799   2.400   2.251   4.897
 5967SOL    HW118800   2.354   2.324   4.846
 5967SOL    HW218801   2.363   2.247   4.990
 5968SOL     OW18802   5.784   2.567   0.147
 5968SOL    HW118803   5.873   2.558   0.192
 5968SOL    HW218804   5.721   2.616   0.207
 5969SOL     OW18805   5.166   0.716   6.591
 5969SOL    HW118806   5.082   0.717   6.536
 5969SOL    HW218807   5.150   0.762   6.678
 5970SOL     OW18808   0.334   3.808   0.838
 5970SOL    HW118809   0.286   3.752   0.906
 5970SOL    HW218810   0.396   3.751   0.784
 5971SOL     OW18811   5.892   0.318   2.907
 5971SOL    HW118812   5.829   0.395   2.918
 5971SOL    HW218813   5.849   0.248   2.850
 5972SOL     OW18814   4.683   5.531   0.209
 5972SOL    HW118815   4.780   5.509   0.205
 5972SOL    HW218816   4.652   5.531   0.304
 5973SOL     OW18817   1.657   3.406   2.818
 5973SOL    HW118818   1.699   3.411   2.727
 5973SOL    HW218819   1.581   3.341   2.816
 5974SOL     OW18820   4.156   0.757   6.952
 5974SOL    HW118821   4.172   0.712   0.018
 5974SOL    HW218822   4.242   0.764   6.901
 5975SOL     OW18823   5.346   5.181   0.509
 5975SOL    HW118824   5.413   5.158   0.579
 5975SOL    HW218825   5.296   5.263   0.536
 5976SOL     OW18826   3.653   3.471   5.915
 5976SOL    HW118827   3.630   3.386   5.868
 5976SOL    HW218828   3.692   3.536   5.850
 5977SOL     OW18829   0.438   5.345   0.237
 5977SOL    HW118830   0.357   5.386   0.278
 5977SOL    HW218831   0.516   5.407   0.247
 5978SOL     OW18832   3.636   5.205   0.087
 5978SOL    HW118833   3.670   5.117   0.054
 5978SOL    HW218834   3.695   5.278   0.054
 5979SOL     OW18835   6.207   1.054   2.009
 5979SOL    HW118836   6.154   0.975   1.980
 5979SOL    HW218837   6.171   1.087   2.096
 5980SOL     OW18838   3.211   2.833   1.889
 5980SOL    HW118839   3.184   2.902   1.821
 5980SOL    HW218840   3.142   2.761   1.893
 5981SOL     OW18841   4.817   2.788   0.571
 5981SOL    HW118842   4.850   2.731   0.647
 5981SOL    HW218843   4.729   2.828   0.595
 5982SOL     OW18844   5.883   2.320   2.287
 5982SOL    HW118845   5.787   2.351   2.285
 5982SOL    HW218846   5.896   2.251   2.216
 5983SOL     OW18847   0.214   0.397   4.128
 5983SOL    HW118848   0.116   0.389   4.106
 5983SOL    HW218849   0.249   0.485   4.095
 5984SOL     OW18850   5.876   6.185   3.662
 5984SOL    HW118851   5.938   6.263   3.656
 5984SOL    HW218852   5.808   6.191   3.588
 5985SOL     OW18853   6.468   1.931   3.419
 5985SOL    HW118854   6.461   2.012   3.478
 5985SOL    HW218855   6.387   1.925   3.361
 5986SOL     OW18856   4.369   3.796   5.246
 5986SOL    HW118857   4.335   3.874   5.299
 5986SOL    HW218858   4.389   3.825   5.153
 5987SOL     OW18859   6.849   0.633   4.606
 5987SOL    HW118860   6.851   0.537   4.579
 5987SOL    HW218861   6.760   0.655   4.648
 5988SOL     OW18862   2.793   1.468   6.909
 5988SOL    HW118863   2.845   1.399   6.858
 5988SOL    HW218864   2.824   1.559   6.884
 5989SOL     OW18865   1.244   5.830   6.742
 5989SOL    HW118866   1.266   5.878   6.827
 5989SOL    HW218867   1.254   5.893   6.665
 5990SOL     OW18868   4.277   4.266   1.008
 5990SOL    HW118869   4.282   4.361   1.040
 5990SOL    HW218870   4.263   4.266   0.909
 5991SOL     OW18871   4.105   5.864   0.741
 5991SOL    HW118872   4.132   5.902   0.829
 5991SOL    HW218873   4.056   5.933   0.688
 5992SOL     OW18874   3.005   0.360   1.941
 5992SOL    HW118875   2.920   0.388   1.984
 5992SOL    HW218876   3.078   0.424   1.964
 5993SOL     OW18877   6.291   3.647   6.824
 5993SOL    HW118878   6.271   3.706   6.902
 5993SOL    HW218879   6.341   3.566   6.855
 5994SOL     OW18880   0.118   3.516   1.292
 5994SOL    HW118881   0.119   3.577   1.371
 5994SOL    HW218882   0.192   3.449   1.300
 5995SOL     OW18883   4.565   3.055   1.199
 5995SOL    HW118884   4.545   3.133   1.259
 5995SOL    HW218885   4.480   3.023   1.156
 5996SOL     OW18886   2.205   5.751   1.287
 5996SOL    HW118887   2.188   5.668   1.234
 5996SOL    HW218888   2.221   5.727   1.382
 5997SOL     OW18889   6.803   6.835   3.323
 5997SOL    HW118890   6.897   6.817   3.295
 5997SOL    HW218891   6.740   6.780   3.268
 5998SOL     OW18892   5.121   1.103   1.737
 5998SOL    HW118893   5.217   1.128   1.733
 5998SOL    HW218894   5.103   1.053   1.822
 5999SOL     OW18895   4.053   3.355   0.929
 5999SOL    HW118896   4.035   3.422   1.001
 5999SOL    HW218897   4.095   3.274   0.969
 6000SOL     OW18898   0.215   5.541   0.252
 6000SOL    HW118899   0.170   5.600   0.185
 6000SOL    HW218900   0.257   5.597   0.324
 6001SOL     OW18901   5.172   6.288   6.214
 6001SOL    HW118902   5.135   6.265   6.124
 6001SOL    HW218903   5.241   6.220   6.241
 6002SOL     OW18904   6.610   6.879   4.674
 6002SOL    HW118905   6.701   6.867   4.713
 6002SOL    HW218906   6.609   6.961   4.617
 6003SOL     OW18907   6.761   2.548   4.070
 6003SOL    HW118908   6.690   2.486   4.102
 6003SOL    HW218909   6.720   2.636   4.046
 6004SOL     OW18910   5.942   2.721   3.453
 6004SOL    HW118911   5.871   2.654   3.474
 6004SOL    HW218912   5.991   2.693   3.371
 6005SOL     OW18913   4.915   4.117   4.954
 6005SOL    HW118914   5.008   4.104   4.919
 6005SOL    HW218915   4.849   4.094   4.883
 6006SOL     OW18916   3.649   0.379   5.273
 6006SOL    HW118917   3.567   0.324   5.258
 6006SOL    HW218918   3.640   0.466   5.224
 6007SOL     OW18919   0.315   4.106   6.431
 6007SOL    HW118920   0.274   4.020   6.401
 6007SOL    HW218921   0.247   4.179   6.426
 6008SOL     OW18922   2.259   4.011   5.719
 6008SOL    HW118923   2.332   3.965   5.770
 6008SOL    HW218924   2.219   3.948   5.653
 6009SOL     OW18925   4.683   5.628   2.953
 6009SOL    HW118926   4.659   5.720   2.924
 6009SOL    HW218927   4.657   5.615   3.049
 6010SOL     OW18928   0.258   4.465   4.440
 6010SOL    HW118929   0.269   4.391   4.374
 6010SOL    HW218930   0.258   4.553   4.391
 6011SOL     OW18931   4.577   1.737   3.045
 6011SOL    HW118932   4.560   1.656   2.990
 6011SOL    HW218933   4.651   1.719   3.110
 6012SOL     OW18934   5.908   0.371   6.729
 6012SOL    HW118935   5.843   0.294   6.733
 6012SOL    HW218936   5.992   0.340   6.685
 6013SOL     OW18937   5.179   0.780   2.426
 6013SOL    HW118938   5.244   0.732   2.366
 6013SOL    HW218939   5.114   0.830   2.369
 6014SOL     OW18940   3.201   3.135   4.143
 6014SOL    HW118941   3.300   3.140   4.131
 6014SOL    HW218942   3.156   3.173   4.063
 6015SOL     OW18943   6.706   2.485   4.562
 6015SOL    HW118944   6.765   2.416   4.520
 6015SOL    HW218945   6.686   2.557   4.496
 6016SOL     OW18946   4.435   1.468   5.328
 6016SOL    HW118947   4.523   1.479   5.283
 6016SOL    HW218948   4.406   1.556   5.366
 6017SOL     OW18949   6.668   3.964   4.838
 6017SOL    HW118950   6.656   4.004   4.929
 6017SOL    HW218951   6.718   3.877   4.846
 6018SOL     OW18952   3.537   1.216   4.853
 6018SOL    HW118953   3.592   1.184   4.776
 6018SOL    HW218954   3.558   1.161   4.934
 6019SOL     OW18955   1.309   3.686   5.745
 6019SOL    HW118956   1.281   3.712   5.653
 6019SOL    HW218957   1.238   3.630   5.787
 6020SOL     OW18958   1.232   5.126   0.943
 6020SOL    HW118959   1.308   5.084   0.895
 6020SOL    HW218960   1.260   5.215   0.979
 6021SOL     OW18961   4.465   0.537   2.390
 6021SOL    HW118962   4.482   0.439   2.374
 6021SOL    HW218963   4.380   0.548   2.441
 6022SOL     OW18964   6.199   1.604   3.089
 6022SOL    HW118965   6.112   1.563   3.063
 6022SOL    HW218966   6.271   1.534   3.084
 6023SOL     OW18967   5.072   0.384   1.537
 6023SOL    HW118968   5.165   0.357   1.559
 6023SOL    HW218969   5.037   0.326   1.463
 6024SOL     OW18970   0.402   4.749   0.877
 6024SOL    HW118971   0.342   4.756   0.956
 6024SOL    HW218972   0.350   4.712   0.799
 6025SOL     OW18973   2.848   1.358   3.588
 6025SOL    HW118974   2.934   1.409   3.589
 6025SOL    HW218975   2.815   1.348   3.495
 6026SOL     OW18976   6.626   4.292   4.393
 6026SOL    HW118977   6.627   4.253   4.485
 6026SOL    HW218978   6.542   4.266   4.346
 6027SOL     OW18979   6.111   3.419   6.138
 6027SOL    HW118980   6.152   3.329   6.150
 6027SOL    HW218981   6.162   3.487   6.192
 6028SOL     OW18982   5.288   4.953   0.727
 6028SOL    HW118983   5.377   4.997   0.717
 6028SOL    HW218984   5.298   4.855   0.713
 6029SOL     OW18985   2.447   0.089   3.829
 6029SOL    HW118986   2.486   0.068   3.919
 6029SOL    HW218987   2.503   0.158   3.783
 6030SOL     OW18988   4.972   3.595   4.737
 6030SOL    HW118989   4.944   3.677   4.688
 6030SOL    HW218990   4.910   3.580   4.814
 6031SOL     OW18991   1.079   5.849   4.112
 6031SOL    HW118992   0.985   5.863   4.078
 6031SOL    HW218993   1.076   5.801   4.199
 6032SOL     OW18994   3.552   5.932   4.062
 6032SOL    HW118995   3.601   5.910   3.978
 6032SOL    HW218996   3.464   5.973   4.040
 6033SOL     OW18997   2.435   2.509   2.822
 6033SOL    HW118998   2.503   2.458   2.875
 6033SOL    HW218999   2.348   2.461   2.824
 6034SOL     OW19000   1.050   0.018   6.236
 6034SOL    HW119001   0.976   6.974   6.222
 6034SOL    HW219002   1.090   0.004   6.327
 6035SOL     OW19003   0.496   1.028   2.622
 6035SOL    HW119004   0.397   1.015   2.632
 6035SOL    HW219005   0.544   0.946   2.652
 6036SOL     OW19006   6.102   4.912   1.385
 6036SOL    HW119007   6.183   4.882   1.334
 6036SOL    HW219008   6.036   4.838   1.391
 6037SOL     OW19009   3.993   1.325   0.800
 6037SOL    HW119010   3.976   1.253   0.867
 6037SOL    HW219011   4.022   1.409   0.847
 6038SOL     OW19012   0.395   2.502   6.633
 6038SOL    HW119013   0.316   2.462   6.680
 6038SOL    HW219014   0.410   2.454   6.547
 6039SOL     OW19015   4.155   3.578   4.037
 6039SOL    HW119016   4.129   3.596   3.942
 6039SOL    HW219017   4.182   3.482   4.047
 6040SOL     OW19018   1.705   1.549   0.213
 6040SOL    HW119019   1.680   1.455   0.190
 6040SOL    HW219020   1.657   1.577   0.296
 6041SOL     OW19021   3.325   2.870   5.633
 6041SOL    HW119022   3.293   2.963   5.612
 6041SOL    HW219023   3.285   2.806   5.568
 6042SOL     OW19024   3.943   6.160   3.514
 6042SOL    HW119025   3.997   6.166   3.598
 6042SOL    HW219026   3.877   6.085   3.523
 6043SOL     OW19027   1.736   0.909   3.394
 6043SOL    HW119028   1.810   0.882   3.332
 6043SOL    HW219029   1.763   0.993   3.443
 6044SOL     OW19030   1.800   1.720   2.158
 6044SOL    HW119031   1.825   1.775   2.238
 6044SOL    HW219032   1.882   1.697   2.106
 6045SOL     OW19033   4.897   3.334   3.680
 6045SOL    HW119034   4.909   3.307   3.776
 6045SOL    HW219035   4.986   3.357   3.641
 6046SOL     OW19036   3.393   2.531   1.618
 6046SOL    HW119037   3.434   2.607   1.669
 6046SOL    HW219038   3.411   2.544   1.520
 6047SOL     OW19039   5.565   2.276   0.715
 6047SOL    HW119040   5.592   2.290   0.620
 6047SOL    HW219041   5.483   2.218   0.717
 6048SOL     OW19042   5.335   4.930   5.028
 6048SOL    HW119043   5.359   4.941   4.932
 6048SOL    HW219044   5.405   4.875   5.074
 6049SOL     OW19045   5.257   4.483   6.361
 6049SOL    HW119046   5.190   4.411   6.376
 6049SOL    HW219047   5.230   4.538   6.282
 6050SOL     OW19048   3.208   5.567   0.558
 6050SOL    HW119049   3.210   5.470   0.534
 6050SOL    HW219050   3.258   5.581   0.644
 6051SOL     OW19051   0.276   1.385   2.507
 6051SOL    HW119052   0.365   1.414   2.540
 6051SOL    HW219053   0.284   1.296   2.462
 6052SOL     OW19054   5.727   0.375   0.964
 6052SOL    HW119055   5.716   0.442   1.038
 6052SOL    HW219056   5.637   0.348   0.929
 6053SOL     OW19057   4.644   0.942   6.150
 6053SOL    HW119058   4.722   0.995   6.118
 6053SOL    HW219059   4.559   0.984   6.119
 6054SOL     OW19060   3.954   5.232   0.552
 6054SOL    HW119061   3.896   5.156   0.580
 6054SOL    HW219062   4.050   5.209   0.570
 6055SOL     OW19063   3.377   4.965   6.414
 6055SOL    HW119064   3.440   4.915   6.355
 6055SOL    HW219065   3.426   4.994   6.497
 6056SOL     OW19066   6.024   2.702   4.696
 6056SOL    HW119067   6.110   2.732   4.736
 6056SOL    HW219068   6.033   2.698   4.597
 6057SOL     OW19069   5.390   0.132   2.479
 6057SOL    HW119070   5.395   0.173   2.570
 6057SOL    HW219071   5.358   0.199   2.413
 6058SOL     OW19072   6.140   3.763   0.898
 6058SOL    HW119073   6.079   3.736   0.972
 6058SOL    HW219074   6.231   3.727   0.914
 6059SOL     OW19075   5.161   3.940   5.304
 6059SOL    HW119076   5.162   4.030   5.260
 6059SOL    HW219077   5.211   3.945   5.390
 6060SOL     OW19078   3.112   2.936   0.378
 6060SOL    HW119079   3.188   2.916   0.440
 6060SOL    HW219080   3.115   2.873   0.301
 6061SOL     OW19081   4.070   4.678   0.258
 6061SOL    HW119082   4.048   4.645   0.350
 6061SOL    HW219083   4.162   4.716   0.256
 6062SOL     OW19084   2.369   1.581   6.892
 6062SOL    HW119085   2.393   1.519   6.817
 6062SOL    HW219086   2.440   1.578   6.962
 6063SOL     OW19087   4.081   4.469   5.476
 6063SOL    HW119088   4.054   4.389   5.530
 6063SOL    HW219089   4.053   4.553   5.523
 6064SOL     OW19090   0.487   0.149   0.541
 6064SOL    HW119091   0.528   0.180   0.455
 6064SOL    HW219092   0.556   0.148   0.613
 6065SOL     OW19093   1.198   5.365   1.991
 6065SOL    HW119094   1.197   5.428   1.913
 6065SOL    HW219095   1.141   5.403   2.064
 6066SOL     OW19096   5.084   0.802   3.676
 6066SOL    HW119097   5.065   0.799   3.577
 6066SOL    HW219098   5.139   0.723   3.701
 6067SOL     OW19099   5.773   0.255   5.525
 6067SOL    HW119100   5.694   0.193   5.528
 6067SOL    HW219101   5.854   0.207   5.557
 6068SOL     OW19102   5.163   2.135   5.205
 6068SOL    HW119103   5.102   2.208   5.173
 6068SOL    HW219104   5.252   2.143   5.161
 6069SOL     OW19105   6.961   3.038   5.834
 6069SOL    HW119106   6.955   2.959   5.895
 6069SOL    HW219107   0.017   3.026   5.772
 6070SOL     OW19108   3.598   2.269   1.604
 6070SOL    HW119109   3.623   2.329   1.680
 6070SOL    HW219110   3.566   2.181   1.639
 6071SOL     OW19111   0.028   6.258   4.193
 6071SOL    HW119112   0.091   6.210   4.254
 6071SOL    HW219113   7.014   6.340   4.238
 6072SOL     OW19114   0.179   2.085   0.607
 6072SOL    HW119115   0.130   2.018   0.663
 6072SOL    HW219116   0.114   2.130   0.546
 6073SOL     OW19117   4.931   3.096   1.178
 6073SOL    HW119118   4.973   3.127   1.263
 6073SOL    HW219119   4.841   3.056   1.197
 6074SOL     OW19120   1.741   6.642   2.426
 6074SOL    HW119121   1.681   6.694   2.487
 6074SOL    HW219122   1.700   6.553   2.407
 6075SOL     OW19123   4.757   6.990   5.846
 6075SOL    HW119124   4.807   0.031   5.787
 6075SOL    HW219125   4.662   7.021   5.855
 6076SOL     OW19126   2.634   5.290   3.860
 6076SOL    HW119127   2.550   5.277   3.912
 6076SOL    HW219128   2.641   5.386   3.832
 6077SOL     OW19129   5.372   6.329   0.955
 6077SOL    HW119130   5.370   6.425   0.980
 6077SOL    HW219131   5.283   6.301   0.919
 6078SOL     OW19132   4.274   4.261   0.709
 6078SOL    HW119133   4.353   4.200   0.718
 6078SOL    HW219134   4.301   4.343   0.658
 6079SOL     OW19135   4.935   4.445   6.619
 6079SOL    HW119136   4.892   4.370   6.669
 6079SOL    HW219137   4.902   4.532   6.654
 6080SOL     OW19138   0.965   5.039   1.757
 6080SOL    HW119139   1.018   4.981   1.819
 6080SOL    HW219140   0.890   5.081   1.808
 6081SOL     OW19141   0.865   3.505   5.547
 6081SOL    HW119142   0.928   3.574   5.511
 6081SOL    HW219143   0.908   3.458   5.624
 6082SOL     OW19144   3.331   0.326   2.063
 6082SOL    HW119145   3.298   0.332   1.969
 6082SOL    HW219146   3.340   0.229   2.089
 6083SOL     OW19147   5.477   6.909   0.332
 6083SOL    HW119148   5.390   6.911   0.282
 6083SOL    HW219149   5.552   6.897   0.267
 6084SOL     OW19150   0.823   6.127   1.883
 6084SOL    HW119151   0.777   6.040   1.863
 6084SOL    HW219152   0.912   6.129   1.838
 6085SOL     OW19153   6.142   5.917   6.427
 6085SOL    HW119154   6.103   5.849   6.489
 6085SOL    HW219155   6.096   6.005   6.442
 6086SOL     OW19156   3.754   2.615   6.676
 6086SOL    HW119157   3.726   2.697   6.725
 6086SOL    HW219158   3.799   2.641   6.590
 6087SOL     OW19159   5.001   6.160   0.533
 6087SOL    HW119160   4.957   6.215   0.463
 6087SOL    HW219161   4.961   6.068   0.533
 6088SOL     OW19162   5.231   6.433   5.464
 6088SOL    HW119163   5.263   6.354   5.411
 6088SOL    HW219164   5.303   6.463   5.526
 6089SOL     OW19165   6.763   2.156   2.254
 6089SOL    HW119166   6.726   2.207   2.332
 6089SOL    HW219167   6.847   2.199   2.222
 6090SOL     OW19168   2.875   5.155   4.601
 6090SOL    HW119169   2.956   5.114   4.643
 6090SOL    HW219170   2.862   5.117   4.510
 6091SOL     OW19171   2.693   1.291   1.058
 6091SOL    HW119172   2.596   1.303   1.036
 6091SOL    HW219173   2.728   1.374   1.100
 6092SOL     OW19174   4.157   0.567   1.964
 6092SOL    HW119175   4.240   0.512   1.960
 6092SOL    HW219176   4.080   0.510   1.991
 6093SOL     OW19177   2.269   1.660   2.132
 6093SOL    HW119178   2.191   1.597   2.140
 6093SOL    HW219179   2.252   1.741   2.189
 6094SOL     OW19180   0.789   6.999   4.154
 6094SOL    HW119181   0.721   0.028   4.208
 6094SOL    HW219182   0.845   6.944   4.215
 6095SOL     OW19183   4.202   5.319   6.689
 6095SOL    HW119184   4.280   5.262   6.661
 6095SOL    HW219185   4.163   5.283   6.774
 6096SOL     OW19186   5.494   6.281   2.551
 6096SOL    HW119187   5.564   6.264   2.481
 6096SOL    HW219188   5.441   6.197   2.565
 6097SOL     OW19189   1.338   5.732   1.988
 6097SOL    HW119190   1.400   5.734   1.910
 6097SOL    HW219191   1.381   5.684   2.064
 6098SOL     OW19192   6.452   0.856   5.833
 6098SOL    HW119193   6.448   0.756   5.822
 6098SOL    HW219194   6.374   0.898   5.787
 6099SOL     OW19195   4.680   6.446   6.018
 6099SOL    HW119196   4.725   6.521   6.068
 6099SOL    HW219197   4.647   6.480   5.930
 6100SOL     OW19198   0.624   5.788   2.052
 6100SOL    HW119199   0.561   5.859   2.084
 6100SOL    HW219200   0.584   5.740   1.975
 6101SOL     OW19201   6.380   2.309   2.117
 6101SOL    HW119202   6.419   2.233   2.169
 6101SOL    HW219203   6.345   2.378   2.180
 6102SOL     OW19204   4.377   5.919   2.826
 6102SOL    HW119205   4.309   5.855   2.788
 6102SOL    HW219206   4.356   6.012   2.795
 6103SOL     OW19207   6.585   1.469   0.912
 6103SOL    HW119208   6.563   1.567   0.904
 6103SOL    HW219209   6.505   1.419   0.942
 6104SOL     OW19210   6.037   1.252   5.082
 6104SOL    HW119211   6.045   1.208   4.993
 6104SOL    HW219212   6.124   1.242   5.131
 6105SOL     OW19213   2.468   5.274   5.523
 6105SOL    HW119214   2.560   5.314   5.521
 6105SOL    HW219215   2.471   5.181   5.486
 6106SOL     OW19216   0.793   4.416   0.968
 6106SOL    HW119217   0.758   4.510   0.971
 6106SOL    HW219218   0.718   4.353   0.989
 6107SOL     OW19219   4.789   5.226   4.143
 6107SOL    HW119220   4.794   5.322   4.171
 6107SOL    HW219221   4.766   5.221   4.045
 6108SOL     OW19222   1.285   1.759   2.314
 6108SOL    HW119223   1.307   1.722   2.404
 6108SOL    HW219224   1.333   1.845   2.301
 6109SOL     OW19225   5.689   0.678   4.197
 6109SOL    HW119226   5.655   0.730   4.275
 6109SOL    HW219227   5.621   0.679   4.124
 6110SOL     OW19228   1.077   2.815   6.342
 6110SOL    HW119229   1.106   2.909   6.323
 6110SOL    HW219230   1.143   2.770   6.401
 6111SOL     OW19231   1.356   3.410   2.198
 6111SOL    HW119232   1.270   3.377   2.236
 6111SOL    HW219233   1.381   3.354   2.119
 6112SOL     OW19234   3.762   0.624   2.258
 6112SOL    HW119235   3.795   0.539   2.299
 6112SOL    HW219236   3.663   0.631   2.269
 6113SOL     OW19237   2.768   3.960   6.892
 6113SOL    HW119238   2.828   3.955   6.813
 6113SOL    HW219239   2.822   3.979   6.974
 6114SOL     OW19240   4.785   2.302   2.267
 6114SOL    HW119241   4.734   2.388   2.262
 6114SOL    HW219242   4.752   2.239   2.198
 6115SOL     OW19243   0.499   1.586   5.180
 6115SOL    HW119244   0.482   1.656   5.249
 6115SOL    HW219245   0.574   1.528   5.210
 6116SOL     OW19246   3.817   2.462   5.303
 6116SOL    HW119247   3.748   2.390   5.308
 6116SOL    HW219248   3.792   2.536   5.367
 6117SOL     OW19249   1.162   1.115   3.223
 6117SOL    HW119250   1.186   1.192   3.164
 6117SOL    HW219251   1.215   1.035   3.197
 6118SOL     OW19252   5.838   1.669   1.634
 6118SOL    HW119253   5.928   1.632   1.656
 6118SOL    HW219254   5.807   1.727   1.708
 6119SOL     OW19255   0.065   3.158   0.260
 6119SOL    HW119256   0.057   3.109   0.174
 6119SOL    HW219257   6.997   3.161   0.305
 6120SOL     OW19258   1.877   6.858   5.341
 6120SOL    HW119259   1.789   6.811   5.342
 6120SOL    HW219260   1.896   6.895   5.432
 6121SOL     OW19261   0.543   4.133   5.595
 6121SOL    HW119262   0.561   4.180   5.509
 6121SOL    HW219263   0.456   4.084   5.589
 6122SOL     OW19264   5.314   6.067   6.317
 6122SOL    HW119265   5.294   6.014   6.235
 6122SOL    HW219266   5.268   6.025   6.396
 6123SOL     OW19267   5.245   0.797   5.578
 6123SOL    HW119268   5.252   0.833   5.485
 6123SOL    HW219269   5.316   0.729   5.594
 6124SOL     OW19270   1.817   6.958   5.109
 6124SOL    HW119271   1.859   6.939   5.197
 6124SOL    HW219272   1.733   7.011   5.123
 6125SOL     OW19273   2.617   3.664   0.004
 6125SOL    HW119274   2.598   3.754   0.043
 6125SOL    HW219275   2.535   3.607   0.011
 6126SOL     OW19276   0.875   2.176   5.140
 6126SOL    HW119277   0.842   2.165   5.047
 6126SOL    HW219278   0.876   2.274   5.164
 6127SOL     OW19279   3.801   0.897   1.413
 6127SOL    HW119280   3.733   0.906   1.340
 6127SOL    HW219281   3.755   0.880   1.500
 6128SOL     OW19282   5.672   5.504   0.971
 6128SOL    HW119283   5.771   5.521   0.966
 6128SOL    HW219284   5.638   5.533   1.060
 6129SOL     OW19285   1.733   4.906   3.282
 6129SOL    HW119286   1.750   4.816   3.324
 6129SOL    HW219287   1.813   4.933   3.228
 6130SOL     OW19288   5.767   2.400   2.845
 6130SOL    HW119289   5.741   2.421   2.939
 6130SOL    HW219290   5.764   2.301   2.831
 6131SOL     OW19291   0.687   2.136   1.985
 6131SOL    HW119292   0.688   2.233   1.961
 6131SOL    HW219293   0.756   2.119   2.055
 6132SOL     OW19294   3.448   2.024   6.298
 6132SOL    HW119295   3.514   1.961   6.257
 6132SOL    HW219296   3.494   2.082   6.366
 6133SOL     OW19297   1.221   2.245   3.157
 6133SOL    HW119298   1.247   2.158   3.199
 6133SOL    HW219299   1.227   2.319   3.225
 6134SOL     OW19300   4.783   6.719   6.855
 6134SOL    HW119301   4.695   6.722   6.904
 6134SOL    HW219302   4.785   6.792   6.787
 6135SOL     OW19303   5.992   6.741   6.834
 6135SOL    HW119304   6.050   6.813   6.795
 6135SOL    HW219305   5.941   6.778   6.912
 6136SOL     OW19306   1.427   2.410   1.143
 6136SOL    HW119307   1.522   2.384   1.124
 6136SOL    HW219308   1.391   2.352   1.217
 6137SOL     OW19309   0.769   4.067   2.599
 6137SOL    HW119310   0.726   4.124   2.668
 6137SOL    HW219311   0.698   4.022   2.544
 6138SOL     OW19312   3.175   0.579   2.049
 6138SOL    HW119313   3.205   0.655   2.107
 6138SOL    HW219314   3.249   0.511   2.042
 6139SOL     OW19315   0.918   6.627   5.352
 6139SOL    HW119316   0.856   6.648   5.277
 6139SOL    HW219317   0.919   6.528   5.368
 6140SOL     OW19318   0.565   1.056   3.267
 6140SOL    HW119319   0.473   1.093   3.253
 6140SOL    HW219320   0.632   1.114   3.220
 6141SOL     OW19321   0.783   0.189   6.060
 6141SOL    HW119322   0.873   0.213   6.097
 6141SOL    HW219323   0.790   0.103   6.010
 6142SOL     OW19324   0.620   0.279   5.883
 6142SOL    HW119325   0.686   0.271   5.957
 6142SOL    HW219326   0.548   0.211   5.895
 6143SOL     OW19327   0.121   3.974   0.841
 6143SOL    HW119328   0.094   4.000   0.749
 6143SOL    HW219329   0.214   3.938   0.841
 6144SOL     OW19330   4.598   4.437   3.396
 6144SOL    HW119331   4.516   4.484   3.426
 6144SOL    HW219332   4.615   4.358   3.454
 6145SOL     OW19333   5.726   4.592   3.854
 6145SOL    HW119334   5.762   4.642   3.775
 6145SOL    HW219335   5.626   4.588   3.847
 6146SOL     OW19336   3.758   0.072   4.298
 6146SOL    HW119337   3.790   0.107   4.211
 6146SOL    HW219338   3.831   0.077   4.366
 6147SOL     OW19339   2.146   2.735   4.395
 6147SOL    HW119340   2.198   2.797   4.453
 6147SOL    HW219341   2.145   2.644   4.436
 6148SOL     OW19342   3.846   5.059   6.571
 6148SOL    HW119343   3.856   5.017   6.481
 6148SOL    HW219344   3.748   5.064   6.594
 6149SOL     OW19345   2.337   0.240   2.282
 6149SOL    HW119346   2.414   0.266   2.339
 6149SOL    HW219347   2.352   0.149   2.245
 6150SOL     OW19348   6.692   4.061   6.518
 6150SOL    HW119349   6.690   3.962   6.536
 6150SOL    HW219350   6.707   4.077   6.420
 6151SOL     OW19351   5.079   5.275   4.163
 6151SOL    HW119352   5.075   5.312   4.070
 6151SOL    HW219353   5.173   5.249   4.185
 6152SOL     OW19354   1.143   5.403   4.669
 6152SOL    HW119355   1.194   5.374   4.750
 6152SOL    HW219356   1.190   5.371   4.587
 6153SOL     OW19357   4.672   5.208   0.861
 6153SOL    HW119358   4.706   5.302   0.849
 6153SOL    HW219359   4.603   5.189   0.791
 6154SOL     OW19360   5.382   3.513   3.139
 6154SOL    HW119361   5.326   3.584   3.182
 6154SOL    HW219362   5.346   3.493   3.048
 6155SOL     OW19363   2.851   1.170   3.033
 6155SOL    HW119364   2.840   1.257   2.986
 6155SOL    HW219365   2.948   1.153   3.050
 6156SOL     OW19366   5.326   3.811   1.426
 6156SOL    HW119367   5.238   3.834   1.466
 6156SOL    HW219368   5.318   3.725   1.375
 6157SOL     OW19369   0.866   2.102   3.476
 6157SOL    HW119370   0.785   2.049   3.450
 6157SOL    HW219371   0.948   2.047   3.459
 6158SOL     OW19372   3.318   2.175   6.716
 6158SOL    HW119373   3.352   2.128   6.635
 6158SOL    HW219374   3.261   2.113   6.769
 6159SOL     OW19375   5.501   3.721   0.718
 6159SOL    HW119376   5.532   3.751   0.628
 6159SOL    HW219377   5.579   3.719   0.781
 6160SOL     OW19378   6.482   0.273   6.547
 6160SOL    HW119379   6.573   0.240   6.523
 6160SOL    HW219380   6.413   0.222   6.494
 6161SOL     OW19381   5.341   1.961   6.752
 6161SOL    HW119382   5.432   1.920   6.745
 6161SOL    HW219383   5.285   1.930   6.676
 6162SOL     OW19384   5.975   6.731   3.276
 6162SOL    HW119385   5.965   6.657   3.209
 6162SOL    HW219386   5.893   6.790   3.273
 6163SOL     OW19387   5.484   5.755   1.979
 6163SOL    HW119388   5.388   5.731   1.967
 6163SOL    HW219389   5.529   5.684   2.033
 6164SOL     OW19390   3.810   4.013   4.546
 6164SOL    HW119391   3.870   4.025   4.625
 6164SOL    HW219392   3.714   4.023   4.575
 6165SOL     OW19393   4.254   2.287   6.555
 6165SOL    HW119394   4.210   2.297   6.465
 6165SOL    HW219395   4.350   2.262   6.543
 6166SOL     OW19396   6.797   2.002   6.857
 6166SOL    HW119397   6.847   2.051   6.928
 6166SOL    HW219398   6.831   2.029   6.767
 6167SOL     OW19399   1.631   4.373   2.718
 6167SOL    HW119400   1.657   4.443   2.652
 6167SOL    HW219401   1.712   4.324   2.749
 6168SOL     OW19402   0.012   2.272   3.129
 6168SOL    HW119403   0.031   2.338   3.201
 6168SOL    HW219404   6.942   2.287   3.092
 6169SOL     OW19405   0.854   0.974   6.025
 6169SOL    HW119406   0.886   1.065   6.052
 6169SOL    HW219407   0.881   0.907   6.094
 6170SOL     OW19408   3.527   3.986   6.447
 6170SOL    HW119409   3.575   3.898   6.452
 6170SOL    HW219410   3.569   4.042   6.376
 6171SOL     OW19411   1.428   3.537   2.433
 6171SOL    HW119412   1.448   3.624   2.389
 6171SOL    HW219413   1.396   3.471   2.365
 6172SOL     OW19414   0.241   0.770   2.376
 6172SOL    HW119415   0.191   0.824   2.442
 6172SOL    HW219416   0.177   0.722   2.316
 6173SOL     OW19417   0.578   5.162   2.431
 6173SOL    HW119418   0.551   5.258   2.424
 6173SOL    HW219419   0.664   5.156   2.482
 6174SOL     OW19420   5.955   4.850   2.772
 6174SOL    HW119421   5.900   4.873   2.852
 6174SOL    HW219422   6.012   4.770   2.793
 6175SOL     OW19423   5.709   6.715   2.274
 6175SOL    HW119424   5.770   6.684   2.346
 6175SOL    HW219425   5.647   6.785   2.310
 6176SOL     OW19426   6.683   3.795   6.536
 6176SOL    HW119427   6.771   3.747   6.540
 6176SOL    HW219428   6.610   3.731   6.560
 6177SOL     OW19429   5.511   1.465   1.298
 6177SOL    HW119430   5.571   1.527   1.348
 6177SOL    HW219431   5.550   1.373   1.298
 6178SOL     OW19432   5.026   5.476   1.993
 6178SOL    HW119433   5.029   5.421   1.910
 6178SOL    HW219434   4.993   5.421   2.069
 6179SOL     OW19435   0.095   3.572   4.941
 6179SOL    HW119436   0.156   3.562   5.019
 6179SOL    HW219437   0.074   3.669   4.926
 6180SOL     OW19438   3.499   0.034   6.567
 6180SOL    HW119439   3.461   0.031   6.659
 6180SOL    HW219440   3.531   6.965   6.541
 6181SOL     OW19441   4.518   6.606   0.808
 6181SOL    HW119442   4.430   6.649   0.787
 6181SOL    HW219443   4.580   6.618   0.730
 6182SOL     OW19444   4.800   5.421   5.909
 6182SOL    HW119445   4.774   5.375   5.824
 6182SOL    HW219446   4.845   5.356   5.970
 6183SOL     OW19447   1.914   0.549   3.097
 6183SOL    HW119448   1.821   0.542   3.060
 6183SOL    HW219449   1.980   0.535   3.023
 6184SOL     OW19450   2.075   7.014   6.035
 6184SOL    HW119451   2.067   0.053   6.114
 6184SOL    HW219452   2.157   6.958   6.044
 6185SOL     OW19453   1.089   3.578   0.399
 6185SOL    HW119454   1.008   3.635   0.406
 6185SOL    HW219455   1.118   3.572   0.303
 6186SOL     OW19456   5.724   6.894   3.777
 6186SOL    HW119457   5.635   6.916   3.818
 6186SOL    HW219458   5.717   6.807   3.728
 6187SOL     OW19459   5.110   4.426   3.900
 6187SOL    HW119460   5.078   4.514   3.864
 6187SOL    HW219461   5.146   4.371   3.824
 6188SOL     OW19462   2.668   5.811   1.364
 6188SOL    HW119463   2.737   5.797   1.292
 6188SOL    HW219464   2.607   5.732   1.367
 6189SOL     OW19465   4.886   4.595   3.885
 6189SOL    HW119466   4.910   4.669   3.823
 6189SOL    HW219467   4.851   4.517   3.832
 6190SOL     OW19468   5.848   3.490   6.206
 6190SOL    HW119469   5.853   3.588   6.227
 6190SOL    HW219470   5.941   3.453   6.200
 6191SOL     OW19471   5.308   2.726   1.021
 6191SOL    HW119472   5.345   2.635   1.005
 6191SOL    HW219473   5.308   2.745   1.119
 6192SOL     OW19474   3.491   3.741   0.543
 6192SOL    HW119475   3.560   3.711   0.476
 6192SOL    HW219476   3.517   3.709   0.634
 6193SOL     OW19477   3.554   0.512   2.569
 6193SOL    HW119478   3.638   0.465   2.543
 6193SOL    HW219479   3.508   0.461   2.642
 6194SOL     OW19480   2.176   6.760   0.376
 6194SOL    HW119481   2.210   6.749   0.282
 6194SOL    HW219482   2.172   6.857   0.399
 6195SOL     OW19483   3.789   5.781   5.930
 6195SOL    HW119484   3.749   5.695   5.899
 6195SOL    HW219485   3.763   5.798   6.025
 6196SOL     OW19486   6.821   2.616   0.242
 6196SOL    HW119487   6.818   2.701   0.189
 6196SOL    HW219488   6.813   2.638   0.339
 6197SOL     OW19489   4.684   3.448   0.485
 6197SOL    HW119490   4.735   3.375   0.439
 6197SOL    HW219491   4.704   3.446   0.583
 6198SOL     OW19492   3.470   5.944   2.971
 6198SOL    HW119493   3.462   5.871   2.903
 6198SOL    HW219494   3.506   6.026   2.927
 6199SOL     OW19495   0.108   0.051   1.304
 6199SOL    HW119496   0.080   0.030   1.210
 6199SOL    HW219497   0.175   7.005   1.334
 6200SOL     OW19498   2.669   1.477   6.286
 6200SOL    HW119499   2.711   1.421   6.358
 6200SOL    HW219500   2.643   1.418   6.210
 6201SOL     OW19501   2.086   4.892   5.488
 6201SOL    HW119502   2.057   4.927   5.578
 6201SOL    HW219503   2.113   4.796   5.497
 6202SOL     OW19504   3.519   1.792   1.464
 6202SOL    HW119505   3.430   1.794   1.509
 6202SOL    HW219506   3.591   1.785   1.533
 6203SOL     OW19507   5.391   0.279   3.656
 6203SOL    HW119508   5.441   0.300   3.740
 6203SOL    HW219509   5.456   0.272   3.580
 6204SOL     OW19510   0.574   5.118   5.023
 6204SOL    HW119511   0.565   5.036   4.968
 6204SOL    HW219512   0.616   5.095   5.111
 6205SOL     OW19513   5.591   6.326   0.107
 6205SOL    HW119514   5.616   6.324   0.204
 6205SOL    HW219515   5.651   6.264   0.056
 6206SOL     OW19516   6.665   0.470   2.489
 6206SOL    HW119517   6.643   0.420   2.405
 6206SOL    HW219518   6.598   0.446   2.560
 6207SOL     OW19519   1.427   3.338   4.869
 6207SOL    HW119520   1.523   3.367   4.864
 6207SOL    HW219521   1.383   3.382   4.947
 6208SOL     OW19522   6.261   6.782   6.059
 6208SOL    HW119523   6.271   6.686   6.083
 6208SOL    HW219524   6.172   6.796   6.016
 6209SOL     OW19525   4.224   5.921   6.987
 6209SOL    HW119526   4.145   5.982   6.974
 6209SOL    HW219527   4.217   5.843   6.925
 6210SOL     OW19528   5.428   4.631   3.286
 6210SOL    HW119529   5.505   4.585   3.242
 6210SOL    HW219530   5.439   4.628   3.385
 6211SOL     OW19531   2.804   6.853   5.523
 6211SOL    HW119532   2.813   6.762   5.483
 6211SOL    HW219533   2.840   6.921   5.460
 6212SOL     OW19534   0.799   5.449   2.625
 6212SOL    HW119535   0.838   5.390   2.555
 6212SOL    HW219536   0.815   5.410   2.715
 6213SOL     OW19537   5.451   0.085   6.741
 6213SOL    HW119538   5.467   7.010   6.763
 6213SOL    HW219539   5.359   0.095   6.701
 6214SOL     OW19540   6.392   5.090   3.276
 6214SOL    HW119541   6.347   5.027   3.212
 6214SOL    HW219542   6.486   5.106   3.246
 6215SOL     OW19543   3.409   1.771   6.892
 6215SOL    HW119544   3.354   1.691   6.865
 6215SOL    HW219545   3.428   1.766   6.990
 6216SOL     OW19546   6.308   1.973   1.757
 6216SOL    HW119547   6.389   2.022   1.789
 6216SOL    HW219548   6.308   1.968   1.657
 6217SOL     OW19549   5.721   2.530   1.977
 6217SOL    HW119550   5.787   2.514   1.904
 6217SOL    HW219551   5.763   2.584   2.050
 6218SOL     OW19552   3.498   4.956   4.248
 6218SOL    HW119553   3.501   5.054   4.270
 6218SOL    HW219554   3.590   4.923   4.229
 6219SOL     OW19555   0.431   1.489   4.717
 6219SOL    HW119556   0.530   1.493   4.729
 6219SOL    HW219557   0.388   1.469   4.805
 6220SOL     OW19558   1.776   4.476   5.692
 6220SOL    HW119559   1.813   4.567   5.674
 6220SOL    HW219560   1.776   4.422   5.607
 6221SOL     OW19561   5.436   5.115   5.992
 6221SOL    HW119562   5.348   5.068   5.998
 6221SOL    HW219563   5.508   5.049   5.971
 6222SOL     OW19564   0.846   6.552   1.559
 6222SOL    HW119565   0.887   6.522   1.645
 6222SOL    HW219566   0.750   6.526   1.556
 6223SOL     OW19567   6.833   3.214   4.631
 6223SOL    HW119568   6.836   3.115   4.645
 6223SOL    HW219569   6.906   3.258   4.685
 6224SOL     OW19570   1.699   1.833   6.051
 6224SOL    HW119571   1.720   1.746   6.007
 6224SOL    HW219572   1.779   1.864   6.103
 6225SOL     OW19573   2.948   3.109   1.384
 6225SOL    HW119574   2.867   3.119   1.443
 6225SOL    HW219575   2.981   3.015   1.388
 6226SOL     OW19576   5.661   1.679   4.000
 6226SOL    HW119577   5.641   1.610   3.931
 6226SOL    HW219578   5.594   1.672   4.074
 6227SOL     OW19579   3.452   4.660   6.362
 6227SOL    HW119580   3.384   4.623   6.425
 6227SOL    HW219581   3.515   4.720   6.411
 6228SOL     OW19582   0.209   2.184   2.474
 6228SOL    HW119583   0.240   2.093   2.447
 6228SOL    HW219584   0.275   2.224   2.537
 6229SOL     OW19585   1.240   2.479   2.934
 6229SOL    HW119586   1.310   2.533   2.980
 6229SOL    HW219587   1.282   2.399   2.892
 6230SOL     OW19588   1.313   1.455   4.669
 6230SOL    HW119589   1.327   1.494   4.579
 6230SOL    HW219590   1.215   1.446   4.687
 6231SOL     OW19591   6.787   5.289   1.620
 6231SOL    HW119592   6.883   5.305   1.642
 6231SOL    HW219593   6.749   5.371   1.576
 6232SOL     OW19594   6.676   1.655   0.179
 6232SOL    HW119595   6.664   1.557   0.161
 6232SOL    HW219596   6.594   1.690   0.226
 6233SOL     OW19597   5.711   1.428   6.939
 6233SOL    HW119598   5.796   1.480   6.931
 6233SOL    HW219599   5.702   1.394   0.012
 6234SOL     OW19600   0.308   1.279   5.285
 6234SOL    HW119601   0.210   1.297   5.283
 6234SOL    HW219602   0.356   1.359   5.322
 6235SOL     OW19603   1.153   0.411   2.759
 6235SOL    HW119604   1.075   0.373   2.808
 6235SOL    HW219605   1.124   0.489   2.705
 6236SOL     OW19606   1.159   5.125   0.611
 6236SOL    HW119607   1.206   5.207   0.643
 6236SOL    HW219608   1.108   5.084   0.686
 6237SOL     OW19609   4.110   6.147   0.453
 6237SOL    HW119610   4.115   6.086   0.375
 6237SOL    HW219611   4.200   6.185   0.472
 6238SOL     OW19612   4.167   4.755   3.222
 6238SOL    HW119613   4.242   4.712   3.171
 6238SOL    HW219614   4.116   4.816   3.161
 6239SOL     OW19615   2.763   6.611   1.580
 6239SOL    HW119616   2.776   6.597   1.678
 6239SOL    HW219617   2.673   6.652   1.564
 6240SOL     OW19618   2.249   2.363   0.443
 6240SOL    HW119619   2.220   2.370   0.348
 6240SOL    HW219620   2.258   2.267   0.468
 6241SOL     OW19621   2.606   1.267   2.600
 6241SOL    HW119622   2.699   1.236   2.617
 6241SOL    HW219623   2.601   1.366   2.609
 6242SOL     OW19624   5.431   1.174   3.547
 6242SOL    HW119625   5.352   1.124   3.582
 6242SOL    HW219626   5.497   1.110   3.507
 6243SOL     OW19627   5.885   6.944   2.653
 6243SOL    HW119628   5.975   6.931   2.695
 6243SOL    HW219629   5.839   7.021   2.696
 6244SOL     OW19630   1.780   2.395   1.565
 6244SOL    HW119631   1.845   2.447   1.621
 6244SOL    HW219632   1.701   2.370   1.620
 6245SOL     OW19633   2.942   4.522   1.577
 6245SOL    HW119634   2.976   4.451   1.516
 6245SOL    HW219635   2.889   4.480   1.651
 6246SOL     OW19636   2.844   2.651   6.310
 6246SOL    HW119637   2.846   2.552   6.296
 6246SOL    HW219638   2.917   2.677   6.374
 6247SOL     OW19639   0.644   6.417   3.521
 6247SOL    HW119640   0.560   6.362   3.528
 6247SOL    HW219641   0.637   6.496   3.581
 6248SOL     OW19642   1.792   3.749   1.744
 6248SOL    HW119643   1.707   3.702   1.768
 6248SOL    HW219644   1.799   3.834   1.796
 6249SOL     OW19645   0.876   4.716   0.546
 6249SOL    HW119646   0.916   4.781   0.611
 6249SOL    HW219647   0.882   4.623   0.583
 6250SOL     OW19648   6.543   5.974   0.407
 6250SOL    HW119649   6.467   6.028   0.444
 6250SOL    HW219650   6.528   5.878   0.428
 6251SOL     OW19651   3.813   7.020   0.722
 6251SOL    HW119652   3.771   0.072   0.775
 6251SOL    HW219653   3.849   6.951   0.784
 6252SOL     OW19654   2.017   6.590   4.490
 6252SOL    HW119655   1.988   6.525   4.419
 6252SOL    HW219656   2.115   6.583   4.503
 6253SOL     OW19657   2.205   3.935   2.516
 6253SOL    HW119658   2.206   3.836   2.499
 6253SOL    HW219659   2.219   3.984   2.430
 6254SOL     OW19660   5.308   0.976   0.118
 6254SOL    HW119661   5.392   1.004   0.070
 6254SOL    HW219662   5.298   1.030   0.201
 6255SOL     OW19663   1.935   0.967   1.462
 6255SOL    HW119664   1.878   1.038   1.504
 6255SOL    HW219665   1.887   0.927   1.384
 6256SOL     OW19666   4.143   5.160   2.960
 6256SOL    HW119667   4.100   5.074   2.990
 6256SOL    HW219668   4.241   5.156   2.980
 6257SOL     OW19669   5.918   2.225   1.006
 6257SOL    HW119670   5.924   2.246   1.103
 6257SOL    HW219671   5.975   2.146   0.986
 6258SOL     OW19672   4.592   0.354   3.702
 6258SOL    HW119673   4.678   0.386   3.742
 6258SOL    HW219674   4.543   0.433   3.665
 6259SOL     OW19675   2.945   1.459   0.948
 6259SOL    HW119676   2.960   1.542   1.001
 6259SOL    HW219677   2.968   1.379   1.004
 6260SOL     OW19678   3.389   4.041   0.141
 6260SOL    HW119679   3.467   3.984   0.165
 6260SOL    HW219680   3.417   4.137   0.143
 6261SOL     OW19681   2.995   6.524   6.626
 6261SOL    HW119682   3.065   6.586   6.660
 6261SOL    HW219683   2.992   6.528   6.526
 6262SOL     OW19684   2.202   4.147   0.518
 6262SOL    HW119685   2.286   4.158   0.572
 6262SOL    HW219686   2.202   4.212   0.442
 6263SOL     OW19687   0.414   0.058   5.850
 6263SOL    HW119688   0.355   0.037   5.773
 6263SOL    HW219689   0.434   6.996   5.901
 6264SOL     OW19690   1.562   6.495   0.856
 6264SOL    HW119691   1.630   6.482   0.928
 6264SOL    HW219692   1.476   6.452   0.884
 6265SOL     OW19693   3.273   4.030   1.228
 6265SOL    HW119694   3.188   4.010   1.179
 6265SOL    HW219695   3.274   3.979   1.314
 6266SOL     OW19696   4.348   0.851   4.756
 6266SOL    HW119697   4.436   0.804   4.767
 6266SOL    HW219698   4.341   0.926   4.821
 6267SOL     OW19699   3.043   0.399   0.003
 6267SOL    HW119700   3.113   0.466   0.028
 6267SOL    HW219701   3.065   0.311   0.047
 6268SOL     OW19702   2.841   6.179   2.838
 6268SOL    HW119703   2.810   6.102   2.895
 6268SOL    HW219704   2.916   6.227   2.885
 6269SOL     OW19705   6.990   5.962   2.473
 6269SOL    HW119706   0.055   5.942   2.518
 6269SOL    HW219707   6.982   6.061   2.459
 6270SOL     OW19708   1.990   0.251   5.510
 6270SOL    HW119709   2.071   0.192   5.513
 6270SOL    HW219710   2.006   0.325   5.446
 6271SOL     OW19711   6.588   2.555   5.894
 6271SOL    HW119712   6.670   2.508   5.926
 6271SOL    HW219713   6.532   2.492   5.839
 6272SOL     OW19714   0.694   3.137   4.975
 6272SOL    HW119715   0.634   3.100   5.046
 6272SOL    HW219716   0.676   3.089   4.889
 6273SOL     OW19717   0.996   0.968   2.311
 6273SOL    HW119718   0.899   0.974   2.336
 6273SOL    HW219719   1.007   0.896   2.241
 6274SOL     OW19720   2.262   5.972   6.059
 6274SOL    HW119721   2.302   5.880   6.067
 6274SOL    HW219722   2.206   5.976   5.976
 6275SOL     OW19723   3.154   6.444   4.950
 6275SOL    HW119724   3.108   6.360   4.920
 6275SOL    HW219725   3.133   6.461   5.046
 6276SOL     OW19726   1.453   4.751   3.672
 6276SOL    HW119727   1.427   4.824   3.610
 6276SOL    HW219728   1.370   4.712   3.714
 6277SOL     OW19729   5.122   2.561   2.581
 6277SOL    HW119730   5.035   2.574   2.629
 6277SOL    HW219731   5.106   2.517   2.493
 6278SOL     OW19732   4.557   0.694   4.811
 6278SOL    HW119733   4.612   0.610   4.810
 6278SOL    HW219734   4.610   0.768   4.853
 6279SOL     OW19735   3.652   1.082   6.653
 6279SOL    HW119736   3.646   1.003   6.713
 6279SOL    HW219737   3.748   1.094   6.624
 6280SOL     OW19738   0.506   2.829   5.309
 6280SOL    HW119739   0.565   2.890   5.362
 6280SOL    HW219740   0.425   2.807   5.363
 6281SOL     OW19741   2.810   6.554   5.221
 6281SOL    HW119742   2.867   6.583   5.298
 6281SOL    HW219743   2.841   6.465   5.188
 6282SOL     OW19744   1.720   0.292   4.784
 6282SOL    HW119745   1.732   0.273   4.882
 6282SOL    HW219746   1.693   0.208   4.737
 6283SOL     OW19747   6.428   2.839   4.532
 6283SOL    HW119748   6.392   2.899   4.461
 6283SOL    HW219749   6.506   2.788   4.497
 6284SOL     OW19750   2.257   5.564   4.839
 6284SOL    HW119751   2.297   5.636   4.783
 6284SOL    HW219752   2.306   5.560   4.927
 6285SOL     OW19753   1.596   3.039   3.916
 6285SOL    HW119754   1.688   3.030   3.877
 6285SOL    HW219755   1.589   2.982   3.997
 6286SOL     OW19756   6.351   1.938   3.895
 6286SOL    HW119757   6.335   2.027   3.852
 6286SOL    HW219758   6.404   1.880   3.834
 6287SOL     OW19759   4.310   4.621   2.298
 6287SOL    HW119760   4.211   4.618   2.286
 6287SOL    HW219761   4.354   4.614   2.208
 6288SOL     OW19762   5.824   4.165   1.999
 6288SOL    HW119763   5.852   4.237   1.934
 6288SOL    HW219764   5.784   4.208   2.080
 6289SOL     OW19765   1.471   3.191   2.701
 6289SOL    HW119766   1.489   3.166   2.605
 6289SOL    HW219767   1.373   3.190   2.717
 6290SOL     OW19768   5.501   3.691   4.037
 6290SOL    HW119769   5.574   3.752   4.067
 6290SOL    HW219770   5.520   3.598   4.071
 6291SOL     OW19771   3.798   2.986   3.777
 6291SOL    HW119772   3.855   2.985   3.694
 6291SOL    HW219773   3.703   3.006   3.752
 6292SOL     OW19774   0.459   2.743   3.649
 6292SOL    HW119775   0.389   2.763   3.581
 6292SOL    HW219776   0.523   2.675   3.612
 6293SOL     OW19777   4.261   6.758   0.007
 6293SOL    HW119778   4.188   6.827   0.016
 6293SOL    HW219779   4.334   6.778   0.072
 6294SOL     OW19780   3.646   4.922   3.797
 6294SOL    HW119781   3.636   4.962   3.888
 6294SOL    HW219782   3.743   4.919   3.773
 6295SOL     OW19783   5.063   5.274   5.742
 6295SOL    HW119784   4.972   5.307   5.718
 6295SOL    HW219785   5.122   5.277   5.661
 6296SOL     OW19786   6.783   6.622   4.370
 6296SOL    HW119787   6.738   6.556   4.310
 6296SOL    HW219788   6.775   6.592   4.465
 6297SOL     OW19789   4.826   0.149   5.405
 6297SOL    HW119790   4.915   0.146   5.359
 6297SOL    HW219791   4.770   0.073   5.374
 6298SOL     OW19792   1.666   3.223   6.199
 6298SOL    HW119793   1.628   3.208   6.290
 6298SOL    HW219794   1.611   3.174   6.131
 6299SOL     OW19795   5.868   2.287   0.057
 6299SOL    HW119796   5.855   2.385   0.072
 6299SOL    HW219797   5.954   2.273   0.008
 6300SOL     OW19798   5.419   0.974   4.904
 6300SOL    HW119799   5.424   0.977   4.804
 6300SOL    HW219800   5.417   1.067   4.940
 6301SOL     OW19801   2.755   0.071   0.974
 6301SOL    HW119802   2.658   0.051   0.976
 6301SOL    HW219803   2.769   0.170   0.981
 6302SOL     OW19804   1.287   1.863   4.344
 6302SOL    HW119805   1.375   1.882   4.300
 6302SOL    HW219806   1.287   1.900   4.436
 6303SOL     OW19807   2.769   1.178   4.812
 6303SOL    HW119808   2.727   1.097   4.851
 6303SOL    HW219809   2.698   1.242   4.784
 6304SOL     OW19810   2.417   1.318   1.050
 6304SOL    HW119811   2.349   1.252   1.022
 6304SOL    HW219812   2.402   1.405   1.002
 6305SOL     OW19813   6.367   6.815   1.006
 6305SOL    HW119814   6.360   6.757   1.088
 6305SOL    HW219815   6.324   6.904   1.024
 6306SOL     OW19816   0.174   4.006   4.476
 6306SOL    HW119817   0.112   3.976   4.403
 6306SOL    HW219818   0.225   3.927   4.510
 6307SOL     OW19819   3.881   4.167   5.967
 6307SOL    HW119820   3.806   4.231   5.949
 6307SOL    HW219821   3.933   4.199   6.046
 6308SOL     OW19822   1.390   1.631   4.909
 6308SOL    HW119823   1.348   1.578   4.835
 6308SOL    HW219824   1.337   1.618   4.993
 6309SOL     OW19825   4.887   3.838   4.612
 6309SOL    HW119826   4.947   3.909   4.649
 6309SOL    HW219827   4.842   3.872   4.530
 6310SOL     OW19828   2.104   4.977   4.269
 6310SOL    HW119829   2.182   4.916   4.263
 6310SOL    HW219830   2.030   4.933   4.320
 6311SOL     OW19831   5.899   0.700   5.476
 6311SOL    HW119832   5.983   0.648   5.491
 6311SOL    HW219833   5.869   0.740   5.563
 6312SOL     OW19834   5.043   5.022   5.844
 6312SOL    HW119835   5.044   4.954   5.771
 6312SOL    HW219836   5.077   5.109   5.809
 6313SOL     OW19837   1.625   5.932   3.189
 6313SOL    HW119838   1.614   5.875   3.108
 6313SOL    HW219839   1.553   6.001   3.193
 6314SOL     OW19840   3.625   6.985   1.975
 6314SOL    HW119841   3.641   6.995   1.876
 6314SOL    HW219842   3.676   0.034   2.024
 6315SOL     OW19843   4.010   2.627   6.795
 6315SOL    HW119844   3.916   2.640   6.765
 6315SOL    HW219845   4.073   2.645   6.720
 6316SOL     OW19846   4.725   2.448   6.259
 6316SOL    HW119847   4.718   2.457   6.358
 6316SOL    HW219848   4.635   2.425   6.221
 6317SOL     OW19849   5.230   5.942   3.439
 6317SOL    HW119850   5.245   5.933   3.537
 6317SOL    HW219851   5.312   5.981   3.396
 6318SOL     OW19852   2.873   2.285   4.901
 6318SOL    HW119853   2.956   2.312   4.950
 6318SOL    HW219854   2.802   2.260   4.967
 6319SOL     OW19855   0.233   2.790   3.509
 6319SOL    HW119856   0.223   2.690   3.508
 6319SOL    HW219857   0.163   2.830   3.450
 6320SOL     OW19858   5.632   4.779   4.199
 6320SOL    HW119859   5.659   4.685   4.182
 6320SOL    HW219860   5.659   4.806   4.292
 6321SOL     OW19861   3.504   5.206   1.469
 6321SOL    HW119862   3.429   5.164   1.521
 6321SOL    HW219863   3.466   5.269   1.402
 6322SOL     OW19864   1.691   2.078   6.321
 6322SOL    HW119865   1.784   2.070   6.286
 6322SOL    HW219866   1.636   2.132   6.258
 6323SOL     OW19867   3.267   2.595   1.162
 6323SOL    HW119868   3.198   2.525   1.141
 6323SOL    HW219869   3.291   2.644   1.078
 6324SOL     OW19870   4.594   0.696   6.262
 6324SOL    HW119871   4.625   0.789   6.243
 6324SOL    HW219872   4.517   0.674   6.202
 6325SOL     OW19873   1.405   1.804   1.516
 6325SOL    HW119874   1.500   1.789   1.486
 6325SOL    HW219875   1.356   1.718   1.516
 6326SOL     OW19876   5.375   6.229   1.303
 6326SOL    HW119877   5.297   6.257   1.246
 6326SOL    HW219878   5.460   6.251   1.255
 6327SOL     OW19879   0.215   0.377   5.085
 6327SOL    HW119880   0.289   0.310   5.097
 6327SOL    HW219881   0.204   0.430   5.169
 6328SOL     OW19882   2.216   3.875   0.174
 6328SOL    HW119883   2.138   3.920   0.132
 6328SOL    HW219884   2.295   3.936   0.173
 6329SOL     OW19885   1.601   2.430   3.269
 6329SOL    HW119886   1.668   2.470   3.332
 6329SOL    HW219887   1.521   2.489   3.264
 6330SOL     OW19888   4.807   1.079   1.175
 6330SOL    HW119889   4.837   1.109   1.266
 6330SOL    HW219890   4.723   1.025   1.184
 6331SOL     OW19891   6.137   2.711   0.798
 6331SOL    HW119892   6.138   2.654   0.880
 6331SOL    HW219893   6.231   2.734   0.772
 6332SOL     OW19894   6.526   4.387   2.331
 6332SOL    HW119895   6.468   4.306   2.331
 6332SOL    HW219896   6.566   4.400   2.240
 6333SOL     OW19897   3.721   4.893   4.100
 6333SOL    HW119898   3.722   4.817   4.035
 6333SOL    HW219899   3.788   4.875   4.173
 6334SOL     OW19900   1.738   0.037   2.493
 6334SOL    HW119901   1.767   0.048   2.588
 6334SOL    HW219902   1.767   0.117   2.440
 6335SOL     OW19903   5.671   1.528   0.644
 6335SOL    HW119904   5.676   1.595   0.570
 6335SOL    HW219905   5.639   1.440   0.608
 6336SOL     OW19906   6.924   2.449   5.625
 6336SOL    HW119907   6.844   2.391   5.639
 6336SOL    HW219908   7.003   2.408   5.672
 6337SOL     OW19909   4.846   3.506   6.470
 6337SOL    HW119910   4.820   3.451   6.549
 6337SOL    HW219911   4.769   3.564   6.443
 6338SOL     OW19912   2.796   2.294   2.427
 6338SOL    HW119913   2.894   2.280   2.419
 6338SOL    HW219914   2.767   2.368   2.367
 6339SOL     OW19915   0.467   2.626   4.030
 6339SOL    HW119916   0.522   2.560   3.977
 6339SOL    HW219917   0.392   2.577   4.075
 6340SOL     OW19918   2.780   5.734   3.120
 6340SOL    HW119919   2.773   5.816   3.063
 6340SOL    HW219920   2.721   5.662   3.082
 6341SOL     OW19921   0.284   4.820   3.409
 6341SOL    HW119922   0.302   4.904   3.461
 6341SOL    HW219923   0.194   4.785   3.433
 6342SOL     OW19924   2.457   1.608   1.923
 6342SOL    HW119925   2.494   1.692   1.884
 6342SOL    HW219926   2.395   1.630   1.998
 6343SOL     OW19927   4.716   2.506   6.892
 6343SOL    HW119928   4.664   2.496   6.807
 6343SOL    HW219929   4.691   2.592   6.936
 6344SOL     OW19930   6.327   3.587   5.957
 6344SOL    HW119931   6.294   3.550   5.870
 6344SOL    HW219932   6.356   3.512   6.016
 6345SOL     OW19933   4.313   0.934   1.940
 6345SOL    HW119934   4.255   0.873   1.887
 6345SOL    HW219935   4.261   1.016   1.966
 6346SOL     OW19936   6.483   3.815   3.406
 6346SOL    HW119937   6.386   3.813   3.381
 6346SOL    HW219938   6.533   3.748   3.352
 6347SOL     OW19939   2.576   0.654   1.981
 6347SOL    HW119940   2.529   0.684   2.064
 6347SOL    HW219941   2.567   0.723   1.910
 6348SOL     OW19942   1.037   3.653   5.355
 6348SOL    HW119943   0.965   3.605   5.305
 6348SOL    HW219944   1.029   3.752   5.340
 6349SOL     OW19945   2.590   0.720   1.501
 6349SOL    HW119946   2.603   0.622   1.484
 6349SOL    HW219947   2.661   0.772   1.453
 6350SOL     OW19948   2.234   4.720   3.630
 6350SOL    HW119949   2.229   4.749   3.725
 6350SOL    HW219950   2.152   4.667   3.607
 6351SOL     OW19951   6.319   2.544   2.257
 6351SOL    HW119952   6.409   2.570   2.223
 6351SOL    HW219953   6.249   2.580   2.195
 6352SOL     OW19954   1.901   5.406   4.290
 6352SOL    HW119955   1.980   5.425   4.232
 6352SOL    HW219956   1.909   5.314   4.329
 6353SOL     OW19957   6.450   0.806   6.400
 6353SOL    HW119958   6.456   0.867   6.479
 6353SOL    HW219959   6.485   0.716   6.426
 6354SOL     OW19960   1.161   6.864   2.609
 6354SOL    HW119961   1.063   6.881   2.597
 6354SOL    HW219962   1.174   6.773   2.649
 6355SOL     OW19963   0.898   4.835   4.990
 6355SOL    HW119964   0.983   4.782   4.985
 6355SOL    HW219965   0.869   4.860   4.898
 6356SOL     OW19966   4.959   4.979   1.820
 6356SOL    HW119967   4.889   4.985   1.891
 6356SOL    HW219968   5.049   4.998   1.859
 6357SOL     OW19969   4.880   2.534   1.588
 6357SOL    HW119970   4.789   2.503   1.616
 6357SOL    HW219971   4.877   2.633   1.571
 6358SOL     OW19972   0.589   2.150   4.945
 6358SOL    HW119973   0.553   2.153   4.852
 6358SOL    HW219974   0.633   2.061   4.961
 6359SOL     OW19975   6.095   0.298   5.837
 6359SOL    HW119976   6.104   0.387   5.792
 6359SOL    HW219977   6.054   0.311   5.928
 6360SOL     OW19978   2.214   4.108   4.437
 6360SOL    HW119979   2.208   4.086   4.535
 6360SOL    HW219980   2.237   4.204   4.427
 6361SOL     OW19981   5.715   6.708   6.631
 6361SOL    HW119982   5.779   6.638   6.603
 6361SOL    HW219983   5.621   6.675   6.619
 6362SOL     OW19984   5.868   5.098   6.857
 6362SOL    HW119985   5.820   5.118   6.942
 6362SOL    HW219986   5.907   5.182   6.820
 6363SOL     OW19987   2.324   5.186   3.347
 6363SOL    HW119988   2.345   5.090   3.369
 6363SOL    HW219989   2.231   5.207   3.378
 6364SOL     OW19990   3.038   1.601   5.991
 6364SOL    HW119991   3.111   1.567   6.050
 6364SOL    HW219992   3.060   1.580   5.895
 6365SOL     OW19993   4.717   6.837   4.430
 6365SOL    HW119994   4.684   6.842   4.524
 6365SOL    HW219995   4.809   6.799   4.429
 6366SOL     OW19996   0.320   6.163   5.602
 6366SOL    HW119997   0.381   6.241   5.614
 6366SOL    HW219998   0.237   6.193   5.554
 6367SOL     OW19999   4.311   0.349   3.834
 6367SOL    HW120000   4.336   0.419   3.767
 6367SOL    HW220001   4.215   0.360   3.860
 6368SOL     OW20002   3.085   0.025   3.894
 6368SOL    HW120003   3.074   0.035   3.993
 6368SOL    HW220004   3.149   0.094   3.860
 6369SOL     OW20005   3.001   4.887   4.640
 6369SOL    HW120006   2.976   4.865   4.734
 6369SOL    HW220007   2.933   4.848   4.578
 6370SOL     OW20008   1.503   2.927   2.950
 6370SOL    HW120009   1.599   2.901   2.936
 6370SOL    HW220010   1.497   3.026   2.963
 6371SOL     OW20011   4.959   3.207   3.929
 6371SOL    HW120012   5.056   3.185   3.941
 6371SOL    HW220013   4.903   3.140   3.977
 6372SOL     OW20014   2.679   6.997   1.843
 6372SOL    HW120015   2.747   0.046   1.826
 6372SOL    HW220016   2.621   6.986   1.762
 6373SOL     OW20017   5.987   4.497   4.088
 6373SOL    HW120018   5.891   4.499   4.114
 6373SOL    HW220019   6.010   4.580   4.038
 6374SOL     OW20020   3.215   3.763   3.899
 6374SOL    HW120021   3.190   3.799   3.990
 6374SOL    HW220022   3.192   3.831   3.830
 6375SOL     OW20023   0.805   1.363   3.736
 6375SOL    HW120024   0.752   1.316   3.665
 6375SOL    HW220025   0.848   1.295   3.795
 6376SOL     OW20026   6.160   1.830   5.467
 6376SOL    HW120027   6.077   1.789   5.428
 6376SOL    HW220028   6.167   1.925   5.437
 6377SOL     OW20029   6.764   1.528   6.068
 6377SOL    HW120030   6.755   1.575   5.980
 6377SOL    HW220031   6.834   1.573   6.123
 6378SOL     OW20032   5.681   5.142   3.439
 6378SOL    HW120033   5.778   5.120   3.433
 6378SOL    HW220034   5.666   5.211   3.510
 6379SOL     OW20035   2.505   4.994   4.946
 6379SOL    HW120036   2.426   4.998   4.885
 6379SOL    HW220037   2.501   5.071   5.010
 6380SOL     OW20038   1.080   1.457   5.340
 6380SOL    HW120039   0.983   1.433   5.328
 6380SOL    HW220040   1.134   1.374   5.346
 6381SOL     OW20041   3.840   3.371   2.832
 6381SOL    HW120042   3.839   3.389   2.733
 6381SOL    HW220043   3.750   3.389   2.870
 6382SOL     OW20044   1.320   2.598   0.230
 6382SOL    HW120045   1.357   2.687   0.257
 6382SOL    HW220046   1.297   2.546   0.312
 6383SOL     OW20047   2.008   2.273   3.375
 6383SOL    HW120048   1.965   2.236   3.292
 6383SOL    HW220049   2.076   2.341   3.350
 6384SOL     OW20050   5.670   4.744   1.572
 6384SOL    HW120051   5.574   4.732   1.546
 6384SOL    HW220052   5.681   4.833   1.616
 6385SOL     OW20053   6.311   4.858   4.113
 6385SOL    HW120054   6.279   4.931   4.053
 6385SOL    HW220055   6.408   4.872   4.134
 6386SOL     OW20056   2.416   4.181   0.256
 6386SOL    HW120057   2.473   4.254   0.219
 6386SOL    HW220058   2.474   4.114   0.302
 6387SOL     OW20059   0.837   2.069   6.413
 6387SOL    HW120060   0.846   2.145   6.348
 6387SOL    HW220061   0.813   2.104   6.503
 6388SOL     OW20062   4.634   4.540   1.628
 6388SOL    HW120063   4.543   4.498   1.622
 6388SOL    HW220064   4.674   4.520   1.717
 6389SOL     OW20065   1.042   5.512   2.153
 6389SOL    HW120066   1.124   5.533   2.206
 6389SOL    HW220067   0.977   5.587   2.161
 6390SOL     OW20068   0.872   2.629   3.928
 6390SOL    HW120069   0.910   2.545   3.968
 6390SOL    HW220070   0.888   2.628   3.829
 6391SOL     OW20071   2.921   0.556   6.206
 6391SOL    HW120072   2.979   0.637   6.194
 6391SOL    HW220073   2.979   0.475   6.216
 6392SOL     OW20074   2.455   6.864   3.692
 6392SOL    HW120075   2.484   6.896   3.602
 6392SOL    HW220076   2.483   6.930   3.761
 6393SOL     OW20077   5.981   6.434   1.583
 6393SOL    HW120078   5.974   6.499   1.659
 6393SOL    HW220079   5.907   6.452   1.517
 6394SOL     OW20080   2.371   4.186   0.771
 6394SOL    HW120081   2.424   4.254   0.821
 6394SOL    HW220082   2.276   4.216   0.764
 6395SOL     OW20083   5.916   2.189   2.059
 6395SOL    HW120084   5.939   2.234   1.973
 6395SOL    HW220085   5.839   2.126   2.044
 6396SOL     OW20086   5.551   2.830   6.107
 6396SOL    HW120087   5.598   2.898   6.050
 6396SOL    HW220088   5.594   2.828   6.198
 6397SOL     OW20089   6.313   2.001   7.018
 6397SOL    HW120090   6.353   1.958   0.077
 6397SOL    HW220091   6.382   2.009   6.946
 6398SOL     OW20092   3.612   0.894   0.858
 6398SOL    HW120093   3.657   0.983   0.852
 6398SOL    HW220094   3.639   0.837   0.780
 6399SOL     OW20095   2.007   5.416   6.283
 6399SOL    HW120096   2.028   5.422   6.185
 6399SOL    HW220097   1.932   5.479   6.304
 6400SOL     OW20098   2.020   5.379   3.178
 6400SOL    HW120099   2.046   5.332   3.094
 6400SOL    HW220100   2.059   5.471   3.177
 6401SOL     OW20101   6.965   4.496   3.487
 6401SOL    HW120102   6.975   4.546   3.401
 6401SOL    HW220103   0.004   4.416   3.486
 6402SOL     OW20104   2.825   0.863   2.956
 6402SOL    HW120105   2.837   0.894   2.861
 6402SOL    HW220106   2.771   0.930   3.006
 6403SOL     OW20107   0.782   6.241   6.417
 6403SOL    HW120108   0.731   6.248   6.332
 6403SOL    HW220109   0.781   6.145   6.448
 6404SOL     OW20110   4.143   1.304   3.106
 6404SOL    HW120111   4.201   1.344   3.035
 6404SOL    HW220112   4.183   1.218   3.137
 6405SOL     OW20113   1.765   1.753   3.165
 6405SOL    HW120114   1.825   1.732   3.242
 6405SOL    HW220115   1.715   1.670   3.138
 6406SOL     OW20116   1.827   2.990   3.737
 6406SOL    HW120117   1.782   2.972   3.650
 6406SOL    HW220118   1.873   3.078   3.734
 6407SOL     OW20119   3.043   6.714   3.197
 6407SOL    HW120120   2.993   6.776   3.257
 6407SOL    HW220121   3.135   6.700   3.234
 6408SOL     OW20122   6.504   2.711   0.099
 6408SOL    HW120123   6.567   2.671   0.033
 6408SOL    HW220124   6.487   2.647   0.174
 6409SOL     OW20125   6.654   4.429   3.372
 6409SOL    HW120126   6.677   4.332   3.379
 6409SOL    HW220127   6.729   4.484   3.410
 6410SOL     OW20128   1.609   1.678   0.474
 6410SOL    HW120129   1.630   1.620   0.553
 6410SOL    HW220130   1.524   1.727   0.491
 6411SOL     OW20131   0.864   2.767   3.499
 6411SOL    HW120132   0.790   2.820   3.457
 6411SOL    HW220133   0.891   2.693   3.438
 6412SOL     OW20134   6.866   3.109   5.165
 6412SOL    HW120135   6.803   3.035   5.190
 6412SOL    HW220136   6.959   3.082   5.189
 6413SOL     OW20137   5.527   4.559   2.199
 6413SOL    HW120138   5.486   4.499   2.131
 6413SOL    HW220139   5.455   4.609   2.248
 6414SOL     OW20140   5.848   1.069   1.950
 6414SOL    HW120141   5.817   1.103   1.862
 6414SOL    HW220142   5.828   0.971   1.957
 6415SOL     OW20143   3.401   2.136   2.642
 6415SOL    HW120144   3.460   2.208   2.605
 6415SOL    HW220145   3.450   2.050   2.645
 6416SOL     OW20146   0.977   0.540   6.102
 6416SOL    HW120147   0.893   0.541   6.048
 6416SOL    HW220148   0.995   0.447   6.134
 6417SOL     OW20149   0.536   5.068   2.923
 6417SOL    HW120150   0.543   5.080   3.022
 6417SOL    HW220151   0.458   5.009   2.902
 6418SOL     OW20152   6.826   4.802   2.289
 6418SOL    HW120153   6.752   4.801   2.221
 6418SOL    HW220154   6.908   4.840   2.248
 6419SOL     OW20155   3.106   5.170   2.363
 6419SOL    HW120156   3.045   5.131   2.432
 6419SOL    HW220157   3.104   5.113   2.281
 6420SOL     OW20158   3.231   3.500   6.209
 6420SOL    HW120159   3.269   3.430   6.271
 6420SOL    HW220160   3.299   3.523   6.139
 6421SOL     OW20161   6.092   1.581   1.692
 6421SOL    HW120162   6.184   1.570   1.655
 6421SOL    HW220163   6.092   1.555   1.788
 6422SOL     OW20164   6.436   0.111   3.897
 6422SOL    HW120165   6.422   0.171   3.976
 6422SOL    HW220166   6.491   0.160   3.828
 6423SOL     OW20167   4.798   4.213   2.015
 6423SOL    HW120168   4.813   4.123   1.974
 6423SOL    HW220169   4.704   4.220   2.047
 6424SOL     OW20170   6.836   4.902   6.004
 6424SOL    HW120171   6.805   4.974   5.942
 6424SOL    HW220172   6.917   4.858   5.967
 6425SOL     OW20173   6.916   5.203   4.320
 6425SOL    HW120174   6.938   5.157   4.407
 6425SOL    HW220175   6.848   5.274   4.337
 6426SOL     OW20176   0.693   3.839   4.053
 6426SOL    HW120177   0.677   3.918   3.994
 6426SOL    HW220178   0.608   3.812   4.097
 6427SOL     OW20179   1.808   3.200   6.858
 6427SOL    HW120180   1.805   3.231   6.953
 6427SOL    HW220181   1.755   3.115   6.850
 6428SOL     OW20182   6.386   3.429   0.983
 6428SOL    HW120183   6.422   3.436   0.890
 6428SOL    HW220184   6.460   3.440   1.049
 6429SOL     OW20185   0.828   1.238   4.780
 6429SOL    HW120186   0.852   1.326   4.740
 6429SOL    HW220187   0.884   1.166   4.738
 6430SOL     OW20188   4.635   1.439   1.732
 6430SOL    HW120189   4.596   1.522   1.694
 6430SOL    HW220190   4.668   1.381   1.657
 6431SOL     OW20191   5.773   0.056   3.063
 6431SOL    HW120192   5.738   6.999   3.113
 6431SOL    HW220193   5.870   0.069   3.085
 6432SOL     OW20194   4.573   4.582   0.210
 6432SOL    HW120195   4.643   4.644   0.175
 6432SOL    HW220196   4.584   4.572   0.308
 6433SOL     OW20197   3.038   4.281   1.028
 6433SOL    HW120198   3.091   4.209   1.073
 6433SOL    HW220199   3.022   4.256   0.933
 6434SOL     OW20200   1.039   3.623   1.561
 6434SOL    HW120201   1.099   3.602   1.484
 6434SOL    HW220202   1.074   3.703   1.609
 6435SOL     OW20203   3.776   4.998   6.903
 6435SOL    HW120204   3.727   4.927   6.953
 6435SOL    HW220205   3.867   4.964   6.876
 6436SOL     OW20206   2.127   3.160   4.180
 6436SOL    HW120207   2.066   3.240   4.185
 6436SOL    HW220208   2.172   3.147   4.268
 6437SOL     OW20209   1.429   1.321   0.362
 6437SOL    HW120210   1.512   1.292   0.410
 6437SOL    HW220211   1.352   1.265   0.393
 6438SOL     OW20212   6.782   4.310   5.318
 6438SOL    HW120213   6.712   4.362   5.269
 6438SOL    HW220214   6.738   4.245   5.380
 6439SOL     OW20215   0.481   6.430   1.065
 6439SOL    HW120216   0.453   6.374   0.986
 6439SOL    HW220217   0.424   6.407   1.144
 6440SOL     OW20218   1.999   1.592   2.025
 6440SOL    HW120219   2.005   1.496   1.997
 6440SOL    HW220220   2.033   1.651   1.951
 6441SOL     OW20221   0.897   6.867   2.511
 6441SOL    HW120222   0.852   6.942   2.464
 6441SOL    HW220223   0.876   6.781   2.465
 6442SOL     OW20224   1.726   1.313   3.680
 6442SOL    HW120225   1.627   1.329   3.687
 6442SOL    HW220226   1.775   1.387   3.727
 6443SOL     OW20227   3.183   2.793   0.793
 6443SOL    HW120228   3.264   2.735   0.784
 6443SOL    HW220229   3.134   2.771   0.878
 6444SOL     OW20230   0.612   2.550   3.548
 6444SOL    HW120231   0.698   2.595   3.574
 6444SOL    HW220232   0.621   2.451   3.563
 6445SOL     OW20233   5.013   2.508   5.450
 6445SOL    HW120234   5.061   2.467   5.527
 6445SOL    HW220235   4.958   2.585   5.483
 6446SOL     OW20236   0.483   2.126   5.883
 6446SOL    HW120237   0.539   2.174   5.816
 6446SOL    HW220238   0.533   2.117   5.969
 6447SOL     OW20239   0.442   6.291   2.500
 6447SOL    HW120240   0.406   6.243   2.421
 6447SOL    HW220241   0.541   6.275   2.508
 6448SOL     OW20242   6.518   4.197   2.740
 6448SOL    HW120243   6.539   4.138   2.662
 6448SOL    HW220244   6.549   4.153   2.824
 6449SOL     OW20245   3.886   4.177   1.345
 6449SOL    HW120246   3.952   4.213   1.279
 6449SOL    HW220247   3.801   4.231   1.340
 6450SOL     OW20248   6.899   3.113   1.545
 6450SOL    HW120249   6.933   3.204   1.572
 6450SOL    HW220250   6.901   3.106   1.445
 6451SOL     OW20251   3.087   6.460   5.754
 6451SOL    HW120252   3.155   6.388   5.766
 6451SOL    HW220253   3.053   6.490   5.843
 6452SOL     OW20254   3.777   6.197   5.133
 6452SOL    HW120255   3.783   6.249   5.218
 6452SOL    HW220256   3.682   6.173   5.114
 6453SOL     OW20257   2.003   6.411   6.562
 6453SOL    HW120258   1.951   6.409   6.647
 6453SOL    HW220259   1.944   6.445   6.488
 6454SOL     OW20260   2.965   1.129   3.690
 6454SOL    HW120261   2.928   1.219   3.667
 6454SOL    HW220262   2.902   1.058   3.660
 6455SOL     OW20263   1.114   2.287   4.275
 6455SOL    HW120264   1.140   2.380   4.250
 6455SOL    HW220265   1.135   2.272   4.372
 6456SOL     OW20266   1.201   0.258   3.481
 6456SOL    HW120267   1.220   0.356   3.491
 6456SOL    HW220268   1.226   0.229   3.389
 6457SOL     OW20269   5.366   1.302   0.956
 6457SOL    HW120270   5.290   1.251   0.996
 6457SOL    HW220271   5.424   1.338   1.029
 6458SOL     OW20272   1.275   6.095   2.880
 6458SOL    HW120273   1.297   6.176   2.826
 6458SOL    HW220274   1.306   6.109   2.975
 6459SOL     OW20275   5.585   5.866   1.046
 6459SOL    HW120276   5.579   5.958   1.007
 6459SOL    HW220277   5.520   5.805   1.001
 6460SOL     OW20278   4.263   5.316   6.075
 6460SOL    HW120279   4.327   5.248   6.038
 6460SOL    HW220280   4.297   5.350   6.163
 6461SOL     OW20281   3.028   5.279   4.982
 6461SOL    HW120282   3.008   5.312   5.074
 6461SOL    HW220283   3.084   5.196   4.988
 6462SOL     OW20284   2.345   2.758   5.171
 6462SOL    HW120285   2.405   2.838   5.174
 6462SOL    HW220286   2.384   2.685   5.226
 6463SOL     OW20287   1.779   4.220   6.235
 6463SOL    HW120288   1.863   4.251   6.191
 6463SOL    HW220289   1.768   4.267   6.323
 6464SOL     OW20290   0.844   4.677   4.332
 6464SOL    HW120291   0.766   4.654   4.275
 6464SOL    HW220292   0.879   4.593   4.375
 6465SOL     OW20293   5.843   2.847   4.071
 6465SOL    HW120294   5.766   2.905   4.044
 6465SOL    HW220295   5.828   2.754   4.038
 6466SOL     OW20296   0.132   2.334   5.694
 6466SOL    HW120297   0.154   2.247   5.651
 6466SOL    HW220298   0.138   2.324   5.794
 6467SOL     OW20299   2.652   0.969   6.866
 6467SOL    HW120300   2.569   0.993   6.814
 6467SOL    HW220301   2.701   0.898   6.817
 6468SOL     OW20302   4.306   6.078   1.222
 6468SOL    HW120303   4.400   6.083   1.191
 6468SOL    HW220304   4.302   6.025   1.307
 6469SOL     OW20305   5.011   0.916   5.141
 6469SOL    HW120306   4.970   0.856   5.209
 6469SOL    HW220307   4.959   1.002   5.135
 6470SOL     OW20308   6.291   5.028   6.576
 6470SOL    HW120309   6.202   5.072   6.572
 6470SOL    HW220310   6.362   5.092   6.546
 6471SOL     OW20311   6.228   5.637   5.910
 6471SOL    HW120312   6.157   5.594   5.965
 6471SOL    HW220313   6.229   5.735   5.928
 6472SOL     OW20314   0.301   5.096   0.704
 6472SOL    HW120315   0.239   5.102   0.782
 6472SOL    HW220316   0.330   5.188   0.677
 6473SOL     OW20317   1.782   1.831   5.590
 6473SOL    HW120318   1.747   1.924   5.578
 6473SOL    HW220319   1.855   1.832   5.659
 6474SOL     OW20320   1.503   3.936   5.568
 6474SOL    HW120321   1.577   4.003   5.576
 6474SOL    HW220322   1.513   3.867   5.640
 6475SOL     OW20323   6.066   5.817   4.383
 6475SOL    HW120324   6.048   5.727   4.343
 6475SOL    HW220325   6.034   5.819   4.477
 6476SOL     OW20326   4.857   3.641   1.894
 6476SOL    HW120327   4.800   3.716   1.927
 6476SOL    HW220328   4.842   3.629   1.796
 6477SOL     OW20329   0.079   5.100   1.249
 6477SOL    HW120330   0.047   5.006   1.234
 6477SOL    HW220331   0.001   5.162   1.251
 6478SOL     OW20332   3.373   6.213   2.440
 6478SOL    HW120333   3.281   6.212   2.479
 6478SOL    HW220334   3.428   6.141   2.484
 6479SOL     OW20335   4.203   5.391   2.552
 6479SOL    HW120336   4.295   5.429   2.564
 6479SOL    HW220337   4.148   5.412   2.632
 6480SOL     OW20338   3.818   3.033   5.723
 6480SOL    HW120339   3.869   3.049   5.807
 6480SOL    HW220340   3.880   2.999   5.652
 6481SOL     OW20341   3.332   2.292   1.743
 6481SOL    HW120342   3.369   2.367   1.689
 6481SOL    HW220343   3.401   2.258   1.807
 6482SOL     OW20344   0.019   0.644   6.078
 6482SOL    HW120345   0.065   0.568   6.124
 6482SOL    HW220346   6.956   0.611   6.035
 6483SOL     OW20347   2.579   6.268   1.948
 6483SOL    HW120348   2.507   6.207   1.912
 6483SOL    HW220349   2.641   6.292   1.874
 6484SOL     OW20350   3.608   0.533   2.962
 6484SOL    HW120351   3.594   0.631   2.950
 6484SOL    HW220352   3.688   0.504   2.911
 6485SOL     OW20353   1.262   3.535   3.482
 6485SOL    HW120354   1.314   3.590   3.547
 6485SOL    HW220355   1.257   3.441   3.515
 6486SOL     OW20356   0.912   4.998   3.539
 6486SOL    HW120357   0.992   4.942   3.517
 6486SOL    HW220358   0.927   5.092   3.506
 6487SOL     OW20359   6.051   5.786   5.175
 6487SOL    HW120360   5.995   5.773   5.257
 6487SOL    HW220361   6.028   5.875   5.134
 6488SOL     OW20362   3.254   6.007   5.491
 6488SOL    HW120363   3.313   5.933   5.524
 6488SOL    HW220364   3.159   5.987   5.514
 6489SOL     OW20365   2.078   3.143   6.978
 6489SOL    HW120366   2.018   3.210   6.935
 6489SOL    HW220367   2.161   3.132   6.923
 6490SOL     OW20368   4.134   2.322   6.793
 6490SOL    HW120369   4.180   2.312   6.705
 6490SOL    HW220370   4.037   2.298   6.783
 6491SOL     OW20371   4.074   0.877   6.491
 6491SOL    HW120372   4.000   0.863   6.557
 6491SOL    HW220373   4.116   0.789   6.469
 6492SOL     OW20374   6.064   6.272   6.739
 6492SOL    HW120375   6.022   6.357   6.771
 6492SOL    HW220376   6.076   6.210   6.817
 6493SOL     OW20377   1.359   6.226   5.308
 6493SOL    HW120378   1.319   6.228   5.216
 6493SOL    HW220379   1.308   6.286   5.369
 6494SOL     OW20380   0.283   0.576   3.637
 6494SOL    HW120381   0.371   0.530   3.634
 6494SOL    HW220382   0.227   0.549   3.558
 6495SOL     OW20383   5.239   5.941   3.712
 6495SOL    HW120384   5.319   5.978   3.760
 6495SOL    HW220385   5.192   5.875   3.770
 6496SOL     OW20386   6.895   6.457   2.317
 6496SOL    HW120387   6.846   6.449   2.404
 6496SOL    HW220388   6.941   6.371   2.296
 6497SOL     OW20389   2.396   2.923   0.010
 6497SOL    HW120390   2.441   2.941   6.944
 6497SOL    HW220391   2.434   2.840   0.050
 6498SOL     OW20392   2.532   4.880   4.181
 6498SOL    HW120393   2.585   4.964   4.193
 6498SOL    HW220394   2.595   4.803   4.164
 6499SOL     OW20395   5.359   1.244   5.029
 6499SOL    HW120396   5.280   1.298   5.059
 6499SOL    HW220397   5.398   1.196   5.108
 6500SOL     OW20398   0.252   4.481   3.649
 6500SOL    HW120399   0.263   4.579   3.668
 6500SOL    HW220400   0.342   4.440   3.633
 6501SOL     OW20401   6.279   2.887   1.104
 6501SOL    HW120402   6.225   2.866   1.186
 6501SOL    HW220403   6.240   2.838   1.025
 6502SOL     OW20404   0.110   3.790   3.590
 6502SOL    HW120405   0.208   3.804   3.603
 6502SOL    HW220406   0.059   3.836   3.663
 6503SOL     OW20407   5.748   6.894   3.292
 6503SOL    HW120408   5.759   6.976   3.348
 6503SOL    HW220409   5.671   6.840   3.326
 6504SOL     OW20410   4.223   6.827   6.469
 6504SOL    HW120411   4.208   6.788   6.378
 6504SOL    HW220412   4.303   6.887   6.467
 6505SOL     OW20413   6.514   4.682   1.592
 6505SOL    HW120414   6.601   4.655   1.632
 6505SOL    HW220415   6.443   4.619   1.622
 6506SOL     OW20416   0.523   3.162   0.620
 6506SOL    HW120417   0.591   3.088   0.614
 6506SOL    HW220418   0.568   3.245   0.653
 6507SOL     OW20419   1.509   5.709   6.726
 6507SOL    HW120420   1.537   5.800   6.696
 6507SOL    HW220421   1.409   5.701   6.720
 6508SOL     OW20422   1.973   1.898   3.619
 6508SOL    HW120423   2.022   1.900   3.532
 6508SOL    HW220424   2.023   1.952   3.687
 6509SOL     OW20425   1.920   2.365   4.678
 6509SOL    HW120426   1.881   2.381   4.587
 6509SOL    HW220427   1.924   2.451   4.728
 6510SOL     OW20428   0.508   5.386   6.706
 6510SOL    HW120429   0.411   5.363   6.713
 6510SOL    HW220430   0.563   5.307   6.735
 6511SOL     OW20431   5.992   0.453   4.533
 6511SOL    HW120432   5.965   0.506   4.453
 6511SOL    HW220433   6.072   0.496   4.576
 6512SOL     OW20434   4.423   0.232   3.146
 6512SOL    HW120435   4.503   0.291   3.142
 6512SOL    HW220436   4.445   0.149   3.197
 6513SOL     OW20437   3.555   6.354   4.162
 6513SOL    HW120438   3.470   6.305   4.145
 6513SOL    HW220439   3.593   6.324   4.250
 6514SOL     OW20440   5.185   0.082   3.646
 6514SOL    HW120441   5.252   0.156   3.638
 6514SOL    HW220442   5.227   0.004   3.693
 6515SOL     OW20443   0.369   5.488   4.194
 6515SOL    HW120444   0.333   5.578   4.218
 6515SOL    HW220445   0.449   5.498   4.135
 6516SOL     OW20446   0.400   1.974   0.056
 6516SOL    HW120447   0.387   1.935   0.147
 6516SOL    HW220448   0.449   2.061   0.063
 6517SOL     OW20449   6.354   1.423   0.685
 6517SOL    HW120450   6.418   1.466   0.621
 6517SOL    HW220451   6.327   1.490   0.754
 6518SOL     OW20452   0.496   6.413   7.016
 6518SOL    HW120453   0.506   6.333   0.052
 6518SOL    HW220454   0.546   6.399   6.930
 6519SOL     OW20455   2.088   1.845   3.326
 6519SOL    HW120456   2.048   1.898   3.251
 6519SOL    HW220457   2.181   1.819   3.302
 6520SOL     OW20458   6.645   5.426   3.610
 6520SOL    HW120459   6.658   5.389   3.519
 6520SOL    HW220460   6.612   5.520   3.604
 6521SOL     OW20461   0.806   1.129   4.357
 6521SOL    HW120462   0.774   1.061   4.291
 6521SOL    HW220463   0.729   1.165   4.408
 6522SOL     OW20464   3.137   4.931   6.645
 6522SOL    HW120465   3.125   4.906   6.550
 6522SOL    HW220466   3.151   5.030   6.652
 6523SOL     OW20467   2.714   1.768   6.629
 6523SOL    HW120468   2.654   1.694   6.601
 6523SOL    HW220469   2.763   1.742   6.712
 6524SOL     OW20470   3.506   2.962   3.450
 6524SOL    HW120471   3.408   2.961   3.427
 6524SOL    HW220472   3.517   2.950   3.549
 6525SOL     OW20473   2.244   2.888   2.849
 6525SOL    HW120474   2.147   2.866   2.842
 6525SOL    HW220475   2.296   2.828   2.788
 6526SOL     OW20476   0.840   6.550   4.864
 6526SOL    HW120477   0.827   6.646   4.889
 6526SOL    HW220478   0.892   6.545   4.779
 6527SOL     OW20479   0.336   1.414   4.974
 6527SOL    HW120480   0.389   1.331   4.955
 6527SOL    HW220481   0.357   1.445   5.067
 6528SOL     OW20482   6.959   0.673   3.807
 6528SOL    HW120483   6.915   0.763   3.794
 6528SOL    HW220484   6.903   0.617   3.868
 6529SOL     OW20485   5.740   1.896   3.542
 6529SOL    HW120486   5.801   1.879   3.619
 6529SOL    HW220487   5.709   1.809   3.504
 6530SOL     OW20488   6.784   3.154   1.091
 6530SOL    HW120489   6.775   3.202   1.178
 6530SOL    HW220490   6.795   3.221   1.017
 6531SOL     OW20491   5.368   3.028   4.131
 6531SOL    HW120492   5.383   2.994   4.224
 6531SOL    HW220493   5.382   2.954   4.066
 6532SOL     OW20494   5.708   1.420   0.918
 6532SOL    HW120495   5.681   1.479   0.994
 6532SOL    HW220496   5.696   1.468   0.832
 6533SOL     OW20497   5.418   5.974   1.627
 6533SOL    HW120498   5.327   6.011   1.609
 6533SOL    HW220499   5.468   6.035   1.688
 6534SOL     OW20500   2.735   4.170   1.550
 6534SOL    HW120501   2.685   4.193   1.467
 6534SOL    HW220502   2.757   4.254   1.600
 6535SOL     OW20503   0.480   2.826   4.873
 6535SOL    HW120504   0.477   2.769   4.955
 6535SOL    HW220505   0.469   2.769   4.792
 6536SOL     OW20506   6.691   2.878   6.118
 6536SOL    HW120507   6.731   2.873   6.210
 6536SOL    HW220508   6.659   2.788   6.090
 6537SOL     OW20509   6.685   6.216   7.016
 6537SOL    HW120510   6.635   6.256   6.940
 6537SOL    HW220511   6.650   6.124   0.013
 6538SOL     OW20512   3.819   4.107   0.145
 6538SOL    HW120513   3.794   4.139   0.237
 6538SOL    HW220514   3.915   4.081   0.144
 6539SOL     OW20515   2.348   2.204   6.250
 6539SOL    HW120516   2.272   2.178   6.310
 6539SOL    HW220517   2.339   2.300   6.224
 6540SOL     OW20518   3.860   1.755   4.889
 6540SOL    HW120519   3.811   1.834   4.927
 6540SOL    HW220520   3.850   1.756   4.789
 6541SOL     OW20521   3.148   2.087   4.889
 6541SOL    HW120522   3.067   2.061   4.838
 6541SOL    HW220523   3.124   2.154   4.959
 6542SOL     OW20524   6.557   4.457   3.118
 6542SOL    HW120525   6.581   4.424   3.209
 6542SOL    HW220526   6.624   4.425   3.051
 6543SOL     OW20527   6.451   5.247   0.193
 6543SOL    HW120528   6.492   5.335   0.169
 6543SOL    HW220529   6.510   5.199   0.257
 6544SOL     OW20530   0.902   6.313   3.547
 6544SOL    HW120531   0.914   6.260   3.463
 6544SOL    HW220532   0.813   6.359   3.545
 6545SOL     OW20533   4.824   1.690   6.032
 6545SOL    HW120534   4.896   1.620   6.029
 6545SOL    HW220535   4.819   1.736   5.943
 6546SOL     OW20536   4.666   4.163   6.376
 6546SOL    HW120537   4.758   4.174   6.340
 6546SOL    HW220538   4.601   4.157   6.300
 6547SOL     OW20539   4.134   1.524   5.451
 6547SOL    HW120540   4.162   1.428   5.439
 6547SOL    HW220541   4.214   1.583   5.437
 6548SOL     OW20542   0.818   4.305   6.437
 6548SOL    HW120543   0.733   4.257   6.417
 6548SOL    HW220544   0.799   4.400   6.462
 6549SOL     OW20545   3.131   1.120   0.892
 6549SOL    HW120546   3.069   1.173   0.950
 6549SOL    HW220547   3.119   1.023   0.909
 6550SOL     OW20548   0.194   6.073   3.229
 6550SOL    HW120549   0.238   6.162   3.213
 6550SOL    HW220550   0.262   6.008   3.264
 6551SOL     OW20551   1.963   4.089   2.571
 6551SOL    HW120552   2.052   4.055   2.542
 6551SOL    HW220553   1.918   4.136   2.495
 6552SOL     OW20554   2.744   6.130   4.554
 6552SOL    HW120555   2.761   6.225   4.529
 6552SOL    HW220556   2.700   6.127   4.644
 6553SOL     OW20557   0.476   2.677   1.324
 6553SOL    HW120558   0.572   2.651   1.330
 6553SOL    HW220559   0.438   2.687   1.416
 6554SOL     OW20560   5.747   1.622   5.910
 6554SOL    HW120561   5.823   1.623   5.975
 6554SOL    HW220562   5.689   1.702   5.926
 6555SOL     OW20563   1.880   0.930   2.399
 6555SOL    HW120564   1.932   0.965   2.478
 6555SOL    HW220565   1.836   1.006   2.351
 6556SOL     OW20566   4.523   4.855   5.158
 6556SOL    HW120567   4.531   4.894   5.249
 6556SOL    HW220568   4.587   4.900   5.096
 6557SOL     OW20569   5.379   5.969   1.238
 6557SOL    HW120570   5.454   5.926   1.188
 6557SOL    HW220571   5.407   6.061   1.267
 6558SOL     OW20572   6.541   5.602   1.240
 6558SOL    HW120573   6.609   5.567   1.177
 6558SOL    HW220574   6.450   5.571   1.212
 6559SOL     OW20575   5.955   3.649   1.076
 6559SOL    HW120576   6.011   3.576   1.117
 6559SOL    HW220577   5.924   3.711   1.148
 6560SOL     OW20578   3.914   2.760   1.663
 6560SOL    HW120579   3.914   2.674   1.714
 6560SOL    HW220580   3.820   2.789   1.646
 6561SOL     OW20581   3.970   3.823   2.529
 6561SOL    HW120582   4.033   3.751   2.498
 6561SOL    HW220583   4.022   3.894   2.576
 6562SOL     OW20584   6.236   4.409   6.621
 6562SOL    HW120585   6.206   4.315   6.635
 6562SOL    HW220586   6.335   4.414   6.633
 6563SOL     OW20587   0.881   6.152   6.714
 6563SOL    HW120588   0.788   6.174   6.684
 6563SOL    HW220589   0.925   6.236   6.747
 6564SOL     OW20590   1.440   3.288   1.950
 6564SOL    HW120591   1.381   3.317   1.875
 6564SOL    HW220592   1.523   3.343   1.950
 6565SOL     OW20593   6.441   1.840   5.068
 6565SOL    HW120594   6.531   1.845   5.024
 6565SOL    HW220595   6.446   1.778   5.146
 6566SOL     OW20596   3.251   6.879   1.746
 6566SOL    HW120597   3.256   6.979   1.740
 6566SOL    HW220598   3.320   6.839   1.686
 6567SOL     OW20599   4.165   2.652   1.417
 6567SOL    HW120600   4.182   2.567   1.367
 6567SOL    HW220601   4.089   2.701   1.374
 6568SOL     OW20602   4.843   5.095   2.119
 6568SOL    HW120603   4.897   5.173   2.151
 6568SOL    HW220604   4.745   5.116   2.128
 6569SOL     OW20605   3.201   4.622   0.895
 6569SOL    HW120606   3.295   4.613   0.865
 6569SOL    HW220607   3.187   4.568   0.978
 6570SOL     OW20608   4.715   6.906   1.308
 6570SOL    HW120609   4.728   7.001   1.339
 6570SOL    HW220610   4.762   6.844   1.370
 6571SOL     OW20611   2.001   6.391   3.091
 6571SOL    HW120612   2.009   6.298   3.055
 6571SOL    HW220613   2.072   6.449   3.051
 6572SOL     OW20614   6.332   4.727   4.886
 6572SOL    HW120615   6.376   4.637   4.883
 6572SOL    HW220616   6.249   4.723   4.942
 6573SOL     OW20617   3.213   0.830   3.092
 6573SOL    HW120618   3.131   0.810   3.145
 6573SOL    HW220619   3.294   0.824   3.151
 6574SOL     OW20620   2.435   6.226   2.223
 6574SOL    HW120621   2.416   6.320   2.250
 6574SOL    HW220622   2.447   6.222   2.123
 6575SOL     OW20623   0.561   1.345   1.422
 6575SOL    HW120624   0.571   1.279   1.497
 6575SOL    HW220625   0.651   1.367   1.385
 6576SOL     OW20626   1.270   6.276   6.170
 6576SOL    HW120627   1.266   6.322   6.259
 6576SOL    HW220628   1.206   6.199   6.170
 6577SOL     OW20629   0.163   1.169   3.717
 6577SOL    HW120630   0.246   1.164   3.772
 6577SOL    HW220631   0.083   1.176   3.777
 6578SOL     OW20632   6.905   5.439   3.261
 6578SOL    HW120633   6.947   5.522   3.296
 6578SOL    HW220634   6.810   5.434   3.291
 6579SOL     OW20635   0.062   4.335   4.571
 6579SOL    HW120636   0.141   4.384   4.534
 6579SOL    HW220637   7.008   4.341   4.506
 6580SOL     OW20638   6.155   1.316   1.078
 6580SOL    HW120639   6.147   1.397   1.020
 6580SOL    HW220640   6.249   1.306   1.110
 6581SOL     OW20641   3.860   0.952   5.631
 6581SOL    HW120642   3.803   0.871   5.614
 6581SOL    HW220643   3.896   0.948   5.724
 6582SOL     OW20644   1.318   6.855   2.358
 6582SOL    HW120645   1.316   6.756   2.362
 6582SOL    HW220646   1.286   6.893   2.445
 6583SOL     OW20647   4.403   1.029   6.106
 6583SOL    HW120648   4.407   1.107   6.168
 6583SOL    HW220649   4.326   1.040   6.043
 6584SOL     OW20650   5.350   1.399   6.682
 6584SOL    HW120651   5.281   1.461   6.642
 6584SOL    HW220652   5.363   1.321   6.622
 6585SOL     OW20653   6.979   1.159   0.441
 6585SOL    HW120654   6.983   1.257   0.423
 6585SOL    HW220655   6.887   1.133   0.467
 6586SOL     OW20656   6.354   2.271   5.985
 6586SOL    HW120657   6.337   2.349   5.925
 6586SOL    HW220658   6.435   2.222   5.953
 6587SOL     OW20659   2.998   5.870   4.780
 6587SOL    HW120660   3.023   5.958   4.740
 6587SOL    HW220661   2.940   5.820   4.716
 6588SOL     OW20662   1.846   4.058   1.548
 6588SOL    HW120663   1.939   4.022   1.541
 6588SOL    HW220664   1.826   4.080   1.643
 6589SOL     OW20665   4.613   0.576   0.068
 6589SOL    HW120666   4.710   0.596   0.056
 6589SOL    HW220667   4.596   0.553   0.164
 6590SOL     OW20668   0.176   1.876   5.412
 6590SOL    HW120669   0.086   1.841   5.384
 6590SOL    HW220670   0.229   1.898   5.330
 6591SOL     OW20671   5.690   6.232   2.388
 6591SOL    HW120672   5.707   6.268   2.297
 6591SOL    HW220673   5.683   6.132   2.385
 6592SOL     OW20674   4.644   6.859   4.171
 6592SOL    HW120675   4.663   6.826   4.263
 6592SOL    HW220676   4.578   6.934   4.175
 6593SOL     OW20677   2.141   2.514   3.346
 6593SOL    HW120678   2.230   2.514   3.390
 6593SOL    HW220679   2.078   2.573   3.397
 6594SOL     OW20680   4.187   1.279   0.156
 6594SOL    HW120681   4.165   1.188   0.121
 6594SOL    HW220682   4.103   1.330   0.173
 6595SOL     OW20683   0.650   3.746   1.612
 6595SOL    HW120684   0.600   3.719   1.694
 6595SOL    HW220685   0.611   3.699   1.533
 6596SOL     OW20686   4.062   0.114   5.480
 6596SOL    HW120687   4.150   0.159   5.466
 6596SOL    HW220688   3.990   0.166   5.433
 6597SOL     OW20689   0.814   6.381   3.824
 6597SOL    HW120690   0.851   6.314   3.759
 6597SOL    HW220691   0.775   6.458   3.774
 6598SOL     OW20692   1.877   6.107   5.220
 6598SOL    HW120693   1.781   6.130   5.232
 6598SOL    HW220694   1.887   6.009   5.206
 6599SOL     OW20695   3.916   5.143   5.610
 6599SOL    HW120696   3.864   5.201   5.548
 6599SOL    HW220697   3.997   5.192   5.642
 6600SOL     OW20698   4.816   4.922   5.022
 6600SOL    HW120699   4.906   4.961   5.043
 6600SOL    HW220700   4.807   4.833   5.065
 6601SOL     OW20701   0.759   0.428   0.489
 6601SOL    HW120702   0.853   0.413   0.520
 6601SOL    HW220703   0.696   0.411   0.565
 6602SOL     OW20704   0.059   2.114   1.291
 6602SOL    HW120705   0.106   2.148   1.373
 6602SOL    HW220706   0.006   2.033   1.314
 6603SOL     OW20707   1.565   2.873   4.183
 6603SOL    HW120708   1.651   2.922   4.200
 6603SOL    HW220709   1.584   2.790   4.131
 6604SOL     OW20710   2.602   5.784   1.710
 6604SOL    HW120711   2.627   5.687   1.704
 6604SOL    HW220712   2.513   5.798   1.667
 6605SOL     OW20713   4.416   4.753   0.818
 6605SOL    HW120714   4.490   4.764   0.884
 6605SOL    HW220715   4.423   4.664   0.775
 6606SOL     OW20716   4.625   0.022   2.233
 6606SOL    HW120717   4.706   0.016   2.175
 6606SOL    HW220718   4.622   6.964   2.294
 6607SOL     OW20719   1.715   1.341   1.816
 6607SOL    HW120720   1.717   1.426   1.764
 6607SOL    HW220721   1.620   1.312   1.830
 6608SOL     OW20722   5.269   3.973   2.213
 6608SOL    HW120723   5.318   4.040   2.158
 6608SOL    HW220724   5.329   3.937   2.284
 6609SOL     OW20725   5.111   0.872   6.829
 6609SOL    HW120726   5.033   0.889   6.769
 6609SOL    HW220727   5.084   0.812   6.904
 6610SOL     OW20728   2.340   0.310   6.858
 6610SOL    HW120729   2.260   0.362   6.887
 6610SOL    HW220730   2.387   0.274   6.938
 6611SOL     OW20731   6.971   2.373   2.748
 6611SOL    HW120732   6.914   2.389   2.828
 6611SOL    HW220733   0.046   2.380   2.773
 6612SOL     OW20734   0.987   4.053   0.030
 6612SOL    HW120735   0.947   4.093   6.969
 6612SOL    HW220736   0.971   4.115   0.108
 6613SOL     OW20737   5.863   5.931   3.364
 6613SOL    HW120738   5.773   5.972   3.350
 6613SOL    HW220739   5.863   5.838   3.327
 6614SOL     OW20740   4.758   6.599   6.504
 6614SOL    HW120741   4.815   6.667   6.550
 6614SOL    HW220742   4.795   6.581   6.413
 6615SOL     OW20743   0.711   3.925   4.599
 6615SOL    HW120744   0.652   3.963   4.529
 6615SOL    HW220745   0.750   3.839   4.567
 6616SOL     OW20746   3.912   1.607   5.842
 6616SOL    HW120747   3.887   1.703   5.830
 6616SOL    HW220748   3.900   1.558   5.755
 6617SOL     OW20749   3.539   6.475   3.614
 6617SOL    HW120750   3.593   6.457   3.696
 6617SOL    HW220751   3.532   6.391   3.560
 6618SOL     OW20752   1.545   3.046   2.048
 6618SOL    HW120753   1.516   3.111   1.978
 6618SOL    HW220754   1.639   3.066   2.076
 6619SOL     OW20755   5.015   6.770   4.395
 6619SOL    HW120756   5.083   6.722   4.451
 6619SOL    HW220757   5.061   6.835   4.335
 6620SOL     OW20758   1.693   2.941   5.720
 6620SOL    HW120759   1.644   2.989   5.648
 6620SOL    HW220760   1.628   2.892   5.778
 6621SOL     OW20761   3.375   4.007   0.501
 6621SOL    HW120762   3.408   3.913   0.498
 6621SOL    HW220763   3.330   4.025   0.589
 6622SOL     OW20764   6.128   5.741   1.323
 6622SOL    HW120765   6.060   5.800   1.367
 6622SOL    HW220766   6.162   5.675   1.389
 6623SOL     OW20767   3.457   3.082   2.124
 6623SOL    HW120768   3.425   3.136   2.046
 6623SOL    HW220769   3.549   3.111   2.150
 6624SOL     OW20770   2.359   6.390   4.136
 6624SOL    HW120771   2.399   6.419   4.049
 6624SOL    HW220772   2.330   6.471   4.188
 6625SOL     OW20773   5.948   1.628   6.095
 6625SOL    HW120774   5.890   1.672   6.163
 6625SOL    HW220775   6.043   1.653   6.110
 6626SOL     OW20776   3.466   4.927   3.091
 6626SOL    HW120777   3.376   4.903   3.057
 6626SOL    HW220778   3.464   4.935   3.191
 6627SOL     OW20779   2.065   1.135   5.641
 6627SOL    HW120780   2.057   1.040   5.669
 6627SOL    HW220781   1.983   1.162   5.590
 6628SOL     OW20782   5.031   5.301   2.728
 6628SOL    HW120783   4.999   5.207   2.742
 6628SOL    HW220784   5.009   5.355   2.809
 6629SOL     OW20785   3.384   6.249   0.995
 6629SOL    HW120786   3.395   6.339   1.037
 6629SOL    HW220787   3.300   6.206   1.028
 6630SOL     OW20788   3.695   2.024   0.644
 6630SOL    HW120789   3.726   1.971   0.565
 6630SOL    HW220790   3.739   1.989   0.727
 6631SOL     OW20791   4.519   6.847   2.381
 6631SOL    HW120792   4.558   6.759   2.405
 6631SOL    HW220793   4.455   6.876   2.453
 6632SOL     OW20794   6.953   0.983   1.900
 6632SOL    HW120795   6.869   1.017   1.857
 6632SOL    HW220796   6.969   0.888   1.871
 6633SOL     OW20797   1.377   5.560   6.411
 6633SOL    HW120798   1.344   5.575   6.504
 6633SOL    HW220799   1.367   5.463   6.388
 6634SOL     OW20800   5.959   3.307   5.963
 6634SOL    HW120801   5.999   3.219   5.939
 6634SOL    HW220802   6.029   3.367   6.001
 6635SOL     OW20803   4.720   4.893   3.379
 6635SOL    HW120804   4.670   4.910   3.294
 6635SOL    HW220805   4.738   4.980   3.425
 6636SOL     OW20806   2.092   2.931   5.450
 6636SOL    HW120807   2.020   2.904   5.386
 6636SOL    HW220808   2.159   2.989   5.403
 6637SOL     OW20809   1.026   0.517   6.855
 6637SOL    HW120810   1.087   0.506   6.776
 6637SOL    HW220811   1.033   0.437   6.914
 6638SOL     OW20812   4.056   4.874   5.140
 6638SOL    HW120813   4.115   4.857   5.060
 6638SOL    HW220814   3.998   4.794   5.155
 6639SOL     OW20815   5.871   5.843   5.862
 6639SOL    HW120816   5.895   5.757   5.817
 6639SOL    HW220817   5.920   5.919   5.818
 6640SOL     OW20818   0.029   1.923   4.640
 6640SOL    HW120819   7.015   1.926   4.733
 6640SOL    HW220820   0.089   1.843   4.629
 6641SOL     OW20821   2.952   3.227   6.763
 6641SOL    HW120822   3.045   3.258   6.785
 6641SOL    HW220823   2.888   3.265   6.830
 6642SOL     OW20824   2.999   5.236   0.040
 6642SOL    HW120825   2.934   5.179   0.090
 6642SOL    HW220826   3.091   5.197   0.048
 6643SOL     OW20827   0.032   4.464   0.001
 6643SOL    HW120828   0.070   4.373   7.006
 6643SOL    HW220829   6.992   4.489   6.947
 6644SOL     OW20830   3.041   4.771   2.062
 6644SOL    HW120831   2.962   4.717   2.031
 6644SOL    HW220832   3.115   4.762   1.995
 6645SOL     OW20833   6.778   5.169   1.079
 6645SOL    HW120834   6.739   5.083   1.112
 6645SOL    HW220835   6.801   5.227   1.158
 6646SOL     OW20836   4.743   5.736   4.581
 6646SOL    HW120837   4.750   5.796   4.661
 6646SOL    HW220838   4.808   5.661   4.590
 6647SOL     OW20839   3.234   1.730   2.655
 6647SOL    HW120840   3.221   1.784   2.738
 6647SOL    HW220841   3.208   1.785   2.576
 6648SOL     OW20842   3.616   6.068   2.535
 6648SOL    HW120843   3.649   6.084   2.442
 6648SOL    HW220844   3.693   6.070   2.599
 6649SOL     OW20845   5.756   2.021   6.332
 6649SOL    HW120846   5.709   2.051   6.249
 6649SOL    HW220847   5.773   1.923   6.327
 6650SOL     OW20848   4.033   1.186   3.387
 6650SOL    HW120849   4.021   1.241   3.470
 6650SOL    HW220850   3.943   1.157   3.353
 6651SOL     OW20851   1.316   1.879   0.387
 6651SOL    HW120852   1.306   1.801   0.448
 6651SOL    HW220853   1.388   1.939   0.421
 6652SOL     OW20854   6.705   4.361   0.103
 6652SOL    HW120855   6.663   4.276   0.136
 6652SOL    HW220856   6.794   4.374   0.148
 6653SOL     OW20857   4.106   3.652   3.150
 6653SOL    HW120858   4.019   3.622   3.189
 6653SOL    HW220859   4.177   3.587   3.174
 6654SOL     OW20860   2.209   2.763   1.162
 6654SOL    HW120861   2.195   2.842   1.101
 6654SOL    HW220862   2.144   2.691   1.138
 6655SOL     OW20863   2.499   0.025   1.618
 6655SOL    HW120864   2.532   6.970   1.562
 6655SOL    HW220865   2.536   0.111   1.583
 6656SOL     OW20866   6.440   1.062   2.553
 6656SOL    HW120867   6.452   1.122   2.473
 6656SOL    HW220868   6.353   1.014   2.545
 6657SOL     OW20869   4.430   6.547   6.364
 6657SOL    HW120870   4.479   6.494   6.434
 6657SOL    HW220871   4.406   6.487   6.288
 6658SOL     OW20872   5.687   1.295   5.363
 6658SOL    HW120873   5.648   1.364   5.303
 6658SOL    HW220874   5.614   1.246   5.410
 6659SOL     OW20875   2.385   1.938   6.407
 6659SOL    HW120876   2.482   1.959   6.419
 6659SOL    HW220877   2.330   2.008   6.451
 6660SOL     OW20878   0.002   6.278   1.337
 6660SOL    HW120879   0.050   6.358   1.374
 6660SOL    HW220880   0.030   6.263   1.242
 6661SOL     OW20881   0.334   4.779   3.790
 6661SOL    HW120882   0.299   4.862   3.835
 6661SOL    HW220883   0.411   4.803   3.731
 6662SOL     OW20884   1.039   1.023   6.918
 6662SOL    HW120885   1.042   0.940   6.862
 6662SOL    HW220886   1.033   1.104   6.859
 6663SOL     OW20887   0.089   5.686   3.259
 6663SOL    HW120888   0.132   5.734   3.182
 6663SOL    HW220889   0.109   5.735   3.344
 6664SOL     OW20890   1.541   0.139   1.502
 6664SOL    HW120891   1.495   0.150   1.414
 6664SOL    HW220892   1.473   0.126   1.574
 6665SOL     OW20893   1.549   0.128   3.407
 6665SOL    HW120894   1.492   0.104   3.328
 6665SOL    HW220895   1.594   0.216   3.390
 6666SOL     OW20896   5.928   1.687   5.408
 6666SOL    HW120897   5.894   1.726   5.322
 6666SOL    HW220898   5.859   1.698   5.479
 6667SOL     OW20899   6.053   4.984   4.716
 6667SOL    HW120900   6.120   4.926   4.670
 6667SOL    HW220901   5.966   4.935   4.724
 6668SOL     OW20902   0.049   6.210   2.251
 6668SOL    HW120903   0.095   6.207   2.339
 6668SOL    HW220904   0.114   6.186   2.179
 6669SOL     OW20905   1.992   3.499   3.739
 6669SOL    HW120906   2.007   3.535   3.647
 6669SOL    HW220907   1.930   3.560   3.789
 6670SOL     OW20908   3.509   3.712   6.839
 6670SOL    HW120909   3.491   3.756   6.751
 6670SOL    HW220910   3.449   3.751   6.909
 6671SOL     OW20911   6.197   5.160   0.534
 6671SOL    HW120912   6.212   5.093   0.462
 6671SOL    HW220913   6.099   5.175   0.547
 6672SOL     OW20914   0.889   1.047   5.392
 6672SOL    HW120915   0.799   1.091   5.394
 6672SOL    HW220916   0.946   1.087   5.464
 6673SOL     OW20917   4.785   5.728   2.668
 6673SOL    HW120918   4.711   5.790   2.695
 6673SOL    HW220919   4.799   5.659   2.739
 6674SOL     OW20920   0.587   5.326   5.888
 6674SOL    HW120921   0.668   5.274   5.863
 6674SOL    HW220922   0.513   5.264   5.914
 6675SOL     OW20923   5.647   4.133   1.564
 6675SOL    HW120924   5.700   4.202   1.514
 6675SOL    HW220925   5.587   4.085   1.501
 6676SOL     OW20926   0.788   3.590   5.792
 6676SOL    HW120927   0.690   3.576   5.808
 6676SOL    HW220928   0.804   3.610   5.695
 6677SOL     OW20929   6.935   3.332   6.957
 6677SOL    HW120930   0.011   3.316   6.947
 6677SOL    HW220931   6.908   3.411   6.902
 6678SOL     OW20932   1.358   2.467   7.016
 6678SOL    HW120933   1.276   2.420   6.982
 6678SOL    HW220934   1.344   2.494   0.090
 6679SOL     OW20935   1.672   1.530   4.859
 6679SOL    HW120936   1.676   1.573   4.769
 6679SOL    HW220937   1.578   1.507   4.882
 6680SOL     OW20938   4.462   5.833   6.039
 6680SOL    HW120939   4.546   5.878   6.069
 6680SOL    HW220940   4.401   5.900   5.997
 6681SOL     OW20941   5.299   6.157   6.848
 6681SOL    HW120942   5.317   6.251   6.817
 6681SOL    HW220943   5.384   6.105   6.846
 6682SOL     OW20944   0.652   4.452   2.663
 6682SOL    HW120945   0.729   4.391   2.682
 6682SOL    HW220946   0.655   4.480   2.567
 6683SOL     OW20947   4.989   1.944   5.486
 6683SOL    HW120948   4.957   1.929   5.392
 6683SOL    HW220949   4.931   2.012   5.530
 6684SOL     OW20950   2.011   6.598   1.289
 6684SOL    HW120951   2.073   6.534   1.244
 6684SOL    HW220952   1.917   6.564   1.282
 6685SOL     OW20953   5.160   1.855   6.118
 6685SOL    HW120954   5.212   1.824   6.198
 6685SOL    HW220955   5.073   1.893   6.148
 6686SOL     OW20956   5.913   4.295   3.849
 6686SOL    HW120957   5.988   4.228   3.852
 6686SOL    HW220958   5.924   4.361   3.923
 6687SOL     OW20959   0.839   1.553   0.690
 6687SOL    HW120960   0.854   1.629   0.627
 6687SOL    HW220961   0.908   1.482   0.675
 6688SOL     OW20962   0.544   4.700   2.233
 6688SOL    HW120963   0.557   4.676   2.137
 6688SOL    HW220964   0.628   4.740   2.270
 6689SOL     OW20965   4.363   2.712   0.720
 6689SOL    HW120966   4.384   2.773   0.644
 6689SOL    HW220967   4.264   2.711   0.735
 6690SOL     OW20968   2.465   1.165   1.845
 6690SOL    HW120969   2.503   1.141   1.934
 6690SOL    HW220970   2.499   1.255   1.818
 6691SOL     OW20971   2.840   5.982   0.675
 6691SOL    HW120972   2.874   5.962   0.583
 6691SOL    HW220973   2.787   5.904   0.708
 6692SOL     OW20974   2.634   4.524   5.222
 6692SOL    HW120975   2.678   4.461   5.287
 6692SOL    HW220976   2.701   4.555   5.156
 6693SOL     OW20977   4.866   3.501   6.095
 6693SOL    HW120978   4.883   3.440   6.017
 6693SOL    HW220979   4.788   3.560   6.074
 6694SOL     OW20980   4.311   5.460   0.052
 6694SOL    HW120981   4.331   5.392   0.122
 6694SOL    HW220982   4.354   5.547   0.077
 6695SOL     OW20983   0.730   2.220   6.623
 6695SOL    HW120984   0.691   2.181   6.707
 6695SOL    HW220985   0.811   2.273   6.645
 6696SOL     OW20986   2.030   2.572   1.168
 6696SOL    HW120987   1.957   2.638   1.182
 6696SOL    HW220988   2.023   2.500   1.237
 6697SOL     OW20989   4.640   2.118   2.693
 6697SOL    HW120990   4.590   2.058   2.630
 6697SOL    HW220991   4.589   2.127   2.779
 6698SOL     OW20992   3.576   2.600   0.673
 6698SOL    HW120993   3.588   2.697   0.652
 6698SOL    HW220994   3.505   2.590   0.742
 6699SOL     OW20995   3.720   4.165   6.617
 6699SOL    HW120996   3.649   4.129   6.556
 6699SOL    HW220997   3.712   4.121   6.707
 6700SOL     OW20998   0.547   5.614   0.243
 6700SOL    HW120999   0.524   5.702   0.202
 6700SOL    HW221000   0.513   5.611   0.337
 6701SOL     OW21001   6.059   2.913   1.585
 6701SOL    HW121002   5.981   2.852   1.588
 6701SOL    HW221003   6.129   2.882   1.649
 6702SOL     OW21004   2.605   2.023   0.047
 6702SOL    HW121005   2.699   1.988   0.043
 6702SOL    HW221006   2.554   1.972   0.117
 6703SOL     OW21007   6.154   2.278   6.966
 6703SOL    HW121008   6.248   2.311   6.952
 6703SOL    HW221009   6.103   2.290   6.881
 6704SOL     OW21010   4.409   2.465   2.267
 6704SOL    HW121011   4.501   2.501   2.281
 6704SOL    HW221012   4.342   2.535   2.291
 6705SOL     OW21013   0.158   2.433   1.689
 6705SOL    HW121014   0.170   2.533   1.684
 6705SOL    HW221015   0.244   2.388   1.669
 6706SOL     OW21016   1.117   4.052   0.515
 6706SOL    HW121017   1.147   4.093   0.601
 6706SOL    HW221018   1.051   3.979   0.535
 6707SOL     OW21019   5.996   5.927   4.652
 6707SOL    HW121020   6.074   5.985   4.674
 6707SOL    HW221021   5.912   5.981   4.654
 6708SOL     OW21022   1.801   5.864   2.345
 6708SOL    HW121023   1.732   5.871   2.418
 6708SOL    HW221024   1.864   5.790   2.368
 6709SOL     OW21025   3.715   6.430   1.427
 6709SOL    HW121026   3.810   6.461   1.435
 6709SOL    HW221027   3.675   6.423   1.518
 6710SOL     OW21028   1.984   1.836   5.776
 6710SOL    HW121029   2.056   1.878   5.722
 6710SOL    HW221030   2.024   1.770   5.840
 6711SOL     OW21031   5.678   4.112   6.562
 6711SOL    HW121032   5.777   4.116   6.571
 6711SOL    HW221033   5.651   4.019   6.538
 6712SOL     OW21034   3.982   5.514   0.375
 6712SOL    HW121035   3.887   5.483   0.375
 6712SOL    HW221036   4.021   5.500   0.466
 6713SOL     OW21037   2.580   1.770   1.760
 6713SOL    HW121038   2.515   1.804   1.692
 6713SOL    HW221039   2.646   1.841   1.781
 6714SOL     OW21040   5.589   0.083   5.274
 6714SOL    HW121041   5.580   0.113   5.369
 6714SOL    HW221042   5.642   0.150   5.223
 6715SOL     OW21043   0.373   0.941   6.957
 6715SOL    HW121044   0.383   0.885   0.018
 6715SOL    HW221045   0.458   0.992   6.942
 6716SOL     OW21046   1.373   6.358   1.003
 6716SOL    HW121047   1.416   6.287   1.058
 6716SOL    HW221048   1.290   6.391   1.048
 6717SOL     OW21049   4.128   3.043   0.510
 6717SOL    HW121050   4.138   3.142   0.520
 6717SOL    HW221051   4.050   3.012   0.565
 6718SOL     OW21052   4.107   5.741   6.623
 6718SOL    HW121053   4.108   5.670   6.553
 6718SOL    HW221054   4.013   5.767   6.643
 6719SOL     OW21055   7.006   6.941   5.947
 6719SOL    HW121056   6.985   6.967   5.853
 6719SOL    HW221057   0.057   6.872   5.947
 6720SOL     OW21058   2.359   6.100   1.901
 6720SOL    HW121059   2.308   6.044   1.836
 6720SOL    HW221060   2.388   6.043   1.978
 6721SOL     OW21061   5.263   6.410   4.476
 6721SOL    HW121062   5.268   6.316   4.443
 6721SOL    HW221063   5.206   6.464   4.414
 6722SOL     OW21064   4.760   3.365   1.015
 6722SOL    HW121065   4.718   3.415   0.940
 6722SOL    HW221066   4.695   3.355   1.089
 6723SOL     OW21067   2.033   6.831   3.136
 6723SOL    HW121068   2.046   6.784   3.223
 6723SOL    HW221069   2.118   6.874   3.107
 6724SOL     OW21070   2.092   4.246   5.973
 6724SOL    HW121071   2.071   4.238   5.876
 6724SOL    HW221072   2.035   4.183   6.026
 6725SOL     OW21073   1.370   4.334   2.547
 6725SOL    HW121074   1.307   4.380   2.484
 6725SOL    HW221075   1.435   4.401   2.584
 6726SOL     OW21076   1.332   2.924   4.718
 6726SOL    HW121077   1.283   2.845   4.755
 6726SOL    HW221078   1.426   2.924   4.752
 6727SOL     OW21079   5.424   3.499   6.439
 6727SOL    HW121080   5.504   3.451   6.473
 6727SOL    HW221081   5.361   3.517   6.514
 6728SOL     OW21082   3.542   2.021   4.674
 6728SOL    HW121083   3.516   1.925   4.671
 6728SOL    HW221084   3.512   2.061   4.761
 6729SOL     OW21085   6.654   1.227   2.061
 6729SOL    HW121086   6.595   1.236   2.142
 6729SOL    HW221087   6.689   1.318   2.037
 6730SOL     OW21088   2.301   6.998   6.935
 6730SOL    HW121089   2.387   7.003   6.885
 6730SOL    HW221090   2.304   0.040   7.013
 6731SOL     OW21091   3.016   4.298   1.434
 6731SOL    HW121092   3.067   4.212   1.435
 6731SOL    HW221093   2.958   4.302   1.352
 6732SOL     OW21094   2.737   5.864   0.251
 6732SOL    HW121095   2.745   5.916   0.166
 6732SOL    HW221096   2.666   5.795   0.242
 6733SOL     OW21097   4.592   5.662   5.861
 6733SOL    HW121098   4.685   5.682   5.833
 6733SOL    HW221099   4.567   5.720   5.938
 6734SOL     OW21100   1.137   3.322   5.626
 6734SOL    HW121101   1.158   3.380   5.704
 6734SOL    HW221102   1.210   3.329   5.558
 6735SOL     OW21103   0.132   5.092   5.248
 6735SOL    HW121104   0.205   5.124   5.307
 6735SOL    HW221105   0.070   5.168   5.227
 6736SOL     OW21106   2.339   3.358   1.085
 6736SOL    HW121107   2.316   3.444   1.132
 6736SOL    HW221108   2.438   3.354   1.071
 6737SOL     OW21109   2.117   1.102   2.030
 6737SOL    HW121110   2.084   1.029   1.971
 6737SOL    HW221111   2.062   1.185   2.014
 6738SOL     OW21112   2.392   1.912   2.481
 6738SOL    HW121113   2.405   1.926   2.383
 6738SOL    HW221114   2.328   1.837   2.496
 6739SOL     OW21115   3.353   5.538   5.263
 6739SOL    HW121116   3.440   5.525   5.216
 6739SOL    HW221117   3.277   5.515   5.201
 6740SOL     OW21118   1.710   0.930   4.240
 6740SOL    HW121119   1.791   0.973   4.281
 6740SOL    HW221120   1.630   0.950   4.297
 6741SOL     OW21121   5.080   1.513   6.028
 6741SOL    HW121122   5.092   1.590   5.965
 6741SOL    HW221123   5.116   1.537   6.118
 6742SOL     OW21124   0.153   5.629   4.580
 6742SOL    HW121125   0.224   5.665   4.519
 6742SOL    HW221126   0.080   5.697   4.589
 6743SOL     OW21127   4.286   3.114   0.264
 6743SOL    HW121128   4.245   3.131   0.175
 6743SOL    HW221129   4.236   3.165   0.334
 6744SOL     OW21130   3.940   4.566   5.834
 6744SOL    HW121131   3.961   4.564   5.736
 6744SOL    HW221132   3.917   4.659   5.861
 6745SOL     OW21133   1.157   5.057   3.214
 6745SOL    HW121134   1.211   5.012   3.143
 6745SOL    HW221135   1.193   5.149   3.229
 6746SOL     OW21136   0.894   1.102   1.459
 6746SOL    HW121137   0.930   1.083   1.367
 6746SOL    HW221138   0.849   1.191   1.460
 6747SOL     OW21139   5.371   6.680   4.026
 6747SOL    HW121140   5.393   6.737   4.106
 6747SOL    HW221141   5.450   6.677   3.965
 6748SOL     OW21142   0.479   0.711   2.278
 6748SOL    HW121143   0.485   0.739   2.182
 6748SOL    HW221144   0.388   0.733   2.314
 6749SOL     OW21145   3.591   0.331   0.106
 6749SOL    HW121146   3.498   0.352   0.138
 6749SOL    HW221147   3.633   0.264   0.167
 6750SOL     OW21148   2.701   2.082   4.293
 6750SOL    HW121149   2.632   2.032   4.241
 6750SOL    HW221150   2.658   2.161   4.338
 6751SOL     OW21151   2.829   2.136   3.799
 6751SOL    HW121152   2.907   2.196   3.822
 6751SOL    HW221153   2.772   2.124   3.880
 6752SOL     OW21154   6.074   2.861   1.268
 6752SOL    HW121155   6.048   2.768   1.293
 6752SOL    HW221156   6.116   2.906   1.347
 6753SOL     OW21157   4.114   1.700   6.077
 6753SOL    HW121158   4.046   1.718   6.006
 6753SOL    HW221159   4.070   1.697   6.166
 6754SOL     OW21160   6.200   1.716   6.121
 6754SOL    HW121161   6.277   1.652   6.114
 6754SOL    HW221162   6.233   1.810   6.118
 6755SOL     OW21163   5.685   1.715   3.267
 6755SOL    HW121164   5.619   1.775   3.221
 6755SOL    HW221165   5.775   1.727   3.226
 6756SOL     OW21166   4.548   4.558   4.524
 6756SOL    HW121167   4.640   4.584   4.552
 6756SOL    HW221168   4.482   4.590   4.593
 6757SOL     OW21169   4.905   6.229   1.007
 6757SOL    HW121170   4.846   6.205   0.930
 6757SOL    HW221171   4.849   6.256   1.085
 6758SOL     OW21172   5.299   3.287   1.899
 6758SOL    HW121173   5.267   3.382   1.898
 6758SOL    HW221174   5.220   3.226   1.901
 6759SOL     OW21175   1.610   4.657   3.019
 6759SOL    HW121176   1.520   4.692   2.991
 6759SOL    HW221177   1.672   4.733   3.034
 6760SOL     OW21178   0.539   4.898   4.236
 6760SOL    HW121179   0.573   4.841   4.161
 6760SOL    HW221180   0.535   4.993   4.207
 6761SOL     OW21181   5.131   3.086   5.419
 6761SOL    HW121182   5.196   3.047   5.355
 6761SOL    HW221183   5.179   3.119   5.501
 6762SOL     OW21184   6.645   5.270   3.830
 6762SOL    HW121185   6.651   5.335   3.755
 6762SOL    HW221186   6.659   5.318   3.917
 6763SOL     OW21187   5.998   6.487   5.376
 6763SOL    HW121188   5.989   6.568   5.434
 6763SOL    HW221189   6.000   6.515   5.280
 6764SOL     OW21190   3.006   3.558   6.676
 6764SOL    HW121191   2.925   3.569   6.734
 6764SOL    HW221192   3.045   3.648   6.656
 6765SOL     OW21193   6.482   4.697   3.233
 6765SOL    HW121194   6.560   4.756   3.255
 6765SOL    HW221195   6.516   4.613   3.190
 6766SOL     OW21196   1.652   0.925   5.497
 6766SOL    HW121197   1.670   0.860   5.424
 6766SOL    HW221198   1.558   0.960   5.488
 6767SOL     OW21199   0.078   2.613   0.144
 6767SOL    HW121200   0.138   2.678   0.192
 6767SOL    HW221201   7.007   2.618   0.183
 6768SOL     OW21202   0.673   0.401   3.734
 6768SOL    HW121203   0.758   0.349   3.747
 6768SOL    HW221204   0.695   0.492   3.700
 6769SOL     OW21205   2.480   2.196   5.322
 6769SOL    HW121206   2.411   2.203   5.250
 6769SOL    HW221207   2.568   2.172   5.281
 6770SOL     OW21208   0.250   2.110   3.095
 6770SOL    HW121209   0.159   2.150   3.090
 6770SOL    HW221210   0.242   2.011   3.110
 6771SOL     OW21211   3.576   2.128   3.475
 6771SOL    HW121212   3.646   2.087   3.534
 6771SOL    HW221213   3.612   2.212   3.434
 6772SOL     OW21214   6.207   1.872   2.737
 6772SOL    HW121215   6.280   1.901   2.675
 6772SOL    HW221216   6.122   1.862   2.686
 6773SOL     OW21217   0.002   6.186   1.729
 6773SOL    HW121218   6.925   6.173   1.733
 6773SOL    HW221219   0.026   6.277   1.763
 6774SOL     OW21220   1.902   2.250   5.217
 6774SOL    HW121221   1.832   2.179   5.227
 6774SOL    HW221222   1.861   2.340   5.228
 6775SOL     OW21223   0.539   1.699   4.906
 6775SOL    HW121224   0.443   1.716   4.883
 6775SOL    HW221225   0.544   1.654   4.995
 6776SOL     OW21226   3.688   4.268   1.770
 6776SOL    HW121227   3.744   4.351   1.773
 6776SOL    HW221228   3.592   4.292   1.760
 6777SOL     OW21229   5.018   5.701   1.265
 6777SOL    HW121230   5.038   5.792   1.301
 6777SOL    HW221231   5.102   5.647   1.263
 6778SOL     OW21232   6.566   4.044   2.528
 6778SOL    HW121233   6.491   4.088   2.478
 6778SOL    HW221234   6.652   4.056   2.477
 6779SOL     OW21235   5.826   4.227   5.927
 6779SOL    HW121236   5.741   4.173   5.926
 6779SOL    HW221237   5.903   4.168   5.948
 6780SOL     OW21238   2.738   2.298   2.737
 6780SOL    HW121239   2.667   2.340   2.681
 6780SOL    HW221240   2.813   2.267   2.679
 6781SOL     OW21241   6.542   0.963   4.482
 6781SOL    HW121242   6.630   0.984   4.441
 6781SOL    HW221243   6.482   1.043   4.478
 6782SOL     OW21244   6.550   1.776   3.684
 6782SOL    HW121245   6.555   1.808   3.589
 6782SOL    HW221246   6.489   1.697   3.690
 6783SOL     OW21247   1.380   4.852   4.809
 6783SOL    HW121248   1.282   4.847   4.827
 6783SOL    HW221249   1.419   4.760   4.809
 6784SOL     OW21250   1.568   3.478   1.572
 6784SOL    HW121251   1.663   3.451   1.586
 6784SOL    HW221252   1.562   3.540   1.493
 6785SOL     OW21253   5.351   5.039   4.780
 6785SOL    HW121254   5.279   5.107   4.769
 6785SOL    HW221255   5.398   5.027   4.692
 6786SOL     OW21256   6.718   2.411   0.097
 6786SOL    HW121257   6.754   2.479   0.162
 6786SOL    HW221258   6.642   2.362   0.139
 6787SOL     OW21259   3.611   1.940   6.810
 6787SOL    HW121260   3.553   1.862   6.832
 6787SOL    HW221261   3.620   1.949   6.711
 6788SOL     OW21262   0.357   4.141   3.694
 6788SOL    HW121263   0.258   4.149   3.681
 6788SOL    HW221264   0.402   4.132   3.605
 6789SOL     OW21265   6.276   3.898   4.176
 6789SOL    HW121266   6.334   3.892   4.095
 6789SOL    HW221267   6.298   3.822   4.238
 6790SOL     OW21268   0.790   4.900   5.413
 6790SOL    HW121269   0.811   4.875   5.507
 6790SOL    HW221270   0.859   4.963   5.379
 6791SOL     OW21271   3.770   0.713   4.058
 6791SOL    HW121272   3.837   0.736   3.988
 6791SOL    HW221273   3.814   0.714   4.148
 6792SOL     OW21274   4.295   0.331   5.616
 6792SOL    HW121275   4.211   0.318   5.669
 6792SOL    HW221276   4.296   0.268   5.538
 6793SOL     OW21277   2.298   3.347   0.481
 6793SOL    HW121278   2.246   3.277   0.430
 6793SOL    HW221279   2.250   3.367   0.567
 6794SOL     OW21280   4.623   1.272   6.017
 6794SOL    HW121281   4.720   1.268   6.040
 6794SOL    HW221282   4.569   1.270   6.101
 6795SOL     OW21283   0.677   0.902   1.137
 6795SOL    HW121284   0.585   0.931   1.111
 6795SOL    HW221285   0.732   0.892   1.054
 6796SOL     OW21286   6.136   1.335   2.793
 6796SOL    HW121287   6.215   1.357   2.735
 6796SOL    HW221288   6.069   1.284   2.739
 6797SOL     OW21289   0.740   2.549   1.633
 6797SOL    HW121290   0.746   2.498   1.547
 6797SOL    HW221291   0.832   2.565   1.668
 6798SOL     OW21292   5.302   0.442   1.863
 6798SOL    HW121293   5.390   0.472   1.901
 6798SOL    HW221294   5.265   0.368   1.918
 6799SOL     OW21295   5.472   0.829   3.551
 6799SOL    HW121296   5.495   0.758   3.617
 6799SOL    HW221297   5.543   0.899   3.552
 6800SOL     OW21298   6.920   1.840   1.024
 6800SOL    HW121299   6.882   1.847   1.116
 6800SOL    HW221300   6.890   1.754   0.982
 6801SOL     OW21301   0.630   5.790   5.722
 6801SOL    HW121302   0.551   5.739   5.755
 6801SOL    HW221303   0.690   5.730   5.670
 6802SOL     OW21304   3.275   5.081   1.554
 6802SOL    HW121305   3.201   5.124   1.607
 6802SOL    HW221306   3.236   5.022   1.483
 6803SOL     OW21307   5.068   4.361   5.597
 6803SOL    HW121308   4.990   4.407   5.639
 6803SOL    HW221309   5.067   4.378   5.499
 6804SOL     OW21310   3.189   4.868   3.021
 6804SOL    HW121311   3.160   4.853   3.115
 6804SOL    HW221312   3.110   4.867   2.961
 6805SOL     OW21313   6.855   4.140   5.577
 6805SOL    HW121314   6.826   4.169   5.668
 6805SOL    HW221315   6.950   4.169   5.562
 6806SOL     OW21316   6.637   1.192   2.693
 6806SOL    HW121317   6.570   1.168   2.623
 6806SOL    HW221318   6.651   1.115   2.755
 6807SOL     OW21319   3.775   3.573   1.671
 6807SOL    HW121320   3.733   3.556   1.582
 6807SOL    HW221321   3.739   3.509   1.738
 6808SOL     OW21322   3.758   1.192   4.680
 6808SOL    HW121323   3.826   1.140   4.628
 6808SOL    HW221324   3.745   1.281   4.638
 6809SOL     OW21325   5.442   3.560   2.187
 6809SOL    HW121326   5.347   3.581   2.163
 6809SOL    HW221327   5.455   3.461   2.188
 6810SOL     OW21328   2.644   0.875   4.207
 6810SOL    HW121329   2.567   0.939   4.212
 6810SOL    HW221330   2.655   0.829   4.295
 6811SOL     OW21331   6.600   1.555   1.548
 6811SOL    HW121332   6.516   1.607   1.559
 6811SOL    HW221333   6.620   1.505   1.632
 6812SOL     OW21334   3.052   4.162   5.187
 6812SOL    HW121335   3.071   4.205   5.099
 6812SOL    HW221336   3.138   4.147   5.236
 6813SOL     OW21337   5.900   3.905   2.033
 6813SOL    HW121338   5.847   3.988   2.020
 6813SOL    HW221339   5.920   3.892   2.130
 6814SOL     OW21340   5.236   1.184   6.331
 6814SOL    HW121341   5.306   1.116   6.353
 6814SOL    HW221342   5.146   1.146   6.349
 6815SOL     OW21343   2.203   4.933   6.277
 6815SOL    HW121344   2.148   4.943   6.359
 6815SOL    HW221345   2.300   4.925   6.302
 6816SOL     OW21346   0.636   1.644   3.368
 6816SOL    HW121347   0.731   1.654   3.395
 6816SOL    HW221348   0.582   1.610   3.445
 6817SOL     OW21349   3.493   2.059   2.111
 6817SOL    HW121350   3.551   2.022   2.183
 6817SOL    HW221351   3.548   2.119   2.052
 6818SOL     OW21352   1.855   6.652   5.736
 6818SOL    HW121353   1.775   6.656   5.796
 6818SOL    HW221354   1.825   6.647   5.641
 6819SOL     OW21355   4.406   4.539   2.060
 6819SOL    HW121356   4.458   4.612   2.015
 6819SOL    HW221357   4.447   4.451   2.038
 6820SOL     OW21358   3.071   5.988   1.348
 6820SOL    HW121359   3.006   6.050   1.393
 6820SOL    HW221360   3.141   6.042   1.300
 6821SOL     OW21361   4.217   2.590   5.674
 6821SOL    HW121362   4.140   2.640   5.714
 6821SOL    HW221363   4.274   2.652   5.621
 6822SOL     OW21364   6.815   2.839   6.371
 6822SOL    HW121365   6.738   2.847   6.433
 6822SOL    HW221366   6.887   2.903   6.399
 6823SOL     OW21367   6.006   3.576   6.686
 6823SOL    HW121368   6.092   3.557   6.732
 6823SOL    HW221369   5.960   3.490   6.664
 6824SOL     OW21370   0.454   2.698   6.166
 6824SOL    HW121371   0.524   2.627   6.151
 6824SOL    HW221372   0.456   2.727   6.262
 6825SOL     OW21373   6.183   5.826   1.902
 6825SOL    HW121374   6.091   5.790   1.888
 6825SOL    HW221375   6.196   5.846   1.999
 6826SOL     OW21376   0.344   3.644   3.381
 6826SOL    HW121377   0.291   3.724   3.356
 6826SOL    HW221378   0.294   3.589   3.448
 6827SOL     OW21379   4.918   5.784   5.027
 6827SOL    HW121380   4.931   5.857   5.095
 6827SOL    HW221381   4.920   5.695   5.073
 6828SOL     OW21382   3.202   1.515   2.325
 6828SOL    HW121383   3.211   1.435   2.265
 6828SOL    HW221384   3.211   1.599   2.272
 6829SOL     OW21385   4.887   6.975   4.647
 6829SOL    HW121386   4.960   6.910   4.669
 6829SOL    HW221387   4.800   6.939   4.681
 6830SOL     OW21388   5.173   6.909   3.246
 6830SOL    HW121389   5.107   6.944   3.180
 6830SOL    HW221390   5.235   6.983   3.274
 6831SOL     OW21391   1.162   1.523   6.407
 6831SOL    HW121392   1.191   1.544   6.314
 6831SOL    HW221393   1.242   1.515   6.466
 6832SOL     OW21394   2.960   2.360   0.434
 6832SOL    HW121395   2.946   2.405   0.346
 6832SOL    HW221396   2.977   2.430   0.504
 6833SOL     OW21397   2.814   5.120   5.877
 6833SOL    HW121398   2.813   5.031   5.833
 6833SOL    HW221399   2.893   5.126   5.938
 6834SOL     OW21400   5.538   0.600   0.826
 6834SOL    HW121401   5.483   0.516   0.825
 6834SOL    HW221402   5.477   0.679   0.832
 6835SOL     OW21403   2.809   1.843   4.360
 6835SOL    HW121404   2.906   1.864   4.368
 6835SOL    HW221405   2.758   1.927   4.343
 6836SOL     OW21406   1.981   4.789   6.211
 6836SOL    HW121407   2.068   4.832   6.232
 6836SOL    HW221408   1.942   4.830   6.128
 6837SOL     OW21409   0.497   0.416   1.774
 6837SOL    HW121410   0.433   0.401   1.850
 6837SOL    HW221411   0.459   0.377   1.690
 6838SOL     OW21412   2.873   4.294   5.349
 6838SOL    HW121413   2.938   4.231   5.305
 6838SOL    HW221414   2.878   4.383   5.304
 6839SOL     OW21415   5.757   2.555   4.000
 6839SOL    HW121416   5.690   2.619   4.038
 6839SOL    HW221417   5.712   2.467   3.982
 6840SOL     OW21418   2.804   6.840   5.122
 6840SOL    HW121419   2.762   6.755   5.153
 6840SOL    HW221420   2.836   6.829   5.028
 6841SOL     OW21421   4.023   5.490   1.368
 6841SOL    HW121422   3.950   5.516   1.305
 6841SOL    HW221423   4.011   5.395   1.397
 6842SOL     OW21424   0.325   4.179   6.744
 6842SOL    HW121425   0.334   4.095   6.690
 6842SOL    HW221426   0.337   4.259   6.685
 6843SOL     OW21427   3.298   1.715   2.093
 6843SOL    HW121428   3.338   1.758   2.174
 6843SOL    HW221429   3.298   1.780   2.017
 6844SOL     OW21430   4.908   4.995   4.213
 6844SOL    HW121431   4.888   5.087   4.180
 6844SOL    HW221432   4.951   5.000   4.303
 6845SOL     OW21433   4.795   4.692   1.991
 6845SOL    HW121434   4.700   4.721   1.989
 6845SOL    HW221435   4.847   4.754   2.050
 6846SOL     OW21436   3.601   2.921   2.486
 6846SOL    HW121437   3.578   3.012   2.451
 6846SOL    HW221438   3.621   2.860   2.409
 6847SOL     OW21439   5.596   3.271   1.825
 6847SOL    HW121440   5.596   3.361   1.869
 6847SOL    HW221441   5.502   3.236   1.822
 6848SOL     OW21442   1.030   5.948   3.680
 6848SOL    HW121443   0.935   5.919   3.665
 6848SOL    HW221444   1.088   5.868   3.694
 6849SOL     OW21445   3.973   6.018   3.978
 6849SOL    HW121446   4.070   6.009   3.999
 6849SOL    HW221447   3.939   6.105   4.014
 6850SOL     OW21448   5.202   2.935   2.877
 6850SOL    HW121449   5.174   2.886   2.959
 6850SOL    HW221450   5.219   2.870   2.803
 6851SOL     OW21451   1.571   5.133   5.622
 6851SOL    HW121452   1.508   5.156   5.697
 6851SOL    HW221453   1.586   5.034   5.621
 6852SOL     OW21454   1.556   4.603   1.834
 6852SOL    HW121455   1.511   4.682   1.793
 6852SOL    HW221456   1.655   4.613   1.827
 6853SOL     OW21457   0.603   4.529   5.510
 6853SOL    HW121458   0.626   4.470   5.432
 6853SOL    HW221459   0.541   4.601   5.481
 6854SOL     OW21460   6.933   3.085   6.280
 6854SOL    HW121461   6.946   3.014   6.210
 6854SOL    HW221462   6.836   3.109   6.286
 6855SOL     OW21463   2.916   6.699   2.457
 6855SOL    HW121464   2.863   6.765   2.404
 6855SOL    HW221465   2.907   6.608   2.415
 6856SOL     OW21466   6.154   3.648   4.967
 6856SOL    HW121467   6.117   3.671   5.057
 6856SOL    HW221468   6.140   3.725   4.904
 6857SOL     OW21469   2.981   2.196   6.254
 6857SOL    HW121470   2.962   2.111   6.204
 6857SOL    HW221471   2.907   2.214   6.319
 6858SOL     OW21472   3.937   3.144   4.926
 6858SOL    HW121473   3.987   3.114   4.845
 6858SOL    HW221474   3.948   3.078   5.000
 6859SOL     OW21475   3.096   6.891   0.689
 6859SOL    HW121476   3.184   6.853   0.660
 6859SOL    HW221477   3.052   6.827   0.753
 6860SOL     OW21478   5.778   4.295   0.666
 6860SOL    HW121479   5.764   4.370   0.730
 6860SOL    HW221480   5.835   4.224   0.710
 6861SOL     OW21481   5.599   5.710   0.019
 6861SOL    HW121482   5.571   5.735   0.112
 6861SOL    HW221483   5.662   5.779   7.006
 6862SOL     OW21484   3.471   5.453   4.876
 6862SOL    HW121485   3.505   5.358   4.871
 6862SOL    HW221486   3.373   5.454   4.858
 6863SOL     OW21487   5.829   1.771   4.176
 6863SOL    HW121488   5.760   1.721   4.124
 6863SOL    HW221489   5.913   1.778   4.121
 6864SOL     OW21490   2.960   6.163   3.922
 6864SOL    HW121491   2.999   6.113   4.000
 6864SOL    HW221492   3.030   6.175   3.851
 6865SOL     OW21493   6.892   4.333   4.405
 6865SOL    HW121494   6.935   4.346   4.316
 6865SOL    HW221495   6.799   4.299   4.392
 6866SOL     OW21496   6.665   3.603   1.760
 6866SOL    HW121497   6.672   3.699   1.731
 6866SOL    HW221498   6.572   3.585   1.792
 6867SOL     OW21499   2.223   4.035   2.205
 6867SOL    HW121500   2.292   3.994   2.145
 6867SOL    HW221501   2.245   4.132   2.218
 6868SOL     OW21502   2.117   6.123   4.852
 6868SOL    HW121503   2.129   6.222   4.863
 6868SOL    HW221504   2.029   6.105   4.808
 6869SOL     OW21505   5.380   1.830   5.725
 6869SOL    HW121506   5.334   1.894   5.663
 6869SOL    HW221507   5.457   1.787   5.677
 6870SOL     OW21508   5.371   3.898   3.140
 6870SOL    HW121509   5.462   3.860   3.124
 6870SOL    HW221510   5.306   3.824   3.155
 6871SOL     OW21511   5.301   5.633   1.313
 6871SOL    HW121512   5.313   5.543   1.354
 6871SOL    HW221513   5.284   5.700   1.386
 6872SOL     OW21514   2.122   3.178   0.361
 6872SOL    HW121515   2.190   3.163   0.290
 6872SOL    HW221516   2.058   3.249   0.333
 6873SOL     OW21517   6.219   3.169   6.133
 6873SOL    HW121518   6.226   3.096   6.201
 6873SOL    HW221519   6.191   3.130   6.045
 6874SOL     OW21520   0.205   2.755   3.993
 6874SOL    HW121521   0.292   2.740   4.040
 6874SOL    HW221522   0.213   2.833   3.931
 6875SOL     OW21523   1.754   1.256   2.528
 6875SOL    HW121524   1.811   1.265   2.610
 6875SOL    HW221525   1.669   1.210   2.552
 6876SOL     OW21526   3.684   5.696   0.178
 6876SOL    HW121527   3.738   5.750   0.114
 6876SOL    HW221528   3.716   5.713   0.271
 6877SOL     OW21529   2.222   3.597   0.217
 6877SOL    HW121530   2.236   3.691   0.187
 6877SOL    HW221531   2.216   3.594   0.317
 6878SOL     OW21532   2.019   1.671   4.870
 6878SOL    HW121533   2.047   1.734   4.943
 6878SOL    HW221534   1.930   1.631   4.894
 6879SOL     OW21535   0.705   2.241   6.981
 6879SOL    HW121536   0.733   2.146   6.968
 6879SOL    HW221537   0.778   2.302   6.950
 6880SOL     OW21538   2.016   4.256   4.709
 6880SOL    HW121539   1.972   4.259   4.619
 6880SOL    HW221540   1.946   4.260   4.781
 6881SOL     OW21541   0.727   4.523   1.467
 6881SOL    HW121542   0.695   4.435   1.503
 6881SOL    HW221543   0.737   4.517   1.368
 6882SOL     OW21544   2.091   0.809   5.690
 6882SOL    HW121545   2.073   0.825   5.593
 6882SOL    HW221546   2.114   0.713   5.704
 6883SOL     OW21547   4.471   0.500   1.564
 6883SOL    HW121548   4.443   0.586   1.606
 6883SOL    HW221549   4.417   0.425   1.601
 6884SOL     OW21550   2.550   4.545   4.548
 6884SOL    HW121551   2.603   4.543   4.632
 6884SOL    HW221552   2.504   4.634   4.539
 6885SOL     OW21553   3.213   6.054   4.038
 6885SOL    HW121554   3.188   5.974   4.092
 6885SOL    HW221555   3.258   6.025   3.954
 6886SOL     OW21556   5.202   1.176   2.523
 6886SOL    HW121557   5.173   1.266   2.490
 6886SOL    HW221558   5.159   1.105   2.468
 6887SOL     OW21559   5.771   0.540   4.677
 6887SOL    HW121560   5.843   0.514   4.613
 6887SOL    HW221561   5.798   0.624   4.725
 6888SOL     OW21562   6.379   0.144   4.900
 6888SOL    HW121563   6.435   0.194   4.966
 6888SOL    HW221564   6.390   0.046   4.916
 6889SOL     OW21565   1.602   4.134   6.052
 6889SOL    HW121566   1.665   4.170   6.121
 6889SOL    HW221567   1.649   4.126   5.964
 6890SOL     OW21568   2.280   6.593   1.149
 6890SOL    HW121569   2.252   6.506   1.109
 6890SOL    HW221570   2.300   6.580   1.246
 6891SOL     OW21571   2.146   3.551   3.973
 6891SOL    HW121572   2.181   3.640   4.002
 6891SOL    HW221573   2.116   3.557   3.878
 6892SOL     OW21574   3.381   0.170   4.052
 6892SOL    HW121575   3.401   0.072   4.049
 6892SOL    HW221576   3.346   0.194   4.142
 6893SOL     OW21577   4.961   5.720   3.188
 6893SOL    HW121578   4.871   5.677   3.194
 6893SOL    HW221579   4.967   5.794   3.256
 6894SOL     OW21580   5.768   5.686   0.371
 6894SOL    HW121581   5.673   5.693   0.340
 6894SOL    HW221582   5.779   5.739   0.455
 6895SOL     OW21583   2.948   3.790   0.213
 6895SOL    HW121584   2.903   3.703   0.195
 6895SOL    HW221585   3.046   3.782   0.199
 6896SOL     OW21586   3.694   0.577   3.215
 6896SOL    HW121587   3.790   0.588   3.192
 6896SOL    HW221588   3.641   0.560   3.131
 6897SOL     OW21589   3.215   3.509   0.174
 6897SOL    HW121590   3.250   3.511   0.267
 6897SOL    HW221591   3.256   3.432   0.124
 6898SOL     OW21592   3.816   1.559   1.522
 6898SOL    HW121593   3.902   1.564   1.472
 6898SOL    HW221594   3.753   1.629   1.489
 6899SOL     OW21595   4.750   6.792   6.057
 6899SOL    HW121596   4.770   6.869   5.996
 6899SOL    HW221597   4.657   6.802   6.093
 6900SOL     OW21598   5.569   0.507   6.210
 6900SOL    HW121599   5.517   0.438   6.261
 6900SOL    HW221600   5.665   0.481   6.207
 6901SOL     OW21601   1.959   0.324   6.127
 6901SOL    HW121602   2.011   0.401   6.090
 6901SOL    HW221603   1.870   0.320   6.083
 6902SOL     OW21604   0.679   6.357   6.748
 6902SOL    HW121605   0.644   6.419   6.678
 6902SOL    HW221606   0.767   6.391   6.782
 6903SOL     OW21607   3.838   4.484   0.637
 6903SOL    HW121608   3.740   4.469   0.627
 6903SOL    HW221609   3.878   4.409   0.691
 6904SOL     OW21610   6.013   0.716   3.967
 6904SOL    HW121611   6.052   0.805   3.945
 6904SOL    HW221612   5.920   0.711   3.932
 6905SOL     OW21613   5.777   6.355   0.614
 6905SOL    HW121614   5.766   6.410   0.531
 6905SOL    HW221615   5.816   6.412   0.686
 6906SOL     OW21616   3.611   0.750   3.423
 6906SOL    HW121617   3.616   0.703   3.511
 6906SOL    HW221618   3.604   0.683   3.349
 6907SOL     OW21619   3.606   0.873   1.598
 6907SOL    HW121620   3.517   0.830   1.584
 6907SOL    HW221621   3.628   0.870   1.696
 6908SOL     OW21622   1.068   6.640   5.614
 6908SOL    HW121623   1.004   6.649   5.537
 6908SOL    HW221624   1.067   6.546   5.648
 6909SOL     OW21625   5.044   4.641   0.715
 6909SOL    HW121626   4.985   4.586   0.656
 6909SOL    HW221627   5.134   4.597   0.723
 6910SOL     OW21628   6.344   1.702   1.819
 6910SOL    HW121629   6.339   1.802   1.822
 6910SOL    HW221630   6.419   1.671   1.878
 6911SOL     OW21631   4.212   0.166   4.367
 6911SOL    HW121632   4.174   0.258   4.381
 6911SOL    HW221633   4.226   0.122   4.455
 6912SOL     OW21634   4.793   4.907   0.775
 6912SOL    HW121635   4.890   4.930   0.772
 6912SOL    HW221636   4.746   4.947   0.697
 6913SOL     OW21637   5.117   4.812   4.811
 6913SOL    HW121638   5.171   4.822   4.727
 6913SOL    HW221639   5.093   4.903   4.846
 6914SOL     OW21640   5.965   5.175   0.252
 6914SOL    HW121641   6.056   5.214   0.238
 6914SOL    HW221642   5.903   5.206   0.180
 6915SOL     OW21643   0.295   4.660   2.920
 6915SOL    HW121644   0.352   4.690   2.997
 6915SOL    HW221645   0.248   4.575   2.945
 6916SOL     OW21646   6.384   4.049   6.888
 6916SOL    HW121647   6.310   3.988   6.919
 6916SOL    HW221648   6.457   3.994   6.848
 6917SOL     OW21649   4.430   6.369   6.124
 6917SOL    HW121650   4.517   6.377   6.075
 6917SOL    HW221651   4.429   6.283   6.175
 6918SOL     OW21652   0.237   3.807   3.969
 6918SOL    HW121653   0.286   3.758   3.897
 6918SOL    HW221654   0.160   3.857   3.930
 6919SOL     OW21655   2.378   6.348   2.587
 6919SOL    HW121656   2.338   6.427   2.633
 6919SOL    HW221657   2.455   6.314   2.640
 6920SOL     OW21658   5.330   5.406   4.844
 6920SOL    HW121659   5.352   5.333   4.908
 6920SOL    HW221660   5.357   5.379   4.751
 6921SOL     OW21661   6.312   6.718   3.647
 6921SOL    HW121662   6.369   6.638   3.627
 6921SOL    HW221663   6.360   6.777   3.712
 6922SOL     OW21664   2.702   6.214   0.722
 6922SOL    HW121665   2.753   6.299   0.733
 6922SOL    HW221666   2.763   6.142   0.688
 6923SOL     OW21667   4.454   0.248   4.044
 6923SOL    HW121668   4.553   0.236   4.045
 6923SOL    HW221669   4.429   0.313   3.973
 6924SOL     OW21670   0.555   5.083   0.872
 6924SOL    HW121671   0.500   5.034   0.804
 6924SOL    HW221672   0.519   5.176   0.883
 6925SOL     OW21673   4.220   6.628   3.319
 6925SOL    HW121674   4.265   6.692   3.256
 6925SOL    HW221675   4.210   6.539   3.275
 6926SOL     OW21676   3.552   3.997   3.943
 6926SOL    HW121677   3.599   3.916   3.906
 6926SOL    HW221678   3.577   4.077   3.890
 6927SOL     OW21679   5.190   3.584   6.581
 6927SOL    HW121680   5.140   3.668   6.558
 6927SOL    HW221681   5.190   3.572   6.681
 6928SOL     OW21682   4.716   0.596   6.668
 6928SOL    HW121683   4.701   0.695   6.663
 6928SOL    HW221684   4.803   0.578   6.715
 6929SOL     OW21685   3.832   6.065   0.074
 6929SOL    HW121686   3.841   6.150   0.022
 6929SOL    HW221687   3.758   6.074   0.141
 6930SOL     OW21688   0.784   6.736   1.887
 6930SOL    HW121689   0.819   6.643   1.897
 6930SOL    HW221690   0.799   6.787   1.972
 6931SOL     OW21691   1.119   6.975   1.688
 6931SOL    HW121692   1.039   6.997   1.745
 6931SOL    HW221693   1.089   6.927   1.606
 6932SOL     OW21694   2.715   1.040   0.096
 6932SOL    HW121695   2.691   1.013   0.003
 6932SOL    HW221696   2.764   1.127   0.094
 6933SOL     OW21697   4.053   5.876   5.888
 6933SOL    HW121698   3.957   5.850   5.891
 6933SOL    HW221699   4.088   5.863   5.795
 6934SOL     OW21700   5.002   2.888   0.406
 6934SOL    HW121701   5.076   2.948   0.436
 6934SOL    HW221702   4.938   2.874   0.482
 6935SOL     OW21703   4.413   6.405   3.774
 6935SOL    HW121704   4.504   6.442   3.790
 6935SOL    HW221705   4.399   6.392   3.676
 6936SOL     OW21706   0.655   2.955   1.490
 6936SOL    HW121707   0.646   3.053   1.507
 6936SOL    HW221708   0.588   2.905   1.545
 6937SOL     OW21709   4.058   6.644   5.769
 6937SOL    HW121710   4.091   6.640   5.863
 6937SOL    HW221711   3.986   6.576   5.756
 6938SOL     OW21712   4.820   3.155   5.176
 6938SOL    HW121713   4.824   3.055   5.180
 6938SOL    HW221714   4.849   3.193   5.264
 6939SOL     OW21715   7.020   4.237   2.049
 6939SOL    HW121716   0.039   4.145   2.046
 6939SOL    HW221717   0.015   4.278   2.139
 6940SOL     OW21718   4.675   0.422   6.144
 6940SOL    HW121719   4.734   0.408   6.064
 6940SOL    HW221720   4.652   0.519   6.151
 6941SOL     OW21721   3.647   2.877   3.014
 6941SOL    HW121722   3.695   2.789   3.017
 6941SOL    HW221723   3.614   2.894   2.922
 6942SOL     OW21724   6.665   3.309   0.618
 6942SOL    HW121725   6.757   3.326   0.583
 6942SOL    HW221726   6.664   3.223   0.670
 6943SOL     OW21727   5.303   6.451   6.425
 6943SOL    HW121728   5.374   6.385   6.449
 6943SOL    HW221729   5.248   6.415   6.349
 6944SOL     OW21730   0.970   5.248   6.224
 6944SOL    HW121731   0.950   5.297   6.139
 6944SOL    HW221732   0.926   5.295   6.301
 6945SOL     OW21733   6.310   2.784   6.257
 6945SOL    HW121734   6.350   2.873   6.240
 6945SOL    HW221735   6.275   2.781   6.351
 6946SOL     OW21736   5.771   4.226   2.734
 6946SOL    HW121737   5.707   4.303   2.729
 6946SOL    HW221738   5.719   4.140   2.733
 6947SOL     OW21739   3.542   6.856   2.623
 6947SOL    HW121740   3.536   6.956   2.620
 6947SOL    HW221741   3.637   6.828   2.615
 6948SOL     OW21742   4.801   0.455   0.413
 6948SOL    HW121743   4.832   0.425   0.322
 6948SOL    HW221744   4.713   0.412   0.434
 6949SOL     OW21745   5.372   6.737   3.169
 6949SOL    HW121746   5.376   6.741   3.069
 6949SOL    HW221747   5.305   6.803   3.202
 6950SOL     OW21748   2.151   0.824   2.969
 6950SOL    HW121749   2.217   0.867   2.908
 6950SOL    HW221750   2.090   0.765   2.916
 6951SOL     OW21751   6.357   6.126   5.624
 6951SOL    HW121752   6.264   6.148   5.654
 6951SOL    HW221753   6.397   6.059   5.687
 6952SOL     OW21754   0.627   5.611   4.125
 6952SOL    HW121755   0.657   5.552   4.200
 6952SOL    HW221756   0.701   5.672   4.098
 6953SOL     OW21757   4.882   1.066   6.131
 6953SOL    HW121758   4.955   1.001   6.110
 6953SOL    HW221759   4.893   1.148   6.075
 6954SOL     OW21760   6.812   2.917   4.288
 6954SOL    HW121761   6.845   3.011   4.301
 6954SOL    HW221762   6.869   2.871   4.220
 6955SOL     OW21763   0.415   6.005   1.187
 6955SOL    HW121764   0.497   5.949   1.178
 6955SOL    HW221765   0.336   5.946   1.206
 6956SOL     OW21766   4.428   5.379   2.008
 6956SOL    HW121767   4.400   5.449   2.073
 6956SOL    HW221768   4.527   5.365   2.015
 6957SOL     OW21769   6.863   4.646   1.688
 6957SOL    HW121770   6.823   4.651   1.780
 6957SOL    HW221771   6.920   4.564   1.681
 6958SOL     OW21772   2.274   2.676   6.243
 6958SOL    HW121773   2.351   2.623   6.278
 6958SOL    HW221774   2.300   2.773   6.237
 6959SOL     OW21775   3.555   1.431   5.096
 6959SOL    HW121776   3.640   1.426   5.148
 6959SOL    HW221777   3.554   1.359   5.026
 6960SOL     OW21778   0.139   5.064   0.329
 6960SOL    HW121779   0.066   4.998   0.347
 6960SOL    HW221780   0.139   5.087   0.231
 6961SOL     OW21781   1.087   1.961   3.410
 6961SOL    HW121782   1.023   1.903   3.359
 6961SOL    HW221783   1.152   2.002   3.346
 6962SOL     OW21784   4.964   5.311   2.240
 6962SOL    HW121785   5.044   5.267   2.281
 6962SOL    HW221786   4.926   5.377   2.305
 6963SOL     OW21787   0.715   5.140   1.846
 6963SOL    HW121788   0.683   5.045   1.847
 6963SOL    HW221789   0.682   5.185   1.764
 6964SOL     OW21790   4.643   5.413   5.496
 6964SOL    HW121791   4.730   5.443   5.457
 6964SOL    HW221792   4.602   5.343   5.437
 6965SOL     OW21793   6.447   3.520   6.297
 6965SOL    HW121794   6.446   3.452   6.370
 6965SOL    HW221795   6.420   3.478   6.210
 6966SOL     OW21796   4.932   2.650   2.919
 6966SOL    HW121797   4.926   2.595   2.835
 6966SOL    HW221798   4.852   2.710   2.925
 6967SOL     OW21799   1.091   2.396   6.167
 6967SOL    HW121800   1.123   2.351   6.084
 6967SOL    HW221801   1.091   2.495   6.154
 6968SOL     OW21802   4.322   5.636   1.289
 6968SOL    HW121803   4.325   5.697   1.368
 6968SOL    HW221804   4.402   5.575   1.290
 6969SOL     OW21805   3.580   1.274   1.269
 6969SOL    HW121806   3.543   1.365   1.285
 6969SOL    HW221807   3.570   1.219   1.353
 6970SOL     OW21808   3.706   4.765   0.636
 6970SOL    HW121809   3.762   4.685   0.658
 6970SOL    HW221810   3.666   4.753   0.545
 6971SOL     OW21811   6.388   2.623   1.741
 6971SOL    HW121812   6.339   2.696   1.694
 6971SOL    HW221813   6.383   2.638   1.840
 6972SOL     OW21814   5.450   4.644   3.933
 6972SOL    HW121815   5.439   4.740   3.905
 6972SOL    HW221816   5.364   4.610   3.969
 6973SOL     OW21817   1.918   5.161   4.386
 6973SOL    HW121818   1.985   5.118   4.326
 6973SOL    HW221819   1.915   5.112   4.473
 6974SOL     OW21820   3.624   4.126   3.703
 6974SOL    HW121821   3.719   4.096   3.699
 6974SOL    HW221822   3.586   4.132   3.611
 6975SOL     OW21823   3.375   0.530   5.984
 6975SOL    HW121824   3.357   0.500   5.890
 6975SOL    HW221825   3.353   0.457   6.048
 6976SOL     OW21826   2.784   4.545   6.614
 6976SOL    HW121827   2.724   4.502   6.547
 6976SOL    HW221828   2.729   4.596   6.680
 6977SOL     OW21829   3.908   1.502   2.241
 6977SOL    HW121830   3.921   1.551   2.327
 6977SOL    HW221831   3.877   1.409   2.259
 6978SOL     OW21832   6.965   0.718   1.830
 6978SOL    HW121833   6.994   0.623   1.846
 6978SOL    HW221834   6.874   0.732   1.870
 6979SOL     OW21835   1.069   4.718   2.509
 6979SOL    HW121836   1.097   4.704   2.604
 6979SOL    HW221837   1.056   4.816   2.493
 6980SOL     OW21838   2.344   1.170   3.381
 6980SOL    HW121839   2.411   1.098   3.399
 6980SOL    HW221840   2.389   1.247   3.336
 6981SOL     OW21841   2.563   3.949   0.043
 6981SOL    HW121842   2.649   3.953   7.014
 6981SOL    HW221843   2.579   3.967   0.140
 6982SOL     OW21844   1.154   0.863   4.184
 6982SOL    HW121845   1.172   0.951   4.139
 6982SOL    HW221846   1.187   0.789   4.126
 6983SOL     OW21847   6.918   0.395   4.510
 6983SOL    HW121848   7.006   0.369   4.549
 6983SOL    HW221849   6.897   0.334   4.434
 6984SOL     OW21850   1.755   1.725   5.264
 6984SOL    HW121851   1.685   1.657   5.245
 6984SOL    HW221852   1.833   1.681   5.309
 6985SOL     OW21853   3.943   5.913   2.093
 6985SOL    HW121854   3.994   5.989   2.135
 6985SOL    HW221855   3.853   5.905   2.136
 6986SOL     OW21856   1.758   6.320   5.633
 6986SOL    HW121857   1.734   6.353   5.724
 6986SOL    HW221858   1.804   6.393   5.583
 6987SOL     OW21859   7.005   2.895   6.105
 6987SOL    HW121860   6.931   2.830   6.088
 6987SOL    HW221861   0.071   2.847   6.097
 6988SOL     OW21862   5.214   1.308   4.395
 6988SOL    HW121863   5.307   1.333   4.365
 6988SOL    HW221864   5.157   1.390   4.396
 6989SOL     OW21865   1.046   1.300   3.389
 6989SOL    HW121866   1.092   1.230   3.334
 6989SOL    HW221867   1.029   1.265   3.481
 6990SOL     OW21868   4.826   2.650   0.261
 6990SOL    HW121869   4.862   2.719   0.324
 6990SOL    HW221870   4.900   2.588   0.234
 6991SOL     OW21871   2.328   4.446   5.429
 6991SOL    HW121872   2.399   4.464   5.362
 6991SOL    HW221873   2.329   4.349   5.454
 6992SOL     OW21874   6.012   6.489   4.722
 6992SOL    HW121875   6.057   6.491   4.632
 6992SOL    HW221876   6.068   6.437   4.786
 6993SOL     OW21877   6.613   0.011   3.303
 6993SOL    HW121878   6.623   0.057   3.391
 6993SOL    HW221879   6.675   6.954   3.298
 6994SOL     OW21880   1.423   3.355   5.593
 6994SOL    HW121881   1.442   3.258   5.583
 6994SOL    HW221882   1.443   3.384   5.687
 6995SOL     OW21883   5.675   5.528   4.932
 6995SOL    HW121884   5.753   5.549   4.873
 6995SOL    HW221885   5.591   5.566   4.893
 6996SOL     OW21886   2.740   1.054   5.367
 6996SOL    HW121887   2.736   1.062   5.267
 6996SOL    HW221888   2.661   1.102   5.407
 6997SOL     OW21889   4.946   6.121   4.899
 6997SOL    HW121890   4.964   6.193   4.966
 6997SOL    HW221891   4.939   6.161   4.807
 6998SOL     OW21892   1.518   2.668   1.658
 6998SOL    HW121893   1.578   2.736   1.701
 6998SOL    HW221894   1.510   2.688   1.560
 6999SOL     OW21895   1.852   2.154   6.054
 6999SOL    HW121896   1.923   2.224   6.062
 6999SOL    HW221897   1.856   2.113   5.963
 7000SOL     OW21898   0.740   5.699   2.630
 7000SOL    HW121899   0.642   5.693   2.610
 7000SOL    HW221900   0.778   5.607   2.639
 7001SOL     OW21901   2.462   2.542   5.637
 7001SOL    HW121902   2.416   2.504   5.718
 7001SOL    HW221903   2.451   2.642   5.636
 7002SOL     OW21904   2.401   4.911   3.960
 7002SOL    HW121905   2.391   5.010   3.963
 7002SOL    HW221906   2.465   4.882   4.031
 7003SOL     OW21907   2.895   0.033   0.278
 7003SOL    HW121908   2.869   0.091   0.355
 7003SOL    HW221909   2.818   6.996   0.252
 7004SOL     OW21910   2.045   4.316   1.804
 7004SOL    HW121911   2.142   4.296   1.818
 7004SOL    HW221912   2.025   4.409   1.833
 7005SOL     OW21913   6.197   6.051   6.184
 7005SOL    HW121914   6.240   5.999   6.110
 7005SOL    HW221915   6.180   5.990   6.261
 7006SOL     OW21916   4.746   4.067   4.732
 7006SOL    HW121917   4.706   4.003   4.666
 7006SOL    HW221918   4.745   4.159   4.693
 7007SOL     OW21919   5.019   6.506   2.992
 7007SOL    HW121920   5.087   6.534   2.924
 7007SOL    HW221921   4.978   6.587   3.033
 7008SOL     OW21922   2.247   5.307   4.620
 7008SOL    HW121923   2.243   5.229   4.683
 7008SOL    HW221924   2.196   5.384   4.658
 7009SOL     OW21925   6.224   5.714   2.411
 7009SOL    HW121926   6.214   5.767   2.326
 7009SOL    HW221927   6.319   5.719   2.442
 7010SOL     OW21928   3.413   4.617   6.102
 7010SOL    HW121929   3.319   4.642   6.078
 7010SOL    HW221930   3.418   4.598   6.200
 7011SOL     OW21931   2.238   6.882   5.363
 7011SOL    HW121932   2.280   6.858   5.276
 7011SOL    HW221933   2.160   6.822   5.381
 7012SOL     OW21934   0.861   6.840   2.125
 7012SOL    HW121935   0.956   6.812   2.113
 7012SOL    HW221936   0.824   6.797   2.208
 7013SOL     OW21937   1.024   6.886   1.439
 7013SOL    HW121938   1.053   6.960   1.378
 7013SOL    HW221939   1.016   6.801   1.387
 7014SOL     OW21940   3.492   4.516   0.968
 7014SOL    HW121941   3.574   4.573   0.967
 7014SOL    HW221942   3.441   4.533   1.053
 7015SOL     OW21943   5.230   3.205   2.558
 7015SOL    HW121944   5.205   3.159   2.473
 7015SOL    HW221945   5.316   3.253   2.547
 7016SOL     OW21946   4.569   5.121   2.092
 7016SOL    HW121947   4.515   5.187   2.146
 7016SOL    HW221948   4.539   5.124   1.997
 7017SOL     OW21949   2.889   1.537   3.324
 7017SOL    HW121950   2.893   1.611   3.257
 7017SOL    HW221951   2.847   1.570   3.408
 7018SOL     OW21952   0.172   4.241   4.798
 7018SOL    HW121953   0.212   4.315   4.851
 7018SOL    HW221954   0.130   4.277   4.715
 7019SOL     OW21955   2.194   4.582   6.817
 7019SOL    HW121956   2.109   4.557   6.771
 7019SOL    HW221957   2.174   4.636   6.899
 7020SOL     OW21958   5.966   0.071   0.056
 7020SOL    HW121959   5.905   0.148   0.074
 7020SOL    HW221960   6.050   0.105   0.013
 7021SOL     OW21961   2.791   1.367   4.462
 7021SOL    HW121962   2.787   1.420   4.546
 7021SOL    HW221963   2.706   1.380   4.410
 7022SOL     OW21964   5.426   3.415   0.933
 7022SOL    HW121965   5.349   3.476   0.917
 7022SOL    HW221966   5.505   3.468   0.965
 7023SOL     OW21967   5.958   2.583   2.776
 7023SOL    HW121968   6.001   2.575   2.686
 7023SOL    HW221969   5.886   2.515   2.785
 7024SOL     OW21970   1.719   6.054   6.497
 7024SOL    HW121971   1.694   5.986   6.429
 7024SOL    HW221972   1.817   6.072   6.492
 7025SOL     OW21973   2.876   2.125   6.626
 7025SOL    HW121974   2.926   2.039   6.633
 7025SOL    HW221975   2.806   2.118   6.556
 7026SOL     OW21976   3.211   1.293   2.157
 7026SOL    HW121977   3.241   1.290   2.062
 7026SOL    HW221978   3.271   1.234   2.212
 7027SOL     OW21979   4.064   5.332   3.623
 7027SOL    HW121980   4.063   5.317   3.525
 7027SOL    HW221981   4.040   5.427   3.643
 7028SOL     OW21982   4.870   6.882   3.736
 7028SOL    HW121983   4.918   6.923   3.659
 7028SOL    HW221984   4.777   6.920   3.742
 7029SOL     OW21985   3.523   6.588   6.856
 7029SOL    HW121986   3.602   6.618   6.802
 7029SOL    HW221987   3.445   6.573   6.795
 7030SOL     OW21988   0.318   3.881   5.429
 7030SOL    HW121989   0.293   3.929   5.514
 7030SOL    HW221990   0.235   3.847   5.384
 7031SOL     OW21991   2.255   5.847   4.070
 7031SOL    HW121992   2.262   5.748   4.082
 7031SOL    HW221993   2.346   5.887   4.073
 7032SOL     OW21994   4.631   6.895   2.897
 7032SOL    HW121995   4.589   6.813   2.936
 7032SOL    HW221996   4.562   6.947   2.847
 7033SOL     OW21997   6.800   1.095   4.063
 7033SOL    HW121998   6.717   1.057   4.023
 7033SOL    HW221999   6.857   1.132   3.990
 7034SOL     OW22000   4.767   0.096   2.821
 7034SOL    HW122001   4.744   0.094   2.724
 7034SOL    HW222002   4.740   0.010   2.864
 7035SOL     OW22003   0.887   6.330   2.716
 7035SOL    HW122004   0.979   6.312   2.680
 7035SOL    HW222005   0.820   6.322   2.642
 7036SOL     OW22006   6.894   5.599   1.955
 7036SOL    HW122007   6.803   5.639   1.940
 7036SOL    HW222008   6.908   5.584   2.052
 7037SOL     OW22009   0.501   6.324   5.405
 7037SOL    HW122010   0.427   6.267   5.369
 7037SOL    HW222011   0.579   6.321   5.342
 7038SOL     OW22012   1.020   4.173   3.383
 7038SOL    HW122013   0.998   4.166   3.481
 7038SOL    HW222014   0.992   4.263   3.349
 7039SOL     OW22015   3.899   0.092   6.974
 7039SOL    HW122016   3.808   0.133   6.962
 7039SOL    HW222017   3.937   0.069   6.885
 7040SOL     OW22018   4.760   2.819   6.094
 7040SOL    HW122019   4.768   2.744   6.160
 7040SOL    HW222020   4.665   2.849   6.090
 7041SOL     OW22021   1.274   0.931   3.036
 7041SOL    HW122022   1.287   0.970   2.945
 7041SOL    HW222023   1.207   0.857   3.031
 7042SOL     OW22024   4.908   5.550   6.366
 7042SOL    HW122025   4.966   5.618   6.321
 7042SOL    HW222026   4.812   5.578   6.358
 7043SOL     OW22027   1.715   3.018   3.262
 7043SOL    HW122028   1.765   2.934   3.241
 7043SOL    HW222029   1.714   3.077   3.181
 7044SOL     OW22030   4.438   4.988   2.473
 7044SOL    HW122031   4.469   5.074   2.431
 7044SOL    HW222032   4.352   5.005   2.521
 7045SOL     OW22033   4.910   6.611   0.977
 7045SOL    HW122034   4.943   6.705   0.975
 7045SOL    HW222035   4.818   6.608   1.017
 7046SOL     OW22036   3.796   0.890   4.880
 7046SOL    HW122037   3.729   0.826   4.844
 7046SOL    HW222038   3.886   0.868   4.843
 7047SOL     OW22039   0.631   2.014   3.370
 7047SOL    HW122040   0.542   2.057   3.353
 7047SOL    HW222041   0.619   1.916   3.383
 7048SOL     OW22042   0.964   6.114   1.099
 7048SOL    HW122043   0.961   6.207   1.136
 7048SOL    HW222044   1.057   6.078   1.109
 7049SOL     OW22045   1.812   0.913   0.876
 7049SOL    HW122046   1.772   0.841   0.819
 7049SOL    HW222047   1.909   0.895   0.892
 7050SOL     OW22048   3.578   3.725   4.638
 7050SOL    HW122049   3.663   3.767   4.607
 7050SOL    HW222050   3.500   3.776   4.602
 7051SOL     OW22051   6.924   0.778   1.225
 7051SOL    HW122052   6.895   0.729   1.308
 7051SOL    HW222053   6.933   0.875   1.246
 7052SOL     OW22054   6.815   2.174   4.688
 7052SOL    HW122055   6.812   2.273   4.698
 7052SOL    HW222056   6.909   2.142   4.696
 7053SOL     OW22057   0.416   3.822   6.209
 7053SOL    HW122058   0.503   3.791   6.248
 7053SOL    HW222059   0.344   3.815   6.278
 7054SOL     OW22060   6.823   6.430   1.159
 7054SOL    HW122061   6.846   6.340   1.197
 7054SOL    HW222062   6.885   6.452   1.085
 7055SOL     OW22063   4.408   0.307   5.885
 7055SOL    HW122064   4.430   0.210   5.893
 7055SOL    HW222065   4.365   0.325   5.796
 7056SOL     OW22066   5.634   4.544   3.153
 7056SOL    HW122067   5.709   4.589   3.106
 7056SOL    HW222068   5.635   4.446   3.133
 7057SOL     OW22069   0.169   4.210   4.288
 7057SOL    HW122070   0.158   4.163   4.376
 7057SOL    HW222071   0.084   4.257   4.266
 7058SOL     OW22072   0.248   5.646   4.857
 7058SOL    HW122073   0.292   5.557   4.872
 7058SOL    HW222074   0.203   5.646   4.768
 7059SOL     OW22075   0.530   0.025   1.780
 7059SOL    HW122076   0.453   0.069   1.826
 7059SOL    HW222077   0.600   0.003   1.848
 7060SOL     OW22078   3.010   0.415   1.377
 7060SOL    HW122079   2.980   0.333   1.426
 7060SOL    HW222080   2.952   0.492   1.401
 7061SOL     OW22081   0.150   1.808   2.849
 7061SOL    HW122082   0.216   1.733   2.855
 7061SOL    HW222083   0.070   1.787   2.906
 7062SOL     OW22084   5.751   1.989   5.624
 7062SOL    HW122085   5.728   1.989   5.527
 7062SOL    HW222086   5.799   1.904   5.648
 7063SOL     OW22087   1.598   5.861   1.130
 7063SOL    HW122088   1.661   5.868   1.052
 7063SOL    HW222089   1.525   5.797   1.108
 7064SOL     OW22090   4.189   2.228   1.560
 7064SOL    HW122091   4.148   2.211   1.471
 7064SOL    HW222092   4.289   2.226   1.552
 7065SOL     OW22093   4.666   4.117   1.429
 7065SOL    HW122094   4.644   4.159   1.517
 7065SOL    HW222095   4.582   4.103   1.377
 7066SOL     OW22096   3.670   0.807   0.497
 7066SOL    HW122097   3.633   0.896   0.524
 7066SOL    HW222098   3.672   0.746   0.576
 7067SOL     OW22099   1.065   3.927   5.348
 7067SOL    HW122100   0.971   3.961   5.346
 7067SOL    HW222101   1.108   3.951   5.435
 7068SOL     OW22102   0.989   2.919   3.144
 7068SOL    HW122103   0.902   2.906   3.192
 7068SOL    HW222104   1.058   2.859   3.183
 7069SOL     OW22105   6.460   3.826   5.067
 7069SOL    HW122106   6.473   3.899   5.134
 7069SOL    HW222107   6.416   3.864   4.985
 7070SOL     OW22108   6.439   4.871   5.349
 7070SOL    HW122109   6.402   4.780   5.369
 7070SOL    HW222110   6.447   4.883   5.250
 7071SOL     OW22111   0.970   6.368   4.991
 7071SOL    HW122112   1.012   6.412   5.070
 7071SOL    HW222113   0.903   6.429   4.949
 7072SOL     OW22114   6.754   6.197   6.009
 7072SOL    HW122115   6.804   6.260   5.950
 7072SOL    HW222116   6.792   6.201   6.102
 7073SOL     OW22117   6.684   0.949   5.189
 7073SOL    HW122118   6.761   0.965   5.251
 7073SOL    HW222119   6.626   1.030   5.186
 7074SOL     OW22120   3.083   3.015   2.062
 7074SOL    HW122121   3.118   3.041   2.151
 7074SOL    HW222122   3.152   2.961   2.013
 7075SOL     OW22123   1.709   5.886   4.658
 7075SOL    HW122124   1.695   5.869   4.560
 7075SOL    HW222125   1.802   5.857   4.684
 7076SOL     OW22126   3.193   1.953   6.809
 7076SOL    HW122127   3.135   1.912   6.739
 7076SOL    HW222128   3.258   1.885   6.844
 7077SOL     OW22129   2.163   5.577   5.411
 7077SOL    HW122130   2.066   5.585   5.392
 7077SOL    HW222131   2.178   5.576   5.510
 7078SOL     OW22132   6.110   6.868   2.753
 7078SOL    HW122133   6.148   6.817   2.830
 7078SOL    HW222134   6.123   6.815   2.669
 7079SOL     OW22135   6.905   5.784   5.549
 7079SOL    HW122136   6.984   5.761   5.491
 7079SOL    HW222137   6.821   5.754   5.505
 7080SOL     OW22138   4.226   2.335   3.748
 7080SOL    HW122139   4.194   2.430   3.754
 7080SOL    HW222140   4.181   2.290   3.671
 7081SOL     OW22141   3.470   1.440   5.373
 7081SOL    HW122142   3.455   1.437   5.275
 7081SOL    HW222143   3.474   1.535   5.404
 7082SOL     OW22144   5.402   0.677   0.106
 7082SOL    HW122145   5.466   0.736   0.057
 7082SOL    HW222146   5.454   0.618   0.169
 7083SOL     OW22147   2.946   1.263   6.758
 7083SOL    HW122148   2.939   1.178   6.706
 7083SOL    HW222149   3.034   1.265   6.808
 7084SOL     OW22150   6.986   6.592   5.290
 7084SOL    HW122151   0.056   6.587   5.251
 7084SOL    HW222152   6.976   6.520   5.359
 7085SOL     OW22153   2.291   2.091   3.227
 7085SOL    HW122154   2.295   2.126   3.320
 7085SOL    HW222155   2.369   2.030   3.211
 7086SOL     OW22156   5.590   0.928   6.229
 7086SOL    HW122157   5.570   0.874   6.147
 7086SOL    HW222158   5.615   0.867   6.304
 7087SOL     OW22159   1.090   2.838   4.575
 7087SOL    HW122160   1.188   2.859   4.581
 7087SOL    HW222161   1.060   2.793   4.660
 7088SOL     OW22162   4.716   2.788   4.153
 7088SOL    HW122163   4.801   2.760   4.108
 7088SOL    HW222164   4.644   2.722   4.132
 7089SOL     OW22165   3.391   2.675   6.073
 7089SOL    HW122166   3.430   2.708   6.160
 7089SOL    HW222167   3.407   2.577   6.065
 7090SOL     OW22168   1.789   1.438   5.586
 7090SOL    HW122169   1.740   1.412   5.502
 7090SOL    HW222170   1.884   1.459   5.563
 7091SOL     OW22171   0.286   1.304   6.369
 7091SOL    HW122172   0.218   1.320   6.297
 7091SOL    HW222173   0.242   1.311   6.458
 7092SOL     OW22174   4.295   3.587   0.195
 7092SOL    HW122175   4.232   3.510   0.206
 7092SOL    HW222176   4.303   3.610   0.098
 7093SOL     OW22177   3.390   4.168   4.317
 7093SOL    HW122178   3.486   4.145   4.331
 7093SOL    HW222179   3.383   4.244   4.252
 7094SOL     OW22180   0.376   6.594   5.424
 7094SOL    HW122181   0.297   6.582   5.483
 7094SOL    HW222182   0.424   6.507   5.414
 7095SOL     OW22183   2.027   2.961   6.733
 7095SOL    HW122184   1.995   3.017   6.809
 7095SOL    HW222185   2.123   2.939   6.745
 7096SOL     OW22186   5.266   2.516   3.479
 7096SOL    HW122187   5.174   2.512   3.518
 7096SOL    HW222188   5.307   2.425   3.481
 7097SOL     OW22189   6.833   0.468   2.081
 7097SOL    HW122190   6.914   0.463   2.022
 7097SOL    HW222191   6.860   0.454   2.176
 7098SOL     OW22192   1.598   5.994   4.884
 7098SOL    HW122193   1.595   5.957   4.792
 7098SOL    HW222194   1.587   6.093   4.881
 7099SOL     OW22195   1.400   1.047   4.900
 7099SOL    HW122196   1.445   1.012   4.982
 7099SOL    HW222197   1.303   1.023   4.901
 7100SOL     OW22198   4.863   4.074   1.128
 7100SOL    HW122199   4.770   4.069   1.091
 7100SOL    HW222200   4.870   4.012   1.206
 7101SOL     OW22201   3.088   0.268   4.731
 7101SOL    HW122202   3.171   0.304   4.687
 7101SOL    HW222203   3.013   0.268   4.664
 7102SOL     OW22204   4.397   1.029   0.897
 7102SOL    HW122205   4.369   1.097   0.966
 7102SOL    HW222206   4.442   1.075   0.821
 7103SOL     OW22207   3.580   5.759   6.607
 7103SOL    HW122208   3.652   5.695   6.635
 7103SOL    HW222209   3.504   5.753   6.670
 7104SOL     OW22210   1.340   3.249   3.537
 7104SOL    HW122211   1.347   3.190   3.456
 7104SOL    HW222212   1.432   3.275   3.566
 7105SOL     OW22213   3.522   3.123   4.745
 7105SOL    HW122214   3.533   3.116   4.845
 7105SOL    HW222215   3.578   3.054   4.701
 7106SOL     OW22216   3.895   3.082   4.070
 7106SOL    HW122217   3.851   3.049   3.986
 7106SOL    HW222218   3.861   3.029   4.148
 7107SOL     OW22219   2.616   0.893   0.301
 7107SOL    HW122220   2.545   0.844   0.251
 7107SOL    HW222221   2.664   0.955   0.239
 7108SOL     OW22222   4.063   6.418   1.760
 7108SOL    HW122223   4.019   6.495   1.806
 7108SOL    HW222224   4.162   6.424   1.771
 7109SOL     OW22225   3.544   7.019   5.981
 7109SOL    HW122226   3.644   7.021   5.991
 7109SOL    HW222227   3.520   6.963   5.902
 7110SOL     OW22228   5.181   5.367   3.895
 7110SOL    HW122229   5.211   5.314   3.817
 7110SOL    HW222230   5.260   5.398   3.948
 7111SOL     OW22231   1.441   3.201   4.274
 7111SOL    HW122232   1.359   3.173   4.324
 7111SOL    HW222233   1.422   3.203   4.176
 7112SOL     OW22234   1.936   5.652   4.403
 7112SOL    HW122235   1.923   5.586   4.329
 7112SOL    HW222236   1.869   5.725   4.395
 7113SOL     OW22237   3.919   4.000   4.795
 7113SOL    HW122238   3.973   4.058   4.856
 7113SOL    HW222239   3.943   3.904   4.810
 7114SOL     OW22240   4.196   0.115   1.789
 7114SOL    HW122241   4.274   0.117   1.852
 7114SOL    HW222242   4.209   0.185   1.718
 7115SOL     OW22243   5.135   2.159   1.365
 7115SOL    HW122244   5.092   2.248   1.380
 7115SOL    HW222245   5.234   2.170   1.364
 7116SOL     OW22246   5.499   4.332   3.722
 7116SOL    HW122247   5.489   4.340   3.821
 7116SOL    HW222248   5.591   4.299   3.700
 7117SOL     OW22249   0.198   6.663   3.855
 7117SOL    HW122250   0.271   6.720   3.893
 7117SOL    HW222251   0.179   6.587   3.917
 7118SOL     OW22252   5.051   3.790   0.986
 7118SOL    HW122253   4.971   3.769   1.041
 7118SOL    HW222254   5.122   3.830   1.045
 7119SOL     OW22255   5.316   0.851   3.349
 7119SOL    HW122256   5.375   0.898   3.283
 7119SOL    HW222257   5.366   0.837   3.435
 7120SOL     OW22258   4.237   1.738   2.390
 7120SOL    HW122259   4.149   1.702   2.421
 7120SOL    HW222260   4.239   1.739   2.290
 7121SOL     OW22261   2.126   0.139   3.703
 7121SOL    HW122262   2.043   0.113   3.654
 7121SOL    HW222263   2.191   0.180   3.640
 7122SOL     OW22264   0.111   0.818   0.343
 7122SOL    HW122265   0.138   0.749   0.276
 7122SOL    HW222266   0.105   0.907   0.299
 7123SOL     OW22267   3.142   5.459   1.551
 7123SOL    HW122268   3.150   5.380   1.611
 7123SOL    HW222269   3.077   5.524   1.589
 7124SOL     OW22270   1.174   4.623   0.962
 7124SOL    HW122271   1.194   4.703   1.019
 7124SOL    HW222272   1.127   4.554   1.017
 7125SOL     OW22273   6.532   6.371   1.158
 7125SOL    HW122274   6.613   6.428   1.148
 7125SOL    HW222275   6.552   6.278   1.126
 7126SOL     OW22276   2.481   3.456   0.668
 7126SOL    HW122277   2.432   3.381   0.623
 7126SOL    HW222278   2.416   3.508   0.724
 7127SOL     OW22279   3.074   5.375   4.473
 7127SOL    HW122280   3.059   5.301   4.539
 7127SOL    HW222281   3.113   5.336   4.389
 7128SOL     OW22282   3.205   4.718   0.458
 7128SOL    HW122283   3.162   4.808   0.444
 7128SOL    HW222284   3.146   4.663   0.517
 7129SOL     OW22285   2.950   0.731   1.122
 7129SOL    HW122286   2.987   0.780   1.044
 7129SOL    HW222287   2.953   0.633   1.104
 7130SOL     OW22288   3.151   5.077   4.459
 7130SOL    HW122289   3.204   5.083   4.374
 7130SOL    HW222290   3.080   5.007   4.449
 7131SOL     OW22291   2.597   1.734   1.059
 7131SOL    HW122292   2.644   1.669   1.118
 7131SOL    HW222293   2.635   1.728   0.966
 7132SOL     OW22294   4.122   3.453   2.585
 7132SOL    HW122295   4.162   3.521   2.645
 7132SOL    HW222296   4.024   3.443   2.606
 7133SOL     OW22297   5.253   4.824   3.213
 7133SOL    HW122298   5.295   4.901   3.167
 7133SOL    HW222299   5.325   4.768   3.256
 7134SOL     OW22300   6.466   6.017   4.128
 7134SOL    HW122301   6.456   6.094   4.065
 7134SOL    HW222302   6.517   6.046   4.209
 7135SOL     OW22303   1.306   1.207   4.237
 7135SOL    HW122304   1.346   1.161   4.158
 7135SOL    HW222305   1.207   1.191   4.238
 7136SOL     OW22306   1.666   1.508   0.682
 7136SOL    HW122307   1.661   1.501   0.782
 7136SOL    HW222308   1.685   1.417   0.644
 7137SOL     OW22309   3.985   1.264   4.868
 7137SOL    HW122310   3.934   1.196   4.816
 7137SOL    HW222311   3.932   1.349   4.873
 7138SOL     OW22312   3.140   2.609   1.531
 7138SOL    HW122313   3.213   2.578   1.593
 7138SOL    HW222314   3.101   2.530   1.483
 7139SOL     OW22315   4.915   3.022   2.077
 7139SOL    HW122316   4.825   2.999   2.042
 7139SOL    HW222317   4.982   3.019   2.002
 7140SOL     OW22318   6.281   2.908   5.225
 7140SOL    HW122319   6.342   2.902   5.304
 7140SOL    HW222320   6.210   2.976   5.242
 7141SOL     OW22321   3.374   0.028   0.977
 7141SOL    HW122322   3.308   0.019   1.052
 7141SOL    HW222323   3.330   0.073   0.900
 7142SOL     OW22324   4.292   0.064   3.863
 7142SOL    HW122325   4.335   0.129   3.801
 7142SOL    HW222326   4.238   0.113   3.931
 7143SOL     OW22327   1.869   3.305   5.883
 7143SOL    HW122328   1.823   3.335   5.967
 7143SOL    HW222329   1.902   3.212   5.895
 7144SOL     OW22330   0.969   0.929   3.214
 7144SOL    HW122331   0.893   0.963   3.157
 7144SOL    HW222332   1.038   1.000   3.222
 7145SOL     OW22333   4.262   6.529   5.996
 7145SOL    HW122334   4.336   6.475   6.034
 7145SOL    HW222335   4.212   6.474   5.929
 7146SOL     OW22336   2.194   6.953   0.819
 7146SOL    HW122337   2.276   6.951   0.761
 7146SOL    HW222338   2.212   7.011   0.899
 7147SOL     OW22339   6.448   6.879   3.825
 7147SOL    HW122340   6.437   6.971   3.864
 7147SOL    HW222341   6.537   6.842   3.852
 7148SOL     OW22342   1.066   5.967   1.696
 7148SOL    HW122343   1.123   5.925   1.767
 7148SOL    HW222344   0.972   5.936   1.706
 7149SOL     OW22345   6.588   0.313   3.765
 7149SOL    HW122346   6.503   0.316   3.713
 7149SOL    HW222347   6.622   0.406   3.779
 7150SOL     OW22348   4.701   2.924   1.397
 7150SOL    HW122349   4.644   2.964   1.325
 7150SOL    HW222350   4.713   2.991   1.470
 7151SOL     OW22351   1.485   5.505   0.872
 7151SOL    HW122352   1.558   5.541   0.815
 7151SOL    HW222353   1.422   5.579   0.896
 7152SOL     OW22354   0.305   3.513   5.426
 7152SOL    HW122355   0.286   3.571   5.347
 7152SOL    HW222356   0.404   3.507   5.440
 7153SOL     OW22357   4.138   6.555   5.215
 7153SOL    HW122358   4.058   6.577   5.270
 7153SOL    HW222359   4.109   6.511   5.130
 7154SOL     OW22360   4.440   5.651   4.599
 7154SOL    HW122361   4.377   5.602   4.538
 7154SOL    HW222362   4.530   5.656   4.557
 7155SOL     OW22363   1.662   6.044   1.758
 7155SOL    HW122364   1.740   5.988   1.785
 7155SOL    HW222365   1.693   6.122   1.703
 7156SOL     OW22366   0.271   4.787   4.588
 7156SOL    HW122367   0.266   4.874   4.537
 7156SOL    HW222368   0.366   4.762   4.601
 7157SOL     OW22369   6.367   5.523   0.797
 7157SOL    HW122370   6.294   5.561   0.739
 7157SOL    HW222371   6.443   5.589   0.801
 7158SOL     OW22372   0.131   6.959   3.458
 7158SOL    HW122373   0.202   6.889   3.463
 7158SOL    HW222374   0.044   6.919   3.488
 7159SOL     OW22375   0.401   4.267   1.513
 7159SOL    HW122376   0.413   4.327   1.592
 7159SOL    HW222377   0.476   4.283   1.448
 7160SOL     OW22378   6.552   0.445   2.054
 7160SOL    HW122379   6.638   0.445   2.002
 7160SOL    HW222380   6.487   0.383   2.011
 7161SOL     OW22381   3.459   3.858   4.226
 7161SOL    HW122382   3.515   3.922   4.279
 7161SOL    HW222383   3.512   3.824   4.149
 7162SOL     OW22384   3.049   5.562   5.412
 7162SOL    HW122385   3.092   5.512   5.487
 7162SOL    HW222386   3.067   5.515   5.326
 7163SOL     OW22387   3.825   0.145   4.014
 7163SOL    HW122388   3.831   0.208   3.936
 7163SOL    HW222389   3.880   0.064   3.995
 7164SOL     OW22390   1.696   1.522   2.679
 7164SOL    HW122391   1.731   1.433   2.707
 7164SOL    HW222392   1.735   1.547   2.591
 7165SOL     OW22393   6.022   0.697   0.363
 7165SOL    HW122394   6.059   0.638   0.291
 7165SOL    HW222395   5.931   0.665   0.388
 7166SOL     OW22396   4.959   4.549   1.602
 7166SOL    HW122397   4.954   4.494   1.519
 7166SOL    HW222398   4.871   4.547   1.648
 7167SOL     OW22399   5.159   3.734   4.921
 7167SOL    HW122400   5.256   3.713   4.928
 7167SOL    HW222401   5.124   3.702   4.833
 7168SOL     OW22402   1.307   1.751   4.044
 7168SOL    HW122403   1.388   1.692   4.049
 7168SOL    HW222404   1.336   1.846   4.031
 7169SOL     OW22405   1.781   3.366   5.627
 7169SOL    HW122406   1.810   3.318   5.710
 7169SOL    HW222407   1.728   3.303   5.570
 7170SOL     OW22408   4.467   5.004   3.205
 7170SOL    HW122409   4.468   5.087   3.149
 7170SOL    HW222410   4.380   4.997   3.254
 7171SOL     OW22411   5.107   3.207   6.175
 7171SOL    HW122412   5.068   3.117   6.196
 7171SOL    HW222413   5.085   3.270   6.249
 7172SOL     OW22414   1.467   6.855   6.823
 7172SOL    HW122415   1.544   6.866   6.759
 7172SOL    HW222416   1.397   6.797   6.781
 7173SOL     OW22417   6.716   5.192   4.607
 7173SOL    HW122418   6.707   5.291   4.617
 7173SOL    HW222419   6.661   5.162   4.529
 7174SOL     OW22420   1.178   5.387   6.969
 7174SOL    HW122421   1.262   5.405   7.021
 7174SOL    HW222422   1.136   5.303   7.002
 7175SOL     OW22423   5.044   3.376   0.998
 7175SOL    HW122424   4.953   3.343   1.024
 7175SOL    HW222425   5.035   3.452   0.934
 7176SOL     OW22426   0.266   5.289   2.273
 7176SOL    HW122427   0.333   5.338   2.329
 7176SOL    HW222428   0.234   5.348   2.199
 7177SOL     OW22429   1.789   5.964   3.950
 7177SOL    HW122430   1.866   5.946   4.013
 7177SOL    HW222431   1.791   6.060   3.923
 7178SOL     OW22432   2.387   2.541   5.891
 7178SOL    HW122433   2.290   2.559   5.873
 7178SOL    HW222434   2.423   2.609   5.954
 7179SOL     OW22435   2.383   3.220   5.911
 7179SOL    HW122436   2.312   3.277   5.953
 7179SOL    HW222437   2.358   3.201   5.816
 7180SOL     OW22438   0.738   5.238   6.491
 7180SOL    HW122439   0.798   5.315   6.510
 7180SOL    HW222440   0.686   5.215   6.574
 7181SOL     OW22441   3.698   0.404   0.570
 7181SOL    HW122442   3.636   0.380   0.645
 7181SOL    HW222443   3.758   0.326   0.550
 7182SOL     OW22444   1.754   4.063   5.603
 7182SOL    HW122445   1.814   4.084   5.526
 7182SOL    HW222446   1.790   3.984   5.652
 7183SOL     OW22447   1.886   5.111   2.600
 7183SOL    HW122448   1.804   5.080   2.647
 7183SOL    HW222449   1.913   5.201   2.635
 7184SOL     OW22450   0.627   6.979   3.332
 7184SOL    HW122451   0.723   7.006   3.322
 7184SOL    HW222452   0.573   0.036   3.362
 7185SOL     OW22453   4.992   2.512   6.837
 7185SOL    HW122454   5.040   2.438   6.790
 7185SOL    HW222455   4.899   2.483   6.860
 7186SOL     OW22456   6.931   6.874   5.322
 7186SOL    HW122457   6.941   6.776   5.309
 7186SOL    HW222458   6.852   6.892   5.381
 7187SOL     OW22459   2.077   4.578   1.909
 7187SOL    HW122460   2.133   4.656   1.885
 7187SOL    HW222461   1.980   4.601   1.895
 7188SOL     OW22462   5.756   6.895   1.425
 7188SOL    HW122463   5.658   6.901   1.447
 7188SOL    HW222464   5.802   6.976   1.462
 7189SOL     OW22465   6.483   1.752   6.375
 7189SOL    HW122466   6.448   1.661   6.354
 7189SOL    HW222467   6.434   1.820   6.321
 7190SOL     OW22468   5.164   3.929   3.610
 7190SOL    HW122469   5.233   4.000   3.623
 7190SOL    HW222470   5.109   3.950   3.529
 7191SOL     OW22471   1.102   3.832   2.372
 7191SOL    HW122472   1.060   3.884   2.446
 7191SOL    HW222473   1.083   3.877   2.285
 7192SOL     OW22474   2.391   6.452   5.571
 7192SOL    HW122475   2.308   6.399   5.585
 7192SOL    HW222476   2.445   6.452   5.655
 7193SOL     OW22477   3.031   2.174   4.018
 7193SOL    HW122478   3.069   2.171   4.110
 7193SOL    HW222479   3.105   2.167   3.951
 7194SOL     OW22480   2.155   1.786   1.258
 7194SOL    HW122481   2.205   1.704   1.227
 7194SOL    HW222482   2.090   1.813   1.188
 7195SOL     OW22483   0.417   4.637   0.510
 7195SOL    HW122484   0.362   4.717   0.486
 7195SOL    HW222485   0.493   4.664   0.569
 7196SOL     OW22486   3.242   2.953   3.360
 7196SOL    HW122487   3.147   2.980   3.380
 7196SOL    HW222488   3.256   2.953   3.261
 7197SOL     OW22489   6.747   2.193   5.648
 7197SOL    HW122490   6.759   2.123   5.718
 7197SOL    HW222491   6.758   2.152   5.557
 7198SOL     OW22492   1.328   6.954   6.009
 7198SOL    HW122493   1.284   6.999   6.087
 7198SOL    HW222494   1.258   6.932   5.940
 7199SOL     OW22495   0.793   0.829   2.560
 7199SOL    HW122496   0.782   0.914   2.510
 7199SOL    HW222497   0.753   0.754   2.507
 7200SOL     OW22498   2.357   0.371   0.485
 7200SOL    HW122499   2.265   0.402   0.459
 7200SOL    HW222500   2.381   0.410   0.573
 7201SOL     OW22501   1.935   4.971   3.101
 7201SOL    HW122502   1.974   4.879   3.091
 7201SOL    HW222503   1.854   4.979   3.043
 7202SOL     OW22504   3.720   0.251   6.228
 7202SOL    HW122505   3.736   0.323   6.296
 7202SOL    HW222506   3.640   0.197   6.256
 7203SOL     OW22507   6.374   0.617   0.747
 7203SOL    HW122508   6.334   0.679   0.680
 7203SOL    HW222509   6.461   0.582   0.714
 7204SOL     OW22510   6.148   6.718   4.239
 7204SOL    HW122511   6.186   6.764   4.319
 7204SOL    HW222512   6.222   6.700   4.173
 7205SOL     OW22513   1.436   5.602   3.171
 7205SOL    HW122514   1.376   5.668   3.216
 7205SOL    HW222515   1.503   5.651   3.115
 7206SOL     OW22516   0.405   1.331   1.205
 7206SOL    HW122517   0.482   1.351   1.265
 7206SOL    HW222518   0.434   1.266   1.135
 7207SOL     OW22519   4.028   0.621   1.286
 7207SOL    HW122520   3.998   0.654   1.196
 7207SOL    HW222521   4.049   0.699   1.345
 7208SOL     OW22522   4.133   6.777   4.419
 7208SOL    HW122523   4.066   6.715   4.379
 7208SOL    HW222524   4.223   6.760   4.378
 7209SOL     OW22525   2.986   3.201   3.992
 7209SOL    HW122526   2.971   3.118   4.046
 7209SOL    HW222527   2.975   3.180   3.895
 7210SOL     OW22528   4.591   1.130   3.358
 7210SOL    HW122529   4.581   1.085   3.447
 7210SOL    HW222530   4.505   1.123   3.308
 7211SOL     OW22531   1.123   6.154   3.850
 7211SOL    HW122532   1.075   6.088   3.791
 7211SOL    HW222533   1.066   6.175   3.929
 7212SOL     OW22534   0.540   6.144   4.429
 7212SOL    HW122535   0.552   6.047   4.450
 7212SOL    HW222536   0.578   6.199   4.504
 7213SOL     OW22537   5.349   6.698   5.131
 7213SOL    HW122538   5.418   6.741   5.190
 7213SOL    HW222539   5.316   6.614   5.173
 7214SOL     OW22540   2.483   5.779   4.364
 7214SOL    HW122541   2.396   5.732   4.382
 7214SOL    HW222542   2.483   5.814   4.271
 7215SOL     OW22543   0.920   3.073   4.660
 7215SOL    HW122544   1.007   3.029   4.638
 7215SOL    HW222545   0.846   3.006   4.655
 7216SOL     OW22546   2.926   5.114   6.474
 7216SOL    HW122547   2.988   5.048   6.432
 7216SOL    HW222548   2.977   5.174   6.536
 7217SOL     OW22549   1.895   4.738   2.083
 7217SOL    HW122550   1.896   4.780   1.992
 7217SOL    HW222551   1.970   4.776   2.138
 7218SOL     OW22552   4.845   2.311   5.314
 7218SOL    HW122553   4.845   2.220   5.356
 7218SOL    HW222554   4.904   2.372   5.366
 7219SOL     OW22555   4.559   6.723   3.658
 7219SOL    HW122556   4.628   6.651   3.653
 7219SOL    HW222557   4.531   6.737   3.753
 7220SOL     OW22558   6.706   0.479   3.270
 7220SOL    HW122559   6.628   0.505   3.327
 7220SOL    HW222560   6.675   0.415   3.199
 7221SOL     OW22561   5.562   4.578   5.763
 7221SOL    HW122562   5.501   4.609   5.836
 7221SOL    HW222563   5.579   4.479   5.773
 7222SOL     OW22564   6.654   6.818   0.963
 7222SOL    HW122565   6.555   6.833   0.970
 7222SOL    HW222566   6.700   6.869   1.036
 7223SOL     OW22567   2.865   2.011   0.999
 7223SOL    HW122568   2.904   2.070   1.070
 7223SOL    HW222569   2.767   2.003   1.013
 7224SOL     OW22570   5.859   1.355   4.485
 7224SOL    HW122571   5.775   1.307   4.511
 7224SOL    HW222572   5.835   1.446   4.451
 7225SOL     OW22573   1.824   5.933   0.306
 7225SOL    HW122574   1.847   6.029   0.321
 7225SOL    HW222575   1.813   5.887   0.394
 7226SOL     OW22576   0.103   6.994   0.174
 7226SOL    HW122577   0.110   6.945   0.087
 7226SOL    HW222578   0.021   6.964   0.222
 7227SOL     OW22579   0.488   2.269   0.150
 7227SOL    HW122580   0.549   2.278   0.072
 7227SOL    HW222581   0.405   2.323   0.133
 7228SOL     OW22582   0.070   6.691   1.968
 7228SOL    HW122583   0.108   6.601   1.991
 7228SOL    HW222584   0.077   6.752   2.047
 7229SOL     OW22585   1.032   0.513   4.253
 7229SOL    HW122586   1.083   0.576   4.312
 7229SOL    HW222587   1.095   0.455   4.203
 7230SOL     OW22588   4.087   5.386   4.232
 7230SOL    HW122589   4.039   5.299   4.236
 7230SOL    HW222590   4.047   5.450   4.298
 7231SOL     OW22591   5.468   2.030   6.213
 7231SOL    HW122592   5.444   2.127   6.205
 7231SOL    HW222593   5.489   2.008   6.308
 7232SOL     OW22594   3.901   5.284   3.081
 7232SOL    HW122595   3.846   5.236   3.150
 7232SOL    HW222596   3.969   5.221   3.044
 7233SOL     OW22597   0.588   2.705   5.112
 7233SOL    HW122598   0.686   2.727   5.107
 7233SOL    HW222599   0.549   2.744   5.195
 7234SOL     OW22600   5.943   2.492   1.839
 7234SOL    HW122601   6.029   2.450   1.868
 7234SOL    HW222602   5.954   2.591   1.833
 7235SOL     OW22603   5.726   4.121   4.549
 7235SOL    HW122604   5.737   4.151   4.455
 7235SOL    HW222605   5.642   4.160   4.587
 7236SOL     OW22606   3.637   1.810   3.133
 7236SOL    HW122607   3.602   1.797   3.226
 7236SOL    HW222608   3.590   1.747   3.071
 7237SOL     OW22609   6.637   6.040   5.264
 7237SOL    HW122610   6.731   6.060   5.293
 7237SOL    HW222611   6.573   6.089   5.323
 7238SOL     OW22612   2.551   1.596   2.402
 7238SOL    HW122613   2.599   1.592   2.490
 7238SOL    HW222614   2.461   1.638   2.414
 7239SOL     OW22615   2.033   1.734   2.967
 7239SOL    HW122616   2.049   1.832   2.974
 7239SOL    HW222617   1.936   1.715   2.977
 7240SOL     OW22618   2.981   4.002   0.808
 7240SOL    HW122619   2.909   3.933   0.803
 7240SOL    HW222620   2.953   4.084   0.760
 7241SOL     OW22621   3.490   0.862   5.742
 7241SOL    HW122622   3.564   0.804   5.707
 7241SOL    HW222623   3.465   0.833   5.835
 7242SOL     OW22624   5.685   4.204   6.995
 7242SOL    HW122625   5.769   4.181   6.946
 7242SOL    HW222626   5.659   4.128   0.033
 7243SOL     OW22627   1.528   4.984   6.411
 7243SOL    HW122628   1.447   4.987   6.469
 7243SOL    HW222629   1.506   4.936   6.325
 7244SOL     OW22630   5.366   1.528   0.719
 7244SOL    HW122631   5.385   1.477   0.803
 7244SOL    HW222632   5.289   1.589   0.734
 7245SOL     OW22633   0.092   2.181   4.706
 7245SOL    HW122634   0.113   2.087   4.677
 7245SOL    HW222635   0.126   2.196   4.799
 7246SOL     OW22636   6.017   6.978   4.692
 7246SOL    HW122637   5.980   6.905   4.635
 7246SOL    HW222638   5.963   0.039   4.680
 7247SOL     OW22639   2.692   6.042   1.682
 7247SOL    HW122640   2.618   6.055   1.616
 7247SOL    HW222641   2.690   5.948   1.716
 7248SOL     OW22642   3.988   1.071   4.570
 7248SOL    HW122643   3.935   1.095   4.489
 7248SOL    HW222644   4.039   0.986   4.552
 7249SOL     OW22645   5.471   4.499   1.110
 7249SOL    HW122646   5.413   4.570   1.150
 7249SOL    HW222647   5.491   4.429   1.179
 7250SOL     OW22648   2.048   4.961   6.497
 7250SOL    HW122649   1.979   4.911   6.549
 7250SOL    HW222650   2.011   5.050   6.469
 7251SOL     OW22651   6.793   6.274   5.034
 7251SOL    HW122652   6.831   6.275   5.127
 7251SOL    HW222653   6.702   6.232   5.036
 7252SOL     OW22654   3.192   3.235   4.826
 7252SOL    HW122655   3.128   3.308   4.802
 7252SOL    HW222656   3.247   3.264   4.904
 7253SOL     OW22657   2.881   6.473   0.992
 7253SOL    HW122658   2.876   6.536   1.070
 7253SOL    HW222659   2.795   6.477   0.941
 7254SOL     OW22660   3.686   5.261   3.951
 7254SOL    HW122661   3.732   5.291   4.034
 7254SOL    HW222662   3.749   5.206   3.896
 7255SOL     OW22663   2.954   3.252   2.170
 7255SOL    HW122664   2.990   3.334   2.125
 7255SOL    HW222665   2.957   3.175   2.107
 7256SOL     OW22666   4.407   5.085   4.507
 7256SOL    HW122667   4.466   5.065   4.429
 7256SOL    HW222668   4.344   5.009   4.522
 7257SOL     OW22669   5.786   2.340   3.176
 7257SOL    HW122670   5.821   2.273   3.110
 7257SOL    HW222671   5.855   2.356   3.247
 7258SOL     OW22672   3.824   0.427   4.533
 7258SOL    HW122673   3.770   0.353   4.572
 7258SOL    HW222674   3.864   0.481   4.607
 7259SOL     OW22675   2.580   3.833   6.715
 7259SOL    HW122676   2.627   3.833   6.804
 7259SOL    HW222677   2.644   3.859   6.643
 7260SOL     OW22678   3.729   1.981   2.769
 7260SOL    HW122679   3.715   2.035   2.852
 7260SOL    HW222680   3.643   1.938   2.742
 7261SOL     OW22681   2.194   3.390   1.647
 7261SOL    HW122682   2.250   3.365   1.568
 7261SOL    HW222683   2.251   3.434   1.715
 7262SOL     OW22684   5.445   2.153   4.376
 7262SOL    HW122685   5.367   2.209   4.350
 7262SOL    HW222686   5.476   2.102   4.296
 7263SOL     OW22687   1.168   5.702   1.268
 7263SOL    HW122688   1.218   5.780   1.305
 7263SOL    HW222689   1.080   5.732   1.231
 7264SOL     OW22690   6.779   1.131   6.490
 7264SOL    HW122691   6.826   1.056   6.444
 7264SOL    HW222692   6.788   1.121   6.589
 7265SOL     OW22693   5.230   4.851   5.976
 7265SOL    HW122694   5.228   4.760   5.935
 7265SOL    HW222695   5.150   4.903   5.947
 7266SOL     OW22696   4.972   0.643   1.529
 7266SOL    HW122697   5.051   0.584   1.511
 7266SOL    HW222698   4.935   0.623   1.619
 7267SOL     OW22699   0.457   3.777   4.830
 7267SOL    HW122700   0.533   3.723   4.864
 7267SOL    HW222701   0.427   3.741   4.742
 7268SOL     OW22702   4.343   5.924   1.445
 7268SOL    HW122703   4.246   5.900   1.451
 7268SOL    HW222704   4.398   5.850   1.484
 7269SOL     OW22705   0.836   5.490   1.611
 7269SOL    HW122706   0.898   5.411   1.609
 7269SOL    HW222707   0.851   5.542   1.695
 7270SOL     OW22708   2.611   1.937   2.711
 7270SOL    HW122709   2.564   1.974   2.630
 7270SOL    HW222710   2.587   1.841   2.722
 7271SOL     OW22711   0.061   3.603   2.936
 7271SOL    HW122712   0.143   3.649   2.972
 7271SOL    HW222713   0.081   3.506   2.922
 7272SOL     OW22714   4.675   2.762   2.959
 7272SOL    HW122715   4.596   2.713   2.993
 7272SOL    HW222716   4.684   2.849   3.008
 7273SOL     OW22717   5.432   4.262   1.697
 7273SOL    HW122718   5.451   4.255   1.795
 7273SOL    HW222719   5.508   4.223   1.646
 7274SOL     OW22720   6.751   5.121   5.848
 7274SOL    HW122721   6.695   5.121   5.765
 7274SOL    HW222722   6.836   5.171   5.832
 7275SOL     OW22723   0.057   0.673   6.929
 7275SOL    HW122724   0.143   0.714   6.900
 7275SOL    HW222725   7.006   0.700   6.865
 7276SOL     OW22726   1.839   1.980   3.958
 7276SOL    HW122727   1.849   2.014   4.052
 7276SOL    HW222728   1.814   2.055   3.898
 7277SOL     OW22729   4.861   1.377   4.797
 7277SOL    HW122730   4.946   1.418   4.764
 7277SOL    HW222731   4.875   1.342   4.890
 7278SOL     OW22732   3.682   1.295   3.658
 7278SOL    HW122733   3.664   1.393   3.664
 7278SOL    HW222734   3.599   1.244   3.679
 7279SOL     OW22735   4.307   4.787   0.297
 7279SOL    HW122736   4.372   4.795   0.372
 7279SOL    HW222737   4.356   4.791   0.210
 7280SOL     OW22738   5.454   1.721   5.296
 7280SOL    HW122739   5.432   1.662   5.218
 7280SOL    HW222740   5.381   1.788   5.309
 7281SOL     OW22741   3.492   6.425   1.832
 7281SOL    HW122742   3.442   6.480   1.900
 7281SOL    HW222743   3.516   6.483   1.755
 7282SOL     OW22744   6.728   5.428   2.366
 7282SOL    HW122745   6.645   5.372   2.369
 7282SOL    HW222746   6.749   5.461   2.458
 7283SOL     OW22747   3.482   5.459   2.854
 7283SOL    HW122748   3.490   5.365   2.885
 7283SOL    HW222749   3.388   5.478   2.828
 7284SOL     OW22750   6.817   2.164   3.809
 7284SOL    HW122751   6.859   2.201   3.891
 7284SOL    HW222752   6.819   2.232   3.735
 7285SOL     OW22753   4.867   2.849   1.795
 7285SOL    HW122754   4.893   2.776   1.858
 7285SOL    HW222755   4.809   2.915   1.843
 7286SOL     OW22756   0.773   0.706   0.412
 7286SOL    HW122757   0.674   0.698   0.423
 7286SOL    HW222758   0.812   0.615   0.402
 7287SOL     OW22759   1.223   2.473   3.404
 7287SOL    HW122760   1.208   2.552   3.463
 7287SOL    HW222761   1.278   2.405   3.452
 7288SOL     OW22762   2.950   2.210   2.987
 7288SOL    HW122763   2.921   2.305   2.992
 7288SOL    HW222764   2.943   2.178   2.892
 7289SOL     OW22765   6.511   2.371   1.631
 7289SOL    HW122766   6.506   2.382   1.730
 7289SOL    HW222767   6.537   2.458   1.589
 7290SOL     OW22768   3.771   1.760   4.636
 7290SOL    HW122769   3.688   1.801   4.676
 7290SOL    HW222770   3.784   1.796   4.544
 7291SOL     OW22771   3.895   0.870   0.088
 7291SOL    HW122772   3.826   0.831   0.150
 7291SOL    HW222773   3.945   0.796   0.044
 7292SOL     OW22774   2.121   0.267   3.138
 7292SOL    HW122775   2.135   0.307   3.047
 7292SOL    HW222776   2.048   0.199   3.134
 7293SOL     OW22777   1.266   0.632   5.183
 7293SOL    HW122778   1.217   0.680   5.255
 7293SOL    HW222779   1.242   0.535   5.186
 7294SOL     OW22780   3.176   4.887   1.395
 7294SOL    HW122781   3.107   4.870   1.325
 7294SOL    HW222782   3.168   4.820   1.468
 7295SOL     OW22783   6.448   5.292   2.450
 7295SOL    HW122784   6.400   5.351   2.514
 7295SOL    HW222785   6.411   5.306   2.358
 7296SOL     OW22786   4.043   4.846   2.225
 7296SOL    HW122787   4.056   4.801   2.137
 7296SOL    HW222788   4.114   4.916   2.237
 7297SOL     OW22789   3.527   6.257   1.628
 7297SOL    HW122790   3.509   6.324   1.700
 7297SOL    HW222791   3.460   6.267   1.555
 7298SOL     OW22792   4.788   5.654   6.777
 7298SOL    HW122793   4.875   5.647   6.825
 7298SOL    HW222794   4.767   5.568   6.732
 7299SOL     OW22795   1.203   2.940   0.383
 7299SOL    HW122796   1.185   2.971   0.476
 7299SOL    HW222797   1.302   2.936   0.367
 7300SOL     OW22798   0.822   4.747   1.655
 7300SOL    HW122799   0.812   4.673   1.588
 7300SOL    HW222800   0.733   4.784   1.679
 7301SOL     OW22801   5.498   6.554   5.545
 7301SOL    HW122802   5.586   6.568   5.590
 7301SOL    HW222803   5.511   6.553   5.446
 7302SOL     OW22804   5.012   2.886   5.578
 7302SOL    HW122805   4.994   2.952   5.651
 7302SOL    HW222806   5.057   2.934   5.502
 7303SOL     OW22807   2.642   1.031   1.156
 7303SOL    HW122808   2.678   1.122   1.134
 7303SOL    HW222809   2.553   1.041   1.202
 7304SOL     OW22810   2.879   5.520   1.908
 7304SOL    HW122811   2.952   5.506   1.843
 7304SOL    HW222812   2.879   5.447   1.976
 7305SOL     OW22813   5.790   2.260   0.498
 7305SOL    HW122814   5.851   2.220   0.430
 7305SOL    HW222815   5.725   2.322   0.452
 7306SOL     OW22816   2.402   1.481   1.683
 7306SOL    HW122817   2.442   1.538   1.754
 7306SOL    HW222818   2.417   1.524   1.593
 7307SOL     OW22819   1.744   6.552   1.209
 7307SOL    HW122820   1.675   6.531   1.279
 7307SOL    HW222821   1.733   6.647   1.179
 7308SOL     OW22822   4.725   0.674   1.703
 7308SOL    HW122823   4.687   0.741   1.767
 7308SOL    HW222824   4.716   0.582   1.742
 7309SOL     OW22825   2.146   5.319   2.879
 7309SOL    HW122826   2.204   5.400   2.894
 7309SOL    HW222827   2.179   5.244   2.936
 7310SOL     OW22828   1.809   2.744   0.061
 7310SOL    HW122829   1.817   2.648   0.089
 7310SOL    HW222830   1.830   2.753   6.986
 7311SOL     OW22831   0.346   6.807   6.516
 7311SOL    HW122832   0.378   6.890   6.561
 7311SOL    HW222833   0.381   6.727   6.565
 7312SOL     OW22834   0.232   2.549   5.575
 7312SOL    HW122835   0.168   2.621   5.603
 7312SOL    HW222836   0.201   2.461   5.611
 7313SOL     OW22837   2.217   0.790   1.997
 7313SOL    HW122838   2.127   0.747   1.992
 7313SOL    HW222839   2.255   0.777   2.089
 7314SOL     OW22840   0.163   4.219   6.972
 7314SOL    HW122841   0.193   4.175   0.035
 7314SOL    HW222842   0.225   4.194   6.898
 7315SOL     OW22843   0.861   5.144   2.634
 7315SOL    HW122844   0.883   5.057   2.588
 7315SOL    HW222845   0.841   5.126   2.730
 7316SOL     OW22846   3.027   2.138   6.991
 7316SOL    HW122847   3.079   2.090   6.920
 7316SOL    HW222848   3.066   2.228   7.005
 7317SOL     OW22849   3.650   1.177   1.835
 7317SOL    HW122850   3.618   1.167   1.929
 7317SOL    HW222851   3.704   1.261   1.827
 7318SOL     OW22852   3.602   0.334   1.986
 7318SOL    HW122853   3.509   0.328   2.021
 7318SOL    HW222854   3.646   0.417   2.021
 7319SOL     OW22855   6.698   4.835   0.328
 7319SOL    HW122856   6.785   4.850   0.375
 7319SOL    HW222857   6.657   4.750   0.359
 7320SOL     OW22858   6.980   3.604   1.074
 7320SOL    HW122859   0.034   3.586   1.138
 7320SOL    HW222860   6.940   3.517   1.045
 7321SOL     OW22861   2.362   6.143   6.534
 7321SOL    HW122862   2.312   6.064   6.502
 7321SOL    HW222863   2.318   6.180   6.616
 7322SOL     OW22864   0.490   2.416   2.204
 7322SOL    HW122865   0.558   2.436   2.275
 7322SOL    HW222866   0.528   2.348   2.141
 7323SOL     OW22867   1.131   1.525   1.037
 7323SOL    HW122868   1.058   1.580   0.996
 7323SOL    HW222869   1.138   1.547   1.134
 7324SOL     OW22870   5.851   4.725   3.131
 7324SOL    HW122871   5.924   4.657   3.132
 7324SOL    HW222872   5.889   4.814   3.158
 7325SOL     OW22873   3.830   1.163   6.050
 7325SOL    HW122874   3.891   1.237   6.023
 7325SOL    HW222875   3.735   1.188   6.031
 7326SOL     OW22876   2.677   0.662   0.079
 7326SOL    HW122877   2.750   0.679   0.013
 7326SOL    HW222878   2.612   0.596   0.040
 7327SOL     OW22879   5.935   3.894   3.057
 7327SOL    HW122880   5.920   3.847   3.143
 7327SOL    HW222881   6.006   3.963   3.068
 7328SOL     OW22882   4.122   4.923   5.421
 7328SOL    HW122883   4.117   4.902   5.324
 7328SOL    HW222884   4.090   5.016   5.437
 7329SOL     OW22885   2.550   3.161   0.723
 7329SOL    HW122886   2.633   3.133   0.772
 7329SOL    HW222887   2.570   3.243   0.668
 7330SOL     OW22888   3.673   2.871   1.700
 7330SOL    HW122889   3.610   2.806   1.741
 7330SOL    HW222890   3.627   2.922   1.627
 7331SOL     OW22891   4.145   0.778   1.793
 7331SOL    HW122892   4.164   0.697   1.849
 7331SOL    HW222893   4.047   0.783   1.774
 7332SOL     OW22894   3.133   4.108   0.013
 7332SOL    HW122895   3.217   4.062   0.042
 7332SOL    HW222896   3.055   4.073   0.065
 7333SOL     OW22897   6.608   2.348   1.910
 7333SOL    HW122898   6.666   2.430   1.908
 7333SOL    HW222899   6.562   2.342   1.999
 7334SOL     OW22900   3.218   6.708   5.703
 7334SOL    HW122901   3.157   6.785   5.723
 7334SOL    HW222902   3.164   6.625   5.691
 7335SOL     OW22903   6.633   3.145   2.605
 7335SOL    HW122904   6.635   3.176   2.510
 7335SOL    HW222905   6.539   3.147   2.639
 7336SOL     OW22906   1.561   5.889   1.397
 7336SOL    HW122907   1.516   5.815   1.448
 7336SOL    HW222908   1.574   5.861   1.302
 7337SOL     OW22909   2.201   2.209   2.382
 7337SOL    HW122910   2.293   2.248   2.384
 7337SOL    HW222911   2.140   2.266   2.437
 7338SOL     OW22912   5.434   3.017   1.768
 7338SOL    HW122913   5.375   3.091   1.738
 7338SOL    HW222914   5.382   2.954   1.825
 7339SOL     OW22915   6.448   5.553   4.934
 7339SOL    HW122916   6.348   5.554   4.922
 7339SOL    HW222917   6.470   5.593   5.023
 7340SOL     OW22918   2.489   0.196   0.341
 7340SOL    HW122919   2.519   0.124   0.404
 7340SOL    HW222920   2.434   0.262   0.391
 7341SOL     OW22921   6.993   5.155   4.011
 7341SOL    HW122922   0.067   5.184   4.012
 7341SOL    HW222923   6.943   5.202   4.084
 7342SOL     OW22924   6.504   0.108   0.614
 7342SOL    HW122925   6.544   0.162   0.540
 7342SOL    HW222926   6.426   0.056   0.579
 7343SOL     OW22927   5.800   3.829   2.764
 7343SOL    HW122928   5.775   3.732   2.763
 7343SOL    HW222929   5.863   3.847   2.840
 7344SOL     OW22930   2.168   6.562   0.091
 7344SOL    HW122931   2.208   6.472   0.109
 7344SOL    HW222932   2.229   6.633   0.126
 7345SOL     OW22933   4.451   5.175   5.908
 7345SOL    HW122934   4.410   5.099   5.858
 7345SOL    HW222935   4.446   5.259   5.853
 7346SOL     OW22936   3.796   4.620   1.384
 7346SOL    HW122937   3.763   4.537   1.428
 7346SOL    HW222938   3.719   4.682   1.367
 7347SOL     OW22939   6.035   1.594   2.217
 7347SOL    HW122940   5.973   1.640   2.153
 7347SOL    HW222941   6.098   1.661   2.256
 7348SOL     OW22942   1.740   2.231   3.820
 7348SOL    HW122943   1.780   2.280   3.742
 7348SOL    HW222944   1.681   2.157   3.786
 7349SOL     OW22945   3.587   2.077   0.888
 7349SOL    HW122946   3.632   2.045   0.804
 7349SOL    HW222947   3.504   2.128   0.864
 7350SOL     OW22948   0.967   2.536   2.903
 7350SOL    HW122949   0.956   2.634   2.889
 7350SOL    HW222950   1.065   2.515   2.909
 7351SOL     OW22951   4.368   4.898   6.471
 7351SOL    HW122952   4.443   4.943   6.520
 7351SOL    HW222953   4.328   4.962   6.406
 7352SOL     OW22954   1.252   2.022   2.196
 7352SOL    HW122955   1.182   1.993   2.131
 7352SOL    HW222956   1.213   2.020   2.289
 7353SOL     OW22957   6.237   1.845   4.710
 7353SOL    HW122958   6.311   1.909   4.689
 7353SOL    HW222959   6.150   1.896   4.713
 7354SOL     OW22960   6.551   6.219   5.466
 7354SOL    HW122961   6.494   6.161   5.524
 7354SOL    HW222962   6.499   6.298   5.435
 7355SOL     OW22963   1.180   5.545   1.763
 7355SOL    HW122964   1.166   5.640   1.791
 7355SOL    HW222965   1.239   5.543   1.682
 7356SOL     OW22966   6.327   1.863   6.589
 7356SOL    HW122967   6.361   1.794   6.526
 7356SOL    HW222968   6.388   1.942   6.588
 7357SOL     OW22969   5.306   1.718   6.947
 7357SOL    HW122970   5.317   1.809   6.907
 7357SOL    HW222971   5.373   1.656   6.907
 7358SOL     OW22972   3.488   1.507   3.957
 7358SOL    HW122973   3.510   1.541   3.865
 7358SOL    HW222974   3.393   1.528   3.978
 7359SOL     OW22975   3.830   3.434   2.580
 7359SOL    HW122976   3.776   3.505   2.534
 7359SOL    HW222977   3.856   3.364   2.514
 7360SOL     OW22978   1.218   2.387   5.224
 7360SOL    HW122979   1.179   2.458   5.282
 7360SOL    HW222980   1.172   2.300   5.242
 7361SOL     OW22981   5.098   6.241   1.194
 7361SOL    HW122982   5.024   6.225   1.128
 7361SOL    HW222983   5.087   6.332   1.234
 7362SOL     OW22984   1.680   6.372   5.121
 7362SOL    HW122985   1.649   6.290   5.169
 7362SOL    HW222986   1.614   6.445   5.133
 7363SOL     OW22987   5.369   2.898   6.962
 7363SOL    HW122988   5.427   2.892   0.022
 7363SOL    HW222989   5.300   2.968   6.976
 7364SOL     OW22990   4.215   6.666   1.186
 7364SOL    HW122991   4.274   6.747   1.185
 7364SOL    HW222992   4.263   6.589   1.143
 7365SOL     OW22993   2.799   0.375   2.495
 7365SOL    HW122994   2.782   0.354   2.591
 7365SOL    HW222995   2.714   0.403   2.451
 7366SOL     OW22996   0.226   5.347   6.711
 7366SOL    HW122997   0.234   5.298   6.625
 7366SOL    HW222998   0.187   5.287   6.781
 7367SOL     OW22999   4.840   3.594   1.634
 7367SOL    HW123000   4.807   3.642   1.552
 7367SOL    HW223001   4.933   3.562   1.618
 7368SOL     OW23002   3.070   3.129   4.552
 7368SOL    HW123003   3.018   3.182   4.485
 7368SOL    HW223004   3.015   3.115   4.634
 7369SOL     OW23005   5.252   4.328   0.928
 7369SOL    HW123006   5.168   4.280   0.904
 7369SOL    HW223007   5.288   4.292   1.014
 7370SOL     OW23008   2.471   0.008   0.761
 7370SOL    HW123009   2.538   6.957   0.743
 7370SOL    HW223010   2.509   0.096   0.733
 7371SOL     OW23011   3.005   4.941   4.031
 7371SOL    HW123012   2.964   5.032   4.029
 7371SOL    HW223013   3.104   4.948   4.043
 7372SOL     OW23014   3.805   0.456   5.890
 7372SOL    HW123015   3.891   0.423   5.852
 7372SOL    HW223016   3.735   0.385   5.882
 7373SOL     OW23017   3.644   0.711   3.740
 7373SOL    HW123018   3.637   0.640   3.810
 7373SOL    HW223019   3.622   0.800   3.779
 7374SOL     OW23020   2.035   3.098   6.039
 7374SOL    HW123021   2.002   3.028   6.102
 7374SOL    HW223022   2.041   3.060   5.947
 7375SOL     OW23023   1.528   1.173   4.382
 7375SOL    HW123024   1.499   1.137   4.471
 7375SOL    HW223025   1.449   1.209   4.333
 7376SOL     OW23026   2.764   2.884   0.023
 7376SOL    HW123027   2.702   2.931   6.982
 7376SOL    HW223028   2.787   2.794   7.008
 7377SOL     OW23029   4.783   4.449   1.852
 7377SOL    HW123030   4.786   4.368   1.911
 7377SOL    HW223031   4.804   4.531   1.905
 7378SOL     OW23032   0.429   1.863   4.676
 7378SOL    HW123033   0.527   1.848   4.660
 7378SOL    HW223034   0.400   1.947   4.630
 7379SOL     OW23035   3.717   0.891   1.847
 7379SOL    HW123036   3.800   0.923   1.802
 7379SOL    HW223037   3.667   0.969   1.885
 7380SOL     OW23038   6.742   3.075   5.633
 7380SOL    HW123039   6.752   3.162   5.584
 7380SOL    HW223040   6.831   3.043   5.664
 7381SOL     OW23041   4.764   2.725   2.174
 7381SOL    HW123042   4.755   2.682   2.084
 7381SOL    HW223043   4.723   2.816   2.171
 7382SOL     OW23044   0.464   4.565   4.597
 7382SOL    HW123045   0.377   4.526   4.568
 7382SOL    HW223046   0.539   4.519   4.548
 7383SOL     OW23047   0.307   6.497   2.645
 7383SOL    HW123048   0.364   6.424   2.607
 7383SOL    HW223049   0.257   6.462   2.724
 7384SOL     OW23050   4.961   6.831   2.241
 7384SOL    HW123051   4.928   6.800   2.330
 7384SOL    HW223052   5.047   6.882   2.254
 7385SOL     OW23053   4.612   5.988   1.851
 7385SOL    HW123054   4.651   5.898   1.869
 7385SOL    HW223055   4.679   6.044   1.802
 7386SOL     OW23056   1.153   2.787   5.529
 7386SOL    HW123057   1.074   2.843   5.551
 7386SOL    HW223058   1.191   2.748   5.613
 7387SOL     OW23059   4.709   5.589   3.937
 7387SOL    HW123060   4.759   5.595   4.024
 7387SOL    HW223061   4.642   5.515   3.942
 7388SOL     OW23062   6.587   4.926   4.104
 7388SOL    HW123063   6.657   4.951   4.037
 7388SOL    HW223064   6.624   4.937   4.196
 7389SOL     OW23065   1.405   3.842   6.921
 7389SOL    HW123066   1.353   3.899   6.984
 7389SOL    HW223067   1.412   3.888   6.832
 7390SOL     OW23068   0.102   1.901   6.486
 7390SOL    HW123069   0.165   1.827   6.506
 7390SOL    HW223070   0.080   1.902   6.389
 7391SOL     OW23071   5.847   3.685   5.931
 7391SOL    HW123072   5.770   3.623   5.913
 7391SOL    HW223073   5.839   3.722   6.024
 7392SOL     OW23074   1.526   4.994   4.527
 7392SOL    HW123075   1.542   5.088   4.558
 7392SOL    HW223076   1.494   4.938   4.603
 7393SOL     OW23077   6.157   5.477   2.545
 7393SOL    HW123078   6.188   5.562   2.502
 7393SOL    HW223079   6.128   5.413   2.474
 7394SOL     OW23080   3.976   3.270   6.322
 7394SOL    HW123081   3.912   3.193   6.315
 7394SOL    HW223082   4.069   3.234   6.329
 7395SOL     OW23083   0.624   0.144   6.286
 7395SOL    HW123084   0.685   0.194   6.224
 7395SOL    HW223085   0.537   0.193   6.293
 7396SOL     OW23086   1.268   0.630   5.856
 7396SOL    HW123087   1.287   0.613   5.953
 7396SOL    HW223088   1.190   0.575   5.827
 7397SOL     OW23089   6.474   4.446   4.601
 7397SOL    HW123090   6.489   4.348   4.586
 7397SOL    HW223091   6.505   4.471   4.692
 7398SOL     OW23092   4.577   5.001   4.235
 7398SOL    HW123093   4.662   5.045   4.206
 7398SOL    HW223094   4.600   4.916   4.283
 7399SOL     OW23095   6.256   3.838   6.004
 7399SOL    HW123096   6.263   3.880   6.094
 7399SOL    HW223097   6.289   3.743   6.008
 7400SOL     OW23098   3.118   4.522   6.987
 7400SOL    HW123099   3.068   4.495   6.905
 7400SOL    HW223100   3.090   4.463   0.042
 7401SOL     OW23101   6.980   1.334   4.233
 7401SOL    HW123102   0.038   1.316   4.176
 7401SOL    HW223103   6.920   1.255   4.233
 7402SOL     OW23104   2.196   0.275   4.036
 7402SOL    HW123105   2.234   0.292   4.127
 7402SOL    HW223106   2.221   0.351   3.976
 7403SOL     OW23107   1.907   3.235   3.802
 7403SOL    HW123108   1.911   3.242   3.902
 7403SOL    HW223109   1.929   3.323   3.761
 7404SOL     OW23110   1.431   0.445   1.197
 7404SOL    HW123111   1.459   0.507   1.123
 7404SOL    HW223112   1.500   0.448   1.269
 7405SOL     OW23113   2.259   5.313   5.351
 7405SOL    HW123114   2.212   5.399   5.373
 7405SOL    HW223115   2.345   5.308   5.402
 7406SOL     OW23116   1.690   3.397   2.560
 7406SOL    HW123117   1.590   3.401   2.562
 7406SOL    HW223118   1.719   3.314   2.513
 7407SOL     OW23119   0.630   6.308   4.675
 7407SOL    HW123120   0.549   6.365   4.691
 7407SOL    HW223121   0.693   6.356   4.614
 7408SOL     OW23122   2.050   4.206   5.695
 7408SOL    HW123123   2.129   4.147   5.710
 7408SOL    HW223124   1.973   4.152   5.661
 7409SOL     OW23125   0.982   0.719   5.131
 7409SOL    HW123126   0.933   0.767   5.059
 7409SOL    HW223127   1.049   0.657   5.090
 7410SOL     OW23128   0.510   4.454   1.164
 7410SOL    HW123129   0.426   4.466   1.218
 7410SOL    HW223130   0.511   4.522   1.090
 7411SOL     OW23131   2.786   6.405   4.787
 7411SOL    HW123132   2.788   6.395   4.688
 7411SOL    HW223133   2.843   6.335   4.829
 7412SOL     OW23134   2.051   0.757   0.867
 7412SOL    HW123135   2.123   0.820   0.899
 7412SOL    HW223136   2.080   0.714   0.782
 7413SOL     OW23137   6.575   3.120   4.284
 7413SOL    HW123138   6.622   3.034   4.305
 7413SOL    HW223139   6.477   3.107   4.296
 7414SOL     OW23140   6.842   0.136   2.188
 7414SOL    HW123141   6.756   0.180   2.216
 7414SOL    HW223142   6.828   0.091   2.100
 7415SOL     OW23143   1.876   3.125   2.845
 7415SOL    HW123144   1.969   3.152   2.867
 7415SOL    HW223145   1.870   3.103   2.748
 7416SOL     OW23146   3.783   1.492   4.579
 7416SOL    HW123147   3.775   1.586   4.613
 7416SOL    HW223148   3.830   1.493   4.490
 7417SOL     OW23149   1.574   0.199   5.816
 7417SOL    HW123150   1.522   0.130   5.766
 7417SOL    HW223151   1.653   0.157   5.860
 7418SOL     OW23152   2.391   4.117   1.156
 7418SOL    HW123153   2.296   4.130   1.130
 7418SOL    HW223154   2.424   4.029   1.121
 7419SOL     OW23155   5.463   1.648   4.854
 7419SOL    HW123156   5.459   1.549   4.851
 7419SOL    HW223157   5.555   1.677   4.881
 7420SOL     OW23158   6.539   6.430   1.822
 7420SOL    HW123159   6.590   6.417   1.737
 7420SOL    HW223160   6.442   6.415   1.806
 7421SOL     OW23161   3.837   3.967   1.534
 7421SOL    HW123162   3.739   3.950   1.538
 7421SOL    HW223163   3.854   4.051   1.482
 7422SOL     OW23164   0.185   3.455   0.893
 7422SOL    HW123165   0.220   3.449   0.800
 7422SOL    HW223166   0.206   3.546   0.931
 7423SOL     OW23167   2.045   4.563   6.013
 7423SOL    HW123168   2.024   4.633   6.080
 7423SOL    HW223169   1.988   4.482   6.029
 7424SOL     OW23170   5.739   1.688   4.632
 7424SOL    HW123171   5.772   1.644   4.548
 7424SOL    HW223172   5.683   1.767   4.607
 7425SOL     OW23173   3.690   4.367   6.010
 7425SOL    HW123174   3.593   4.343   6.010
 7425SOL    HW223175   3.705   4.449   5.955
 7426SOL     OW23176   0.400   1.878   6.300
 7426SOL    HW123177   0.433   1.797   6.348
 7426SOL    HW223178   0.314   1.857   6.254
 7427SOL     OW23179   3.370   6.034   4.874
 7427SOL    HW123180   3.417   5.951   4.842
 7427SOL    HW223181   3.309   6.011   4.949
 7428SOL     OW23182   3.883   2.299   5.866
 7428SOL    HW123183   3.883   2.356   5.784
 7428SOL    HW223184   3.966   2.244   5.869
 7429SOL     OW23185   7.003   0.263   2.444
 7429SOL    HW123186   6.965   0.200   2.376
 7429SOL    HW223187   6.974   0.356   2.424
 7430SOL     OW23188   6.771   3.705   4.926
 7430SOL    HW123189   6.795   3.650   4.846
 7430SOL    HW223190   6.712   3.652   4.987
 7431SOL     OW23191   0.731   3.537   2.094
 7431SOL    HW123192   0.830   3.550   2.100
 7431SOL    HW223193   0.690   3.614   2.046
 7432SOL     OW23194   0.715   6.617   3.744
 7432SOL    HW123195   0.663   6.669   3.812
 7432SOL    HW223196   0.751   6.679   3.675
 7433SOL     OW23197   6.328   5.524   1.054
 7433SOL    HW123198   6.323   5.507   0.956
 7433SOL    HW223199   6.253   5.477   1.100
 7434SOL     OW23200   2.219   1.872   6.790
 7434SOL    HW123201   2.225   1.774   6.771
 7434SOL    HW223202   2.307   1.905   6.825
 7435SOL     OW23203   3.571   6.801   6.491
 7435SOL    HW123204   3.535   6.754   6.411
 7435SOL    HW223205   3.603   6.734   6.558
 7436SOL     OW23206   5.886   3.267   6.967
 7436SOL    HW123207   5.957   3.335   6.985
 7436SOL    HW223208   5.864   3.217   0.029
 7437SOL     OW23209   0.323   4.984   6.355
 7437SOL    HW123210   0.261   4.971   6.278
 7437SOL    HW223211   0.343   4.895   6.397
 7438SOL     OW23212   0.592   4.481   2.403
 7438SOL    HW123213   0.588   4.392   2.357
 7438SOL    HW223214   0.547   4.550   2.346
 7439SOL     OW23215   2.355   0.036   4.322
 7439SOL    HW123216   2.256   0.048   4.317
 7439SOL    HW223217   2.399   0.125   4.331
 7440SOL     OW23218   1.338   2.636   4.557
 7440SOL    HW123219   1.293   2.572   4.620
 7440SOL    HW223220   1.430   2.656   4.590
 7441SOL     OW23221   5.007   0.764   4.301
 7441SOL    HW123222   5.012   0.693   4.371
 7441SOL    HW223223   5.060   0.843   4.331
 7442SOL     OW23224   1.030   1.739   6.636
 7442SOL    HW123225   1.076   1.666   6.587
 7442SOL    HW223226   0.933   1.716   6.648
 7443SOL     OW23227   0.280   1.911   6.792
 7443SOL    HW123228   0.240   1.831   6.836
 7443SOL    HW223229   0.351   1.950   6.851
 7444SOL     OW23230   6.818   3.346   6.492
 7444SOL    HW123231   6.751   3.339   6.565
 7444SOL    HW223232   6.772   3.332   6.404
 7445SOL     OW23233   5.240   1.513   1.503
 7445SOL    HW123234   5.250   1.512   1.404
 7445SOL    HW223235   5.197   1.428   1.533
 7446SOL     OW23236   6.609   4.061   0.217
 7446SOL    HW123237   6.590   3.991   0.148
 7446SOL    HW223238   6.695   4.038   0.264
 7447SOL     OW23239   1.941   4.234   0.651
 7447SOL    HW123240   1.895   4.323   0.655
 7447SOL    HW223241   2.038   4.248   0.631
 7448SOL     OW23242   5.466   6.971   5.736
 7448SOL    HW123243   5.418   6.885   5.753
 7448SOL    HW223244   5.454   0.010   5.814
 7449SOL     OW23245   4.902   2.250   1.992
 7449SOL    HW123246   4.953   2.192   1.928
 7449SOL    HW223247   4.808   2.217   1.998
 7450SOL     OW23248   4.519   2.535   2.990
 7450SOL    HW123249   4.481   2.479   3.063
 7450SOL    HW223250   4.470   2.517   2.905
 7451SOL     OW23251   1.746   1.154   4.820
 7451SOL    HW123252   1.668   1.217   4.816
 7451SOL    HW223253   1.761   1.124   4.914
 7452SOL     OW23254   1.716   0.598   4.954
 7452SOL    HW123255   1.815   0.592   4.954
 7452SOL    HW223256   1.682   0.586   5.047
 7453SOL     OW23257   5.691   6.596   4.996
 7453SOL    HW123258   5.686   6.696   4.996
 7453SOL    HW223259   5.741   6.565   4.915
 7454SOL     OW23260   0.758   3.526   1.386
 7454SOL    HW123261   0.835   3.516   1.449
 7454SOL    HW223262   0.785   3.587   1.311
 7455SOL     OW23263   5.485   2.250   0.160
 7455SOL    HW123264   5.568   2.202   0.190
 7455SOL    HW223265   5.416   2.184   0.132
 7456SOL     OW23266   1.526   3.111   4.534
 7456SOL    HW123267   1.436   3.075   4.560
 7456SOL    HW223268   1.524   3.139   4.438
 7457SOL     OW23269   5.465   1.095   5.223
 7457SOL    HW123270   5.519   1.011   5.211
 7457SOL    HW223271   5.456   1.115   5.321
 7458SOL     OW23272   3.070   0.130   0.092
 7458SOL    HW123273   2.995   0.084   0.139
 7458SOL    HW223274   3.153   0.125   0.147
 7459SOL     OW23275   4.872   0.175   5.719
 7459SOL    HW123276   4.965   0.147   5.696
 7459SOL    HW223277   4.814   0.170   5.637
 7460SOL     OW23278   2.157   4.340   0.813
 7460SOL    HW123279   2.088   4.363   0.882
 7460SOL    HW223280   2.201   4.425   0.782
 7461SOL     OW23281   5.444   1.308   5.949
 7461SOL    HW123282   5.527   1.291   6.001
 7461SOL    HW223283   5.423   1.405   5.950
 7462SOL     OW23284   1.999   2.200   1.724
 7462SOL    HW123285   1.949   2.120   1.691
 7462SOL    HW223286   2.019   2.189   1.821
 7463SOL     OW23287   3.504   3.011   1.552
 7463SOL    HW123288   3.418   2.990   1.599
 7463SOL    HW223289   3.529   3.106   1.569
 7464SOL     OW23290   3.926   6.064   0.642
 7464SOL    HW123291   3.827   6.067   0.655
 7464SOL    HW223292   3.949   6.103   0.553
 7465SOL     OW23293   1.985   6.970   1.158
 7465SOL    HW123294   2.015   6.901   1.092
 7465SOL    HW223295   1.993   6.934   1.251
 7466SOL     OW23296   0.198   0.498   6.260
 7466SOL    HW123297   0.277   0.494   6.199
 7466SOL    HW223298   0.191   0.412   6.311
 7467SOL     OW23299   7.017   2.476   1.210
 7467SOL    HW123300   6.999   2.532   1.291
 7467SOL    HW223301   0.010   2.381   1.237
 7468SOL     OW23302   5.177   2.002   2.045
 7468SOL    HW123303   5.140   2.034   1.958
 7468SOL    HW223304   5.111   2.018   2.118
 7469SOL     OW23305   1.238   6.767   6.228
 7469SOL    HW123306   1.288   6.801   6.149
 7469SOL    HW223307   1.289   6.692   6.270
 7470SOL     OW23308   0.899   1.974   2.390
 7470SOL    HW123309   0.837   1.896   2.388
 7470SOL    HW223310   0.897   2.021   2.302
 7471SOL     OW23311   6.452   6.907   4.909
 7471SOL    HW123312   6.499   6.911   4.820
 7471SOL    HW223313   6.493   6.834   4.964
 7472SOL     OW23314   3.678   0.247   4.669
 7472SOL    HW123315   3.617   0.183   4.621
 7472SOL    HW223316   3.673   0.230   4.767
 7473SOL     OW23317   7.002   3.384   4.491
 7473SOL    HW123318   0.006   3.378   4.395
 7473SOL    HW223319   6.942   3.307   4.514
 7474SOL     OW23320   3.250   0.809   4.458
 7474SOL    HW123321   3.199   0.754   4.391
 7474SOL    HW223322   3.301   0.880   4.410
 7475SOL     OW23323   4.385   0.445   2.052
 7475SOL    HW123324   4.432   0.515   2.106
 7475SOL    HW223325   4.441   0.422   1.972
 7476SOL     OW23326   4.598   6.076   4.690
 7476SOL    HW123327   4.524   6.026   4.645
 7476SOL    HW223328   4.670   6.012   4.716
 7477SOL     OW23329   4.050   1.310   4.310
 7477SOL    HW123330   4.142   1.347   4.299
 7477SOL    HW223331   3.994   1.374   4.363
 7478SOL     OW23332   3.091   3.434   6.468
 7478SOL    HW123333   3.033   3.469   6.395
 7478SOL    HW223334   3.061   3.473   6.556
 7479SOL     OW23335   3.987   1.409   0.287
 7479SOL    HW123336   4.040   1.404   0.372
 7479SOL    HW223337   3.900   1.362   0.299
 7480SOL     OW23338   5.590   5.799   1.523
 7480SOL    HW123339   5.515   5.852   1.562
 7480SOL    HW223340   5.643   5.857   1.461
 7481SOL     OW23341   5.084   5.298   0.751
 7481SOL    HW123342   5.011   5.316   0.686
 7481SOL    HW223343   5.165   5.351   0.726
 7482SOL     OW23344   3.902   1.020   2.104
 7482SOL    HW123345   3.828   0.959   2.075
 7482SOL    HW223346   3.987   0.968   2.112
 7483SOL     OW23347   3.433   1.800   4.139
 7483SOL    HW123348   3.480   1.731   4.194
 7483SOL    HW223349   3.367   1.755   4.078
 7484SOL     OW23350   1.582   6.494   1.402
 7484SOL    HW123351   1.489   6.459   1.390
 7484SOL    HW223352   1.628   6.443   1.475
 7485SOL     OW23353   3.068   6.175   6.040
 7485SOL    HW123354   3.133   6.129   6.100
 7485SOL    HW223355   3.063   6.272   6.063
 7486SOL     OW23356   3.198   6.619   5.362
 7486SOL    HW123357   3.213   6.629   5.264
 7486SOL    HW223358   3.177   6.708   5.402
 7487SOL     OW23359   2.666   6.628   3.378
 7487SOL    HW123360   2.577   6.648   3.419
 7487SOL    HW223361   2.669   6.664   3.284
 7488SOL     OW23362   3.046   6.904   5.695
 7488SOL    HW123363   3.105   6.984   5.702
 7488SOL    HW223364   2.970   6.922   5.632
 7489SOL     OW23365   4.688   1.995   4.322
 7489SOL    HW123366   4.638   1.910   4.307
 7489SOL    HW223367   4.642   2.048   4.393
 7490SOL     OW23368   0.308   0.631   0.814
 7490SOL    HW123369   0.402   0.664   0.817
 7490SOL    HW223370   0.306   0.541   0.771
 7491SOL     OW23371   0.130   5.503   6.230
 7491SOL    HW123372   0.058   5.437   6.252
 7491SOL    HW223373   0.141   5.567   6.305
 7492SOL     OW23374   1.572   2.329   5.291
 7492SOL    HW123375   1.630   2.361   5.367
 7492SOL    HW223376   1.506   2.400   5.268
 7493SOL     OW23377   6.110   4.411   6.325
 7493SOL    HW123378   6.017   4.422   6.362
 7493SOL    HW223379   6.173   4.391   6.400
 7494SOL     OW23380   5.618   1.121   2.399
 7494SOL    HW123381   5.690   1.148   2.462
 7494SOL    HW223382   5.539   1.182   2.410
 7495SOL     OW23383   2.090   1.455   0.947
 7495SOL    HW123384   2.042   1.374   0.980
 7495SOL    HW223385   2.029   1.509   0.889
 7496SOL     OW23386   1.371   5.181   5.816
 7496SOL    HW123387   1.322   5.094   5.818
 7496SOL    HW223388   1.305   5.256   5.819
 7497SOL     OW23389   2.512   5.291   2.132
 7497SOL    HW123390   2.474   5.198   2.122
 7497SOL    HW223391   2.505   5.319   2.227
 7498SOL     OW23392   2.881   0.930   4.671
 7498SOL    HW123393   2.862   1.005   4.734
 7498SOL    HW223394   2.979   0.911   4.672
 7499SOL     OW23395   5.695   6.590   3.680
 7499SOL    HW123396   5.652   6.552   3.598
 7499SOL    HW223397   5.794   6.595   3.666
 7500SOL     OW23398   4.022   5.722   2.557
 7500SOL    HW123399   3.977   5.670   2.629
 7500SOL    HW223400   4.110   5.756   2.590
 7501SOL     OW23401   0.784   3.041   4.263
 7501SOL    HW123402   0.823   2.964   4.213
 7501SOL    HW223403   0.694   3.063   4.227
 7502SOL     OW23404   2.030   0.876   5.413
 7502SOL    HW123405   2.017   0.808   5.341
 7502SOL    HW223406   1.951   0.938   5.414
 7503SOL     OW23407   2.686   0.877   6.276
 7503SOL    HW123408   2.777   0.897   6.239
 7503SOL    HW223409   2.692   0.869   6.375
 7504SOL     OW23410   4.226   6.330   3.946
 7504SOL    HW123411   4.302   6.375   3.899
 7504SOL    HW223412   4.151   6.395   3.959
 7505SOL     OW23413   2.494   1.063   5.191
 7505SOL    HW123414   2.520   1.155   5.160
 7505SOL    HW223415   2.399   1.063   5.220
 7506SOL     OW23416   3.722   0.706   2.668
 7506SOL    HW123417   3.649   0.639   2.651
 7506SOL    HW223418   3.696   0.794   2.630
 7507SOL     OW23419   0.641   6.316   6.181
 7507SOL    HW123420   0.633   6.229   6.132
 7507SOL    HW223421   0.731   6.357   6.163
 7508SOL     OW23422   5.433   6.545   2.549
 7508SOL    HW123423   5.467   6.451   2.552
 7508SOL    HW223424   5.507   6.607   2.522
 7509SOL     OW23425   5.519   4.387   0.086
 7509SOL    HW123426   5.450   4.323   0.119
 7509SOL    HW223427   5.602   4.336   0.061
 7510SOL     OW23428   3.119   4.086   4.627
 7510SOL    HW123429   3.192   4.066   4.693
 7510SOL    HW223430   3.035   4.107   4.676
 7511SOL     OW23431   1.372   0.507   2.403
 7511SOL    HW123432   1.365   0.412   2.370
 7511SOL    HW223433   1.317   0.566   2.344
 7512SOL     OW23434   2.691   3.779   1.349
 7512SOL    HW123435   2.670   3.682   1.358
 7512SOL    HW223436   2.627   3.833   1.404
 7513SOL     OW23437   1.327   2.749   6.365
 7513SOL    HW123438   1.360   2.654   6.372
 7513SOL    HW223439   1.394   2.803   6.315
 7514SOL     OW23440   3.176   6.153   1.697
 7514SOL    HW123441   3.107   6.225   1.702
 7514SOL    HW223442   3.231   6.154   1.781
 7515SOL     OW23443   0.387   0.296   2.770
 7515SOL    HW123444   0.333   0.348   2.704
 7515SOL    HW223445   0.462   0.353   2.803
 7516SOL     OW23446   6.857   6.603   3.990
 7516SOL    HW123447   6.913   6.685   4.000
 7516SOL    HW223448   6.865   6.570   3.896
 7517SOL     OW23449   6.688   3.703   1.466
 7517SOL    HW123450   6.603   3.700   1.413
 7517SOL    HW223451   6.715   3.610   1.490
 7518SOL     OW23452   4.022   5.570   3.470
 7518SOL    HW123453   3.955   5.608   3.406
 7518SOL    HW223454   4.004   5.606   3.562
 7519SOL     OW23455   1.364   6.820   4.552
 7519SOL    HW123456   1.388   6.899   4.609
 7519SOL    HW223457   1.305   6.758   4.604
 7520SOL     OW23458   1.601   6.836   2.549
 7520SOL    HW123459   1.654   6.913   2.514
 7520SOL    HW223460   1.569   6.856   2.641
 7521SOL     OW23461   4.566   4.663   5.388
 7521SOL    HW123462   4.649   4.607   5.395
 7521SOL    HW223463   4.489   4.613   5.427
 7522SOL     OW23464   2.443   1.130   6.958
 7522SOL    HW123465   2.520   1.076   6.925
 7522SOL    HW223466   2.395   1.079   0.009
 7523SOL     OW23467   6.274   6.716   5.427
 7523SOL    HW123468   6.231   6.694   5.339
 7523SOL    HW223469   6.203   6.738   5.494
 7524SOL     OW23470   0.007   1.807   5.825
 7524SOL    HW123471   0.060   1.735   5.870
 7524SOL    HW223472   0.049   1.895   5.843
 7525SOL     OW23473   1.829   0.186   0.317
 7525SOL    HW123474   1.890   0.237   0.378
 7525SOL    HW223475   1.867   0.185   0.225
 7526SOL     OW23476   3.424   2.912   4.262
 7526SOL    HW123477   3.464   3.000   4.289
 7526SOL    HW223478   3.332   2.904   4.300
 7527SOL     OW23479   5.004   4.122   2.427
 7527SOL    HW123480   5.094   4.105   2.387
 7527SOL    HW223481   4.952   4.036   2.429
 7528SOL     OW23482   4.603   2.579   0.787
 7528SOL    HW123483   4.634   2.599   0.881
 7528SOL    HW223484   4.541   2.650   0.757
 7529SOL     OW23485   4.238   0.916   4.289
 7529SOL    HW123486   4.161   0.911   4.225
 7529SOL    HW223487   4.313   0.861   4.255
 7530SOL     OW23488   0.126   3.364   2.245
 7530SOL    HW123489   0.109   3.454   2.206
 7530SOL    HW223490   0.198   3.318   2.192
 7531SOL     OW23491   4.238   1.794   3.776
 7531SOL    HW123492   4.326   1.755   3.804
 7531SOL    HW223493   4.254   1.863   3.705
 7532SOL     OW23494   5.212   5.694   1.955
 7532SOL    HW123495   5.142   5.623   1.954
 7532SOL    HW223496   5.193   5.759   2.029
 7533SOL     OW23497   2.393   1.381   3.669
 7533SOL    HW123498   2.362   1.286   3.674
 7533SOL    HW223499   2.462   1.398   3.739
 7534SOL     OW23500   4.027   6.085   5.171
 7534SOL    HW123501   3.933   6.117   5.171
 7534SOL    HW223502   4.029   5.988   5.144
 7535SOL     OW23503   2.211   1.839   5.332
 7535SOL    HW123504   2.230   1.885   5.420
 7535SOL    HW223505   2.175   1.906   5.267
 7536SOL     OW23506   4.861   4.701   5.217
 7536SOL    HW123507   4.809   4.720   5.300
 7536SOL    HW223508   4.928   4.629   5.235
 7537SOL     OW23509   2.192   4.480   4.696
 7537SOL    HW123510   2.122   4.412   4.719
 7537SOL    HW223511   2.185   4.558   4.759
 7538SOL     OW23512   3.519   3.326   2.925
 7538SOL    HW123513   3.558   3.415   2.951
 7538SOL    HW223514   3.574   3.253   2.965
 7539SOL     OW23515   2.072   2.730   5.217
 7539SOL    HW123516   2.166   2.755   5.193
 7539SOL    HW223517   2.073   2.654   5.283
 7540SOL     OW23518   2.924   0.696   6.947
 7540SOL    HW123519   3.003   0.642   6.974
 7540SOL    HW223520   2.955   0.786   6.916
 7541SOL     OW23521   6.342   3.173   5.563
 7541SOL    HW123522   6.381   3.169   5.471
 7541SOL    HW223523   6.243   3.167   5.558
 7542SOL     OW23524   1.087   0.025   5.586
 7542SOL    HW123525   1.015   6.992   5.543
 7542SOL    HW223526   1.112   0.101   5.525
 7543SOL     OW23527   4.213   2.268   0.653
 7543SOL    HW123528   4.276   2.322   0.710
 7543SOL    HW223529   4.171   2.196   0.709
 7544SOL     OW23530   0.417   2.263   2.968
 7544SOL    HW123531   0.498   2.226   2.923
 7544SOL    HW223532   0.371   2.191   3.019
 7545SOL     OW23533   4.829   6.780   2.759
 7545SOL    HW123534   4.765   6.830   2.817
 7545SOL    HW223535   4.782   6.747   2.678
 7546SOL     OW23536   4.785   1.157   0.013
 7546SOL    HW123537   4.836   1.200   0.088
 7546SOL    HW223538   4.782   1.058   0.026
 7547SOL     OW23539   4.259   0.446   0.417
 7547SOL    HW123540   4.252   0.483   0.324
 7547SOL    HW223541   4.265   0.347   0.414
 7548SOL     OW23542   2.155   1.789   0.877
 7548SOL    HW123543   2.083   1.795   0.946
 7548SOL    HW223544   2.219   1.865   0.888
 7549SOL     OW23545   5.806   1.772   2.363
 7549SOL    HW123546   5.762   1.810   2.281
 7549SOL    HW223547   5.845   1.683   2.341
 7550SOL     OW23548   2.055   5.992   2.459
 7550SOL    HW123549   1.966   5.960   2.426
 7550SOL    HW223550   2.122   5.988   2.385
 7551SOL     OW23551   4.601   3.638   0.117
 7551SOL    HW123552   4.664   3.688   0.177
 7551SOL    HW223553   4.577   3.550   0.159
 7552SOL     OW23554   2.652   5.711   4.558
 7552SOL    HW123555   2.578   5.696   4.623
 7552SOL    HW223556   2.613   5.724   4.466
 7553SOL     OW23557   4.110   4.758   6.328
 7553SOL    HW123558   4.204   4.760   6.362
 7553SOL    HW223559   4.077   4.664   6.326
 7554SOL     OW23560   4.827   2.128   0.512
 7554SOL    HW123561   4.770   2.195   0.559
 7554SOL    HW223562   4.917   2.168   0.495
 7555SOL     OW23563   0.722   5.652   5.150
 7555SOL    HW123564   0.803   5.698   5.113
 7555SOL    HW223565   0.683   5.708   5.224
 7556SOL     OW23566   0.556   3.294   5.257
 7556SOL    HW123567   0.520   3.214   5.210
 7556SOL    HW223568   0.549   3.282   5.356
 7557SOL     OW23569   5.411   4.059   6.345
 7557SOL    HW123570   5.375   3.978   6.392
 7557SOL    HW223571   5.355   4.079   6.265
 7558SOL     OW23572   2.272   2.394   3.683
 7558SOL    HW123573   2.191   2.438   3.722
 7558SOL    HW223574   2.353   2.423   3.735
 7559SOL     OW23575   6.399   5.091   1.048
 7559SOL    HW123576   6.431   4.999   1.025
 7559SOL    HW223577   6.470   5.157   1.026
 7560SOL     OW23578   4.758   0.010   0.224
 7560SOL    HW123579   4.796   6.939   0.221
 7560SOL    HW223580   4.811   0.066   0.287
 7561SOL     OW23581   0.730   3.917   0.908
 7561SOL    HW123582   0.735   3.872   0.819
 7561SOL    HW223583   0.783   4.001   0.906
 7562SOL     OW23584   5.699   5.993   4.554
 7562SOL    HW123585   5.640   5.985   4.635
 7562SOL    HW223586   5.711   6.090   4.531
 7563SOL     OW23587   2.683   0.433   1.732
 7563SOL    HW123588   2.653   0.353   1.785
 7563SOL    HW223589   2.618   0.451   1.659
 7564SOL     OW23590   5.373   0.146   3.259
 7564SOL    HW123591   5.430   0.180   3.184
 7564SOL    HW223592   5.310   0.218   3.287
 7565SOL     OW23593   4.902   4.987   6.505
 7565SOL    HW123594   4.874   5.049   6.432
 7565SOL    HW223595   4.984   4.937   6.476
 7566SOL     OW23596   0.362   5.177   3.814
 7566SOL    HW123597   0.329   5.199   3.906
 7566SOL    HW223598   0.300   5.112   3.771
 7567SOL     OW23599   2.514   4.202   6.180
 7567SOL    HW123600   2.425   4.227   6.141
 7567SOL    HW223601   2.582   4.271   6.158
 7568SOL     OW23602   5.828   5.637   3.985
 7568SOL    HW123603   5.798   5.583   3.907
 7568SOL    HW223604   5.797   5.592   4.070
 7569SOL     OW23605   4.275   6.150   6.732
 7569SOL    HW123606   4.241   6.200   6.652
 7569SOL    HW223607   4.308   6.060   6.702
 7570SOL     OW23608   5.505   4.245   4.687
 7570SOL    HW123609   5.509   4.292   4.775
 7570SOL    HW223610   5.410   4.232   4.660
 7571SOL     OW23611   5.182   3.604   2.147
 7571SOL    HW123612   5.097   3.581   2.194
 7571SOL    HW223613   5.173   3.694   2.103
 7572SOL     OW23614   5.238   0.235   3.983
 7572SOL    HW123615   5.169   0.162   3.976
 7572SOL    HW223616   5.195   0.318   4.019
 7573SOL     OW23617   6.768   6.036   4.464
 7573SOL    HW123618   6.771   6.128   4.503
 7573SOL    HW223619   6.699   5.982   4.512
 7574SOL     OW23620   5.888   1.367   3.804
 7574SOL    HW123621   5.905   1.270   3.815
 7574SOL    HW223622   5.949   1.405   3.734
 7575SOL     OW23623   4.229   0.814   6.191
 7575SOL    HW123624   4.319   0.857   6.199
 7575SOL    HW223625   4.214   0.754   6.270
 7576SOL     OW23626   5.632   5.090   0.271
 7576SOL    HW123627   5.663   5.119   0.361
 7576SOL    HW223628   5.572   5.011   0.280
 7577SOL     OW23629   6.506   0.092   4.524
 7577SOL    HW123630   6.555   0.140   4.597
 7577SOL    HW223631   6.422   0.053   4.560
 7578SOL     OW23632   2.048   6.495   4.094
 7578SOL    HW123633   2.015   6.424   4.157
 7578SOL    HW223634   2.113   6.554   4.142
 7579SOL     OW23635   4.239   2.233   2.217
 7579SOL    HW123636   4.203   2.220   2.124
 7579SOL    HW223637   4.293   2.317   2.220
 7580SOL     OW23638   1.179   3.782   2.679
 7580SOL    HW123639   1.254   3.829   2.724
 7580SOL    HW223640   1.113   3.849   2.644
 7581SOL     OW23641   5.189   2.270   0.398
 7581SOL    HW123642   5.222   2.338   0.333
 7581SOL    HW223643   5.103   2.300   0.438
 7582SOL     OW23644   3.742   1.652   0.729
 7582SOL    HW123645   3.689   1.657   0.644
 7582SOL    HW223646   3.837   1.631   0.707
 7583SOL     OW23647   5.978   4.400   2.220
 7583SOL    HW123648   5.910   4.336   2.255
 7583SOL    HW223649   6.065   4.353   2.209
 7584SOL     OW23650   2.640   6.742   1.273
 7584SOL    HW123651   2.643   6.647   1.303
 7584SOL    HW223652   2.653   6.747   1.174
 7585SOL     OW23653   1.029   4.176   6.321
 7585SOL    HW123654   0.945   4.220   6.353
 7585SOL    HW223655   1.045   4.092   6.372
 7586SOL     OW23656   2.495   0.329   2.507
 7586SOL    HW123657   2.512   0.409   2.449
 7586SOL    HW223658   2.400   0.331   2.538
 7587SOL     OW23659   2.204   1.627   6.600
 7587SOL    HW123660   2.275   1.576   6.649
 7587SOL    HW223661   2.246   1.699   6.545
 7588SOL     OW23662   0.875   4.733   2.144
 7588SOL    HW123663   0.819   4.799   2.093
 7588SOL    HW223664   0.837   4.719   2.235
 7589SOL     OW23665   6.051   6.010   0.438
 7589SOL    HW123666   6.030   6.095   0.486
 7589SOL    HW223667   6.110   5.953   0.495
 7590SOL     OW23668   2.645   1.689   5.503
 7590SOL    HW123669   2.632   1.781   5.539
 7590SOL    HW223670   2.742   1.667   5.502
 7591SOL     OW23671   0.267   4.885   0.522
 7591SOL    HW123672   0.292   4.960   0.583
 7591SOL    HW223673   0.235   4.923   0.435
 7592SOL     OW23674   6.961   4.985   0.019
 7592SOL    HW123675   0.020   5.039   7.015
 7592SOL    HW223676   6.976   4.890   7.016
 7593SOL     OW23677   5.402   2.641   7.017
 7593SOL    HW123678   5.406   2.738   6.994
 7593SOL    HW223679   5.469   2.591   6.962
 7594SOL     OW23680   0.667   4.805   3.118
 7594SOL    HW123681   0.742   4.799   3.184
 7594SOL    HW223682   0.696   4.860   3.039
 7595SOL     OW23683   0.254   3.148   6.407
 7595SOL    HW123684   0.229   3.146   6.310
 7595SOL    HW223685   0.242   3.057   6.446
 7596SOL     OW23686   5.148   5.049   2.487
 7596SOL    HW123687   5.133   5.070   2.584
 7596SOL    HW223688   5.070   4.997   2.452
 7597SOL     OW23689   3.285   6.038   1.962
 7597SOL    HW123690   3.346   6.077   2.031
 7597SOL    HW223691   3.332   5.965   1.913
 7598SOL     OW23692   6.447   0.404   2.960
 7598SOL    HW123693   6.522   0.356   3.006
 7598SOL    HW223694   6.396   0.457   3.028
 7599SOL     OW23695   5.466   1.438   3.581
 7599SOL    HW123696   5.396   1.510   3.585
 7599SOL    HW223697   5.424   1.352   3.554
 7600SOL     OW23698   1.205   0.710   2.255
 7600SOL    HW123699   1.276   0.772   2.290
 7600SOL    HW223700   1.209   0.708   2.155
 7601SOL     OW23701   1.852   5.251   3.583
 7601SOL    HW123702   1.850   5.345   3.618
 7601SOL    HW223703   1.843   5.187   3.659
 7602SOL     OW23704   2.420   4.487   4.893
 7602SOL    HW123705   2.506   4.536   4.882
 7602SOL    HW223706   2.361   4.505   4.814
 7603SOL     OW23707   1.407   6.567   6.506
 7603SOL    HW123708   1.345   6.491   6.489
 7603SOL    HW223709   1.498   6.532   6.528
 7604SOL     OW23710   3.390   6.039   3.802
 7604SOL    HW123711   3.405   5.971   3.730
 7604SOL    HW223712   3.464   6.106   3.800
 7605SOL     OW23713   1.307   5.811   0.039
 7605SOL    HW123714   1.222   5.767   0.066
 7605SOL    HW223715   1.295   5.911   0.037
 7606SOL     OW23716   0.493   2.903   2.001
 7606SOL    HW123717   0.486   2.816   2.050
 7606SOL    HW223718   0.519   2.975   2.064
 7607SOL     OW23719   4.348   0.080   0.113
 7607SOL    HW123720   4.426   0.131   0.148
 7607SOL    HW223721   4.289   0.051   0.188
 7608SOL     OW23722   3.304   4.094   3.983
 7608SOL    HW123723   3.403   4.080   3.982
 7608SOL    HW223724   3.263   4.034   4.051
 7609SOL     OW23725   6.734   3.689   3.745
 7609SOL    HW123726   6.766   3.756   3.812
 7609SOL    HW223727   6.762   3.597   3.774
 7610SOL     OW23728   5.887   0.588   1.346
 7610SOL    HW123729   5.969   0.598   1.291
 7610SOL    HW223730   5.807   0.576   1.287
 7611SOL     OW23731   1.079   1.980   0.339
 7611SOL    HW123732   1.178   1.974   0.345
 7611SOL    HW223733   1.053   2.011   0.247
 7612SOL     OW23734   3.639   1.740   4.379
 7612SOL    HW123735   3.712   1.805   4.355
 7612SOL    HW223736   3.556   1.791   4.402
 7613SOL     OW23737   4.848   1.974   1.486
 7613SOL    HW123738   4.907   1.895   1.474
 7613SOL    HW223739   4.767   1.947   1.539
 7614SOL     OW23740   3.854   2.468   1.676
 7614SOL    HW123741   3.943   2.444   1.714
 7614SOL    HW223742   3.782   2.435   1.737
 7615SOL     OW23743   5.233   4.730   6.895
 7615SOL    HW123744   5.272   4.801   6.953
 7615SOL    HW223745   5.277   4.642   6.915
 7616SOL     OW23746   0.695   4.256   4.173
 7616SOL    HW123747   0.598   4.264   4.196
 7616SOL    HW223748   0.750   4.262   4.257
 7617SOL     OW23749   2.956   5.822   3.966
 7617SOL    HW123750   2.973   5.868   3.878
 7617SOL    HW223751   2.948   5.724   3.951
 7618SOL     OW23752   1.274   2.306   6.356
 7618SOL    HW123753   1.226   2.232   6.403
 7618SOL    HW223754   1.212   2.350   6.291
 7619SOL     OW23755   5.638   3.296   5.558
 7619SOL    HW123756   5.566   3.324   5.495
 7619SOL    HW223757   5.598   3.275   5.648
 7620SOL     OW23758   3.840   0.186   1.290
 7620SOL    HW123759   3.826   0.250   1.215
 7620SOL    HW223760   3.791   0.101   1.272
 7621SOL     OW23761   1.049   0.723   0.425
 7621SOL    HW123762   0.956   0.760   0.414
 7621SOL    HW223763   1.073   0.667   0.347
 7622SOL     OW23764   5.497   2.658   1.858
 7622SOL    HW123765   5.495   2.642   1.760
 7622SOL    HW223766   5.583   2.624   1.896
 7623SOL     OW23767   4.615   5.560   6.402
 7623SOL    HW123768   4.632   5.485   6.465
 7623SOL    HW223769   4.576   5.525   6.317
 7624SOL     OW23770   0.582   2.087   3.915
 7624SOL    HW123771   0.582   2.187   3.919
 7624SOL    HW223772   0.653   2.056   3.851
 7625SOL     OW23773   5.311   1.170   0.315
 7625SOL    HW123774   5.228   1.115   0.325
 7625SOL    HW223775   5.306   1.249   0.375
 7626SOL     OW23776   0.015   6.267   4.819
 7626SOL    HW123777   6.955   6.283   4.875
 7626SOL    HW223778   0.093   6.247   4.879
 7627SOL     OW23779   6.063   3.363   0.677
 7627SOL    HW123780   6.053   3.278   0.729
 7627SOL    HW223781   5.977   3.413   0.676
 7628SOL     OW23782   3.100   0.967   1.285
 7628SOL    HW123783   3.051   1.048   1.318
 7628SOL    HW223784   3.037   0.908   1.235
 7629SOL     OW23785   6.350   6.469   2.802
 7629SOL    HW123786   6.385   6.555   2.840
 7629SOL    HW223787   6.416   6.396   2.820
 7630SOL     OW23788   6.131   6.602   2.251
 7630SOL    HW123789   6.183   6.686   2.238
 7630SOL    HW223790   6.188   6.535   2.299
 7631SOL     OW23791   1.092   2.039   5.339
 7631SOL    HW123792   1.055   2.096   5.266
 7631SOL    HW223793   1.188   2.065   5.355
 7632SOL     OW23794   3.844   2.126   1.153
 7632SOL    HW123795   3.750   2.101   1.176
 7632SOL    HW223796   3.845   2.177   1.067
 7633SOL     OW23797   5.422   3.144   0.376
 7633SOL    HW123798   5.333   3.105   0.399
 7633SOL    HW223799   5.469   3.170   0.461
 7634SOL     OW23800   0.986   1.338   2.258
 7634SOL    HW123801   1.014   1.434   2.248
 7634SOL    HW223802   1.063   1.286   2.296
 7635SOL     OW23803   2.592   5.503   5.339
 7635SOL    HW123804   2.633   5.521   5.249
 7635SOL    HW223805   2.648   5.438   5.389
 7636SOL     OW23806   1.135   1.491   3.686
 7636SOL    HW123807   1.223   1.450   3.711
 7636SOL    HW223808   1.064   1.421   3.689
 7637SOL     OW23809   1.856   6.940   3.639
 7637SOL    HW123810   1.933   6.892   3.682
 7637SOL    HW223811   1.774   6.882   3.643
 7638SOL     OW23812   5.661   5.543   1.566
 7638SOL    HW123813   5.721   5.509   1.493
 7638SOL    HW223814   5.655   5.643   1.560
 7639SOL     OW23815   1.485   2.054   6.754
 7639SOL    HW123816   1.478   1.957   6.733
 7639SOL    HW223817   1.516   2.104   6.673
 7640SOL     OW23818   1.925   1.975   0.181
 7640SOL    HW123819   1.951   1.926   0.098
 7640SOL    HW223820   1.994   2.045   0.201
 7641SOL     OW23821   0.935   4.498   1.981
 7641SOL    HW123822   0.925   4.588   2.023
 7641SOL    HW223823   1.022   4.457   2.011
 7642SOL     OW23824   2.880   1.898   2.771
 7642SOL    HW123825   2.904   1.887   2.867
 7642SOL    HW223826   2.780   1.898   2.761
 7643SOL     OW23827   5.005   2.455   3.476
 7643SOL    HW123828   4.931   2.392   3.500
 7643SOL    HW223829   4.967   2.544   3.453
 7644SOL     OW23830   5.999   2.355   2.521
 7644SOL    HW123831   6.049   2.441   2.534
 7644SOL    HW223832   5.951   2.356   2.434
 7645SOL     OW23833   4.929   5.189   6.091
 7645SOL    HW123834   4.908   5.170   6.186
 7645SOL    HW223835   5.021   5.155   6.070
 7646SOL     OW23836   1.749   2.319   2.498
 7646SOL    HW123837   1.755   2.292   2.594
 7646SOL    HW223838   1.678   2.389   2.487
 7647SOL     OW23839   0.826   3.560   1.702
 7647SOL    HW123840   0.916   3.564   1.660
 7647SOL    HW223841   0.768   3.631   1.662
 7648SOL     OW23842   4.429   2.206   3.510
 7648SOL    HW123843   4.438   2.305   3.523
 7648SOL    HW223844   4.491   2.160   3.574
 7649SOL     OW23845   0.690   0.459   2.453
 7649SOL    HW123846   0.719   0.539   2.402
 7649SOL    HW223847   0.606   0.423   2.413
 7650SOL     OW23848   5.974   3.142   2.174
 7650SOL    HW123849   5.952   3.069   2.109
 7650SOL    HW223850   5.894   3.200   2.189
 7651SOL     OW23851   2.095   7.013   6.762
 7651SOL    HW123852   2.171   7.018   6.827
 7651SOL    HW223853   2.089   0.079   6.713
 7652SOL     OW23854   6.520   4.041   4.092
 7652SOL    HW123855   6.599   4.001   4.139
 7652SOL    HW223856   6.486   3.978   4.023
 7653SOL     OW23857   1.919   1.208   0.909
 7653SOL    HW123858   1.869   1.121   0.908
 7653SOL    HW223859   1.894   1.261   0.827
 7654SOL     OW23860   4.713   2.425   3.161
 7654SOL    HW123861   4.637   2.408   3.224
 7654SOL    HW223862   4.684   2.488   3.090
 7655SOL     OW23863   3.878   0.301   3.793
 7655SOL    HW123864   3.838   0.346   3.712
 7655SOL    HW223865   3.907   0.209   3.768
 7656SOL     OW23866   0.673   5.917   6.185
 7656SOL    HW123867   0.721   5.831   6.168
 7656SOL    HW223868   0.609   5.935   6.110
 7657SOL     OW23869   3.197   2.145   2.812
 7657SOL    HW123870   3.114   2.144   2.756
 7657SOL    HW223871   3.276   2.132   2.753
 7658SOL     OW23872   4.508   0.070   5.932
 7658SOL    HW123873   4.525   0.121   6.017
 7658SOL    HW223874   4.438   0.000   5.949
 7659SOL     OW23875   5.589   6.838   0.079
 7659SOL    HW123876   5.497   6.868   0.051
 7659SOL    HW223877   5.590   6.739   0.088
 7660SOL     OW23878   6.103   5.690   4.109
 7660SOL    HW123879   6.173   5.751   4.072
 7660SOL    HW223880   6.024   5.689   4.048
 7661SOL     OW23881   6.108   2.118   4.692
 7661SOL    HW123882   6.059   2.194   4.734
 7661SOL    HW223883   6.044   2.061   4.639
 7662SOL     OW23884   1.721   2.683   1.965
 7662SOL    HW123885   1.746   2.679   2.062
 7662SOL    HW223886   1.731   2.592   1.924
 7663SOL     OW23887   6.856   5.811   6.540
 7663SOL    HW123888   6.820   5.892   6.493
 7663SOL    HW223889   6.799   5.732   6.517
 7664SOL     OW23890   3.258   6.631   2.791
 7664SOL    HW123891   3.230   6.681   2.709
 7664SOL    HW223892   3.231   6.682   2.873
 7665SOL     OW23893   3.339   6.917   3.435
 7665SOL    HW123894   3.294   6.994   3.481
 7665SOL    HW223895   3.433   6.910   3.466
 7666SOL     OW23896   6.897   0.114   1.463
 7666SOL    HW123897   6.842   0.190   1.427
 7666SOL    HW223898   6.980   0.105   1.408
 7667SOL     OW23899   5.396   5.716   0.625
 7667SOL    HW123900   5.486   5.688   0.660
 7667SOL    HW223901   5.387   5.689   0.529
 7668SOL     OW23902   3.295   3.872   1.490
 7668SOL    HW123903   3.384   3.851   1.531
 7668SOL    HW223904   3.256   3.788   1.452
 7669SOL     OW23905   5.279   1.246   4.712
 7669SOL    HW123906   5.300   1.311   4.786
 7669SOL    HW223907   5.262   1.297   4.627
 7670SOL     OW23908   1.334   6.042   6.544
 7670SOL    HW123909   1.297   6.122   6.498
 7670SOL    HW223910   1.422   6.065   6.585
 7671SOL     OW23911   4.522   1.290   4.222
 7671SOL    HW123912   4.522   1.235   4.306
 7671SOL    HW223913   4.531   1.387   4.246
 7672SOL     OW23914   6.058   0.037   3.472
 7672SOL    HW123915   6.071   7.008   3.387
 7672SOL    HW223916   6.114   7.018   3.545
 7673SOL     OW23917   2.112   5.099   0.592
 7673SOL    HW123918   2.129   5.053   0.504
 7673SOL    HW223919   2.106   5.198   0.577
 7674SOL     OW23920   6.633   1.910   4.092
 7674SOL    HW123921   6.575   1.832   4.067
 7674SOL    HW223922   6.703   1.881   4.156
 7675SOL     OW23923   4.937   0.444   2.120
 7675SOL    HW123924   5.024   0.490   2.101
 7675SOL    HW223925   4.928   0.430   2.219
 7676SOL     OW23926   0.486   1.880   6.588
 7676SOL    HW123927   0.396   1.916   6.613
 7676SOL    HW223928   0.533   1.947   6.530
 7677SOL     OW23929   1.606   2.884   1.815
 7677SOL    HW123930   1.567   2.947   1.882
 7677SOL    HW223931   1.628   2.797   1.860
 7678SOL     OW23932   1.211   1.105   6.208
 7678SOL    HW123933   1.160   1.130   6.126
 7678SOL    HW223934   1.256   1.017   6.193
 7679SOL     OW23935   1.385   5.856   4.972
 7679SOL    HW123936   1.468   5.904   4.942
 7679SOL    HW223937   1.375   5.867   5.071
 7680SOL     OW23938   2.274   3.138   6.791
 7680SOL    HW123939   2.348   3.180   6.738
 7680SOL    HW223940   2.291   3.040   6.800
 7681SOL     OW23941   3.316   0.106   0.221
 7681SOL    HW123942   3.348   0.196   0.189
 7681SOL    HW223943   3.389   0.060   0.270
 7682SOL     OW23944   2.090   6.857   1.389
 7682SOL    HW123945   2.059   6.770   1.351
 7682SOL    HW223946   2.121   6.843   1.483
 7683SOL     OW23947   6.753   2.634   3.191
 7683SOL    HW123948   6.788   2.708   3.249
 7683SOL    HW223949   6.806   2.630   3.106
 7684SOL     OW23950   5.815   2.474   6.773
 7684SOL    HW123951   5.849   2.495   6.681
 7684SOL    HW223952   5.854   2.388   6.805
 7685SOL     OW23953   3.786   2.281   7.014
 7685SOL    HW123954   3.843   2.287   0.074
 7685SOL    HW223955   3.733   2.366   7.004
 7686SOL     OW23956   4.256   0.435   3.117
 7686SOL    HW123957   4.317   0.358   3.135
 7686SOL    HW223958   4.266   0.503   3.189
 7687SOL     OW23959   5.620   5.935   5.886
 7687SOL    HW123960   5.621   6.028   5.850
 7687SOL    HW223961   5.709   5.893   5.872
 7688SOL     OW23962   6.752   6.745   6.460
 7688SOL    HW123963   6.717   6.803   6.534
 7688SOL    HW223964   6.835   6.786   6.422
 7689SOL     OW23965   4.816   5.908   3.925
 7689SOL    HW123966   4.904   5.872   3.894
 7689SOL    HW223967   4.755   5.919   3.847
 7690SOL     OW23968   5.939   5.461   2.756
 7690SOL    HW123969   6.030   5.439   2.720
 7690SOL    HW223970   5.874   5.391   2.726
 7691SOL     OW23971   4.802   3.034   4.046
 7691SOL    HW123972   4.759   2.953   4.085
 7691SOL    HW223973   4.788   3.112   4.107
 7692SOL     OW23974   0.736   6.907   1.241
 7692SOL    HW123975   0.779   6.990   1.205
 7692SOL    HW223976   0.716   6.920   1.338
 7693SOL     OW23977   4.454   1.050   6.922
 7693SOL    HW123978   4.486   0.962   6.956
 7693SOL    HW223979   4.357   1.060   6.941
 7694SOL     OW23980   0.972   4.344   3.687
 7694SOL    HW123981   1.003   4.327   3.781
 7694SOL    HW223982   0.913   4.424   3.685
 7695SOL     OW23983   4.100   0.309   0.971
 7695SOL    HW123984   4.183   0.284   1.020
 7695SOL    HW223985   4.123   0.329   0.876
 7696SOL     OW23986   6.903   2.165   4.249
 7696SOL    HW123987   6.901   2.066   4.243
 7696SOL    HW223988   6.896   2.205   4.158
 7697SOL     OW23989   2.601   1.061   3.072
 7697SOL    HW123990   2.695   1.094   3.064
 7697SOL    HW223991   2.552   1.078   2.986
 7698SOL     OW23992   0.270   3.186   4.241
 7698SOL    HW123993   0.262   3.274   4.193
 7698SOL    HW223994   0.273   3.203   4.339
 7699SOL     OW23995   2.632   5.640   6.864
 7699SOL    HW123996   2.727   5.642   6.832
 7699SOL    HW223997   2.602   5.733   6.884
 7700SOL     OW23998   4.692   6.621   5.487
 7700SOL    HW123999   4.610   6.676   5.503
 7700SOL    HW224000   4.772   6.680   5.485
 7701SOL     OW24001   6.372   1.491   6.365
 7701SOL    HW124002   6.280   1.454   6.350
 7701SOL    HW224003   6.438   1.416   6.371
 7702SOL     OW24004   4.077   6.300   6.158
 7702SOL    HW124005   4.172   6.326   6.138
 7702SOL    HW224006   4.044   6.352   6.236
 7703SOL     OW24007   6.519   1.377   5.142
 7703SOL    HW124008   6.576   1.413   5.216
 7703SOL    HW224009   6.491   1.453   5.083
 7704SOL     OW24010   4.194   4.774   6.059
 7704SOL    HW124011   4.286   4.811   6.074
 7704SOL    HW224012   4.145   4.771   6.146
 7705SOL     OW24013   3.347   4.525   5.436
 7705SOL    HW124014   3.270   4.570   5.392
 7705SOL    HW224015   3.394   4.589   5.495
 7706SOL     OW24016   5.641   0.941   5.643
 7706SOL    HW124017   5.740   0.948   5.660
 7706SOL    HW224018   5.591   0.987   5.717
 7707SOL     OW24019   0.218   5.705   6.466
 7707SOL    HW124020   0.307   5.726   6.425
 7707SOL    HW224021   0.231   5.666   6.557
 7708SOL     OW24022   5.031   6.131   5.227
 7708SOL    HW124023   5.005   6.226   5.213
 7708SOL    HW224024   4.956   6.081   5.271
 7709SOL     OW24025   5.287   2.948   2.428
 7709SOL    HW124026   5.253   2.921   2.518
 7709SOL    HW224027   5.224   2.917   2.357
 7710SOL     OW24028   2.163   0.371   0.887
 7710SOL    HW124029   2.064   0.353   0.883
 7710SOL    HW224030   2.194   0.367   0.982
 7711SOL     OW24031   6.400   6.477   5.400
 7711SOL    HW124032   6.377   6.570   5.428
 7711SOL    HW224033   6.358   6.457   5.311
 7712SOL     OW24034   6.772   5.509   1.462
 7712SOL    HW124035   6.701   5.540   1.398
 7712SOL    HW224036   6.859   5.554   1.439
 7713SOL     OW24037   2.158   3.799   0.858
 7713SOL    HW124038   2.106   3.854   0.792
 7713SOL    HW224039   2.209   3.860   0.919
 7714SOL     OW24040   6.266   4.808   4.623
 7714SOL    HW124041   6.303   4.786   4.714
 7714SOL    HW224042   6.332   4.865   4.573
 7715SOL     OW24043   5.257   1.056   1.077
 7715SOL    HW124044   5.275   1.021   1.169
 7715SOL    HW224045   5.160   1.048   1.057
 7716SOL     OW24046   4.803   2.935   3.354
 7716SOL    HW124047   4.809   3.006   3.424
 7716SOL    HW224048   4.808   2.977   3.263
 7717SOL     OW24049   2.466   1.577   4.962
 7717SOL    HW124050   2.533   1.647   4.936
 7717SOL    HW224051   2.418   1.607   5.045
 7718SOL     OW24052   1.880   1.610   3.422
 7718SOL    HW124053   1.829   1.576   3.501
 7718SOL    HW224054   1.947   1.677   3.452
 7719SOL     OW24055   6.800   3.110   3.760
 7719SOL    HW124056   6.823   3.130   3.665
 7719SOL    HW224057   6.701   3.107   3.771
 7720SOL     OW24058   6.722   6.595   0.813
 7720SOL    HW124059   6.706   6.675   0.871
 7720SOL    HW224060   6.747   6.624   0.721
 7721SOL     OW24061   2.013   4.714   3.005
 7721SOL    HW124062   1.974   4.686   2.917
 7721SOL    HW224063   2.099   4.665   3.020
 7722SOL     OW24064   0.339   5.161   2.600
 7722SOL    HW124065   0.386   5.082   2.562
 7722SOL    HW224066   0.396   5.242   2.589
 7723SOL     OW24067   6.689   3.832   0.782
 7723SOL    HW124068   6.773   3.815   0.834
 7723SOL    HW224069   6.704   3.809   0.686
 7724SOL     OW24070   2.295   4.674   2.273
 7724SOL    HW124071   2.365   4.640   2.210
 7724SOL    HW224072   2.237   4.740   2.225
 7725SOL     OW24073   5.022   2.229   2.717
 7725SOL    HW124074   4.950   2.260   2.655
 7725SOL    HW224075   4.994   2.244   2.812
 7726SOL     OW24076   0.391   4.325   3.922
 7726SOL    HW124077   0.396   4.275   3.835
 7726SOL    HW224078   0.351   4.415   3.907
 7727SOL     OW24079   6.087   1.816   3.958
 7727SOL    HW124080   6.161   1.852   4.014
 7727SOL    HW224081   6.116   1.731   3.915
 7728SOL     OW24082   1.168   3.159   2.904
 7728SOL    HW124083   1.083   3.119   2.936
 7728SOL    HW224084   1.152   3.207   2.818
 7729SOL     OW24085   6.011   2.589   1.325
 7729SOL    HW124086   5.933   2.526   1.328
 7729SOL    HW224087   6.089   2.549   1.373
 7730SOL     OW24088   5.763   5.802   2.185
 7730SOL    HW124089   5.757   5.706   2.211
 7730SOL    HW224090   5.796   5.809   2.091
 7731SOL     OW24091   6.131   0.942   0.827
 7731SOL    HW124092   6.032   0.934   0.839
 7731SOL    HW224093   6.158   1.038   0.826
 7732SOL     OW24094   4.583   5.879   0.721
 7732SOL    HW124095   4.517   5.822   0.672
 7732SOL    HW224096   4.572   5.867   0.820
 7733SOL     OW24097   4.137   6.870   1.411
 7733SOL    HW124098   4.221   6.892   1.461
 7733SOL    HW224099   4.159   6.811   1.333
 7734SOL     OW24100   1.387   3.404   3.240
 7734SOL    HW124101   1.421   3.468   3.172
 7734SOL    HW224102   1.338   3.454   3.311
 7735SOL     OW24103   4.620   4.725   6.779
 7735SOL    HW124104   4.545   4.710   6.843
 7735SOL    HW224105   4.611   4.663   6.701
 7736SOL     OW24106   5.429   4.695   0.650
 7736SOL    HW124107   5.375   4.618   0.685
 7736SOL    HW224108   5.522   4.689   0.684
 7737SOL     OW24109   4.442   1.789   0.821
 7737SOL    HW124110   4.424   1.887   0.817
 7737SOL    HW224111   4.436   1.750   0.729
 7738SOL     OW24112   2.502   6.075   0.835
 7738SOL    HW124113   2.583   6.126   0.805
 7738SOL    HW224114   2.454   6.128   0.905
 7739SOL     OW24115   0.501   2.300   0.889
 7739SOL    HW124116   0.581   2.334   0.938
 7739SOL    HW224117   0.516   2.307   0.791
 7740SOL     OW24118   0.183   0.090   2.873
 7740SOL    HW124119   0.240   0.172   2.864
 7740SOL    HW224120   0.165   0.072   2.970
 7741SOL     OW24121   1.546   5.527   4.652
 7741SOL    HW124122   1.626   5.587   4.658
 7741SOL    HW224123   1.491   5.538   4.734
 7742SOL     OW24124   6.511   1.776   3.122
 7742SOL    HW124125   6.429   1.791   3.067
 7742SOL    HW224126   6.589   1.821   3.078
 7743SOL     OW24127   4.463   3.093   5.784
 7743SOL    HW124128   4.416   3.144   5.712
 7743SOL    HW224129   4.479   2.999   5.754
 7744SOL     OW24130   0.111   6.363   3.959
 7744SOL    HW124131   0.189   6.309   3.926
 7744SOL    HW224132   0.089   6.336   4.052
 7745SOL     OW24133   3.803   2.262   6.349
 7745SOL    HW124134   3.845   2.259   6.439
 7745SOL    HW224135   3.874   2.260   6.279
 7746SOL     OW24136   1.912   0.166   0.078
 7746SOL    HW124137   1.855   0.085   0.064
 7746SOL    HW224138   1.895   0.232   0.005
 7747SOL     OW24139   4.865   6.440   0.769
 7747SOL    HW124140   4.953   6.412   0.733
 7747SOL    HW224141   4.879   6.498   0.849
 7748SOL     OW24142   3.262   3.746   5.858
 7748SOL    HW124143   3.207   3.826   5.835
 7748SOL    HW224144   3.271   3.688   5.777
 7749SOL     OW24145   4.744   3.109   5.590
 7749SOL    HW124146   4.810   3.135   5.519
 7749SOL    HW224147   4.728   3.186   5.651
 7750SOL     OW24148   0.732   6.242   1.624
 7750SOL    HW124149   0.776   6.244   1.714
 7750SOL    HW224150   0.680   6.326   1.611
 7751SOL     OW24151   1.005   1.664   2.224
 7751SOL    HW124152   0.929   1.719   2.190
 7751SOL    HW224153   1.089   1.718   2.223
 7752SOL     OW24154   4.927   0.486   4.443
 7752SOL    HW124155   4.924   0.465   4.541
 7752SOL    HW224156   4.838   0.467   4.402
 7753SOL     OW24157   2.006   1.417   4.234
 7753SOL    HW124158   1.930   1.436   4.297
 7753SOL    HW224159   2.092   1.446   4.277
 7754SOL     OW24160   3.649   6.124   1.893
 7754SOL    HW124161   3.708   6.107   1.814
 7754SOL    HW224162   3.578   6.190   1.868
 7755SOL     OW24163   1.650   3.948   6.794
 7755SOL    HW124164   1.637   3.887   6.872
 7755SOL    HW224165   1.690   4.035   6.826
 7756SOL     OW24166   2.259   6.057   1.413
 7756SOL    HW124167   2.358   6.065   1.427
 7756SOL    HW224168   2.240   5.979   1.353
 7757SOL     OW24169   0.301   4.687   1.886
 7757SOL    HW124170   0.259   4.778   1.890
 7757SOL    HW224171   0.230   4.618   1.898
 7758SOL     OW24172   1.576   1.078   6.142
 7758SOL    HW124173   1.551   1.115   6.052
 7758SOL    HW224174   1.506   1.014   6.172
 7759SOL     OW24175   2.633   2.371   6.169
 7759SOL    HW124176   2.661   2.439   6.101
 7759SOL    HW224177   2.616   2.283   6.124
 7760SOL     OW24178   4.194   2.050   1.763
 7760SOL    HW124179   4.160   2.097   1.844
 7760SOL    HW224180   4.182   2.109   1.683
 7761SOL     OW24181   5.212   5.488   4.342
 7761SOL    HW124182   5.189   5.583   4.365
 7761SOL    HW224183   5.129   5.432   4.345
 7762SOL     OW24184   6.992   0.208   3.807
 7762SOL    HW124185   6.932   0.199   3.727
 7762SOL    HW224186   0.011   0.299   3.808
 7763SOL     OW24187   2.721   0.550   5.315
 7763SOL    HW124188   2.677   0.632   5.279
 7763SOL    HW224189   2.663   0.508   5.385
 7764SOL     OW24190   3.285   3.852   5.453
 7764SOL    HW124191   3.293   3.946   5.419
 7764SOL    HW224192   3.193   3.838   5.491
 7765SOL     OW24193   6.951   3.172   3.963
 7765SOL    HW124194   0.001   3.105   3.982
 7765SOL    HW224195   6.890   3.137   3.892
 7766SOL     OW24196   0.879   4.659   0.266
 7766SOL    HW124197   0.826   4.574   0.265
 7766SOL    HW224198   0.879   4.697   0.359
 7767SOL     OW24199   3.368   0.387   2.719
 7767SOL    HW124200   3.347   0.329   2.797
 7767SOL    HW224201   3.303   0.369   2.645
 7768SOL     OW24202   4.350   4.894   2.777
 7768SOL    HW124203   4.288   4.955   2.726
 7768SOL    HW224204   4.307   4.804   2.787
 7769SOL     OW24205   3.863   2.081   5.603
 7769SOL    HW124206   3.895   2.175   5.611
 7769SOL    HW224207   3.935   2.018   5.631
 7770SOL     OW24208   1.198   3.116   4.422
 7770SOL    HW124209   1.205   3.146   4.517
 7770SOL    HW224210   1.152   3.028   4.417
 7771SOL     OW24211   3.070   2.735   5.723
 7771SOL    HW124212   3.114   2.650   5.693
 7771SOL    HW224213   3.140   2.798   5.759
 7772SOL     OW24214   5.332   0.972   1.324
 7772SOL    HW124215   5.366   0.887   1.364
 7772SOL    HW224216   5.242   0.993   1.363
 7773SOL     OW24217   3.279   5.765   0.374
 7773SOL    HW124218   3.323   5.707   0.305
 7773SOL    HW224219   3.250   5.708   0.451
 7774SOL     OW24220   5.115   1.682   2.655
 7774SOL    HW124221   5.097   1.767   2.705
 7774SOL    HW224222   5.185   1.629   2.702
 7775SOL     OW24223   3.641   0.942   6.880
 7775SOL    HW124224   3.694   0.861   6.905
 7775SOL    HW224225   3.637   1.005   6.957
 7776SOL     OW24226   1.142   6.516   5.122
 7776SOL    HW124227   1.174   6.532   5.215
 7776SOL    HW224228   1.124   6.603   5.077
 7777SOL     OW24229   5.690   5.055   4.122
 7777SOL    HW124230   5.656   4.961   4.128
 7777SOL    HW224231   5.693   5.084   4.027
 7778SOL     OW24232   6.208   4.199   2.964
 7778SOL    HW124233   6.141   4.186   2.891
 7778SOL    HW224234   6.263   4.280   2.945
 7779SOL     OW24235   3.181   6.324   1.995
 7779SOL    HW124236   3.114   6.364   2.059
 7779SOL    HW224237   3.199   6.230   2.021
 7780SOL     OW24238   6.494   5.649   5.428
 7780SOL    HW124239   6.584   5.625   5.464
 7780SOL    HW224240   6.442   5.566   5.410
 7781SOL     OW24241   1.909   2.845   0.480
 7781SOL    HW124242   1.972   2.890   0.544
 7781SOL    HW224243   1.938   2.864   0.386
 7782SOL     OW24244   6.349   4.851   3.425
 7782SOL    HW124245   6.389   4.934   3.386
 7782SOL    HW224246   6.360   4.775   3.361
 7783SOL     OW24247   0.965   6.989   5.096
 7783SOL    HW124248   0.953   0.064   5.119
 7783SOL    HW224249   0.908   6.966   5.018
 7784SOL     OW24250   2.694   2.402   2.199
 7784SOL    HW124251   2.679   2.339   2.123
 7784SOL    HW224252   2.627   2.477   2.193
 7785SOL     OW24253   1.656   6.138   2.735
 7785SOL    HW124254   1.688   6.051   2.697
 7785SOL    HW224255   1.723   6.209   2.714
 7786SOL     OW24256   4.300   0.530   6.804
 7786SOL    HW124257   4.376   0.594   6.795
 7786SOL    HW224258   4.255   0.544   6.892
 7787SOL     OW24259   2.580   3.165   1.407
 7787SOL    HW124260   2.622   3.148   1.496
 7787SOL    HW224261   2.558   3.078   1.364
 7788SOL     OW24262   1.529   4.716   1.217
 7788SOL    HW124263   1.457   4.651   1.240
 7788SOL    HW224264   1.495   4.809   1.231
 7789SOL     OW24265   3.249   0.662   6.755
 7789SOL    HW124266   3.336   0.692   6.717
 7789SOL    HW224267   3.203   0.602   6.690
 7790SOL     OW24268   5.914   4.812   2.348
 7790SOL    HW124269   5.867   4.830   2.261
 7790SOL    HW224270   6.008   4.784   2.331
 7791SOL     OW24271   2.199   5.661   1.614
 7791SOL    HW124272   2.274   5.596   1.622
 7791SOL    HW224273   2.114   5.613   1.595
 7792SOL     OW24274   0.949   1.525   2.893
 7792SOL    HW124275   0.991   1.437   2.871
 7792SOL    HW224276   0.994   1.565   2.973
 7793SOL     OW24277   4.047   1.596   0.114
 7793SOL    HW124278   4.117   1.666   0.131
 7793SOL    HW224279   4.042   1.534   0.192
 7794SOL     OW24280   1.010   5.527   2.846
 7794SOL    HW124281   1.049   5.615   2.821
 7794SOL    HW224282   1.066   5.453   2.807
 7795SOL     OW24283   2.767   5.425   5.820
 7795SOL    HW124284   2.756   5.413   5.919
 7795SOL    HW224285   2.744   5.339   5.774
 7796SOL     OW24286   3.917   2.966   6.197
 7796SOL    HW124287   3.935   2.867   6.192
 7796SOL    HW224288   3.818   2.982   6.192
 7797SOL     OW24289   0.799   5.449   3.253
 7797SOL    HW124290   0.703   5.446   3.279
 7797SOL    HW224291   0.819   5.535   3.206
 7798SOL     OW24292   0.516   2.086   1.526
 7798SOL    HW124293   0.575   2.143   1.583
 7798SOL    HW224294   0.557   1.996   1.514
 7799SOL     OW24295   2.783   6.386   3.329
 7799SOL    HW124296   2.740   6.469   3.364
 7799SOL    HW224297   2.729   6.350   3.253
 7800SOL     OW24298   0.738   6.066   0.986
 7800SOL    HW124299   0.695   6.156   0.993
 7800SOL    HW224300   0.831   6.070   1.023
 7801SOL     OW24301   1.260   2.663   2.473
 7801SOL    HW124302   1.238   2.581   2.525
 7801SOL    HW224303   1.250   2.744   2.532
 7802SOL     OW24304   6.533   4.125   5.951
 7802SOL    HW124305   6.496   4.188   6.019
 7802SOL    HW224306   6.485   4.139   5.864
 7803SOL     OW24307   5.172   2.378   5.632
 7803SOL    HW124308   5.177   2.278   5.626
 7803SOL    HW224309   5.261   2.417   5.610
 7804SOL     OW24310   2.345   2.168   4.570
 7804SOL    HW124311   2.358   2.070   4.577
 7804SOL    HW224312   2.285   2.200   4.643
 7805SOL     OW24313   5.541   2.594   1.587
 7805SOL    HW124314   5.528   2.650   1.505
 7805SOL    HW224315   5.634   2.560   1.590
 7806SOL     OW24316   6.434   2.120   5.232
 7806SOL    HW124317   6.405   2.049   5.168
 7806SOL    HW224318   6.517   2.164   5.197
 7807SOL     OW24319   2.287   4.683   5.917
 7807SOL    HW124320   2.299   4.631   5.833
 7807SOL    HW224321   2.217   4.639   5.973
 7808SOL     OW24322   5.053   4.318   2.877
 7808SOL    HW124323   5.074   4.234   2.927
 7808SOL    HW224324   4.954   4.329   2.869
 7809SOL     OW24325   5.127   5.014   3.369
 7809SOL    HW124326   5.113   4.975   3.461
 7809SOL    HW224327   5.168   4.944   3.310
 7810SOL     OW24328   4.375   6.084   4.923
 7810SOL    HW124329   4.433   6.050   4.997
 7810SOL    HW224330   4.330   6.007   4.878
 7811SOL     OW24331   1.272   5.525   2.336
 7811SOL    HW124332   1.340   5.594   2.313
 7811SOL    HW224333   1.314   5.434   2.333
 7812SOL     OW24334   2.523   2.833   5.625
 7812SOL    HW124335   2.621   2.836   5.644
 7812SOL    HW224336   2.476   2.899   5.684
 7813SOL     OW24337   5.848   2.343   1.285
 7813SOL    HW124338   5.787   2.412   1.247
 7813SOL    HW224339   5.812   2.312   1.373
 7814SOL     OW24340   6.417   3.142   2.038
 7814SOL    HW124341   6.377   3.189   1.960
 7814SOL    HW224342   6.353   3.145   2.115
 7815SOL     OW24343   6.111   2.774   5.476
 7815SOL    HW124344   6.080   2.727   5.393
 7815SOL    HW224345   6.034   2.785   5.539
 7816SOL     OW24346   0.511   1.850   5.329
 7816SOL    HW124347   0.547   1.923   5.387
 7816SOL    HW224348   0.452   1.888   5.259
 7817SOL     OW24349   3.293   3.270   6.419
 7817SOL    HW124350   3.300   3.174   6.448
 7817SOL    HW224351   3.202   3.304   6.442
 7818SOL     OW24352   5.389   1.377   2.289
 7818SOL    HW124353   5.474   1.402   2.243
 7818SOL    HW224354   5.385   1.420   2.379
 7819SOL     OW24355   0.876   3.941   4.220
 7819SOL    HW124356   0.944   3.868   4.222
 7819SOL    HW224357   0.796   3.912   4.168
 7820SOL     OW24358   1.380   1.024   5.488
 7820SOL    HW124359   1.331   1.015   5.575
 7820SOL    HW224360   1.340   0.961   5.421
 7821SOL     OW24361   6.101   5.717   0.388
 7821SOL    HW124362   6.034   5.789   0.368
 7821SOL    HW224363   6.088   5.641   0.325
 7822SOL     OW24364   1.333   1.123   4.625
 7822SOL    HW124365   1.264   1.195   4.618
 7822SOL    HW224366   1.355   1.107   4.721
 7823SOL     OW24367   1.333   4.017   6.718
 7823SOL    HW124368   1.341   4.091   6.785
 7823SOL    HW224369   1.400   4.031   6.645
 7824SOL     OW24370   5.279   2.304   2.551
 7824SOL    HW124371   5.221   2.348   2.620
 7824SOL    HW224372   5.223   2.275   2.474
 7825SOL     OW24373   2.742   3.016   1.575
 7825SOL    HW124374   2.723   2.924   1.541
 7825SOL    HW224375   2.817   3.012   1.641
 7826SOL     OW24376   6.158   1.381   0.237
 7826SOL    HW124377   6.093   1.441   0.285
 7826SOL    HW224378   6.204   1.323   0.303
 7827SOL     OW24379   4.756   5.098   1.603
 7827SOL    HW124380   4.790   5.057   1.687
 7827SOL    HW224381   4.668   5.058   1.579
 7828SOL     OW24382   0.763   6.419   0.432
 7828SOL    HW124383   0.749   6.454   0.340
 7828SOL    HW224384   0.857   6.434   0.460
 7829SOL     OW24385   2.922   2.961   1.827
 7829SOL    HW124386   2.913   2.865   1.802
 7829SOL    HW224387   2.965   2.969   1.917
 7830SOL     OW24388   6.199   3.309   6.606
 7830SOL    HW124389   6.228   3.307   6.702
 7830SOL    HW224390   6.108   3.268   6.598
 7831SOL     OW24391   1.298   3.322   0.665
 7831SOL    HW124392   1.256   3.343   0.753
 7831SOL    HW224393   1.301   3.405   0.609
 7832SOL     OW24394   2.628   1.867   5.174
 7832SOL    HW124395   2.613   1.878   5.272
 7832SOL    HW224396   2.680   1.783   5.158
 7833SOL     OW24397   0.790   6.750   0.348
 7833SOL    HW124398   0.771   6.663   0.301
 7833SOL    HW224399   0.704   6.796   0.370
 7834SOL     OW24400   0.600   0.772   2.026
 7834SOL    HW124401   0.564   0.814   1.943
 7834SOL    HW224402   0.700   0.770   2.022
 7835SOL     OW24403   2.219   3.005   4.779
 7835SOL    HW124404   2.120   3.003   4.793
 7835SOL    HW224405   2.265   3.006   4.868
 7836SOL     OW24406   3.229   6.819   6.588
 7836SOL    HW124407   3.310   6.871   6.562
 7836SOL    HW224408   3.245   6.722   6.571
 7837SOL     OW24409   6.243   6.467   2.460
 7837SOL    HW124410   6.173   6.404   2.495
 7837SOL    HW224411   6.333   6.440   2.495
 7838SOL     OW24412   4.177   7.012   4.572
 7838SOL    HW124413   4.095   0.028   4.616
 7838SOL    HW224414   4.155   6.924   4.530
 7839SOL     OW24415   5.984   4.558   4.780
 7839SOL    HW124416   5.995   4.620   4.703
 7839SOL    HW224417   5.895   4.513   4.774
 7840SOL     OW24418   4.999   2.763   4.081
 7840SOL    HW124419   4.979   2.855   4.114
 7840SOL    HW224420   4.973   2.696   4.151
 7841SOL     OW24421   6.957   2.283   6.673
 7841SOL    HW124422   0.024   2.260   6.713
 7841SOL    HW224423   6.921   2.204   6.624
 7842SOL     OW24424   2.281   1.630   2.858
 7842SOL    HW124425   2.202   1.675   2.898
 7842SOL    HW224426   2.251   1.567   2.786
 7843SOL     OW24427   5.795   4.296   1.394
 7843SOL    HW124428   5.882   4.323   1.435
 7843SOL    HW224429   5.749   4.377   1.357
 7844SOL     OW24430   4.190   0.806   3.464
 7844SOL    HW124431   4.221   0.896   3.433
 7844SOL    HW224432   4.091   0.807   3.476
 7845SOL     OW24433   6.572   0.967   4.217
 7845SOL    HW124434   6.515   0.955   4.298
 7845SOL    HW224435   6.662   0.926   4.233
 7846SOL     OW24436   2.176   0.565   1.592
 7846SOL    HW124437   2.229   0.566   1.677
 7846SOL    HW224438   2.162   0.659   1.560
 7847SOL     OW24439   0.354   0.400   0.626
 7847SOL    HW124440   0.268   0.416   0.578
 7847SOL    HW224441   0.390   0.310   0.601
 7848SOL     OW24442   4.075   3.822   1.503
 7848SOL    HW124443   4.058   3.725   1.519
 7848SOL    HW224444   3.990   3.874   1.513
 7849SOL     OW24445   4.981   2.934   4.393
 7849SOL    HW124446   4.956   3.012   4.336
 7849SOL    HW224447   4.917   2.927   4.470
 7850SOL     OW24448   6.907   0.906   5.014
 7850SOL    HW124449   6.819   0.932   5.054
 7850SOL    HW224450   6.903   0.810   4.984
 7851SOL     OW24451   6.031   0.465   0.119
 7851SOL    HW124452   5.969   0.388   0.124
 7851SOL    HW224453   6.060   0.479   0.024
 7852SOL     OW24454   3.093   6.437   6.984
 7852SOL    HW124455   3.157   6.454   6.910
 7852SOL    HW224456   3.030   6.515   6.992
 7853SOL     OW24457   2.844   1.908   0.686
 7853SOL    HW124458   2.873   1.897   0.781
 7853SOL    HW224459   2.922   1.940   0.631
 7854SOL     OW24460   3.366   4.106   2.235
 7854SOL    HW124461   3.368   4.010   2.262
 7854SOL    HW224462   3.373   4.164   2.317
 7855SOL     OW24463   4.298   5.121   6.323
 7855SOL    HW124464   4.321   5.205   6.372
 7855SOL    HW224465   4.216   5.137   6.267
 7856SOL     OW24466   5.859   3.544   5.265
 7856SOL    HW124467   5.952   3.512   5.283
 7856SOL    HW224468   5.829   3.512   5.175
 7857SOL     OW24469   6.076   1.846   5.863
 7857SOL    HW124470   6.049   1.938   5.832
 7857SOL    HW224471   6.001   1.782   5.846
 7858SOL     OW24472   6.494   4.278   3.717
 7858SOL    HW124473   6.433   4.285   3.796
 7858SOL    HW224474   6.561   4.352   3.721
 7859SOL     OW24475   1.197   4.947   5.819
 7859SOL    HW124476   1.098   4.957   5.828
 7859SOL    HW224477   1.218   4.865   5.765
 7860SOL     OW24478   4.115   6.891   1.777
 7860SOL    HW124479   4.138   6.839   1.694
 7860SOL    HW224480   4.138   6.987   1.763
 7861SOL     OW24481   3.958   5.223   1.358
 7861SOL    HW124482   3.952   5.126   1.385
 7861SOL    HW224483   3.870   5.267   1.374
 7862SOL     OW24484   2.980   4.206   1.781
 7862SOL    HW124485   2.920   4.127   1.791
 7862SOL    HW224486   2.930   4.290   1.804
 7863SOL     OW24487   6.652   6.059   2.158
 7863SOL    HW124488   6.618   6.127   2.222
 7863SOL    HW224489   6.723   6.100   2.100
 7864SOL     OW24490   0.563   5.823   5.310
 7864SOL    HW124491   0.506   5.882   5.252
 7864SOL    HW224492   0.625   5.879   5.364
 7865SOL     OW24493   3.738   6.377   3.380
 7865SOL    HW124494   3.791   6.400   3.461
 7865SOL    HW224495   3.768   6.434   3.303
 7866SOL     OW24496   2.778   1.830   3.297
 7866SOL    HW124497   2.785   1.776   3.381
 7866SOL    HW224498   2.842   1.907   3.301
 7867SOL     OW24499   6.512   5.763   2.166
 7867SOL    HW124500   6.564   5.849   2.171
 7867SOL    HW224501   6.567   5.694   2.120
 7868SOL     OW24502   5.132   6.231   0.869
 7868SOL    HW124503   5.126   6.264   0.775
 7868SOL    HW224504   5.054   6.264   0.922
 7869SOL     OW24505   6.945   3.083   2.052
 7869SOL    HW124506   6.862   3.066   1.999
 7869SOL    HW224507   6.979   2.997   2.090
 7870SOL     OW24508   0.066   5.420   3.903
 7870SOL    HW124509   7.011   5.483   3.887
 7870SOL    HW224510   0.152   5.472   3.900
 7871SOL     OW24511   5.933   3.101   3.029
 7871SOL    HW124512   6.024   3.063   3.045
 7871SOL    HW224513   5.875   3.032   2.986
 7872SOL     OW24514   0.334   3.637   3.041
 7872SOL    HW124515   0.430   3.626   3.015
 7872SOL    HW224516   0.329   3.690   3.126
 7873SOL     OW24517   0.041   6.216   6.145
 7873SOL    HW124518   0.088   6.140   6.189
 7873SOL    HW224519   0.029   6.291   6.211
 7874SOL     OW24520   5.958   1.831   0.080
 7874SOL    HW124521   5.861   1.850   0.090
 7874SOL    HW224522   6.001   1.903   0.026
 7875SOL     OW24523   5.106   3.864   6.539
 7875SOL    HW124524   5.036   3.849   6.609
 7875SOL    HW224525   5.146   3.955   6.550
 7876SOL     OW24526   6.834   0.196   4.349
 7876SOL    HW124527   6.773   0.240   4.284
 7876SOL    HW224528   6.788   0.116   4.389
 7877SOL     OW24529   6.665   2.690   2.895
 7877SOL    HW124530   6.662   2.733   2.804
 7877SOL    HW224531   6.759   2.664   2.916
 7878SOL     OW24532   4.592   4.641   2.377
 7878SOL    HW124533   4.596   4.701   2.297
 7878SOL    HW224534   4.498   4.637   2.412
 7879SOL     OW24535   5.047   6.266   3.466
 7879SOL    HW124536   5.088   6.295   3.380
 7879SOL    HW224537   5.086   6.317   3.541
 7880SOL     OW24538   0.519   6.166   6.824
 7880SOL    HW124539   0.424   6.178   6.795
 7880SOL    HW224540   0.576   6.238   6.784
 7881SOL     OW24541   0.081   4.260   5.502
 7881SOL    HW124542   0.106   4.336   5.562
 7881SOL    HW224543   0.066   4.293   5.409
 7882SOL     OW24544   0.599   2.990   2.642
 7882SOL    HW124545   0.602   3.089   2.661
 7882SOL    HW224546   0.679   2.963   2.589
 7883SOL     OW24547   2.783   1.427   2.901
 7883SOL    HW124548   2.820   1.513   2.937
 7883SOL    HW224549   2.735   1.444   2.815
 7884SOL     OW24550   1.682   4.746   3.791
 7884SOL    HW124551   1.737   4.811   3.739
 7884SOL    HW224552   1.588   4.747   3.757
 7885SOL     OW24553   5.803   5.702   2.838
 7885SOL    HW124554   5.827   5.616   2.794
 7885SOL    HW224555   5.848   5.707   2.927
 7886SOL     OW24556   4.935   3.278   1.811
 7886SOL    HW124557   4.838   3.251   1.815
 7886SOL    HW224558   4.986   3.207   1.762
 7887SOL     OW24559   3.975   3.155   6.755
 7887SOL    HW124560   3.917   3.236   6.749
 7887SOL    HW224561   3.922   3.074   6.727
 7888SOL     OW24562   6.196   1.693   4.258
 7888SOL    HW124563   6.222   1.790   4.254
 7888SOL    HW224564   6.275   1.639   4.287
 7889SOL     OW24565   5.892   5.200   0.517
 7889SOL    HW124566   5.908   5.188   0.419
 7889SOL    HW224567   5.909   5.296   0.542
 7890SOL     OW24568   1.302   2.769   4.295
 7890SOL    HW124569   1.381   2.818   4.259
 7890SOL    HW224570   1.313   2.755   4.394
 7891SOL     OW24571   0.187   2.346   3.975
 7891SOL    HW124572   0.193   2.429   4.030
 7891SOL    HW224573   0.230   2.362   3.886
 7892SOL     OW24574   1.726   2.810   5.354
 7892SOL    HW124575   1.801   2.764   5.401
 7892SOL    HW224576   1.736   2.909   5.364
 7893SOL     OW24577   6.095   0.335   1.957
 7893SOL    HW124578   6.035   0.379   2.024
 7893SOL    HW224579   6.116   0.242   1.989
 7894SOL     OW24580   2.360   1.563   6.001
 7894SOL    HW124581   2.277   1.579   5.947
 7894SOL    HW224582   2.335   1.526   6.090
 7895SOL     OW24583   3.666   6.154   3.780
 7895SOL    HW124584   3.697   6.060   3.787
 7895SOL    HW224585   3.632   6.171   3.688
 7896SOL     OW24586   4.112   2.416   1.741
 7896SOL    HW124587   4.130   2.339   1.680
 7896SOL    HW224588   4.198   2.463   1.761
 7897SOL     OW24589   3.882   3.919   6.335
 7897SOL    HW124590   3.878   4.013   6.301
 7897SOL    HW224591   3.906   3.857   6.260
 7898SOL     OW24592   4.999   0.142   4.503
 7898SOL    HW124593   5.015   0.220   4.564
 7898SOL    HW224594   4.957   0.068   4.554
 7899SOL     OW24595   5.103   5.444   1.657
 7899SOL    HW124596   5.102   5.377   1.582
 7899SOL    HW224597   5.190   5.436   1.706
 7900SOL     OW24598   0.650   4.208   0.932
 7900SOL    HW124599   0.666   4.122   0.980
 7900SOL    HW224600   0.658   4.193   0.834
 7901SOL     OW24601   5.652   1.157   6.377
 7901SOL    HW124602   5.614   1.152   6.470
 7901SOL    HW224603   5.617   1.081   6.323
 7902SOL     OW24604   6.923   5.881   2.763
 7902SOL    HW124605   7.001   5.835   2.722
 7902SOL    HW224606   6.929   5.979   2.744
 7903SOL     OW24607   2.836   1.598   4.231
 7903SOL    HW124608   2.816   1.692   4.256
 7903SOL    HW224609   2.787   1.575   4.146
 7904SOL     OW24610   6.090   0.715   2.333
 7904SOL    HW124611   6.011   0.710   2.395
 7904SOL    HW224612   6.090   0.803   2.286
 7905SOL     OW24613   5.671   1.057   0.734
 7905SOL    HW124614   5.582   1.100   0.747
 7905SOL    HW224615   5.700   1.067   0.639
 7906SOL     OW24616   1.594   5.112   1.012
 7906SOL    HW124617   1.632   5.204   1.023
 7906SOL    HW224618   1.560   5.102   0.918
 7907SOL     OW24619   6.269   0.593   2.739
 7907SOL    HW124620   6.321   0.563   2.660
 7907SOL    HW224621   6.296   0.687   2.763
 7908SOL     OW24622   0.486   1.101   6.107
 7908SOL    HW124623   0.538   1.160   6.169
 7908SOL    HW224624   0.532   1.097   6.018
 7909SOL     OW24625   5.289   4.241   2.490
 7909SOL    HW124626   5.262   4.315   2.552
 7909SOL    HW224627   5.301   4.156   2.543
 7910SOL     OW24628   2.038   3.556   0.859
 7910SOL    HW124629   2.074   3.649   0.863
 7910SOL    HW224630   1.962   3.546   0.923
 7911SOL     OW24631   0.945   4.148   0.877
 7911SOL    HW124632   0.929   4.246   0.892
 7911SOL    HW224633   1.043   4.130   0.879
 7912SOL     OW24634   4.956   5.399   0.215
 7912SOL    HW124635   4.957   5.313   0.163
 7912SOL    HW224636   5.050   5.432   0.227
 7913SOL     OW24637   0.864   3.934   0.591
 7913SOL    HW124638   0.827   3.846   0.621
 7913SOL    HW224639   0.811   4.008   0.632
 7914SOL     OW24640   6.562   5.059   5.559
 7914SOL    HW124641   6.643   5.037   5.504
 7914SOL    HW224642   6.519   4.975   5.591
 7915SOL     OW24643   3.819   0.419   2.835
 7915SOL    HW124644   3.914   0.438   2.810
 7915SOL    HW224645   3.785   0.342   2.781
 7916SOL     OW24646   0.777   0.001   4.487
 7916SOL    HW124647   0.874   6.999   4.481
 7916SOL    HW224648   0.754   0.065   4.414
 7917SOL     OW24649   4.046   2.690   0.042
 7917SOL    HW124650   4.040   2.662   6.968
 7917SOL    HW224651   4.116   2.635   0.088
 7918SOL     OW24652   2.058   0.947   4.983
 7918SOL    HW124653   1.998   0.893   4.925
 7918SOL    HW224654   2.046   1.044   4.962
 7919SOL     OW24655   1.452   4.874   3.195
 7919SOL    HW124656   1.406   4.857   3.283
 7919SOL    HW224657   1.551   4.882   3.211
 7920SOL     OW24658   5.045   0.789   1.312
 7920SOL    HW124659   5.038   0.887   1.332
 7920SOL    HW224660   4.998   0.737   1.383
 7921SOL     OW24661   5.068   1.837   1.727
 7921SOL    HW124662   5.001   1.764   1.708
 7921SOL    HW224663   5.157   1.796   1.748
 7922SOL     OW24664   0.996   6.389   6.721
 7922SOL    HW124665   1.084   6.346   6.744
 7922SOL    HW224666   1.012   6.468   6.663
 7923SOL     OW24667   3.927   1.963   6.534
 7923SOL    HW124668   3.902   2.057   6.558
 7923SOL    HW224669   4.021   1.961   6.501
 7924SOL     OW24670   5.910   6.680   1.391
 7924SOL    HW124671   5.852   6.760   1.399
 7924SOL    HW224672   6.004   6.704   1.415
 7925SOL     OW24673   2.991   6.287   0.412
 7925SOL    HW124674   2.907   6.285   0.358
 7925SOL    HW224675   3.018   6.382   0.430
 7926SOL     OW24676   5.803   0.589   6.638
 7926SOL    HW124677   5.833   0.495   6.657
 7926SOL    HW224678   5.708   0.600   6.667
 7927SOL     OW24679   4.907   0.114   2.306
 7927SOL    HW124680   4.926   0.211   2.316
 7927SOL    HW224681   4.943   0.065   2.386
 7928SOL     OW24682   6.831   0.724   3.310
 7928SOL    HW124683   6.887   0.696   3.388
 7928SOL    HW224684   6.783   0.645   3.272
 7929SOL     OW24685   4.660   3.710   6.390
 7929SOL    HW124686   4.639   3.789   6.448
 7929SOL    HW224687   4.577   3.682   6.341
 7930SOL     OW24688   3.953   5.596   5.716
 7930SOL    HW124689   3.995   5.633   5.633
 7930SOL    HW224690   4.021   5.596   5.790
 7931SOL     OW24691   2.344   2.171   0.063
 7931SOL    HW124692   2.439   2.165   0.032
 7931SOL    HW224693   2.314   2.080   0.093
 7932SOL     OW24694   0.219   5.504   0.926
 7932SOL    HW124695   0.197   5.472   1.018
 7932SOL    HW224696   0.143   5.559   0.892
 7933SOL     OW24697   6.329   0.790   5.186
 7933SOL    HW124698   6.303   0.704   5.142
 7933SOL    HW224699   6.403   0.774   5.250
 7934SOL     OW24700   1.581   4.488   0.945
 7934SOL    HW124701   1.585   4.587   0.954
 7934SOL    HW224702   1.657   4.457   0.886
 7935SOL     OW24703   5.305   3.931   2.875
 7935SOL    HW124704   5.351   3.933   2.964
 7935SOL    HW224705   5.210   3.903   2.887
 7936SOL     OW24706   3.830   6.602   3.796
 7936SOL    HW124707   3.824   6.690   3.843
 7936SOL    HW224708   3.759   6.541   3.833
 7937SOL     OW24709   2.528   6.284   5.425
 7937SOL    HW124710   2.470   6.204   5.442
 7937SOL    HW224711   2.489   6.364   5.471
 7938SOL     OW24712   5.306   0.128   5.171
 7938SOL    HW124713   5.401   0.099   5.184
 7938SOL    HW224714   5.269   0.085   5.089
 7939SOL     OW24715   0.897   1.690   5.182
 7939SOL    HW124716   0.867   1.738   5.264
 7939SOL    HW224717   0.883   1.592   5.193
 7940SOL     OW24718   4.267   1.913   2.614
 7940SOL    HW124719   4.255   1.842   2.545
 7940SOL    HW224720   4.333   1.881   2.683
 7941SOL     OW24721   4.499   6.664   2.652
 7941SOL    HW124722   4.542   6.623   2.572
 7941SOL    HW224723   4.434   6.734   2.623
 7942SOL     OW24724   0.750   2.814   2.077
 7942SOL    HW124725   0.686   2.758   2.131
 7942SOL    HW224726   0.705   2.844   1.993
 7943SOL     OW24727   2.087   4.939   5.786
 7943SOL    HW124728   2.136   5.024   5.802
 7943SOL    HW224729   2.152   4.862   5.788
 7944SOL     OW24730   0.569   3.149   0.995
 7944SOL    HW124731   0.532   3.142   1.087
 7944SOL    HW224732   0.554   3.063   0.946
 7945SOL     OW24733   5.984   5.323   3.138
 7945SOL    HW124734   5.999   5.390   3.065
 7945SOL    HW224735   6.071   5.303   3.183
 7946SOL     OW24736   4.068   0.322   5.796
 7946SOL    HW124737   4.062   0.319   5.896
 7946SOL    HW224738   4.025   0.241   5.757
 7947SOL     OW24739   1.847   2.719   5.632
 7947SOL    HW124740   1.793   2.803   5.641
 7947SOL    HW224741   1.881   2.692   5.722
 7948SOL     OW24742   1.491   4.879   2.317
 7948SOL    HW124743   1.488   4.782   2.340
 7948SOL    HW224744   1.485   4.891   2.218
 7949SOL     OW24745   4.966   4.760   6.008
 7949SOL    HW124746   4.895   4.831   5.999
 7949SOL    HW224747   4.980   4.717   5.919
 7950SOL     OW24748   5.591   5.684   5.512
 7950SOL    HW124749   5.579   5.774   5.468
 7950SOL    HW224750   5.581   5.693   5.611
 7951SOL     OW24751   2.865   5.883   2.200
 7951SOL    HW124752   2.907   5.926   2.121
 7951SOL    HW224753   2.927   5.813   2.237
 7952SOL     OW24754   6.196   3.855   7.000
 7952SOL    HW124755   6.179   3.886   0.072
 7952SOL    HW224756   6.109   3.826   6.958
 7953SOL     OW24757   3.874   1.953   0.837
 7953SOL    HW124758   3.856   2.016   0.913
 7953SOL    HW224759   3.971   1.929   0.835
 7954SOL     OW24760   4.054   3.419   6.524
 7954SOL    HW124761   4.150   3.400   6.504
 7954SOL    HW224762   3.997   3.374   6.455
 7955SOL     OW24763   1.830   1.358   6.549
 7955SOL    HW124764   1.853   1.320   6.639
 7955SOL    HW224765   1.732   1.380   6.547
 7956SOL     OW24766   6.346   1.442   1.425
 7956SOL    HW124767   6.352   1.533   1.466
 7956SOL    HW224768   6.251   1.411   1.424
 7957SOL     OW24769   4.433   0.822   5.643
 7957SOL    HW124770   4.442   0.896   5.577
 7957SOL    HW224771   4.424   0.735   5.595
 7958SOL     OW24772   5.712   3.431   6.434
 7958SOL    HW124773   5.691   3.336   6.410
 7958SOL    HW224774   5.738   3.481   6.352
 7959SOL     OW24775   5.085   0.932   6.005
 7959SOL    HW124776   5.131   0.851   6.040
 7959SOL    HW224777   5.134   1.014   6.035
 7960SOL     OW24778   6.729   0.546   6.533
 7960SOL    HW124779   6.635   0.520   6.509
 7960SOL    HW224780   6.775   0.583   6.453
 7961SOL     OW24781   6.513   6.611   6.881
 7961SOL    HW124782   6.543   6.534   6.825
 7961SOL    HW224783   6.441   6.661   6.834
 7962SOL     OW24784   6.835   6.593   6.178
 7962SOL    HW124785   6.816   6.669   6.240
 7962SOL    HW224786   6.752   6.571   6.126
 7963SOL     OW24787   5.962   4.356   4.376
 7963SOL    HW124788   6.006   4.305   4.450
 7963SOL    HW224789   6.011   4.442   4.362
 7964SOL     OW24790   7.006   3.324   1.658
 7964SOL    HW124791   7.006   3.305   1.756
 7964SOL    HW224792   0.076   3.352   1.629
 7965SOL     OW24793   4.699   2.267   0.274
 7965SOL    HW124794   4.687   2.259   0.373
 7965SOL    HW224795   4.629   2.328   0.237
 7966SOL     OW24796   4.192   4.275   5.283
 7966SOL    HW124797   4.157   4.351   5.337
 7966SOL    HW224798   4.269   4.306   5.227
 7967SOL     OW24799   1.724   5.261   2.178
 7967SOL    HW124800   1.651   5.197   2.153
 7967SOL    HW224801   1.783   5.276   2.099
 7968SOL     OW24802   6.589   2.047   4.805
 7968SOL    HW124803   6.504   2.043   4.751
 7968SOL    HW224804   6.665   2.072   4.745
 7969SOL     OW24805   4.665   5.958   0.101
 7969SOL    HW124806   4.686   6.000   0.013
 7969SOL    HW224807   4.749   5.937   0.149
 7970SOL     OW24808   6.380   3.170   2.763
 7970SOL    HW124809   6.429   3.252   2.792
 7970SOL    HW224810   6.383   3.102   2.836
 7971SOL     OW24811   3.307   1.476   1.221
 7971SOL    HW124812   3.306   1.377   1.230
 7971SOL    HW224813   3.377   1.503   1.155
 7972SOL     OW24814   4.051   3.381   2.215
 7972SOL    HW124815   3.968   3.326   2.228
 7972SOL    HW224816   4.127   3.337   2.261
 7973SOL     OW24817   6.232   4.201   3.590
 7973SOL    HW124818   6.314   4.244   3.627
 7973SOL    HW224819   6.205   4.246   3.505
 7974SOL     OW24820   6.224   1.550   5.181
 7974SOL    HW124821   6.124   1.542   5.183
 7974SOL    HW224822   6.256   1.546   5.087
 7975SOL     OW24823   4.264   1.676   0.357
 7975SOL    HW124824   4.299   1.585   0.333
 7975SOL    HW224825   4.262   1.734   0.276
 7976SOL     OW24826   1.714   0.220   6.479
 7976SOL    HW124827   1.755   0.133   6.451
 7976SOL    HW224828   1.783   0.293   6.471
 7977SOL     OW24829   5.703   6.108   3.046
 7977SOL    HW124830   5.796   6.072   3.037
 7977SOL    HW224831   5.672   6.143   2.958
 7978SOL     OW24832   0.363   4.200   1.106
 7978SOL    HW124833   0.297   4.178   1.034
 7978SOL    HW224834   0.352   4.296   1.132
 7979SOL     OW24835   2.118   3.775   4.674
 7979SOL    HW124836   2.134   3.861   4.722
 7979SOL    HW224837   2.174   3.702   4.715
 7980SOL     OW24838   3.552   4.604   5.637
 7980SOL    HW124839   3.599   4.523   5.602
 7980SOL    HW224840   3.539   4.595   5.736
 7981SOL     OW24841   2.104   5.052   3.632
 7981SOL    HW124842   2.077   5.097   3.716
 7981SOL    HW224843   2.114   5.120   3.559
 7982SOL     OW24844   1.161   1.573   5.906
 7982SOL    HW124845   1.229   1.585   5.834
 7982SOL    HW224846   1.071   1.559   5.865
 7983SOL     OW24847   5.060   1.308   1.328
 7983SOL    HW124848   5.129   1.371   1.294
 7983SOL    HW224849   5.052   1.316   1.427
 7984SOL     OW24850   0.580   1.758   1.147
 7984SOL    HW124851   0.488   1.719   1.141
 7984SOL    HW224852   0.600   1.808   1.063
 7985SOL     OW24853   2.103   2.179   5.391
 7985SOL    HW124854   2.020   2.184   5.337
 7985SOL    HW224855   2.171   2.243   5.354
 7986SOL     OW24856   3.424   1.900   4.418
 7986SOL    HW124857   3.406   1.990   4.458
 7986SOL    HW224858   3.394   1.899   4.323
 7987SOL     OW24859   1.441   3.668   0.805
 7987SOL    HW124860   1.514   3.621   0.755
 7987SOL    HW224861   1.409   3.746   0.752
 7988SOL     OW24862   6.621   0.952   1.368
 7988SOL    HW124863   6.685   0.991   1.300
 7988SOL    HW224864   6.558   1.023   1.398
 7989SOL     OW24865   1.592   4.036   0.689
 7989SOL    HW124866   1.591   4.134   0.671
 7989SOL    HW224867   1.498   4.003   0.703
 7990SOL     OW24868   2.430   6.460   5.009
 7990SOL    HW124869   2.453   6.516   5.088
 7990SOL    HW224870   2.473   6.371   5.016
 7991SOL     OW24871   5.443   1.498   4.569
 7991SOL    HW124872   5.436   1.597   4.552
 7991SOL    HW224873   5.517   1.481   4.634
 7992SOL     OW24874   2.382   0.467   0.757
 7992SOL    HW124875   2.420   0.549   0.797
 7992SOL    HW224876   2.294   0.445   0.801
 7993SOL     OW24877   7.012   0.284   1.687
 7993SOL    HW124878   0.042   0.238   1.615
 7993SOL    HW224879   6.919   0.302   1.654
 7994SOL     OW24880   4.888   0.458   3.284
 7994SOL    HW124881   4.832   0.532   3.321
 7994SOL    HW224882   4.854   0.370   3.318
 7995SOL     OW24883   6.594   4.715   2.160
 7995SOL    HW124884   6.553   4.713   2.069
 7995SOL    HW224885   6.522   4.715   2.229
 7996SOL     OW24886   4.068   0.134   3.397
 7996SOL    HW124887   4.107   0.212   3.447
 7996SOL    HW224888   4.087   0.050   3.448
 7997SOL     OW24889   0.787   1.989   6.908
 7997SOL    HW124890   0.875   1.953   6.939
 7997SOL    HW224891   0.714   1.928   6.940
 7998SOL     OW24892   2.464   0.205   0.050
 7998SOL    HW124893   2.560   0.207   0.020
 7998SOL    HW224894   2.461   0.199   0.149
 7999SOL     OW24895   1.314   2.201   5.785
 7999SOL    HW124896   1.246   2.218   5.857
 7999SOL    HW224897   1.334   2.103   5.781
 8000SOL     OW24898   5.868   6.530   6.041
 8000SOL    HW124899   5.900   6.566   6.128
 8000SOL    HW224900   5.946   6.492   5.990
 8001SOL     OW24901   5.130   0.107   0.869
 8001SOL    HW124902   5.096   0.200   0.875
 8001SOL    HW224903   5.164   0.090   0.777
 8002SOL     OW24904   0.552   0.863   5.655
 8002SOL    HW124905   0.461   0.849   5.617
 8002SOL    HW224906   0.571   0.794   5.725
 8003SOL     OW24907   2.047   6.885   2.553
 8003SOL    HW124908   2.020   6.824   2.628
 8003SOL    HW224909   1.969   6.898   2.491
 8004SOL     OW24910   1.721   2.854   3.514
 8004SOL    HW124911   1.704   2.912   3.434
 8004SOL    HW224912   1.635   2.811   3.542
 8005SOL     OW24913   2.794   6.990   4.241
 8005SOL    HW124914   2.779   6.945   4.329
 8005SOL    HW224915   2.890   6.982   4.215
 8006SOL     OW24916   3.786   5.323   4.974
 8006SOL    HW124917   3.841   5.401   4.943
 8006SOL    HW224918   3.846   5.250   5.005
 8007SOL     OW24919   6.367   1.950   6.210
 8007SOL    HW124920   6.435   2.021   6.228
 8007SOL    HW224921   6.280   1.992   6.186
 8008SOL     OW24922   3.799   6.397   0.283
 8008SOL    HW124923   3.885   6.401   0.233
 8008SOL    HW224924   3.727   6.440   0.229
 8009SOL     OW24925   4.940   1.728   1.018
 8009SOL    HW124926   4.892   1.642   1.002
 8009SOL    HW224927   5.029   1.710   1.059
 8010SOL     OW24928   2.727   2.562   5.562
 8010SOL    HW124929   2.769   2.653   5.567
 8010SOL    HW224930   2.644   2.562   5.617
 8011SOL     OW24931   3.531   2.056   1.779
 8011SOL    HW124932   3.572   2.125   1.839
 8011SOL    HW224933   3.575   1.968   1.793
 8012SOL     OW24934   1.004   3.106   5.557
 8012SOL    HW124935   0.970   3.084   5.466
 8012SOL    HW224936   1.052   3.194   5.555
 8013SOL     OW24937   0.934   2.561   3.372
 8013SOL    HW124938   1.020   2.510   3.378
 8013SOL    HW224939   0.904   2.566   3.277
 8014SOL     OW24940   1.875   0.264   3.413
 8014SOL    HW124941   1.789   0.310   3.390
 8014SOL    HW224942   1.949   0.301   3.357
 8015SOL     OW24943   1.449   0.333   6.031
 8015SOL    HW124944   1.526   0.341   6.095
 8015SOL    HW224945   1.483   0.302   5.942
 8016SOL     OW24946   3.867   1.575   5.280
 8016SOL    HW124947   3.932   1.606   5.350
 8016SOL    HW224948   3.790   1.638   5.276
 8017SOL     OW24949   6.670   6.904   0.585
 8017SOL    HW124950   6.622   6.992   0.587
 8017SOL    HW224951   6.731   6.897   0.664
 8018SOL     OW24952   3.810   1.544   0.019
 8018SOL    HW124953   3.745   1.608   0.061
 8018SOL    HW224954   3.903   1.571   0.043
 8019SOL     OW24955   2.944   3.236   0.904
 8019SOL    HW124956   3.010   3.162   0.916
 8019SOL    HW224957   2.942   3.293   0.986
 8020SOL     OW24958   6.132   6.945   5.301
 8020SOL    HW124959   6.147   0.011   5.255
 8020SOL    HW224960   6.122   6.873   5.232
 8021SOL     OW24961   2.232   1.953   2.251
 8021SOL    HW124962   2.225   2.038   2.304
 8021SOL    HW224963   2.271   1.973   2.161
 8022SOL     OW24964   5.884   0.754   2.030
 8022SOL    HW124965   5.877   0.757   1.930
 8022SOL    HW224966   5.941   0.677   2.057
 8023SOL     OW24967   5.499   5.819   3.245
 8023SOL    HW124968   5.406   5.783   3.246
 8023SOL    HW224969   5.545   5.790   3.160
 8024SOL     OW24970   1.551   6.029   6.183
 8024SOL    HW124971   1.604   5.957   6.227
 8024SOL    HW224972   1.455   6.004   6.181
 8025SOL     OW24973   1.859   4.816   1.821
 8025SOL    HW124974   1.932   4.877   1.791
 8025SOL    HW224975   1.872   4.725   1.782
 8026SOL     OW24976   0.285   4.382   0.453
 8026SOL    HW124977   0.353   4.453   0.470
 8026SOL    HW224978   0.234   4.363   0.537
 8027SOL     OW24979   4.208   6.684   5.495
 8027SOL    HW124980   4.183   6.699   5.591
 8027SOL    HW224981   4.188   6.766   5.442
 8028SOL     OW24982   3.386   5.624   4.458
 8028SOL    HW124983   3.441   5.555   4.506
 8028SOL    HW224984   3.421   5.715   4.479
 8029SOL     OW24985   5.451   1.726   1.965
 8029SOL    HW124986   5.384   1.711   2.038
 8029SOL    HW224987   5.463   1.824   1.952
 8030SOL     OW24988   6.196   4.868   0.758
 8030SOL    HW124989   6.161   4.961   0.775
 8030SOL    HW224990   6.142   4.802   0.810
 8031SOL     OW24991   5.693   0.526   3.360
 8031SOL    HW124992   5.693   0.490   3.267
 8031SOL    HW224993   5.680   0.451   3.425
 8032SOL     OW24994   5.216   3.147   1.570
 8032SOL    HW124995   5.253   3.113   1.484
 8032SOL    HW224996   5.136   3.204   1.551
 8033SOL     OW24997   4.034   3.656   0.379
 8033SOL    HW124998   4.025   3.570   0.330
 8033SOL    HW224999   4.122   3.698   0.357
 8034SOL     OW25000   5.689   0.304   5.132
 8034SOL    HW125001   5.619   0.358   5.179
 8034SOL    HW225002   5.705   0.344   5.041
 8035SOL     OW25003   4.570   0.753   2.535
 8035SOL    HW125004   4.497   0.756   2.604
 8035SOL    HW225005   4.544   0.692   2.461
 8036SOL     OW25006   6.662   2.814   3.614
 8036SOL    HW125007   6.754   2.836   3.645
 8036SOL    HW225008   6.643   2.718   3.632
 8037SOL     OW25009   1.367   3.009   6.779
 8037SOL    HW125010   1.362   3.018   6.878
 8037SOL    HW225011   1.340   2.917   6.752
 8038SOL     OW25012   5.770   6.193   2.088
 8038SOL    HW125013   5.865   6.221   2.077
 8038SOL    HW225014   5.710   6.272   2.079
 8039SOL     OW25015   0.304   2.511   5.287
 8039SOL    HW125016   0.380   2.530   5.225
 8039SOL    HW225017   0.331   2.533   5.381
 8040SOL     OW25018   1.538   5.945   5.868
 8040SOL    HW125019   1.563   6.023   5.925
 8040SOL    HW225020   1.501   5.977   5.781
 8041SOL     OW25021   3.090   1.718   3.189
 8041SOL    HW125022   3.115   1.658   3.113
 8041SOL    HW225023   3.167   1.726   3.252
 8042SOL     OW25024   4.373   3.957   5.945
 8042SOL    HW125025   4.444   3.967   5.876
 8042SOL    HW225026   4.417   3.944   6.035
 8043SOL     OW25027   4.895   4.966   1.420
 8043SOL    HW125028   4.967   4.904   1.453
 8043SOL    HW225029   4.859   5.019   1.497
 8044SOL     OW25030   3.930   3.772   1.215
 8044SOL    HW125031   3.994   3.847   1.231
 8044SOL    HW225032   3.849   3.784   1.274
 8045SOL     OW25033   0.218   1.504   2.787
 8045SOL    HW125034   0.220   1.467   2.694
 8045SOL    HW225035   0.287   1.458   2.842
 8046SOL     OW25036   0.296   4.840   2.197
 8046SOL    HW125037   0.369   4.772   2.189
 8046SOL    HW225038   0.329   4.927   2.159
 8047SOL     OW25039   3.899   6.664   6.387
 8047SOL    HW125040   3.982   6.679   6.334
 8047SOL    HW225041   3.825   6.722   6.352
 8048SOL     OW25042   3.566   3.233   0.588
 8048SOL    HW125043   3.574   3.310   0.652
 8048SOL    HW225044   3.543   3.150   0.639
 8049SOL     OW25045   1.395   6.744   0.377
 8049SOL    HW125046   1.431   6.687   0.451
 8049SOL    HW225047   1.300   6.721   0.361
 8050SOL     OW25048   1.520   4.180   4.477
 8050SOL    HW125049   1.537   4.276   4.457
 8050SOL    HW225050   1.592   4.145   4.537
 8051SOL     OW25051   4.882   5.923   4.411
 8051SOL    HW125052   4.971   5.944   4.451
 8051SOL    HW225053   4.848   5.837   4.447
 8052SOL     OW25054   2.286   1.152   2.229
 8052SOL    HW125055   2.366   1.165   2.172
 8052SOL    HW225056   2.205   1.140   2.171
 8053SOL     OW25057   3.128   3.236   6.098
 8053SOL    HW125058   3.136   3.321   6.151
 8053SOL    HW225059   3.059   3.249   6.026
 8054SOL     OW25060   5.832   4.416   5.171
 8054SOL    HW125061   5.809   4.345   5.105
 8054SOL    HW225062   5.867   4.373   5.254
 8055SOL     OW25063   0.430   0.675   4.993
 8055SOL    HW125064   0.401   0.770   5.004
 8055SOL    HW225065   0.461   0.639   5.082
 8056SOL     OW25066   2.586   6.864   4.030
 8056SOL    HW125067   2.588   6.779   4.082
 8056SOL    HW225068   2.680   6.894   4.011
 8057SOL     OW25069   2.447   2.172   1.772
 8057SOL    HW125070   2.470   2.260   1.813
 8057SOL    HW225071   2.373   2.184   1.706
 8058SOL     OW25072   3.212   6.440   3.439
 8058SOL    HW125073   3.248   6.390   3.361
 8058SOL    HW225074   3.226   6.538   3.426
 8059SOL     OW25075   3.010   2.115   5.621
 8059SOL    HW125076   2.973   2.206   5.604
 8059SOL    HW225077   2.944   2.061   5.673
 8060SOL     OW25078   6.873   0.631   6.314
 8060SOL    HW125079   6.926   0.694   6.257
 8060SOL    HW225080   6.890   0.537   6.284
 8061SOL     OW25081   0.300   1.059   2.109
 8061SOL    HW125082   0.362   1.110   2.049
 8061SOL    HW225083   0.299   0.963   2.082
 8062SOL     OW25084   4.115   5.396   4.958
 8062SOL    HW125085   4.115   5.296   4.963
 8062SOL    HW225086   4.208   5.429   4.943
 8063SOL     OW25087   3.309   0.630   2.905
 8063SOL    HW125088   3.283   0.701   2.970
 8063SOL    HW225089   3.408   0.618   2.906
 8064SOL     OW25090   6.430   3.415   0.492
 8064SOL    HW125091   6.522   3.379   0.507
 8064SOL    HW225092   6.409   3.482   0.563
 8065SOL     OW25093   3.645   6.967   4.637
 8065SOL    HW125094   3.653   6.872   4.609
 8065SOL    HW225095   3.585   7.016   4.574
 8066SOL     OW25096   6.548   1.369   4.762
 8066SOL    HW125097   6.563   1.300   4.832
 8066SOL    HW225098   6.623   1.366   4.696
 8067SOL     OW25099   5.096   3.433   3.528
 8067SOL    HW125100   5.114   3.383   3.443
 8067SOL    HW225101   5.172   3.496   3.546
 8068SOL     OW25102   0.411   5.275   1.587
 8068SOL    HW125103   0.380   5.282   1.493
 8068SOL    HW225104   0.507   5.246   1.589
 8069SOL     OW25105   3.025   5.419   2.332
 8069SOL    HW125106   3.045   5.322   2.344
 8069SOL    HW225107   3.035   5.467   2.419
 8070SOL     OW25108   3.992   4.241   0.777
 8070SOL    HW125109   3.963   4.147   0.760
 8070SOL    HW225110   4.080   4.257   0.733
 8071SOL     OW25111   4.355   6.696   5.166
 8071SOL    HW125112   4.401   6.717   5.253
 8071SOL    HW225113   4.271   6.645   5.184
 8072SOL     OW25114   2.652   2.478   0.509
 8072SOL    HW125115   2.719   2.412   0.476
 8072SOL    HW225116   2.572   2.478   0.449
 8073SOL     OW25117   2.960   6.969   6.055
 8073SOL    HW125118   2.994   0.016   5.992
 8073SOL    HW225119   2.918   6.894   6.003
 8074SOL     OW25120   1.725   1.066   0.224
 8074SOL    HW125121   1.636   1.035   0.191
 8074SOL    HW225122   1.757   1.143   0.170
 8075SOL     OW25123   0.743   6.691   6.908
 8075SOL    HW125124   0.837   6.724   6.900
 8075SOL    HW225125   0.687   6.761   6.952
 8076SOL     OW25126   6.923   0.019   6.694
 8076SOL    HW125127   6.874   7.010   6.775
 8076SOL    HW225128   6.954   0.113   6.707
 8077SOL     OW25129   4.061   5.948   1.779
 8077SOL    HW125130   4.097   6.024   1.725
 8077SOL    HW225131   4.130   5.918   1.844
 8078SOL     OW25132   1.261   1.390   0.666
 8078SOL    HW125133   1.321   1.312   0.647
 8078SOL    HW225134   1.166   1.362   0.658
 8079SOL     OW25135   0.273   1.426   4.506
 8079SOL    HW125136   0.311   1.460   4.420
 8079SOL    HW225137   0.341   1.435   4.579
 8080SOL     OW25138   1.139   2.984   2.178
 8080SOL    HW125139   1.107   2.894   2.208
 8080SOL    HW225140   1.160   3.040   2.258
 8081SOL     OW25141   5.927   4.457   5.769
 8081SOL    HW125142   6.023   4.428   5.762
 8081SOL    HW225143   5.885   4.415   5.849
 8082SOL     OW25144   2.699   0.757   2.259
 8082SOL    HW125145   2.796   0.733   2.262
 8082SOL    HW225146   2.688   0.852   2.230
 8083SOL     OW25147   5.563   2.862   4.038
 8083SOL    HW125148   5.561   2.767   4.067
 8083SOL    HW225149   5.491   2.878   3.971
 8084SOL     OW25150   2.381   0.524   5.764
 8084SOL    HW125151   2.357   0.439   5.811
 8084SOL    HW225152   2.481   0.532   5.760
 8085SOL     OW25153   6.688   5.796   2.899
 8085SOL    HW125154   6.753   5.816   2.825
 8085SOL    HW225155   6.718   5.842   2.982
 8086SOL     OW25156   0.118   1.107   1.207
 8086SOL    HW125157   0.034   1.087   1.258
 8086SOL    HW225158   0.147   1.201   1.225
 8087SOL     OW25159   1.226   0.565   6.415
 8087SOL    HW125160   1.158   0.493   6.404
 8087SOL    HW225161   1.314   0.534   6.378
 8088SOL     OW25162   5.481   6.608   6.539
 8088SOL    HW125163   5.538   6.652   6.469
 8088SOL    HW225164   5.410   6.553   6.494
 8089SOL     OW25165   5.705   2.820   6.363
 8089SOL    HW125166   5.783   2.839   6.303
 8089SOL    HW225167   5.702   2.887   6.437
 8090SOL     OW25168   4.221   1.093   6.426
 8090SOL    HW125169   4.165   1.027   6.474
 8090SOL    HW225170   4.170   1.131   6.348
 8091SOL     OW25171   1.545   4.492   4.572
 8091SOL    HW125172   1.514   4.436   4.648
 8091SOL    HW225173   1.470   4.548   4.538
 8092SOL     OW25174   4.569   1.937   5.246
 8092SOL    HW125175   4.666   1.948   5.222
 8092SOL    HW225176   4.529   1.865   5.190
 8093SOL     OW25177   3.209   6.163   2.740
 8093SOL    HW125178   3.221   6.066   2.723
 8093SOL    HW225179   3.119   6.192   2.705
 8094SOL     OW25180   0.794   4.034   5.437
 8094SOL    HW125181   0.850   4.116   5.424
 8094SOL    HW225182   0.703   4.061   5.469
 8095SOL     OW25183   1.085   4.873   4.754
 8095SOL    HW125184   1.000   4.925   4.750
 8095SOL    HW225185   1.067   4.778   4.728
 8096SOL     OW25186   0.669   0.340   2.157
 8096SOL    HW125187   0.751   0.303   2.201
 8096SOL    HW225188   0.697   0.403   2.084
 8097SOL     OW25189   4.186   0.259   5.076
 8097SOL    HW125190   4.089   0.274   5.054
 8097SOL    HW225191   4.213   0.167   5.046
 8098SOL     OW25192   1.432   6.329   4.023
 8098SOL    HW125193   1.461   6.280   3.941
 8098SOL    HW225194   1.509   6.382   4.059
 8099SOL     OW25195   4.383   5.965   4.570
 8099SOL    HW125196   4.289   5.961   4.536
 8099SOL    HW225197   4.417   5.873   4.587
 8100SOL     OW25198   6.023   1.234   5.880
 8100SOL    HW125199   5.973   1.277   5.955
 8100SOL    HW225200   6.007   1.285   5.796
 8101SOL     OW25201   2.199   5.344   0.499
 8101SOL    HW125202   2.289   5.348   0.542
 8101SOL    HW225203   2.199   5.400   0.416
 8102SOL     OW25204   0.897   3.481   4.299
 8102SOL    HW125205   0.948   3.400   4.328
 8102SOL    HW225206   0.954   3.536   4.238
 8103SOL     OW25207   3.434   0.784   1.918
 8103SOL    HW125208   3.488   0.817   1.995
 8103SOL    HW225209   3.487   0.718   1.866
 8104SOL     OW25210   1.973   6.902   5.806
 8104SOL    HW125211   1.999   6.936   5.896
 8104SOL    HW225212   1.928   6.814   5.815
 8105SOL     OW25213   0.187   2.224   2.791
 8105SOL    HW125214   0.225   2.177   2.871
 8105SOL    HW225215   0.117   2.166   2.749
 8106SOL     OW25216   2.442   6.608   3.535
 8106SOL    HW125217   2.501   6.533   3.565
 8106SOL    HW225218   2.457   6.688   3.593
 8107SOL     OW25219   1.127   5.685   4.656
 8107SOL    HW125220   1.112   5.586   4.651
 8107SOL    HW225221   1.044   5.730   4.689
 8108SOL     OW25222   6.648   1.556   6.691
 8108SOL    HW125223   6.550   1.540   6.680
 8108SOL    HW225224   6.664   1.615   6.770
 8109SOL     OW25225   0.243   4.015   6.119
 8109SOL    HW125226   0.306   3.943   6.149
 8109SOL    HW225227   0.295   4.089   6.076
 8110SOL     OW25228   4.227   4.771   1.650
 8110SOL    HW125229   4.164   4.706   1.607
 8110SOL    HW225230   4.307   4.784   1.590
 8111SOL     OW25231   5.421   0.904   3.902
 8111SOL    HW125232   5.405   0.812   3.938
 8111SOL    HW225233   5.407   0.971   3.974
 8112SOL     OW25234   1.028   3.351   4.672
 8112SOL    HW125235   1.119   3.320   4.698
 8112SOL    HW225236   0.971   3.271   4.650
 8113SOL     OW25237   6.170   3.505   1.142
 8113SOL    HW125238   6.246   3.485   1.081
 8113SOL    HW225239   6.124   3.420   1.168
 8114SOL     OW25240   1.308   3.731   1.997
 8114SOL    HW125241   1.268   3.733   1.905
 8114SOL    HW225242   1.354   3.644   2.011
 8115SOL     OW25243   3.043   6.494   6.030
 8115SOL    HW125244   2.991   6.541   6.101
 8115SOL    HW225245   3.140   6.517   6.039
 8116SOL     OW25246   4.219   5.219   0.658
 8116SOL    HW125247   4.189   5.255   0.747
 8116SOL    HW225248   4.306   5.172   0.669
 8117SOL     OW25249   1.959   0.031   2.951
 8117SOL    HW125250   2.040   0.033   2.892
 8117SOL    HW225251   1.959   6.969   3.006
 8118SOL     OW25252   6.675   4.210   6.743
 8118SOL    HW125253   6.713   4.158   6.819
 8118SOL    HW225254   6.662   4.150   6.665
 8119SOL     OW25255   4.924   6.346   6.320
 8119SOL    HW125256   5.015   6.328   6.284
 8119SOL    HW225257   4.890   6.433   6.285
 8120SOL     OW25258   2.591   4.986   0.494
 8120SOL    HW125259   2.669   5.031   0.450
 8120SOL    HW225260   2.565   5.036   0.576
 8121SOL     OW25261   0.991   4.314   2.457
 8121SOL    HW125262   0.921   4.308   2.386
 8121SOL    HW225263   1.077   4.345   2.416
 8122SOL     OW25264   1.331   4.691   2.912
 8122SOL    HW125265   1.255   4.637   2.949
 8122SOL    HW225266   1.328   4.783   2.950
 8123SOL     OW25267   0.219   1.171   6.892
 8123SOL    HW125268   0.254   1.091   6.942
 8123SOL    HW225269   0.134   1.202   6.934
 8124SOL     OW25270   5.622   6.219   3.529
 8124SOL    HW125271   5.562   6.296   3.507
 8124SOL    HW225272   5.625   6.156   3.452
 8125SOL     OW25273   0.988   1.060   2.669
 8125SOL    HW125274   0.918   0.992   2.649
 8125SOL    HW225275   1.067   1.046   2.610
 8126SOL     OW25276   4.903   4.790   3.685
 8126SOL    HW125277   4.805   4.808   3.677
 8126SOL    HW225278   4.952   4.876   3.701
 8127SOL     OW25279   2.881   2.826   6.684
 8127SOL    HW125280   2.910   2.882   6.762
 8127SOL    HW225281   2.785   2.845   6.664
 8128SOL     OW25282   2.865   2.220   1.690
 8128SOL    HW125283   2.883   2.285   1.764
 8128SOL    HW225284   2.943   2.218   1.627
 8129SOL     OW25285   2.025   2.056   6.668
 8129SOL    HW125286   2.090   2.004   6.723
 8129SOL    HW225287   1.971   2.116   6.727
 8130SOL     OW25288   1.974   6.580   6.878
 8130SOL    HW125289   1.939   6.492   6.846
 8130SOL    HW225290   2.031   6.565   6.959
 8131SOL     OW25291   2.419   2.617   1.146
 8131SOL    HW125292   2.503   2.663   1.175
 8131SOL    HW225293   2.340   2.673   1.168
 8132SOL     OW25294   6.092   6.526   4.468
 8132SOL    HW125295   6.140   6.610   4.492
 8132SOL    HW225296   6.003   6.549   4.429
 8133SOL     OW25297   3.709   5.389   2.435
 8133SOL    HW125298   3.764   5.336   2.370
 8133SOL    HW225299   3.690   5.479   2.397
 8134SOL     OW25300   6.594   1.304   6.109
 8134SOL    HW125301   6.587   1.235   6.037
 8134SOL    HW225302   6.632   1.388   6.071
 8135SOL     OW25303   1.657   0.586   1.627
 8135SOL    HW125304   1.641   0.561   1.722
 8135SOL    HW225305   1.663   0.686   1.619
 8136SOL     OW25306   5.522   5.247   2.317
 8136SOL    HW125307   5.500   5.149   2.319
 8136SOL    HW225308   5.621   5.259   2.318
 8137SOL     OW25309   2.903   1.226   5.159
 8137SOL    HW125310   2.998   1.203   5.178
 8137SOL    HW225311   2.899   1.299   5.091
 8138SOL     OW25312   5.367   1.172   1.841
 8138SOL    HW125313   5.406   1.229   1.768
 8138SOL    HW225314   5.441   1.141   1.901
 8139SOL     OW25315   0.823   1.248   2.026
 8139SOL    HW125316   0.746   1.189   2.049
 8139SOL    HW225317   0.865   1.282   2.110
 8140SOL     OW25318   4.810   1.187   4.299
 8140SOL    HW125319   4.822   1.156   4.393
 8140SOL    HW225320   4.810   1.109   4.237
 8141SOL     OW25321   4.106   5.435   5.886
 8141SOL    HW125322   4.154   5.376   5.951
 8141SOL    HW225323   4.114   5.397   5.794
 8142SOL     OW25324   6.227   5.184   0.020
 8142SOL    HW125325   6.286   5.195   0.100
 8142SOL    HW225326   6.222   5.087   7.017
 8143SOL     OW25327   6.398   4.823   0.051
 8143SOL    HW125328   6.375   4.866   6.986
 8143SOL    HW225329   6.497   4.817   0.061
 8144SOL     OW25330   5.463   0.347   6.883
 8144SOL    HW125331   5.484   0.260   6.839
 8144SOL    HW225332   5.366   0.351   6.907
 8145SOL     OW25333   5.681   5.961   2.382
 8145SOL    HW125334   5.724   5.900   2.316
 8145SOL    HW225335   5.597   5.920   2.416
 8146SOL     OW25336   3.530   1.485   5.740
 8146SOL    HW125337   3.591   1.504   5.817
 8146SOL    HW225338   3.547   1.550   5.667
 8147SOL     OW25339   5.162   1.802   3.129
 8147SOL    HW125340   5.195   1.841   3.215
 8147SOL    HW225341   5.068   1.833   3.112
 8148SOL     OW25342   5.413   3.566   2.492
 8148SOL    HW125343   5.351   3.577   2.570
 8148SOL    HW225344   5.371   3.605   2.410
 8149SOL     OW25345   2.690   6.048   3.309
 8149SOL    HW125346   2.704   6.132   3.361
 8149SOL    HW225347   2.615   5.996   3.350
 8150SOL     OW25348   0.179   4.694   0.732
 8150SOL    HW125349   0.210   4.757   0.661
 8150SOL    HW225350   0.105   4.737   0.784
 8151SOL     OW25351   1.060   2.172   2.962
 8151SOL    HW125352   1.140   2.201   3.015
 8151SOL    HW225353   0.977   2.207   3.004
 8152SOL     OW25354   1.464   1.520   3.127
 8152SOL    HW125355   1.423   1.504   3.218
 8152SOL    HW225356   1.526   1.445   3.105
 8153SOL     OW25357   2.963   6.959   2.649
 8153SOL    HW125358   2.960   0.010   2.580
 8153SOL    HW225359   3.028   6.889   2.621
 8154SOL     OW25360   2.116   5.903   4.491
 8154SOL    HW125361   2.070   5.834   4.435
 8154SOL    HW225362   2.213   5.906   4.467
 8155SOL     OW25363   3.162   3.094   2.762
 8155SOL    HW125364   3.237   3.065   2.703
 8155SOL    HW225365   3.080   3.041   2.742
 8156SOL     OW25366   5.951   0.345   5.131
 8156SOL    HW125367   5.966   0.433   5.175
 8156SOL    HW225368   5.859   0.312   5.153
 8157SOL     OW25369   5.734   5.333   6.713
 8157SOL    HW125370   5.697   5.383   6.791
 8157SOL    HW225371   5.673   5.256   6.691
 8158SOL     OW25372   1.333   5.799   0.738
 8158SOL    HW125373   1.258   5.863   0.719
 8158SOL    HW225374   1.415   5.829   0.690
 8159SOL     OW25375   2.301   5.568   2.074
 8159SOL    HW125376   2.246   5.634   2.023
 8159SOL    HW225377   2.396   5.576   2.046
 8160SOL     OW25378   4.626   1.679   1.007
 8160SOL    HW125379   4.546   1.732   0.979
 8160SOL    HW225380   4.709   1.726   0.977
 8161SOL     OW25381   4.988   1.154   0.731
 8161SOL    HW125382   4.993   1.251   0.752
 8161SOL    HW225383   5.002   1.100   0.814
 8162SOL     OW25384   6.102   6.525   0.432
 8162SOL    HW125385   6.146   6.457   0.373
 8162SOL    HW225386   6.173   6.571   0.487
 8163SOL     OW25387   2.682   4.091   5.610
 8163SOL    HW125388   2.781   4.088   5.602
 8163SOL    HW225389   2.644   4.003   5.578
 8164SOL     OW25390   5.591   3.121   1.415
 8164SOL    HW125391   5.507   3.093   1.368
 8164SOL    HW225392   5.576   3.209   1.459
 8165SOL     OW25393   2.175   4.434   1.515
 8165SOL    HW125394   2.158   4.481   1.428
 8165SOL    HW225395   2.102   4.457   1.580
 8166SOL     OW25396   1.982   0.665   1.966
 8166SOL    HW125397   1.907   0.689   2.027
 8166SOL    HW225398   1.955   0.589   1.907
 8167SOL     OW25399   5.987   2.577   3.836
 8167SOL    HW125400   5.889   2.567   3.848
 8167SOL    HW225401   6.034   2.553   3.921
 8168SOL     OW25402   3.515   1.682   2.914
 8168SOL    HW125403   3.492   1.620   2.839
 8168SOL    HW225404   3.480   1.773   2.893
 8169SOL     OW25405   4.164   3.994   0.858
 8169SOL    HW125406   4.171   4.089   0.887
 8169SOL    HW225407   4.223   3.978   0.779
 8170SOL     OW25408   1.519   6.054   3.623
 8170SOL    HW125409   1.535   6.135   3.567
 8170SOL    HW225410   1.484   6.082   3.713
 8171SOL     OW25411   0.636   2.344   6.411
 8171SOL    HW125412   0.538   2.348   6.429
 8171SOL    HW225413   0.683   2.304   6.490
 8172SOL     OW25414   0.058   0.226   1.077
 8172SOL    HW125415   0.044   0.324   1.083
 8172SOL    HW225416   6.994   0.178   1.095
 8173SOL     OW25417   3.739   2.558   6.956
 8173SOL    HW125418   3.831   2.584   6.926
 8173SOL    HW225419   3.675   2.572   6.881
 8174SOL     OW25420   5.741   1.853   0.869
 8174SOL    HW125421   5.788   1.916   0.807
 8174SOL    HW225422   5.710   1.903   0.950
 8175SOL     OW25423   6.947   2.358   6.361
 8175SOL    HW125424   6.873   2.416   6.328
 8175SOL    HW225425   6.998   2.406   6.433
 8176SOL     OW25426   2.581   5.793   2.248
 8176SOL    HW125427   2.593   5.711   2.302
 8176SOL    HW225428   2.669   5.840   2.237
 8177SOL     OW25429   1.440   6.140   4.241
 8177SOL    HW125430   1.396   6.055   4.211
 8177SOL    HW225431   1.434   6.208   4.168
 8178SOL     OW25432   2.411   6.873   6.336
 8178SOL    HW125433   2.447   6.781   6.321
 8178SOL    HW225434   2.480   6.928   6.383
 8179SOL     OW25435   3.196   2.761   0.150
 8179SOL    HW125436   3.288   2.774   0.111
 8179SOL    HW225437   3.136   2.723   0.080
 8180SOL     OW25438   0.065   0.068   4.371
 8180SOL    HW125439   0.054   7.001   4.414
 8180SOL    HW225440   6.999   0.115   4.368
 8181SOL     OW25441   2.607   2.305   2.958
 8181SOL    HW125442   2.673   2.307   3.033
 8181SOL    HW225443   2.652   2.271   2.875
 8182SOL     OW25444   3.185   2.315   5.743
 8182SOL    HW125445   3.137   2.232   5.715
 8182SOL    HW225446   3.209   2.368   5.662
 8183SOL     OW25447   0.864   3.605   5.120
 8183SOL    HW125448   0.907   3.545   5.052
 8183SOL    HW225449   0.847   3.695   5.078
 8184SOL     OW25450   6.616   0.413   5.835
 8184SOL    HW125451   6.604   0.396   5.738
 8184SOL    HW225452   6.548   0.480   5.866
 8185SOL     OW25453   2.647   0.809   0.964
 8185SOL    HW125454   2.703   0.852   0.894
 8185SOL    HW225455   2.635   0.872   1.040
 8186SOL     OW25456   3.484   6.004   5.704
 8186SOL    HW125457   3.418   5.979   5.774
 8186SOL    HW225458   3.464   6.096   5.670
 8187SOL     OW25459   1.229   1.600   5.129
 8187SOL    HW125460   1.258   1.508   5.156
 8187SOL    HW225461   1.220   1.657   5.211
 8188SOL     OW25462   5.209   1.673   2.390
 8188SOL    HW125463   5.132   1.683   2.452
 8188SOL    HW225464   5.292   1.709   2.433
 8189SOL     OW25465   5.724   4.759   2.131
 8189SOL    HW125466   5.693   4.846   2.094
 8189SOL    HW225467   5.645   4.703   2.157
 8190SOL     OW25468   5.442   3.832   4.272
 8190SOL    HW125469   5.351   3.832   4.313
 8190SOL    HW225470   5.451   3.752   4.212
 8191SOL     OW25471   0.616   5.413   3.609
 8191SOL    HW125472   0.524   5.421   3.648
 8191SOL    HW225473   0.656   5.326   3.638
 8192SOL     OW25474   2.832   5.509   1.437
 8192SOL    HW125475   2.883   5.541   1.357
 8192SOL    HW225476   2.867   5.554   1.519
 8193SOL     OW25477   5.270   6.407   5.154
 8193SOL    HW125478   5.337   6.414   5.080
 8193SOL    HW225479   5.296   6.332   5.215
 8194SOL     OW25480   6.390   1.607   6.847
 8194SOL    HW125481   6.328   1.681   6.872
 8194SOL    HW225482   6.409   1.550   6.927
 8195SOL     OW25483   6.740   0.114   0.245
 8195SOL    HW125484   6.783   0.024   0.253
 8195SOL    HW225485   6.807   0.181   0.215
 8196SOL     OW25486   3.751   6.289   6.080
 8196SOL    HW125487   3.841   6.329   6.061
 8196SOL    HW225488   3.752   6.192   6.056
 8197SOL     OW25489   6.731   0.770   5.827
 8197SOL    HW125490   6.767   0.716   5.903
 8197SOL    HW225491   6.645   0.814   5.855
 8198SOL     OW25492   2.635   6.725   3.123
 8198SOL    HW125493   2.666   6.817   3.101
 8198SOL    HW225494   2.680   6.659   3.063
 8199SOL     OW25495   0.669   4.122   0.659
 8199SOL    HW125496   0.633   4.063   0.587
 8199SOL    HW225497   0.674   4.216   0.625
 8200SOL     OW25498   4.642   3.929   1.685
 8200SOL    HW125499   4.642   4.028   1.699
 8200SOL    HW225500   4.547   3.897   1.676
 8201SOL     OW25501   5.360   0.215   4.323
 8201SOL    HW125502   5.414   0.272   4.261
 8201SOL    HW225503   5.275   0.188   4.277
 8202SOL     OW25504   1.887   4.880   3.642
 8202SOL    HW125505   1.916   4.932   3.561
 8202SOL    HW225506   1.962   4.872   3.706
 8203SOL     OW25507   4.737   3.696   1.401
 8203SOL    HW125508   4.768   3.675   1.309
 8203SOL    HW225509   4.638   3.681   1.407
 8204SOL     OW25510   3.258   6.882   2.267
 8204SOL    HW125511   3.207   6.809   2.221
 8204SOL    HW225512   3.308   6.844   2.345
 8205SOL     OW25513   5.699   5.516   2.120
 8205SOL    HW125514   5.620   5.479   2.169
 8205SOL    HW225515   5.681   5.516   2.022
 8206SOL     OW25516   4.088   2.295   5.597
 8206SOL    HW125517   4.147   2.266   5.672
 8206SOL    HW225518   4.144   2.335   5.524
 8207SOL     OW25519   3.084   4.779   5.712
 8207SOL    HW125520   3.094   4.687   5.674
 8207SOL    HW225521   3.107   4.846   5.642
 8208SOL     OW25522   2.244   5.116   1.646
 8208SOL    HW125523   2.306   5.160   1.711
 8208SOL    HW225524   2.204   5.187   1.587
 8209SOL     OW25525   1.473   0.804   5.265
 8209SOL    HW125526   1.395   0.742   5.272
 8209SOL    HW225527   1.552   0.755   5.229
 8210SOL     OW25528   2.047   1.184   0.457
 8210SOL    HW125529   2.079   1.122   0.529
 8210SOL    HW225530   2.124   1.238   0.423
 8211SOL     OW25531   2.923   3.662   4.018
 8211SOL    HW125532   2.920   3.607   3.934
 8211SOL    HW225533   2.914   3.759   3.996
 8212SOL     OW25534   2.069   0.114   1.513
 8212SOL    HW125535   2.030   0.188   1.458
 8212SOL    HW225536   2.091   0.036   1.454
 8213SOL     OW25537   4.373   4.436   1.669
 8213SOL    HW125538   4.288   4.465   1.713
 8213SOL    HW225539   4.422   4.373   1.729
 8214SOL     OW25540   3.146   5.621   4.368
 8214SOL    HW125541   3.093   5.547   4.410
 8214SOL    HW225542   3.239   5.621   4.406
 8215SOL     OW25543   3.830   6.298   6.937
 8215SOL    HW125544   3.785   6.373   6.986
 8215SOL    HW225545   3.765   6.258   6.872
 8216SOL     OW25546   4.694   6.179   2.737
 8216SOL    HW125547   4.596   6.195   2.742
 8216SOL    HW225548   4.737   6.210   2.822
 8217SOL     OW25549   2.606   5.047   3.361
 8217SOL    HW125550   2.671   4.974   3.341
 8217SOL    HW225551   2.537   5.014   3.426
 8218SOL     OW25552   1.978   0.356   4.683
 8218SOL    HW125553   1.884   0.328   4.699
 8218SOL    HW225554   2.036   0.325   4.758
 8219SOL     OW25555   4.154   3.654   0.880
 8219SOL    HW125556   4.170   3.622   0.973
 8219SOL    HW225557   4.058   3.637   0.855
 8220SOL     OW25558   3.616   4.070   4.796
 8220SOL    HW125559   3.603   4.036   4.888
 8220SOL    HW225560   3.712   4.058   4.768
 8221SOL     OW25561   6.088   3.282   3.779
 8221SOL    HW125562   6.034   3.200   3.795
 8221SOL    HW225563   6.161   3.262   3.713
 8222SOL     OW25564   6.299   2.224   1.579
 8222SOL    HW125565   6.258   2.226   1.670
 8222SOL    HW225566   6.389   2.267   1.581
 8223SOL     OW25567   6.697   5.494   5.560
 8223SOL    HW125568   6.791   5.501   5.524
 8223SOL    HW225569   6.646   5.428   5.504
 8224SOL     OW25570   4.827   2.013   0.219
 8224SOL    HW125571   4.787   2.095   0.261
 8224SOL    HW225572   4.760   1.940   0.218
 8225SOL     OW25573   4.367   1.474   0.211
 8225SOL    HW125574   4.306   1.405   0.172
 8225SOL    HW225575   4.433   1.503   0.142
 8226SOL     OW25576   3.324   0.799   0.335
 8226SOL    HW125577   3.304   0.887   0.376
 8226SOL    HW225578   3.324   0.808   0.235
 8227SOL     OW25579   5.624   1.807   2.824
 8227SOL    HW125580   5.563   1.849   2.891
 8227SOL    HW225581   5.647   1.873   2.753
 8228SOL     OW25582   0.806   0.818   5.562
 8228SOL    HW125583   0.821   0.867   5.477
 8228SOL    HW225584   0.708   0.820   5.584
 8229SOL     OW25585   4.080   4.881   1.145
 8229SOL    HW125586   4.062   4.979   1.137
 8229SOL    HW225587   4.173   4.866   1.179
 8230SOL     OW25588   4.164   0.735   5.941
 8230SOL    HW125589   4.192   0.761   6.033
 8230SOL    HW225590   4.068   0.759   5.927
 8231SOL     OW25591   3.350   1.453   1.706
 8231SOL    HW125592   3.445   1.478   1.723
 8231SOL    HW225593   3.318   1.392   1.779
 8232SOL     OW25594   4.313   0.330   2.536
 8232SOL    HW125595   4.336   0.310   2.631
 8232SOL    HW225596   4.372   0.278   2.475
 8233SOL     OW25597   0.616   0.853   5.189
 8233SOL    HW125598   0.619   0.951   5.209
 8233SOL    HW225599   0.700   0.826   5.142
 8234SOL     OW25600   2.441   2.635   6.938
 8234SOL    HW125601   2.519   2.598   6.888
 8234SOL    HW225602   2.466   2.648   0.012
 8235SOL     OW25603   0.103   5.281   0.499
 8235SOL    HW125604   0.184   5.328   0.533
 8235SOL    HW225605   0.130   5.212   0.432
 8236SOL     OW25606   0.979   6.643   5.922
 8236SOL    HW125607   0.977   6.571   5.852
 8236SOL    HW225608   1.049   6.710   5.897
 8237SOL     OW25609   4.579   5.474   6.121
 8237SOL    HW125610   4.621   5.506   6.037
 8237SOL    HW225611   4.508   5.539   6.150
 8238SOL     OW25612   2.150   4.614   0.798
 8238SOL    HW125613   2.239   4.646   0.831
 8238SOL    HW225614   2.080   4.682   0.820
 8239SOL     OW25615   0.688   2.111   5.363
 8239SOL    HW125616   0.764   2.100   5.299
 8239SOL    HW225617   0.613   2.160   5.318
 8240SOL     OW25618   3.584   3.665   4.919
 8240SOL    HW125619   3.573   3.723   4.839
 8240SOL    HW225620   3.575   3.569   4.893
 8241SOL     OW25621   1.378   3.647   6.653
 8241SOL    HW125622   1.436   3.662   6.733
 8241SOL    HW225623   1.284   3.672   6.674
 8242SOL     OW25624   0.917   4.147   4.393
 8242SOL    HW125625   0.948   4.128   4.487
 8242SOL    HW225626   0.914   4.062   4.341
 8243SOL     OW25627   0.450   4.645   5.159
 8243SOL    HW125628   0.547   4.638   5.184
 8243SOL    HW225629   0.443   4.667   5.062
 8244SOL     OW25630   1.853   0.286   3.915
 8244SOL    HW125631   1.807   0.373   3.898
 8244SOL    HW225632   1.952   0.300   3.913
 8245SOL     OW25633   4.951   1.289   4.070
 8245SOL    HW125634   4.933   1.243   4.157
 8245SOL    HW225635   4.938   1.225   3.995
 8246SOL     OW25636   1.309   4.351   6.859
 8246SOL    HW125637   1.330   4.320   6.766
 8246SOL    HW225638   1.210   4.345   6.874
 8247SOL     OW25639   2.954   5.457   3.561
 8247SOL    HW125640   2.860   5.431   3.541
 8247SOL    HW225641   3.004   5.469   3.476
 8248SOL     OW25642   0.805   5.194   2.925
 8248SOL    HW125643   0.803   5.154   3.017
 8248SOL    HW225644   0.721   5.169   2.876
 8249SOL     OW25645   2.366   2.010   6.047
 8249SOL    HW125646   2.429   1.934   6.069
 8249SOL    HW225647   2.377   2.082   6.116
 8250SOL     OW25648   1.627   1.742   6.449
 8250SOL    HW125649   1.586   1.736   6.358
 8250SOL    HW225650   1.702   1.808   6.448
 8251SOL     OW25651   6.827   2.702   4.751
 8251SOL    HW125652   6.841   2.607   4.723
 8251SOL    HW225653   6.756   2.706   4.821
 8252SOL     OW25654   1.805   2.357   6.627
 8252SOL    HW125655   1.887   2.355   6.685
 8252SOL    HW225656   1.803   2.442   6.574
 8253SOL     OW25657   4.037   5.753   0.257
 8253SOL    HW125658   4.012   5.679   0.320
 8253SOL    HW225659   4.011   5.727   0.164
 8254SOL     OW25660   5.750   5.291   0.810
 8254SOL    HW125661   5.773   5.196   0.831
 8254SOL    HW225662   5.687   5.326   0.880
 8255SOL     OW25663   0.454   6.857   5.587
 8255SOL    HW125664   0.492   6.879   5.677
 8255SOL    HW225665   0.465   6.760   5.569
 8256SOL     OW25666   2.022   6.160   2.928
 8256SOL    HW125667   2.054   6.089   2.866
 8256SOL    HW225668   1.974   6.119   3.006
 8257SOL     OW25669   4.769   4.000   4.128
 8257SOL    HW125670   4.866   3.998   4.102
 8257SOL    HW225671   4.717   4.043   4.055
 8258SOL     OW25672   6.232   3.672   2.004
 8258SOL    HW125673   6.235   3.763   2.046
 8258SOL    HW225674   6.242   3.602   2.075
 8259SOL     OW25675   4.461   1.948   4.117
 8259SOL    HW125676   4.446   1.902   4.205
 8259SOL    HW225677   4.530   1.897   4.064
 8260SOL     OW25678   2.817   0.563   0.900
 8260SOL    HW125679   2.883   0.619   0.849
 8260SOL    HW225680   2.728   0.610   0.901
 8261SOL     OW25681   5.173   0.518   3.719
 8261SOL    HW125682   5.128   0.538   3.632
 8261SOL    HW225683   5.217   0.429   3.713
 8262SOL     OW25684   6.743   3.868   1.705
 8262SOL    HW125685   6.833   3.907   1.724
 8262SOL    HW225686   6.734   3.852   1.606
 8263SOL     OW25687   0.041   2.519   6.541
 8263SOL    HW125688   0.050   2.444   6.606
 8263SOL    HW225689   0.045   2.607   6.589
 8264SOL     OW25690   1.957   6.436   3.428
 8264SOL    HW125691   2.054   6.445   3.408
 8264SOL    HW225692   1.913   6.526   3.420
 8265SOL     OW25693   5.307   0.738   1.031
 8265SOL    HW125694   5.358   0.824   1.025
 8265SOL    HW225695   5.209   0.756   1.034
 8266SOL     OW25696   2.337   6.981   4.065
 8266SOL    HW125697   2.421   6.927   4.070
 8266SOL    HW225698   2.325   0.010   4.151
 8267SOL     OW25699   1.452   3.740   3.051
 8267SOL    HW125700   1.370   3.742   3.109
 8267SOL    HW225701   1.442   3.807   2.977
 8268SOL     OW25702   3.335   4.147   6.562
 8268SOL    HW125703   3.263   4.166   6.495
 8268SOL    HW225704   3.403   4.087   6.521
 8269SOL     OW25705   4.354   2.204   3.238
 8269SOL    HW125706   4.256   2.194   3.255
 8269SOL    HW225707   4.406   2.156   3.309
 8270SOL     OW25708   3.824   0.075   6.006
 8270SOL    HW125709   3.860   0.106   5.918
 8270SOL    HW225710   3.797   0.153   6.061
 8271SOL     OW25711   4.675   6.365   5.158
 8271SOL    HW125712   4.726   6.442   5.197
 8271SOL    HW225713   4.632   6.394   5.072
 8272SOL     OW25714   0.544   6.757   1.749
 8272SOL    HW125715   0.624   6.744   1.808
 8272SOL    HW225716   0.528   6.854   1.736
 8273SOL     OW25717   2.946   6.667   6.982
 8273SOL    HW125718   2.895   6.662   6.896
 8273SOL    HW225719   3.007   6.746   6.980
 8274SOL     OW25720   4.887   6.219   6.645
 8274SOL    HW125721   4.903   6.317   6.657
 8274SOL    HW225722   4.793   6.197   6.668
 8275SOL     OW25723   6.138   0.781   4.829
 8275SOL    HW125724   6.179   0.864   4.868
 8275SOL    HW225725   6.191   0.753   4.749
 8276SOL     OW25726   6.630   3.275   6.684
 8276SOL    HW125727   6.606   3.179   6.697
 8276SOL    HW225728   6.634   3.321   6.773
 8277SOL     OW25729   0.894   5.452   6.030
 8277SOL    HW125730   0.861   5.376   5.974
 8277SOL    HW225731   0.867   5.539   5.987
 8278SOL     OW25732   3.366   1.431   0.054
 8278SOL    HW125733   3.318   1.412   6.990
 8278SOL    HW225734   3.383   1.529   0.062
 8279SOL     OW25735   4.652   6.094   6.125
 8279SOL    HW125736   4.627   6.135   6.037
 8279SOL    HW225737   4.631   6.157   6.199
 8280SOL     OW25738   5.159   2.587   0.479
 8280SOL    HW125739   5.090   2.516   0.489
 8280SOL    HW225740   5.117   2.670   0.443
 8281SOL     OW25741   2.012   4.675   0.011
 8281SOL    HW125742   2.010   4.698   0.108
 8281SOL    HW225743   1.919   4.666   6.997
 8282SOL     OW25744   2.907   2.770   0.958
 8282SOL    HW125745   2.871   2.834   0.890
 8282SOL    HW225746   2.858   2.683   0.952
 8283SOL     OW25747   0.034   4.648   3.276
 8283SOL    HW125748   0.052   4.740   3.241
 8283SOL    HW225749   0.121   4.597   3.281
 8284SOL     OW25750   1.999   2.261   2.180
 8284SOL    HW125751   1.910   2.218   2.199
 8284SOL    HW225752   2.069   2.218   2.236
 8285SOL     OW25753   3.429   4.279   6.013
 8285SOL    HW125754   3.402   4.375   6.022
 8285SOL    HW225755   3.347   4.222   6.006
 8286SOL     OW25756   5.446   1.006   4.612
 8286SOL    HW125757   5.352   1.029   4.586
 8286SOL    HW225758   5.478   0.929   4.556
 8287SOL     OW25759   1.683   0.642   3.544
 8287SOL    HW125760   1.736   0.631   3.629
 8287SOL    HW225761   1.727   0.710   3.486
 8288SOL     OW25762   1.340   1.275   2.454
 8288SOL    HW125763   1.408   1.339   2.417
 8288SOL    HW225764   1.263   1.327   2.490
 8289SOL     OW25765   6.350   1.462   5.534
 8289SOL    HW125766   6.285   1.490   5.605
 8289SOL    HW225767   6.321   1.500   5.446
 8290SOL     OW25768   3.557   2.660   1.795
 8290SOL    HW125769   3.521   2.696   1.881
 8290SOL    HW225770   3.600   2.571   1.810
 8291SOL     OW25771   5.861   5.826   6.145
 8291SOL    HW125772   5.857   5.868   6.054
 8291SOL    HW225773   5.937   5.762   6.149
 8292SOL     OW25774   1.420   3.854   4.815
 8292SOL    HW125775   1.398   3.826   4.722
 8292SOL    HW225776   1.411   3.776   4.876
 8293SOL     OW25777   2.591   5.447   3.096
 8293SOL    HW125778   2.590   5.483   3.003
 8293SOL    HW225779   2.685   5.426   3.123
 8294SOL     OW25780   6.430   3.782   6.231
 8294SOL    HW125781   6.494   3.795   6.155
 8294SOL    HW225782   6.448   3.693   6.274
 8295SOL     OW25783   4.629   4.350   2.309
 8295SOL    HW125784   4.610   4.443   2.339
 8295SOL    HW225785   4.603   4.340   2.213
 8296SOL     OW25786   3.632   6.747   1.138
 8296SOL    HW125787   3.636   6.825   1.075
 8296SOL    HW225788   3.664   6.775   1.229
 8297SOL     OW25789   6.442   4.691   2.677
 8297SOL    HW125790   6.471   4.598   2.655
 8297SOL    HW225791   6.400   4.733   2.596
 8298SOL     OW25792   6.725   0.136   6.519
 8298SOL    HW125793   6.739   0.142   6.420
 8298SOL    HW225794   6.805   0.095   6.562
 8299SOL     OW25795   0.783   3.995   1.633
 8299SOL    HW125796   0.808   3.996   1.730
 8299SOL    HW225797   0.732   3.912   1.612
 8300SOL     OW25798   5.717   5.278   3.198
 8300SOL    HW125799   5.815   5.288   3.181
 8300SOL    HW225800   5.701   5.203   3.262
 8301SOL     OW25801   4.230   6.440   0.728
 8301SOL    HW125802   4.165   6.514   0.744
 8301SOL    HW225803   4.257   6.438   0.631
 8302SOL     OW25804   3.610   6.710   4.999
 8302SOL    HW125805   3.545   6.785   4.988
 8302SOL    HW225806   3.569   6.625   4.967
 8303SOL     OW25807   6.820   6.662   2.802
 8303SOL    HW125808   6.785   6.692   2.891
 8303SOL    HW225809   6.894   6.723   2.773
 8304SOL     OW25810   5.898   4.294   3.248
 8304SOL    HW125811   5.804   4.324   3.264
 8304SOL    HW225812   5.906   4.257   3.156
 8305SOL     OW25813   4.926   5.515   4.591
 8305SOL    HW125814   4.994   5.548   4.657
 8305SOL    HW225815   4.956   5.429   4.551
 8306SOL     OW25816   6.085   1.085   2.261
 8306SOL    HW125817   6.129   1.050   2.344
 8306SOL    HW225818   6.092   1.185   2.258
 8307SOL     OW25819   2.431   4.932   2.346
 8307SOL    HW125820   2.355   4.966   2.401
 8307SOL    HW225821   2.431   4.832   2.347
 8308SOL     OW25822   1.157   5.079   7.016
 8308SOL    HW125823   1.207   5.039   0.071
 8308SOL    HW225824   1.190   5.040   6.930
 8309SOL     OW25825   6.155   4.282   4.143
 8309SOL    HW125826   6.121   4.270   4.236
 8309SOL    HW225827   6.122   4.369   4.106
 8310SOL     OW25828   0.684   6.550   0.207
 8310SOL    HW125829   0.591   6.523   0.181
 8310SOL    HW225830   0.744   6.541   0.128
 8311SOL     OW25831   5.469   6.868   4.215
 8311SOL    HW125832   5.438   6.868   4.310
 8311SOL    HW225833   5.563   6.833   4.211
 8312SOL     OW25834   5.496   0.974   6.822
 8312SOL    HW125835   5.496   0.886   6.869
 8312SOL    HW225836   5.483   1.047   6.889
 8313SOL     OW25837   4.666   1.459   4.638
 8313SOL    HW125838   4.732   1.414   4.699
 8313SOL    HW225839   4.714   1.528   4.583
 8314SOL     OW25840   4.906   6.339   5.849
 8314SOL    HW125841   4.929   6.280   5.927
 8314SOL    HW225842   4.957   6.425   5.856
 8315SOL     OW25843   3.858   3.437   4.735
 8315SOL    HW125844   3.814   3.396   4.815
 8315SOL    HW225845   3.915   3.514   4.763
 8316SOL     OW25846   1.564   2.636   6.895
 8316SOL    HW125847   1.623   2.642   6.976
 8316SOL    HW225848   1.478   2.592   6.919
 8317SOL     OW25849   1.431   1.674   3.538
 8317SOL    HW125850   1.357   1.706   3.597
 8317SOL    HW225851   1.511   1.653   3.594
 8318SOL     OW25852   3.988   6.792   6.618
 8318SOL    HW125853   3.912   6.742   6.575
 8318SOL    HW225854   4.070   6.781   6.563
 8319SOL     OW25855   2.347   0.283   6.139
 8319SOL    HW125856   2.346   0.383   6.142
 8319SOL    HW225857   2.428   0.249   6.186
 8320SOL     OW25858   2.992   3.411   4.762
 8320SOL    HW125859   3.009   3.495   4.711
 8320SOL    HW225860   2.912   3.424   4.822
 8321SOL     OW25861   6.328   6.601   0.550
 8321SOL    HW125862   6.383   6.660   0.491
 8321SOL    HW225863   6.304   6.651   0.634
 8322SOL     OW25864   0.219   0.836   6.749
 8322SOL    HW125865   0.184   0.888   6.671
 8322SOL    HW225866   0.250   0.899   6.820
 8323SOL     OW25867   4.340   4.772   1.196
 8323SOL    HW125868   4.312   4.684   1.158
 8323SOL    HW225869   4.434   4.792   1.169
 8324SOL     OW25870   5.776   6.351   6.433
 8324SOL    HW125871   5.718   6.272   6.410
 8324SOL    HW225872   5.731   6.435   6.405
 8325SOL     OW25873   1.056   5.653   5.519
 8325SOL    HW125874   1.053   5.751   5.499
 8325SOL    HW225875   0.970   5.626   5.562
 8326SOL     OW25876   1.850   3.872   1.996
 8326SOL    HW125877   1.941   3.902   2.025
 8326SOL    HW225878   1.807   3.820   2.070
 8327SOL     OW25879   0.954   0.244   4.371
 8327SOL    HW125880   1.009   0.315   4.327
 8327SOL    HW225881   0.930   0.274   4.463
 8328SOL     OW25882   1.655   0.243   6.183
 8328SOL    HW125883   1.642   0.184   6.264
 8328SOL    HW225884   1.693   0.188   6.109
 8329SOL     OW25885   1.106   2.759   5.144
 8329SOL    HW125886   1.132   2.746   5.240
 8329SOL    HW225887   1.189   2.761   5.088
 8330SOL     OW25888   3.060   0.900   6.802
 8330SOL    HW125889   3.047   0.968   6.875
 8330SOL    HW225890   3.152   0.861   6.809
 8331SOL     OW25891   1.843   2.151   6.901
 8331SOL    HW125892   1.744   2.155   6.902
 8331SOL    HW225893   1.873   2.060   6.930
 8332SOL     OW25894   5.879   4.989   1.984
 8332SOL    HW125895   5.896   5.085   1.965
 8332SOL    HW225896   5.780   4.973   1.991
 8333SOL     OW25897   2.750   4.578   1.407
 8333SOL    HW125898   2.821   4.589   1.477
 8333SOL    HW225899   2.769   4.496   1.353
 8334SOL     OW25900   3.590   1.865   6.545
 8334SOL    HW125901   3.667   1.803   6.529
 8334SOL    HW225902   3.506   1.824   6.510
 8335SOL     OW25903   5.021   3.310   5.939
 8335SOL    HW125904   5.055   3.269   6.024
 8335SOL    HW225905   5.012   3.240   5.869
 8336SOL     OW25906   1.041   3.391   3.099
 8336SOL    HW125907   1.015   3.462   3.165
 8336SOL    HW225908   1.124   3.419   3.051
 8337SOL     OW25909   0.481   1.303   4.140
 8337SOL    HW125910   0.492   1.300   4.041
 8337SOL    HW225911   0.551   1.361   4.180
 8338SOL     OW25912   4.046   5.371   2.790
 8338SOL    HW125913   4.058   5.295   2.854
 8338SOL    HW225914   3.948   5.387   2.775
 8339SOL     OW25915   6.581   0.446   0.594
 8339SOL    HW125916   6.529   0.420   0.512
 8339SOL    HW225917   6.558   0.384   0.669
 8340SOL     OW25918   5.741   2.816   0.341
 8340SOL    HW125919   5.826   2.855   0.377
 8340SOL    HW225920   5.709   2.745   0.403
 8341SOL     OW25921   3.372   0.884   0.060
 8341SOL    HW125922   3.444   0.879   7.012
 8341SOL    HW225923   3.364   0.978   0.093
 8342SOL     OW25924   4.592   0.212   0.189
 8342SOL    HW125925   4.579   0.245   0.282
 8342SOL    HW225926   4.670   0.150   0.186
 8343SOL     OW25927   6.519   3.884   3.874
 8343SOL    HW125928   6.617   3.868   3.866
 8343SOL    HW225929   6.487   3.936   3.795
 8344SOL     OW25930   1.328   5.940   5.221
 8344SOL    HW125931   1.334   5.909   5.315
 8344SOL    HW225932   1.308   6.038   5.219
 8345SOL     OW25933   4.506   0.685   2.132
 8345SOL    HW125934   4.479   0.669   2.227
 8345SOL    HW225935   4.519   0.783   2.117
 8346SOL     OW25936   4.562   3.013   5.362
 8346SOL    HW125937   4.506   3.090   5.330
 8346SOL    HW225938   4.640   3.049   5.413
 8347SOL     OW25939   2.613   0.260   6.216
 8347SOL    HW125940   2.661   0.193   6.159
 8347SOL    HW225941   2.647   0.352   6.194
 8348SOL     OW25942   3.617   6.751   2.163
 8348SOL    HW125943   3.613   6.768   2.261
 8348SOL    HW225944   3.607   6.837   2.113
 8349SOL     OW25945   1.306   6.433   2.054
 8349SOL    HW125946   1.398   6.464   2.078
 8349SOL    HW225947   1.306   6.396   1.961
 8350SOL     OW25948   2.494   0.008   6.720
 8350SOL    HW125949   2.446   0.034   6.636
 8350SOL    HW225950   2.581   0.058   6.725
 8351SOL     OW25951   0.101   4.238   3.650
 8351SOL    HW125952   0.137   4.331   3.661
 8351SOL    HW225953   0.045   4.214   3.729
 8352SOL     OW25954   2.849   5.251   1.530
 8352SOL    HW125955   2.846   5.336   1.478
 8352SOL    HW225956   2.920   5.257   1.601
 8353SOL     OW25957   1.415   3.891   2.819
 8353SOL    HW125958   1.456   3.856   2.735
 8353SOL    HW225959   1.432   3.990   2.826
 8354SOL     OW25960   3.320   0.152   3.792
 8354SOL    HW125961   3.369   0.067   3.774
 8354SOL    HW225962   3.368   0.204   3.862
 8355SOL     OW25963   2.186   6.282   5.613
 8355SOL    HW125964   2.232   6.194   5.625
 8355SOL    HW225965   2.088   6.268   5.609
 8356SOL     OW25966   1.453   5.387   1.338
 8356SOL    HW125967   1.535   5.355   1.290
 8356SOL    HW225968   1.461   5.369   1.435
 8357SOL     OW25969   4.235   6.046   6.014
 8357SOL    HW125970   4.223   6.138   5.975
 8357SOL    HW225971   4.165   5.985   5.975
 8358SOL     OW25972   1.071   2.388   4.923
 8358SOL    HW125973   1.009   2.403   5.000
 8358SOL    HW225974   1.109   2.296   4.928
 8359SOL     OW25975   2.904   1.996   5.207
 8359SOL    HW125976   2.870   2.023   5.118
 8359SOL    HW225977   2.992   2.040   5.225
 8360SOL     OW25978   5.027   6.919   0.389
 8360SOL    HW125979   5.097   6.852   0.414
 8360SOL    HW225980   5.070   6.998   0.345
 8361SOL     OW25981   3.409   0.196   0.569
 8361SOL    HW125982   3.468   0.115   0.566
 8361SOL    HW225983   3.408   0.239   0.478
 8362SOL     OW25984   6.483   3.732   1.276
 8362SOL    HW125985   6.505   3.821   1.238
 8362SOL    HW225986   6.384   3.726   1.291
 8363SOL     OW25987   2.875   2.642   6.959
 8363SOL    HW125988   2.799   2.625   6.897
 8363SOL    HW225989   2.961   2.635   6.909
 8364SOL     OW25990   0.289   2.493   3.733
 8364SOL    HW125991   0.296   2.414   3.673
 8364SOL    HW225992   0.380   2.530   3.752
 8365SOL     OW25993   2.016   2.503   2.884
 8365SOL    HW125994   2.078   2.529   2.958
 8365SOL    HW225995   2.067   2.449   2.816
 8366SOL     OW25996   4.864   5.884   0.908
 8366SOL    HW125997   4.853   5.968   0.960
 8366SOL    HW225998   4.782   5.827   0.919
 8367SOL     OW25999   4.393   5.201   4.750
 8367SOL    HW126000   4.370   5.294   4.778
 8367SOL    HW226001   4.383   5.191   4.651
 8368SOL     OW26002   1.009   6.285   0.189
 8368SOL    HW126003   0.964   6.196   0.182
 8368SOL    HW226004   0.970   6.348   0.121
 8369SOL     OW26005   1.392   1.446   6.934
 8369SOL    HW126006   1.321   1.456   7.004
 8369SOL    HW226007   1.352   1.409   6.851
 8370SOL     OW26008   3.230   2.355   0.350
 8370SOL    HW126009   3.282   2.310   0.278
 8370SOL    HW226010   3.137   2.321   0.351
 8371SOL     OW26011   1.826   4.395   5.939
 8371SOL    HW126012   1.764   4.432   6.008
 8371SOL    HW226013   1.805   4.436   5.850
 8372SOL     OW26014   1.700   6.369   2.401
 8372SOL    HW126015   1.727   6.284   2.356
 8372SOL    HW226016   1.742   6.374   2.492
 8373SOL     OW26017   0.129   0.984   4.290
 8373SOL    HW126018   0.219   1.026   4.301
 8373SOL    HW226019   0.080   0.985   4.378
 8374SOL     OW26020   1.910   0.790   4.808
 8374SOL    HW126021   1.913   0.733   4.726
 8374SOL    HW226022   1.818   0.828   4.818
 8375SOL     OW26023   4.287   1.523   4.959
 8375SOL    HW126024   4.208   1.577   4.988
 8375SOL    HW226025   4.282   1.432   5.001
 8376SOL     OW26026   2.003   0.817   3.221
 8376SOL    HW126027   2.082   0.844   3.166
 8376SOL    HW226028   1.952   0.745   3.173
 8377SOL     OW26029   5.087   5.694   6.823
 8377SOL    HW126030   5.080   5.649   6.734
 8377SOL    HW226031   5.183   5.719   6.840
 8378SOL     OW26032   6.516   5.654   3.513
 8378SOL    HW126033   6.517   5.712   3.431
 8378SOL    HW226034   6.471   5.703   3.588
 8379SOL     OW26035   5.650   1.432   2.191
 8379SOL    HW126036   5.663   1.479   2.103
 8379SOL    HW226037   5.663   1.333   2.178
 8380SOL     OW26038   6.598   5.445   0.543
 8380SOL    HW126039   6.663   5.477   0.611
 8380SOL    HW226040   6.547   5.368   0.579
 8381SOL     OW26041   0.149   1.806   2.574
 8381SOL    HW126042   0.130   1.802   2.672
 8381SOL    HW226043   0.243   1.777   2.557
 8382SOL     OW26044   2.804   0.187   0.478
 8382SOL    HW126045   2.802   0.143   0.568
 8382SOL    HW226046   2.743   0.267   0.480
 8383SOL     OW26047   3.226   6.635   4.796
 8383SOL    HW126048   3.203   6.566   4.864
 8383SOL    HW226049   3.257   6.591   4.712
 8384SOL     OW26050   6.985   2.736   0.695
 8384SOL    HW126051   6.990   2.776   0.786
 8384SOL    HW226052   0.032   2.664   0.685
 8385SOL     OW26053   4.615   3.343   0.763
 8385SOL    HW126054   4.644   3.250   0.787
 8385SOL    HW226055   4.520   3.357   0.793
 8386SOL     OW26056   1.774   5.630   1.803
 8386SOL    HW126057   1.847   5.561   1.808
 8386SOL    HW226058   1.814   5.721   1.796
 8387SOL     OW26059   2.087   1.537   1.483
 8387SOL    HW126060   2.111   1.634   1.496
 8387SOL    HW226061   2.104   1.512   1.387
 8388SOL     OW26062   3.092   6.538   0.460
 8388SOL    HW126063   3.167   6.537   0.526
 8388SOL    HW226064   3.044   6.625   0.465
 8389SOL     OW26065   1.271   2.440   4.759
 8389SOL    HW126066   1.201   2.420   4.827
 8389SOL    HW226067   1.356   2.465   4.804
 8390SOL     OW26068   1.888   0.533   5.929
 8390SOL    HW126069   1.921   0.573   6.014
 8390SOL    HW226070   1.788   0.524   5.932
 8391SOL     OW26071   4.908   5.717   1.948
 8391SOL    HW126072   4.939   5.713   1.853
 8391SOL    HW226073   4.929   5.631   1.994
 8392SOL     OW26074   5.953   6.022   5.105
 8392SOL    HW126075   5.905   6.025   5.192
 8392SOL    HW226076   5.888   6.037   5.030
 8393SOL     OW26077   6.957   6.164   3.190
 8393SOL    HW126078   6.983   6.259   3.204
 8393SOL    HW226079   0.017   6.110   3.170
 8394SOL     OW26080   0.942   1.794   3.254
 8394SOL    HW126081   0.958   1.697   3.240
 8394SOL    HW226082   0.876   1.827   3.186
 8395SOL     OW26083   0.207   6.671   4.587
 8395SOL    HW126084   0.248   6.701   4.501
 8395SOL    HW226085   0.206   6.571   4.590
 8396SOL     OW26086   4.589   4.342   2.642
 8396SOL    HW126087   4.531   4.401   2.586
 8396SOL    HW226088   4.642   4.282   2.582
 8397SOL     OW26089   1.869   6.299   2.670
 8397SOL    HW126090   1.910   6.374   2.618
 8397SOL    HW226091   1.917   6.289   2.757
 8398SOL     OW26092   4.210   1.520   6.940
 8398SOL    HW126093   4.231   1.506   0.015
 8398SOL    HW226094   4.133   1.585   6.932
 8399SOL     OW26095   5.881   6.244   0.245
 8399SOL    HW126096   5.914   6.178   0.178
 8399SOL    HW226097   5.844   6.194   0.324
 8400SOL     OW26098   0.108   0.086   3.130
 8400SOL    HW126099   0.192   0.112   3.178
 8400SOL    HW226100   0.030   0.101   3.190
 8401SOL     OW26101   3.691   3.778   6.467
 8401SOL    HW126102   3.780   3.822   6.460
 8401SOL    HW226103   3.672   3.728   6.382
 8402SOL     OW26104   3.804   1.667   6.567
 8402SOL    HW126105   3.864   1.591   6.594
 8402SOL    HW226106   3.859   1.739   6.524
 8403SOL     OW26107   1.536   1.610   4.126
 8403SOL    HW126108   1.635   1.606   4.137
 8403SOL    HW226109   1.491   1.596   4.214
 8404SOL     OW26110   4.660   6.184   5.868
 8404SOL    HW126111   4.728   6.254   5.890
 8404SOL    HW226112   4.629   6.196   5.774
 8405SOL     OW26113   0.495   2.729   6.475
 8405SOL    HW126114   0.540   2.818   6.468
 8405SOL    HW226115   0.488   2.703   6.572
 8406SOL     OW26116   4.825   2.035   1.192
 8406SOL    HW126117   4.890   1.984   1.136
 8406SOL    HW226118   4.835   2.007   1.288
 8407SOL     OW26119   5.720   4.500   4.098
 8407SOL    HW126120   5.633   4.450   4.105
 8407SOL    HW226121   5.721   4.552   4.012
 8408SOL     OW26122   4.867   1.093   3.883
 8408SOL    HW126123   4.883   0.996   3.903
 8408SOL    HW226124   4.769   1.111   3.878
 8409SOL     OW26125   1.080   1.582   4.021
 8409SOL    HW126126   1.000   1.593   3.962
 8409SOL    HW226127   1.129   1.669   4.029
 8410SOL     OW26128   4.877   6.680   1.745
 8410SOL    HW126129   4.957   6.642   1.792
 8410SOL    HW226130   4.828   6.606   1.699
 8411SOL     OW26131   1.406   4.469   4.156
 8411SOL    HW126132   1.324   4.523   4.178
 8411SOL    HW226133   1.386   4.409   4.079
 8412SOL     OW26134   4.519   2.399   1.984
 8412SOL    HW126135   4.426   2.410   2.021
 8412SOL    HW226136   4.549   2.304   1.997
 8413SOL     OW26137   3.619   5.055   0.351
 8413SOL    HW126138   3.681   5.123   0.311
 8413SOL    HW226139   3.671   4.975   0.380
 8414SOL     OW26140   3.872   5.900   3.556
 8414SOL    HW126141   3.797   5.906   3.622
 8414SOL    HW226142   3.959   5.893   3.606
 8415SOL     OW26143   0.061   4.143   3.383
 8415SOL    HW126144   0.121   4.168   3.307
 8415SOL    HW226145   0.097   4.180   3.468
 8416SOL     OW26146   5.041   4.103   2.711
 8416SOL    HW126147   5.061   4.102   2.613
 8416SOL    HW226148   5.057   4.195   2.747
 8417SOL     OW26149   2.197   6.237   6.050
 8417SOL    HW126150   2.238   6.302   6.114
 8417SOL    HW226151   2.263   6.165   6.028
 8418SOL     OW26152   6.195   6.046   2.756
 8418SOL    HW126153   6.110   5.995   2.751
 8418SOL    HW226154   6.272   5.982   2.765
 8419SOL     OW26155   4.477   0.250   2.285
 8419SOL    HW126156   4.558   0.203   2.249
 8419SOL    HW226157   4.414   0.271   2.210
 8420SOL     OW26158   3.821   0.619   6.902
 8420SOL    HW126159   3.897   0.554   6.890
 8420SOL    HW226160   3.794   0.621   6.998
 8421SOL     OW26161   1.601   6.936   2.232
 8421SOL    HW126162   1.533   6.947   2.304
 8421SOL    HW226163   1.690   6.915   2.273
 8422SOL     OW26164   5.197   6.664   0.334
 8422SOL    HW126165   5.119   6.606   0.358
 8422SOL    HW226166   5.218   6.653   0.237
 8423SOL     OW26167   3.565   4.858   0.019
 8423SOL    HW126168   3.595   4.796   0.091
 8423SOL    HW226169   3.507   4.807   6.976
 8424SOL     OW26170   3.434   1.794   2.425
 8424SOL    HW126171   3.334   1.799   2.421
 8424SOL    HW226172   3.463   1.698   2.422
 8425SOL     OW26173   6.480   5.396   1.559
 8425SOL    HW126174   6.535   5.356   1.632
 8425SOL    HW226175   6.494   5.495   1.556
 8426SOL     OW26176   3.721   3.809   3.795
 8426SOL    HW126177   3.695   3.776   3.704
 8426SOL    HW226178   3.670   3.759   3.865
 8427SOL     OW26179   1.724   3.648   6.895
 8427SOL    HW126180   1.744   3.628   6.991
 8427SOL    HW226181   1.808   3.642   6.841
 8428SOL     OW26182   0.450   4.370   2.040
 8428SOL    HW126183   0.423   4.283   2.001
 8428SOL    HW226184   0.394   4.390   2.120
 8429SOL     OW26185   2.421   5.213   4.024
 8429SOL    HW126186   2.441   5.177   4.115
 8429SOL    HW226187   2.332   5.258   4.026
 8430SOL     OW26188   4.729   4.675   2.837
 8430SOL    HW126189   4.777   4.722   2.762
 8430SOL    HW226190   4.660   4.737   2.875
 8431SOL     OW26191   3.606   4.819   1.183
 8431SOL    HW126192   3.515   4.851   1.156
 8431SOL    HW226193   3.644   4.761   1.110
 8432SOL     OW26194   4.349   5.367   6.403
 8432SOL    HW126195   4.267   5.424   6.411
 8432SOL    HW226196   4.410   5.386   6.480
 8433SOL     OW26197   0.921   2.662   6.595
 8433SOL    HW126198   0.890   2.754   6.568
 8433SOL    HW226199   0.979   2.668   6.676
 8434SOL     OW26200   4.506   6.550   5.814
 8434SOL    HW126201   4.538   6.633   5.768
 8434SOL    HW226202   4.424   6.571   5.867
 8435SOL     OW26203   4.167   2.103   1.024
 8435SOL    HW126204   4.114   2.046   1.087
 8435SOL    HW226205   4.173   2.057   0.935
 8436SOL     OW26206   3.973   4.827   2.505
 8436SOL    HW126207   3.878   4.837   2.536
 8436SOL    HW226208   3.978   4.841   2.406
 8437SOL     OW26209   0.389   0.901   1.066
 8437SOL    HW126210   0.446   0.859   0.996
 8437SOL    HW226211   0.299   0.921   1.028
 8438SOL     OW26212   2.969   4.828   2.336
 8438SOL    HW126213   2.888   4.886   2.323
 8438SOL    HW226214   3.005   4.802   2.246
 8439SOL     OW26215   0.039   5.352   2.113
 8439SOL    HW126216   6.992   5.292   2.155
 8439SOL    HW226217   0.016   5.447   2.132
 8440SOL     OW26218   0.026   0.794   1.549
 8440SOL    HW126219   0.009   0.790   1.647
 8440SOL    HW226220   0.121   0.770   1.530
 8441SOL     OW26221   5.349   5.787   6.882
 8441SOL    HW126222   5.412   5.742   6.819
 8441SOL    HW226223   5.395   5.800   6.970
 8442SOL     OW26224   2.654   4.371   0.012
 8442SOL    HW126225   2.631   4.310   6.958
 8442SOL    HW226226   2.691   4.457   6.998
 8443SOL     OW26227   0.722   0.676   3.643
 8443SOL    HW126228   0.768   0.668   3.555
 8443SOL    HW226229   0.732   0.769   3.678
 8444SOL     OW26230   3.992   6.484   3.969
 8444SOL    HW126231   4.066   6.540   4.009
 8444SOL    HW226232   3.962   6.525   3.883
 8445SOL     OW26233   3.524   5.231   3.179
 8445SOL    HW126234   3.433   5.195   3.157
 8445SOL    HW226235   3.572   5.256   3.095
 8446SOL     OW26236   5.307   5.418   3.073
 8446SOL    HW126237   5.276   5.325   3.091
 8446SOL    HW226238   5.340   5.425   2.979
 8447SOL     OW26239   5.321   2.446   1.574
 8447SOL    HW126240   5.392   2.514   1.591
 8447SOL    HW226241   5.242   2.467   1.632
 8448SOL     OW26242   0.397   3.642   5.977
 8448SOL    HW126243   0.298   3.650   5.962
 8448SOL    HW226244   0.423   3.690   6.061
 8449SOL     OW26245   0.460   3.275   4.966
 8449SOL    HW126246   0.466   3.374   4.951
 8449SOL    HW226247   0.551   3.239   4.984
 8450SOL     OW26248   1.620   6.220   3.023
 8450SOL    HW126249   1.633   6.185   2.930
 8450SOL    HW226250   1.709   6.228   3.068
 8451SOL     OW26251   3.530   2.887   1.023
 8451SOL    HW126252   3.474   2.916   1.100
 8451SOL    HW226253   3.617   2.852   1.056
 8452SOL     OW26254   6.625   0.520   1.117
 8452SOL    HW126255   6.572   0.596   1.154
 8452SOL    HW226256   6.710   0.555   1.077
 8453SOL     OW26257   6.481   4.817   6.376
 8453SOL    HW126258   6.425   4.883   6.327
 8453SOL    HW226259   6.423   4.759   6.432
 8454SOL     OW26260   1.454   6.630   2.783
 8454SOL    HW126261   1.431   6.590   2.694
 8454SOL    HW226262   1.472   6.557   2.848
 8455SOL     OW26263   4.834   1.568   1.407
 8455SOL    HW126264   4.763   1.608   1.349
 8455SOL    HW226265   4.905   1.637   1.425
 8456SOL     OW26266   5.467   5.350   3.934
 8456SOL    HW126267   5.436   5.274   3.876
 8456SOL    HW226268   5.538   5.401   3.886
 8457SOL     OW26269   6.730   0.264   5.491
 8457SOL    HW126270   6.819   0.256   5.537
 8457SOL    HW226271   6.745   0.285   5.395
 8458SOL     OW26272   2.124   1.613   0.055
 8458SOL    HW126273   2.104   1.618   6.979
 8458SOL    HW226274   2.163   1.524   0.077
 8459SOL     OW26275   3.894   6.025   2.653
 8459SOL    HW126276   3.927   6.073   2.571
 8459SOL    HW226277   3.945   6.056   2.733
 8460SOL     OW26278   4.649   2.714   0.017
 8460SOL    HW126279   4.557   2.754   0.016
 8460SOL    HW226280   4.657   2.650   0.094
 8461SOL     OW26281   0.543   3.660   1.843
 8461SOL    HW126282   0.572   3.723   1.915
 8461SOL    HW226283   0.507   3.577   1.884
 8462SOL     OW26284   3.762   3.524   0.092
 8462SOL    HW126285   3.775   3.559   7.021
 8462SOL    HW226286   3.707   3.441   0.088
 8463SOL     OW26287   6.899   2.184   7.015
 8463SOL    HW126288   6.946   2.197   0.081
 8463SOL    HW226289   6.822   2.248   7.008
 8464SOL     OW26290   7.018   3.337   6.184
 8464SOL    HW126291   6.963   3.342   6.100
 8464SOL    HW226292   6.959   3.347   6.264
 8465SOL     OW26293   3.003   2.505   0.743
 8465SOL    HW126294   2.950   2.582   0.709
 8465SOL    HW226295   2.942   2.435   0.780
 8466SOL     OW26296   5.379   0.535   5.500
 8466SOL    HW126297   5.383   0.482   5.416
 8466SOL    HW226298   5.418   0.625   5.485
 8467SOL     OW26299   3.460   0.582   0.392
 8467SOL    HW126300   3.403   0.664   0.380
 8467SOL    HW226301   3.546   0.607   0.436
 8468SOL     OW26302   6.126   3.544   6.449
 8468SOL    HW126303   6.170   3.460   6.478
 8468SOL    HW226304   6.070   3.580   6.523
 8469SOL     OW26305   4.129   2.827   5.964
 8469SOL    HW126306   4.182   2.887   6.025
 8469SOL    HW226307   4.068   2.882   5.907
 8470SOL     OW26308   0.882   4.755   1.070
 8470SOL    HW126309   0.923   4.675   1.113
 8470SOL    HW226310   0.901   4.836   1.125
 8471SOL     OW26311   3.032   0.603   4.877
 8471SOL    HW126312   3.118   0.602   4.927
 8471SOL    HW226313   2.971   0.673   4.915
 8472SOL     OW26314   5.650   1.286   6.136
 8472SOL    HW126315   5.748   1.293   6.119
 8472SOL    HW226316   5.634   1.239   6.223
 8473SOL     OW26317   4.434   4.870   0.023
 8473SOL    HW126318   4.488   4.912   6.973
 8473SOL    HW226319   4.442   4.770   0.016
 8474SOL     OW26320   2.992   3.320   3.127
 8474SOL    HW126321   3.060   3.281   3.065
 8474SOL    HW226322   2.948   3.247   3.179
 8475SOL     OW26323   0.149   3.717   1.463
 8475SOL    HW126324   0.161   3.815   1.443
 8475SOL    HW226325   0.190   3.696   1.551
 8476SOL     OW26326   6.442   0.431   1.459
 8476SOL    HW126327   6.343   0.446   1.450
 8476SOL    HW226328   6.467   0.433   1.556
 8477SOL     OW26329   5.199   6.117   1.561
 8477SOL    HW126330   5.276   6.178   1.541
 8477SOL    HW226331   5.166   6.077   1.475
 8478SOL     OW26332   1.060   0.779   5.633
 8478SOL    HW126333   0.962   0.796   5.621
 8478SOL    HW226334   1.079   0.757   5.728
 8479SOL     OW26335   1.758   2.072   0.983
 8479SOL    HW126336   1.733   2.020   0.902
 8479SOL    HW226337   1.680   2.125   1.015
 8480SOL     OW26338   4.714   3.033   0.177
 8480SOL    HW126339   4.782   2.959   0.172
 8480SOL    HW226340   4.680   3.054   0.086
 8481SOL     OW26341   3.724   2.049   4.451
 8481SOL    HW126342   3.781   2.130   4.458
 8481SOL    HW226343   3.658   2.047   4.527
 8482SOL     OW26344   4.173   1.084   6.967
 8482SOL    HW126345   4.094   1.139   6.940
 8482SOL    HW226346   4.150   0.987   6.958
 8483SOL     OW26347   3.504   6.159   3.540
 8483SOL    HW126348   3.486   6.063   3.562
 8483SOL    HW226349   3.521   6.167   3.441
 8484SOL     OW26350   6.370   5.967   5.349
 8484SOL    HW126351   6.340   5.976   5.444
 8484SOL    HW226352   6.458   5.920   5.347
 8485SOL     OW26353   3.434   2.162   0.215
 8485SOL    HW126354   3.489   2.144   0.296
 8485SOL    HW226355   3.457   2.096   0.143
 8486SOL     OW26356   1.996   1.379   2.235
 8486SOL    HW126357   2.088   1.377   2.275
 8486SOL    HW226358   1.983   1.465   2.187
 8487SOL     OW26359   5.351   1.750   6.329
 8487SOL    HW126360   5.435   1.704   6.355
 8487SOL    HW226361   5.279   1.681   6.315
 8488SOL     OW26362   5.784   5.234   2.667
 8488SOL    HW126363   5.860   5.170   2.653
 8488SOL    HW226364   5.700   5.193   2.634
 8489SOL     OW26365   5.481   0.936   1.581
 8489SOL    HW126366   5.472   0.911   1.677
 8489SOL    HW226367   5.456   1.032   1.569
 8490SOL     OW26368   2.606   0.042   6.401
 8490SOL    HW126369   2.588   0.119   6.341
 8490SOL    HW226370   2.675   0.068   6.469
 8491SOL     OW26371   2.280   6.254   2.870
 8491SOL    HW126372   2.279   6.353   2.890
 8491SOL    HW226373   2.186   6.223   2.855
 8492SOL     OW26374   6.039   3.914   4.277
 8492SOL    HW126375   6.112   3.914   4.209
 8492SOL    HW226376   6.043   3.831   4.331
 8493SOL     OW26377   2.717   1.257   0.361
 8493SOL    HW126378   2.659   1.179   0.385
 8493SOL    HW226379   2.662   1.340   0.357
 8494SOL     OW26380   5.536   4.983   1.687
 8494SOL    HW126381   5.547   5.076   1.722
 8494SOL    HW226382   5.465   4.982   1.616
 8495SOL     OW26383   6.359   6.110   0.828
 8495SOL    HW126384   6.436   6.141   0.884
 8495SOL    HW226385   6.370   6.143   0.734
 8496SOL     OW26386   5.258   1.117   2.183
 8496SOL    HW126387   5.273   1.193   2.247
 8496SOL    HW226388   5.314   1.131   2.101
 8497SOL     OW26389   0.168   0.422   3.404
 8497SOL    HW126390   0.227   0.376   3.338
 8497SOL    HW226391   0.139   0.357   3.474
 8498SOL     OW26392   5.309   6.782   3.572
 8498SOL    HW126393   5.287   6.787   3.669
 8498SOL    HW226394   5.225   6.775   3.519
 8499SOL     OW26395   0.958   5.766   0.684
 8499SOL    HW126396   0.997   5.857   0.672
 8499SOL    HW226397   1.014   5.699   0.635
 8500SOL     OW26398   1.565   0.594   5.770
 8500SOL    HW126399   1.472   0.600   5.733
 8500SOL    HW226400   1.629   0.578   5.695
 8501SOL     OW26401   0.274   2.434   0.091
 8501SOL    HW126402   0.201   2.372   0.121
 8501SOL    HW226403   0.247   2.528   0.111
 8502SOL     OW26404   0.509   2.723   0.267
 8502SOL    HW126405   0.548   2.633   0.251
 8502SOL    HW226406   0.518   2.746   0.364
 8503SOL     OW26407   6.484   6.126   4.561
 8503SOL    HW126408   6.459   6.183   4.483
 8503SOL    HW226409   6.505   6.033   4.529
 8504SOL     OW26410   2.108   5.181   2.253
 8504SOL    HW126411   2.131   5.264   2.305
 8504SOL    HW226412   2.036   5.131   2.299
 8505SOL     OW26413   5.250   3.699   2.663
 8505SOL    HW126414   5.215   3.745   2.581
 8505SOL    HW226415   5.300   3.765   2.719
 8506SOL     OW26416   1.434   0.791   6.493
 8506SOL    HW126417   1.424   0.848   6.574
 8506SOL    HW226418   1.351   0.737   6.479
 8507SOL     OW26419   4.556   0.136   5.267
 8507SOL    HW126420   4.599   0.045   5.274
 8507SOL    HW226421   4.586   0.181   5.183
 8508SOL     OW26422   4.136   1.977   6.294
 8508SOL    HW126423   4.211   1.946   6.236
 8508SOL    HW226424   4.153   2.071   6.324
 8509SOL     OW26425   5.597   0.230   3.456
 8509SOL    HW126426   5.530   0.170   3.411
 8509SOL    HW226427   5.680   0.178   3.475
 8510SOL     OW26428   5.235   2.471   4.068
 8510SOL    HW126429   5.195   2.478   3.977
 8510SOL    HW226430   5.292   2.551   4.086
 8511SOL     OW26431   5.792   3.432   2.538
 8511SOL    HW126432   5.827   3.355   2.591
 8511SOL    HW226433   5.760   3.503   2.600
 8512SOL     OW26434   2.333   0.237   3.521
 8512SOL    HW126435   2.394   0.187   3.583
 8512SOL    HW226436   2.331   0.333   3.547
 8513SOL     OW26437   5.943   5.880   0.192
 8513SOL    HW126438   5.868   5.819   0.218
 8513SOL    HW226439   5.962   5.944   0.267
 8514SOL     OW26440   3.445   6.383   3.241
 8514SOL    HW126441   3.525   6.395   3.300
 8514SOL    HW226442   3.422   6.471   3.198
 8515SOL     OW26443   5.410   2.479   0.919
 8515SOL    HW126444   5.341   2.406   0.919
 8515SOL    HW226445   5.501   2.438   0.912
 8516SOL     OW26446   6.657   2.359   2.391
 8516SOL    HW126447   6.743   2.402   2.420
 8516SOL    HW226448   6.580   2.407   2.432
 8517SOL     OW26449   1.134   2.378   6.864
 8517SOL    HW126450   1.159   2.281   6.867
 8517SOL    HW226451   1.038   2.389   6.890
 8518SOL     OW26452   3.835   5.238   0.300
 8518SOL    HW126453   3.881   5.185   0.229
 8518SOL    HW226454   3.893   5.242   0.382
 8519SOL     OW26455   1.818   6.134   2.230
 8519SOL    HW126456   1.770   6.164   2.147
 8519SOL    HW226457   1.780   6.047   2.261
 8520SOL     OW26458   3.962   1.062   0.285
 8520SOL    HW126459   3.938   1.013   0.201
 8520SOL    HW226460   3.899   1.139   0.298
 8521SOL     OW26461   0.317   6.563   5.864
 8521SOL    HW126462   0.240   6.517   5.908
 8521SOL    HW226463   0.401   6.544   5.916
 8522SOL     OW26464   1.058   6.636   3.486
 8522SOL    HW126465   1.043   6.669   3.579
 8522SOL    HW226466   1.018   6.700   3.420
 8523SOL     OW26467   2.683   6.846   6.066
 8523SOL    HW126468   2.733   6.835   5.980
 8523SOL    HW226469   2.648   6.939   6.073
 8524SOL     OW26470   1.079   3.359   5.142
 8524SOL    HW126471   1.000   3.329   5.195
 8524SOL    HW226472   1.049   3.395   5.054
 8525SOL     OW26473   5.650   3.400   3.223
 8525SOL    HW126474   5.564   3.426   3.180
 8525SOL    HW226475   5.671   3.305   3.203
 8526SOL     OW26476   2.378   2.887   1.780
 8526SOL    HW126477   2.280   2.900   1.764
 8526SOL    HW226478   2.426   2.973   1.763
 8527SOL     OW26479   4.660   0.383   4.396
 8527SOL    HW126480   4.586   0.423   4.451
 8527SOL    HW226481   4.643   0.286   4.382
 8528SOL     OW26482   5.002   2.996   6.320
 8528SOL    HW126483   5.004   2.910   6.371
 8528SOL    HW226484   4.955   3.066   6.375
 8529SOL     OW26485   1.665   5.029   0.218
 8529SOL    HW126486   1.618   5.116   0.230
 8529SOL    HW226487   1.736   5.019   0.289
 8530SOL     OW26488   1.310   4.230   5.701
 8530SOL    HW126489   1.293   4.144   5.750
 8530SOL    HW226490   1.229   4.288   5.708
 8531SOL     OW26491   5.258   4.461   2.660
 8531SOL    HW126492   5.209   4.474   2.745
 8531SOL    HW226493   5.264   4.548   2.611
 8532SOL     OW26494   3.484   5.229   5.185
 8532SOL    HW126495   3.553   5.168   5.145
 8532SOL    HW226496   3.522   5.320   5.196
 8533SOL     OW26497   3.224   1.249   4.565
 8533SOL    HW126498   3.289   1.310   4.610
 8533SOL    HW226499   3.199   1.286   4.476
 8534SOL     OW26500   1.343   3.501   2.944
 8534SOL    HW126501   1.423   3.558   2.963
 8534SOL    HW226502   1.324   3.502   2.846
 8535SOL     OW26503   0.640   2.085   4.652
 8535SOL    HW126504   0.659   2.085   4.553
 8535SOL    HW226505   0.718   2.125   4.701
 8536SOL     OW26506   6.941   1.629   5.648
 8536SOL    HW126507   6.994   1.686   5.712
 8536SOL    HW226508   6.877   1.572   5.700
 8537SOL     OW26509   5.680   0.849   1.205
 8537SOL    HW126510   5.615   0.891   1.142
 8537SOL    HW226511   5.758   0.910   1.218
 8538SOL     OW26512   0.030   0.787   4.714
 8538SOL    HW126513   6.973   0.727   4.700
 8538SOL    HW226514   0.038   0.808   4.812
 8539SOL     OW26515   0.297   2.680   1.768
 8539SOL    HW126516   0.213   2.711   1.812
 8539SOL    HW226517   0.300   2.714   1.674
 8540SOL     OW26518   3.269   0.843   0.646
 8540SOL    HW126519   3.228   0.906   0.580
 8540SOL    HW226520   3.244   0.749   0.623
 8541SOL     OW26521   2.989   1.330   4.846
 8541SOL    HW126522   2.905   1.280   4.827
 8541SOL    HW226523   3.067   1.269   4.832
 8542SOL     OW26524   1.896   4.287   6.674
 8542SOL    HW126525   1.854   4.265   6.762
 8542SOL    HW226526   1.995   4.292   6.685
 8543SOL     OW26527   2.572   2.561   5.137
 8543SOL    HW126528   2.584   2.548   5.038
 8543SOL    HW226529   2.644   2.512   5.186
 8544SOL     OW26530   4.961   3.858   5.124
 8544SOL    HW126531   5.035   3.878   5.189
 8544SOL    HW226532   4.912   3.942   5.103
 8545SOL     OW26533   3.610   6.684   5.593
 8545SOL    HW126534   3.707   6.662   5.601
 8545SOL    HW226535   3.593   6.727   5.504
 8546SOL     OW26536   5.596   0.634   1.886
 8546SOL    HW126537   5.539   0.705   1.846
 8546SOL    HW226538   5.677   0.620   1.828
 8547SOL     OW26539   6.836   6.401   5.854
 8547SOL    HW126540   6.768   6.464   5.892
 8547SOL    HW226541   6.806   6.368   5.765
 8548SOL     OW26542   0.620   3.091   6.183
 8548SOL    HW126543   0.684   3.157   6.221
 8548SOL    HW226544   0.670   3.022   6.130
 8549SOL     OW26545   2.047   0.703   3.477
 8549SOL    HW126546   2.145   0.724   3.469
 8549SOL    HW226547   2.004   0.716   3.387
 8550SOL     OW26548   0.742   4.381   0.099
 8550SOL    HW126549   0.783   4.391   0.190
 8550SOL    HW226550   0.672   4.308   0.103
 8551SOL     OW26551   1.976   1.970   6.245
 8551SOL    HW126552   1.955   2.031   6.169
 8551SOL    HW226553   1.990   1.877   6.210
 8552SOL     OW26554   2.649   1.533   2.664
 8552SOL    HW126555   2.744   1.564   2.669
 8552SOL    HW226556   2.591   1.596   2.715
 8553SOL     OW26557   4.731   2.883   1.054
 8553SOL    HW126558   4.670   2.933   1.114
 8553SOL    HW226559   4.751   2.937   0.972
 8554SOL     OW26560   0.690   6.537   0.935
 8554SOL    HW126561   0.668   6.513   0.841
 8554SOL    HW226562   0.613   6.514   0.995
 8555SOL     OW26563   4.473   1.389   3.826
 8555SOL    HW126564   4.553   1.359   3.878
 8555SOL    HW226565   4.441   1.314   3.768
 8556SOL     OW26566   2.173   6.151   6.994
 8556SOL    HW126567   2.242   6.206   0.020
 8556SOL    HW226568   2.096   6.133   0.033
 8557SOL     OW26569   6.823   0.813   6.803
 8557SOL    HW126570   6.861   0.905   6.802
 8557SOL    HW226571   6.873   0.756   6.738
 8558SOL     OW26572   3.120   4.900   3.273
 8558SOL    HW126573   3.163   4.850   3.348
 8558SOL    HW226574   3.097   4.993   3.304
 8559SOL     OW26575   1.069   5.271   2.501
 8559SOL    HW126576   1.016   5.211   2.560
 8559SOL    HW226577   1.162   5.282   2.538
 8560SOL     OW26578   2.681   4.849   1.091
 8560SOL    HW126579   2.704   4.854   0.993
 8560SOL    HW226580   2.717   4.930   1.137
 8561SOL     OW26581   3.162   0.348   2.562
 8561SOL    HW126582   3.101   0.282   2.521
 8561SOL    HW226583   3.126   0.376   2.652
 8562SOL     OW26584   3.941   1.103   6.753
 8562SOL    HW126585   4.018   1.141   6.702
 8562SOL    HW226586   3.900   1.175   6.809
 8563SOL     OW26587   1.647   5.687   3.439
 8563SOL    HW126588   1.738   5.725   3.418
 8563SOL    HW226589   1.610   5.643   3.357
 8564SOL     OW26590   3.755   6.532   7.020
 8564SOL    HW126591   3.668   6.550   6.974
 8564SOL    HW226592   3.800   6.619   0.021
 8565SOL     OW26593   3.169   5.274   1.084
 8565SOL    HW126594   3.192   5.335   1.160
 8565SOL    HW226595   3.243   5.209   1.069
 8566SOL     OW26596   3.131   1.144   3.067
 8566SOL    HW126597   3.141   1.207   3.144
 8566SOL    HW226598   3.169   1.055   3.092
 8567SOL     OW26599   1.935   1.950   1.589
 8567SOL    HW126600   2.017   1.894   1.577
 8567SOL    HW226601   1.885   1.918   1.670
 8568SOL     OW26602   6.975   1.661   7.006
 8568SOL    HW126603   6.971   1.605   0.067
 8568SOL    HW226604   6.884   1.667   6.965
 8569SOL     OW26605   5.366   2.508   6.315
 8569SOL    HW126606   5.333   2.570   6.245
 8569SOL    HW226607   5.295   2.494   6.384
 8570SOL     OW26608   0.923   2.168   4.697
 8570SOL    HW126609   0.931   2.085   4.643
 8570SOL    HW226610   0.994   2.169   4.768
 8571SOL     OW26611   2.067   0.555   4.276
 8571SOL    HW126612   2.086   0.652   4.289
 8571SOL    HW226613   2.119   0.502   4.342
 8572SOL     OW26614   3.444   4.137   5.751
 8572SOL    HW126615   3.454   4.216   5.812
 8572SOL    HW226616   3.402   4.167   5.665
 8573SOL     OW26617   3.578   6.068   1.064
 8573SOL    HW126618   3.613   6.115   1.146
 8573SOL    HW226619   3.524   6.133   1.010
 8574SOL     OW26620   6.832   6.445   5.484
 8574SOL    HW126621   6.825   6.385   5.564
 8574SOL    HW226622   6.829   6.540   5.514
 8575SOL     OW26623   3.144   6.772   2.587
 8575SOL    HW126624   3.228   6.755   2.536
 8575SOL    HW226625   3.065   6.749   2.530
 8576SOL     OW26626   0.553   3.647   4.491
 8576SOL    HW126627   0.517   3.603   4.574
 8576SOL    HW226628   0.653   3.650   4.497
 8577SOL     OW26629   1.612   1.437   6.112
 8577SOL    HW126630   1.570   1.359   6.158
 8577SOL    HW226631   1.583   1.522   6.156
 8578SOL     OW26632   6.127   6.729   5.133
 8578SOL    HW126633   6.145   6.642   5.087
 8578SOL    HW226634   6.104   6.799   5.065
 8579SOL     OW26635   2.398   6.028   2.698
 8579SOL    HW126636   2.417   6.024   2.600
 8579SOL    HW226637   2.452   6.101   2.740
 8580SOL     OW26638   1.018   6.455   0.792
 8580SOL    HW126639   0.938   6.490   0.842
 8580SOL    HW226640   1.095   6.516   0.807
 8581SOL     OW26641   3.733   4.891   1.405
 8581SOL    HW126642   3.664   4.938   1.460
 8581SOL    HW226643   3.692   4.863   1.318
 8582SOL     OW26644   4.236   4.669   5.772
 8582SOL    HW126645   4.206   4.704   5.860
 8582SOL    HW226646   4.167   4.689   5.702
 8583SOL     OW26647   4.228   0.592   2.498
 8583SOL    HW126648   4.231   0.493   2.513
 8583SOL    HW226649   4.135   0.620   2.474
 8584SOL     OW26650   6.383   1.171   4.436
 8584SOL    HW126651   6.312   1.128   4.381
 8584SOL    HW226652   6.353   1.262   4.464
 8585SOL     OW26653   6.119   2.302   1.270
 8585SOL    HW126654   6.026   2.300   1.308
 8585SOL    HW226655   6.180   2.347   1.334
 8586SOL     OW26656   5.382   6.407   1.545
 8586SOL    HW126657   5.376   6.349   1.464
 8586SOL    HW226658   5.432   6.490   1.522
 8587SOL     OW26659   0.971   1.558   5.717
 8587SOL    HW126660   0.881   1.602   5.729
 8587SOL    HW226661   0.962   1.483   5.651
 8588SOL     OW26662   2.890   1.720   6.867
 8588SOL    HW126663   2.937   1.776   6.936
 8588SOL    HW226664   2.958   1.671   6.813
 8589SOL     OW26665   0.257   3.318   5.618
 8589SOL    HW126666   0.272   3.389   5.549
 8589SOL    HW226667   0.171   3.335   5.666
 8590SOL     OW26668   0.199   1.931   2.315
 8590SOL    HW126669   0.102   1.944   2.294
 8590SOL    HW226670   0.208   1.879   2.400
 8591SOL     OW26671   6.828   5.260   0.508
 8591SOL    HW126672   6.927   5.248   0.501
 8591SOL    HW226673   6.798   5.236   0.600
 8592SOL     OW26674   0.498   2.731   6.968
 8592SOL    HW126675   0.528   2.822   6.942
 8592SOL    HW226676   0.478   2.729   0.044
 8593SOL     OW26677   3.098   0.348   6.274
 8593SOL    HW126678   3.136   0.381   6.360
 8593SOL    HW226679   3.037   0.271   6.291
 8594SOL     OW26680   6.081   2.742   6.138
 8594SOL    HW126681   6.165   2.759   6.190
 8594SOL    HW226682   6.103   2.697   6.052
 8595SOL     OW26683   4.913   6.703   2.481
 8595SOL    HW126684   5.010   6.680   2.469
 8595SOL    HW226685   4.863   6.620   2.505
 8596SOL     OW26686   1.172   3.326   3.741
 8596SOL    HW126687   1.228   3.287   3.668
 8596SOL    HW226688   1.160   3.259   3.814
 8597SOL     OW26689   6.215   3.686   1.358
 8597SOL    HW126690   6.247   3.614   1.296
 8597SOL    HW226691   6.126   3.659   1.396
 8598SOL     OW26692   5.573   0.765   4.961
 8598SOL    HW126693   5.647   0.769   4.894
 8598SOL    HW226694   5.507   0.838   4.943
 8599SOL     OW26695   1.420   2.873   3.555
 8599SOL    HW126696   1.357   2.809   3.512
 8599SOL    HW226697   1.397   2.967   3.529
 8600SOL     OW26698   4.417   3.529   0.978
 8600SOL    HW126699   4.389   3.625   0.971
 8600SOL    HW226700   4.352   3.472   0.928
 8601SOL     OW26701   1.115   0.872   3.801
 8601SOL    HW126702   1.213   0.855   3.787
 8601SOL    HW226703   1.069   0.785   3.821
 8602SOL     OW26704   2.674   6.877   4.508
 8602SOL    HW126705   2.592   6.831   4.473
 8602SOL    HW226706   2.655   6.913   4.599
 8603SOL     OW26707   6.961   0.297   0.174
 8603SOL    HW126708   6.938   0.378   0.121
 8603SOL    HW226709   0.011   0.319   0.240
 8604SOL     OW26710   1.044   4.465   5.931
 8604SOL    HW126711   0.949   4.495   5.923
 8604SOL    HW226712   1.082   4.448   5.840
 8605SOL     OW26713   0.035   4.708   4.711
 8605SOL    HW126714   0.120   4.736   4.668
 8605SOL    HW226715   6.992   4.676   4.642
 8606SOL     OW26716   2.154   2.100   6.423
 8606SOL    HW126717   2.118   2.036   6.355
 8606SOL    HW226718   2.098   2.095   6.506
 8607SOL     OW26719   2.315   4.809   1.522
 8607SOL    HW126720   2.257   4.869   1.468
 8607SOL    HW226721   2.404   4.798   1.478
 8608SOL     OW26722   2.646   4.572   3.105
 8608SOL    HW126723   2.604   4.493   3.062
 8608SOL    HW226724   2.630   4.653   3.048
 8609SOL     OW26725   4.844   1.310   3.595
 8609SOL    HW126726   4.862   1.281   3.501
 8609SOL    HW226727   4.928   1.301   3.649
 8610SOL     OW26728   0.041   6.407   3.296
 8610SOL    HW126729   0.138   6.402   3.319
 8610SOL    HW226730   7.009   6.409   3.381
 8611SOL     OW26731   3.163   1.129   3.503
 8611SOL    HW126732   3.116   1.126   3.591
 8611SOL    HW226733   3.176   1.036   3.468
 8612SOL     OW26734   4.158   3.379   3.285
 8612SOL    HW126735   4.101   3.386   3.366
 8612SOL    HW226736   4.131   3.299   3.231
 8613SOL     OW26737   2.852   2.486   1.262
 8613SOL    HW126738   2.800   2.552   1.316
 8613SOL    HW226739   2.816   2.394   1.276
 8614SOL     OW26740   1.475   2.387   1.669
 8614SOL    HW126741   1.430   2.367   1.582
 8614SOL    HW226742   1.502   2.483   1.671
 8615SOL     OW26743   4.579   2.038   3.677
 8615SOL    HW126744   4.620   1.993   3.756
 8615SOL    HW226745   4.555   1.971   3.608
 8616SOL     OW26746   4.184   5.008   2.583
 8616SOL    HW126747   4.099   5.050   2.615
 8616SOL    HW226748   4.165   4.920   2.540
 8617SOL     OW26749   5.124   6.546   3.954
 8617SOL    HW126750   5.148   6.449   3.944
 8617SOL    HW226751   5.206   6.599   3.975
 8618SOL     OW26752   6.085   4.054   1.671
 8618SOL    HW126753   6.156   4.050   1.601
 8618SOL    HW226754   5.997   4.028   1.631
 8619SOL     OW26755   5.409   5.086   2.088
 8619SOL    HW126756   5.421   5.036   2.174
 8619SOL    HW226757   5.415   5.184   2.106
 8620SOL     OW26758   2.329   0.989   4.891
 8620SOL    HW126759   2.317   1.087   4.879
 8620SOL    HW226760   2.244   0.948   4.923
 8621SOL     OW26761   4.686   2.600   1.953
 8621SOL    HW126762   4.622   2.528   1.980
 8621SOL    HW226763   4.636   2.671   1.904
 8622SOL     OW26764   6.707   5.177   2.568
 8622SOL    HW126765   6.699   5.261   2.622
 8622SOL    HW226766   6.792   5.130   2.590
 8623SOL     OW26767   6.566   3.523   4.646
 8623SOL    HW126768   6.550   3.459   4.571
 8623SOL    HW226769   6.659   3.512   4.680
 8624SOL     OW26770   3.429   3.549   6.023
 8624SOL    HW126771   3.520   3.524   5.991
 8624SOL    HW226772   3.360   3.507   5.963
 8625SOL     OW26773   3.359   1.718   5.302
 8625SOL    HW126774   3.281   1.777   5.278
 8625SOL    HW226775   3.327   1.623   5.311
 8626SOL     OW26776   4.786   3.099   0.734
 8626SOL    HW126777   4.810   3.102   0.636
 8626SOL    HW226778   4.870   3.091   0.788
 8627SOL     OW26779   1.806   1.334   2.862
 8627SOL    HW126780   1.750   1.361   2.940
 8627SOL    HW226781   1.856   1.250   2.883
 8628SOL     OW26782   0.156   6.647   0.072
 8628SOL    HW126783   0.177   6.608   0.162
 8628SOL    HW226784   0.167   6.577   0.001
 8629SOL     OW26785   0.650   0.178   4.256
 8629SOL    HW126786   0.700   0.253   4.213
 8629SOL    HW226787   0.559   0.171   4.215
 8630SOL     OW26788   4.858   3.239   3.427
 8630SOL    HW126789   4.888   3.282   3.342
 8630SOL    HW226790   4.845   3.309   3.498
 8631SOL     OW26791   2.623   5.508   0.188
 8631SOL    HW126792   2.624   5.453   0.104
 8631SOL    HW226793   2.558   5.583   0.178
 8632SOL     OW26794   4.262   4.713   5.283
 8632SOL    HW126795   4.183   4.652   5.275
 8632SOL    HW226796   4.254   4.765   5.369
 8633SOL     OW26797   5.318   3.969   5.520
 8633SOL    HW126798   5.307   3.979   5.619
 8633SOL    HW226799   5.397   4.022   5.490
 8634SOL     OW26800   5.912   5.055   0.861
 8634SOL    HW126801   5.929   4.988   0.933
 8634SOL    HW226802   5.988   5.120   0.858
 8635SOL     OW26803   6.159   3.033   6.788
 8635SOL    HW126804   6.062   3.026   6.810
 8635SOL    HW226805   6.213   3.013   6.869
 8636SOL     OW26806   4.178   6.057   0.960
 8636SOL    HW126807   4.088   6.098   0.976
 8636SOL    HW226808   4.225   6.045   1.047
 8637SOL     OW26809   1.522   1.447   6.510
 8637SOL    HW126810   1.515   1.425   6.413
 8637SOL    HW226811   1.555   1.541   6.521
 8638SOL     OW26812   3.993   2.940   5.525
 8638SOL    HW126813   3.988   3.035   5.494
 8638SOL    HW226814   4.072   2.929   5.585
 8639SOL     OW26815   4.951   3.033   6.934
 8639SOL    HW126816   4.956   2.954   6.873
 8639SOL    HW226817   4.997   3.011   7.020
 8640SOL     OW26818   3.248   3.064   1.143
 8640SOL    HW126819   3.211   3.138   1.199
 8640SOL    HW226820   3.315   3.013   1.196
 8641SOL     OW26821   4.445   5.228   3.045
 8641SOL    HW126822   4.501   5.220   2.962
 8641SOL    HW226823   4.477   5.305   3.099
 8642SOL     OW26824   0.969   6.585   3.959
 8642SOL    HW126825   0.926   6.500   3.929
 8642SOL    HW226826   1.008   6.572   4.050
 8643SOL     OW26827   3.362   6.767   0.673
 8643SOL    HW126828   3.330   6.675   0.696
 8643SOL    HW226829   3.400   6.810   0.754
 8644SOL     OW26830   6.317   2.358   6.520
 8644SOL    HW126831   6.408   2.365   6.559
 8644SOL    HW226832   6.323   2.320   6.428
 8645SOL     OW26833   5.890   4.379   1.870
 8645SOL    HW126834   5.819   4.386   1.799
 8645SOL    HW226835   5.895   4.466   1.919
 8646SOL     OW26836   0.505   2.473   5.614
 8646SOL    HW126837   0.549   2.504   5.698
 8646SOL    HW226838   0.417   2.519   5.603
 8647SOL     OW26839   2.829   5.055   1.224
 8647SOL    HW126840   2.800   5.072   1.318
 8647SOL    HW226841   2.843   5.142   1.177
 8648SOL     OW26842   5.801   6.313   0.975
 8648SOL    HW126843   5.758   6.380   0.914
 8648SOL    HW226844   5.890   6.287   0.938
 8649SOL     OW26845   4.520   6.769   0.481
 8649SOL    HW126846   4.495   6.675   0.502
 8649SOL    HW226847   4.617   6.773   0.456
 8650SOL     OW26848   2.478   0.319   4.878
 8650SOL    HW126849   2.453   0.233   4.834
 8650SOL    HW226850   2.462   0.312   4.977
 8651SOL     OW26851   2.795   1.242   0.727
 8651SOL    HW126852   2.802   1.279   0.819
 8651SOL    HW226853   2.705   1.262   0.690
 8652SOL     OW26854   1.140   4.577   4.251
 8652SOL    HW126855   1.084   4.503   4.288
 8652SOL    HW226856   1.086   4.628   4.184
 8653SOL     OW26857   0.286   2.193   6.131
 8653SOL    HW126858   0.307   2.287   6.105
 8653SOL    HW226859   0.357   2.159   6.193
 8654SOL     OW26860   1.234   4.528   2.122
 8654SOL    HW126861   1.194   4.450   2.074
 8654SOL    HW226862   1.239   4.606   2.061
 8655SOL     OW26863   6.584   1.593   5.600
 8655SOL    HW126864   6.585   1.682   5.555
 8655SOL    HW226865   6.498   1.546   5.580
 8656SOL     OW26866   5.112   6.930   1.769
 8656SOL    HW126867   5.047   6.985   1.717
 8656SOL    HW226868   5.163   6.871   1.707
 8657SOL     OW26869   5.763   0.477   2.324
 8657SOL    HW126870   5.746   0.428   2.238
 8657SOL    HW226871   5.680   0.476   2.380
 8658SOL     OW26872   6.173   5.041   1.615
 8658SOL    HW126873   6.161   4.979   1.693
 8658SOL    HW226874   6.134   4.999   1.533
 8659SOL     OW26875   4.653   1.830   2.515
 8659SOL    HW126876   4.594   1.828   2.595
 8659SOL    HW226877   4.731   1.890   2.532
 8660SOL     OW26878   0.695   2.705   1.012
 8660SOL    HW126879   0.632   2.750   0.950
 8660SOL    HW226880   0.788   2.740   0.997
 8661SOL     OW26881   6.387   3.045   3.010
 8661SOL    HW126882   6.425   3.085   3.094
 8661SOL    HW226883   6.311   2.985   3.033
 8662SOL     OW26884   3.212   5.890   2.686
 8662SOL    HW126885   3.273   5.827   2.733
 8662SOL    HW226886   3.121   5.850   2.678
 8663SOL     OW26887   3.290   5.667   3.304
 8663SOL    HW126888   3.380   5.681   3.345
 8663SOL    HW226889   3.257   5.753   3.266
 8664SOL     OW26890   2.421   5.830   3.434
 8664SOL    HW126891   2.415   5.906   3.369
 8664SOL    HW226892   2.355   5.844   3.507
 8665SOL     OW26893   6.068   4.865   5.866
 8665SOL    HW126894   6.151   4.865   5.921
 8665SOL    HW226895   5.990   4.842   5.924
 8666SOL     OW26896   5.495   0.309   3.900
 8666SOL    HW126897   5.422   0.294   3.967
 8666SOL    HW226898   5.573   0.351   3.945
 8667SOL     OW26899   4.883   1.609   4.100
 8667SOL    HW126900   4.887   1.573   4.193
 8667SOL    HW226901   4.856   1.705   4.102
 8668SOL     OW26902   5.578   2.638   5.254
 8668SOL    HW126903   5.487   2.673   5.279
 8668SOL    HW226904   5.573   2.539   5.242
 8669SOL     OW26905   6.357   6.274   6.136
 8669SOL    HW126906   6.403   6.230   6.058
 8669SOL    HW226907   6.281   6.216   6.166
 8670SOL     OW26908   5.856   4.966   6.163
 8670SOL    HW126909   5.902   4.878   6.153
 8670SOL    HW226910   5.782   4.958   6.229
 8671SOL     OW26911   0.500   2.250   2.556
 8671SOL    HW126912   0.548   2.302   2.486
 8671SOL    HW226913   0.523   2.285   2.646
 8672SOL     OW26914   6.906   0.407   3.437
 8672SOL    HW126915   6.999   0.437   3.421
 8672SOL    HW226916   6.856   0.406   3.351
 8673SOL     OW26917   0.567   1.194   0.014
 8673SOL    HW126918   0.632   1.127   0.049
 8673SOL    HW226919   0.616   1.274   7.001
 8674SOL     OW26920   0.599   4.000   3.002
 8674SOL    HW126921   0.672   3.960   2.946
 8674SOL    HW226922   0.638   4.065   3.066
 8675SOL     OW26923   3.272   1.524   6.137
 8675SOL    HW126924   3.350   1.463   6.123
 8675SOL    HW226925   3.295   1.616   6.107
 8676SOL     OW26926   5.645   1.235   1.185
 8676SOL    HW126927   5.597   1.164   1.133
 8676SOL    HW226928   5.743   1.230   1.166
 8677SOL     OW26929   1.375   6.497   5.708
 8677SOL    HW126930   1.314   6.460   5.638
 8677SOL    HW226931   1.377   6.436   5.787
 8678SOL     OW26932   1.281   0.078   0.428
 8678SOL    HW126933   1.222   7.019   0.435
 8678SOL    HW226934   1.292   0.118   0.519
 8679SOL     OW26935   2.289   1.095   4.032
 8679SOL    HW126936   2.202   1.140   4.015
 8679SOL    HW226937   2.301   1.019   3.967
 8680SOL     OW26938   6.518   2.597   6.166
 8680SOL    HW126939   6.456   2.658   6.216
 8680SOL    HW226940   6.498   2.603   6.068
 8681SOL     OW26941   5.380   5.751   0.909
 8681SOL    HW126942   5.327   5.825   0.951
 8681SOL    HW226943   5.374   5.758   0.810
 8682SOL     OW26944   6.827   0.353   0.920
 8682SOL    HW126945   6.821   0.447   0.953
 8682SOL    HW226946   6.740   0.326   0.879
 8683SOL     OW26947   1.696   3.435   4.858
 8683SOL    HW126948   1.701   3.516   4.917
 8683SOL    HW226949   1.723   3.460   4.765
 8684SOL     OW26950   0.756   4.028   5.076
 8684SOL    HW126951   0.691   4.005   5.148
 8684SOL    HW226952   0.707   4.063   4.997
 8685SOL     OW26953   4.987   2.364   5.883
 8685SOL    HW126954   5.038   2.445   5.914
 8685SOL    HW226955   5.036   2.321   5.807
 8686SOL     OW26956   6.520   6.264   2.311
 8686SOL    HW126957   6.439   6.296   2.263
 8686SOL    HW226958   6.534   6.318   2.394
 8687SOL     OW26959   6.275   3.224   3.401
 8687SOL    HW126960   6.192   3.269   3.368
 8687SOL    HW226961   6.345   3.227   3.330
 8688SOL     OW26962   1.523   4.028   6.548
 8688SOL    HW126963   1.579   3.977   6.613
 8688SOL    HW226964   1.582   4.070   6.479
 8689SOL     OW26965   4.426   2.931   0.578
 8689SOL    HW126966   4.471   2.940   0.489
 8689SOL    HW226967   4.332   2.964   0.571
 8690SOL     OW26968   1.140   1.769   2.789
 8690SOL    HW126969   1.210   1.838   2.772
 8690SOL    HW226970   1.088   1.752   2.704
 8691SOL     OW26971   3.197   1.870   4.640
 8691SOL    HW126972   3.282   1.825   4.613
 8691SOL    HW226973   3.191   1.873   4.740
 8692SOL     OW26974   4.394   2.135   5.820
 8692SOL    HW126975   4.439   2.222   5.800
 8692SOL    HW226976   4.421   2.067   5.751
 8693SOL     OW26977   6.485   1.152   6.506
 8693SOL    HW126978   6.575   1.154   6.462
 8693SOL    HW226979   6.473   1.234   6.561
 8694SOL     OW26980   6.127   3.374   4.038
 8694SOL    HW126981   6.044   3.418   4.073
 8694SOL    HW226982   6.119   3.362   3.939
 8695SOL     OW26983   4.399   3.578   6.543
 8695SOL    HW126984   4.416   3.676   6.535
 8695SOL    HW226985   4.417   3.534   6.455
 8696SOL     OW26986   2.941   5.613   5.776
 8696SOL    HW126987   2.909   5.685   5.837
 8696SOL    HW226988   2.876   5.537   5.776
 8697SOL     OW26989   1.770   4.161   5.851
 8697SOL    HW126990   1.753   4.153   5.753
 8697SOL    HW226991   1.807   4.252   5.870
 8698SOL     OW26992   5.089   6.117   5.984
 8698SOL    HW126993   5.004   6.066   5.978
 8698SOL    HW226994   5.161   6.069   5.935
 8699SOL     OW26995   2.684   2.600   6.565
 8699SOL    HW126996   2.619   2.581   6.492
 8699SOL    HW226997   2.774   2.566   6.540
 8700SOL     OW26998   0.722   0.576   5.232
 8700SOL    HW126999   0.780   0.647   5.192
 8700SOL    HW227000   0.727   0.493   5.177
 8701SOL     OW27001   0.625   1.823   0.013
 8701SOL    HW127002   0.635   1.724   0.020
 8701SOL    HW227003   0.528   1.847   0.017
 8702SOL     OW27004   5.258   4.804   1.726
 8702SOL    HW127005   5.174   4.810   1.672
 8702SOL    HW227006   5.267   4.886   1.782
 8703SOL     OW27007   2.643   4.655   0.292
 8703SOL    HW127008   2.649   4.639   0.193
 8703SOL    HW227009   2.714   4.603   0.339
 8704SOL     OW27010   0.804   2.188   4.275
 8704SOL    HW127011   0.904   2.192   4.267
 8704SOL    HW227012   0.770   2.273   4.314
 8705SOL     OW27013   4.338   2.757   0.040
 8705SOL    HW127014   4.324   2.737   0.137
 8705SOL    HW227015   4.292   2.842   0.016
 8706SOL     OW27016   5.506   2.950   0.191
 8706SOL    HW127017   5.586   2.903   0.227
 8706SOL    HW227018   5.478   3.023   0.253
 8707SOL     OW27019   1.373   1.584   4.437
 8707SOL    HW127020   1.332   1.516   4.375
 8707SOL    HW227021   1.339   1.675   4.413
 8708SOL     OW27022   5.367   1.873   2.962
 8708SOL    HW127023   5.302   1.836   3.028
 8708SOL    HW227024   5.340   1.846   2.870
 8709SOL     OW27025   6.577   6.834   6.281
 8709SOL    HW127026   6.639   6.780   6.337
 8709SOL    HW227027   6.623   6.863   6.197
 8710SOL     OW27028   2.459   1.287   3.145
 8710SOL    HW127029   2.379   1.229   3.130
 8710SOL    HW227030   2.542   1.232   3.140
 8711SOL     OW27031   1.325   1.070   2.119
 8711SOL    HW127032   1.234   1.108   2.101
 8711SOL    HW227033   1.382   1.079   2.037
 8712SOL     OW27034   2.419   2.537   5.363
 8712SOL    HW127035   2.455   2.558   5.454
 8712SOL    HW227036   2.494   2.538   5.297
 8713SOL     OW27037   1.127   4.280   1.999
 8713SOL    HW127038   1.182   4.199   2.019
 8713SOL    HW227039   1.075   4.265   1.914
 8714SOL     OW27040   0.262   6.241   6.721
 8714SOL    HW127041   0.318   6.298   6.662
 8714SOL    HW227042   0.194   6.192   6.666
 8715SOL     OW27043   2.685   1.910   0.472
 8715SOL    HW127044   2.754   1.926   0.542
 8715SOL    HW227045   2.626   1.991   0.464
 8716SOL     OW27046   6.892   6.547   1.407
 8716SOL    HW127047   6.812   6.571   1.464
 8716SOL    HW227048   6.862   6.528   1.314
 8717SOL     OW27049   2.337   4.214   6.924
 8717SOL    HW127050   2.302   4.199   7.016
 8717SOL    HW227051   2.261   4.239   6.864
 8718SOL     OW27052   1.750   3.840   6.565
 8718SOL    HW127053   1.820   3.908   6.543
 8718SOL    HW227054   1.715   3.857   6.657
 8719SOL     OW27055   3.410   1.030   6.249
 8719SOL    HW127056   3.392   1.080   6.164
 8719SOL    HW227057   3.441   0.938   6.228
 8720SOL     OW27058   6.317   4.526   5.120
 8720SOL    HW127059   6.313   4.524   5.219
 8720SOL    HW227060   6.241   4.580   5.084
 8721SOL     OW27061   0.125   6.510   6.585
 8721SOL    HW127062   0.215   6.497   6.545
 8721SOL    HW227063   0.113   6.605   6.612
 8722SOL     OW27064   3.668   0.889   1.141
 8722SOL    HW127065   3.620   0.823   1.198
 8722SOL    HW227066   3.642   0.875   1.045
 8723SOL     OW27067   5.215   0.240   2.033
 8723SOL    HW127068   5.271   0.157   2.038
 8723SOL    HW227069   5.236   0.299   2.111
 8724SOL     OW27070   4.064   0.389   4.364
 8724SOL    HW127071   3.976   0.392   4.412
 8724SOL    HW227072   4.134   0.432   4.421
 8725SOL     OW27073   0.430   6.478   4.661
 8725SOL    HW127074   0.461   6.532   4.583
 8725SOL    HW227075   0.350   6.424   4.635
 8726SOL     OW27076   0.775   0.932   0.207
 8726SOL    HW127077   0.774   0.917   0.108
 8726SOL    HW227078   0.791   0.845   0.253
 8727SOL     OW27079   5.442   5.985   6.639
 8727SOL    HW127080   5.458   5.976   6.737
 8727SOL    HW227081   5.530   5.982   6.591
 8728SOL     OW27082   5.668   0.916   3.019
 8728SOL    HW127083   5.572   0.929   2.994
 8728SOL    HW227084   5.674   0.862   3.103
 8729SOL     OW27085   3.655   5.285   5.946
 8729SOL    HW127086   3.679   5.288   6.043
 8729SOL    HW227087   3.684   5.370   5.902
 8730SOL     OW27088   5.388   4.567   2.995
 8730SOL    HW127089   5.414   4.579   3.091
 8730SOL    HW227090   5.377   4.469   2.976
 8731SOL     OW27091   0.383   2.185   3.328
 8731SOL    HW127092   0.332   2.170   3.244
 8731SOL    HW227093   0.422   2.277   3.327
 8732SOL     OW27094   4.937   5.637   0.834
 8732SOL    HW127095   4.850   5.590   0.854
 8732SOL    HW227096   4.927   5.734   0.853
 8733SOL     OW27097   0.496   5.046   1.142
 8733SOL    HW127098   0.529   5.066   1.050
 8733SOL    HW227099   0.415   4.988   1.137
 8734SOL     OW27100   6.696   3.682   2.177
 8734SOL    HW127101   6.753   3.640   2.107
 8734SOL    HW227102   6.599   3.671   2.153
 8735SOL     OW27103   2.101   4.249   5.232
 8735SOL    HW127104   2.151   4.176   5.278
 8735SOL    HW227105   2.165   4.303   5.177
 8736SOL     OW27106   0.561   5.380   2.081
 8736SOL    HW127107   0.475   5.417   2.113
 8736SOL    HW227108   0.566   5.388   1.981
 8737SOL     OW27109   1.236   5.554   6.691
 8737SOL    HW127110   1.242   5.514   6.783
 8737SOL    HW227111   1.215   5.651   6.699
 8738SOL     OW27112   0.900   3.782   3.847
 8738SOL    HW127113   0.866   3.865   3.805
 8738SOL    HW227114   0.865   3.775   3.941
 8739SOL     OW27115   5.535   4.026   5.185
 8739SOL    HW127116   5.504   3.952   5.244
 8739SOL    HW227117   5.591   3.989   5.110
 8740SOL     OW27118   3.773   1.735   3.409
 8740SOL    HW127119   3.857   1.754   3.459
 8740SOL    HW227120   3.785   1.758   3.313
 8741SOL     OW27121   1.296   0.057   2.763
 8741SOL    HW127122   1.227   0.001   2.716
 8741SOL    HW227123   1.322   0.133   2.703
 8742SOL     OW27124   3.678   0.997   2.682
 8742SOL    HW127125   3.766   1.023   2.723
 8742SOL    HW227126   3.603   1.037   2.735
 8743SOL     OW27127   1.597   0.898   1.710
 8743SOL    HW127128   1.659   0.970   1.678
 8743SOL    HW227129   1.628   0.865   1.799
 8744SOL     OW27130   4.001   3.435   0.230
 8744SOL    HW127131   3.970   3.341   0.248
 8744SOL    HW227132   3.932   3.483   0.175
 8745SOL     OW27133   6.719   1.783   6.505
 8745SOL    HW127134   6.702   1.717   6.578
 8745SOL    HW227135   6.643   1.780   6.440
 8746SOL     OW27136   4.973   5.530   3.813
 8746SOL    HW127137   4.883   5.530   3.858
 8746SOL    HW227138   5.034   5.466   3.859
 8747SOL     OW27139   6.460   1.041   2.117
 8747SOL    HW127140   6.492   0.946   2.114
 8747SOL    HW227141   6.378   1.051   2.060
 8748SOL     OW27142   0.402   1.862   4.010
 8748SOL    HW127143   0.483   1.919   3.996
 8748SOL    HW227144   0.320   1.915   3.986
 8749SOL     OW27145   2.573   1.178   5.794
 8749SOL    HW127146   2.589   1.251   5.860
 8749SOL    HW227147   2.484   1.135   5.811
 8750SOL     OW27148   4.504   2.523   5.970
 8750SOL    HW127149   4.534   2.614   5.999
 8750SOL    HW227150   4.413   2.505   6.006
 8751SOL     OW27151   0.102   6.511   1.557
 8751SOL    HW127152   0.179   6.574   1.543
 8751SOL    HW227153   0.036   6.522   1.483
 8752SOL     OW27154   4.821   3.166   0.426
 8752SOL    HW127155   4.783   3.144   0.336
 8752SOL    HW227156   4.920   3.150   0.426
 8753SOL     OW27157   1.665   2.930   0.199
 8753SOL    HW127158   1.725   3.007   0.220
 8753SOL    HW227159   1.706   2.874   0.127
 8754SOL     OW27160   2.557   4.686   6.339
 8754SOL    HW127161   2.610   4.745   6.278
 8754SOL    HW227162   2.465   4.675   6.302
 8755SOL     OW27163   0.733   1.587   1.731
 8755SOL    HW127164   0.755   1.492   1.751
 8755SOL    HW227165   0.697   1.594   1.638
 8756SOL     OW27166   2.554   2.537   3.732
 8756SOL    HW127167   2.553   2.450   3.683
 8756SOL    HW227168   2.580   2.521   3.828
 8757SOL     OW27169   5.067   6.637   5.280
 8757SOL    HW127170   5.126   6.717   5.268
 8757SOL    HW227171   5.124   6.557   5.300
 8758SOL     OW27172   3.346   6.650   3.661
 8758SOL    HW127173   3.413   6.584   3.628
 8758SOL    HW227174   3.258   6.634   3.616
 8759SOL     OW27175   6.552   0.720   6.681
 8759SOL    HW127176   6.509   0.809   6.698
 8759SOL    HW227177   6.652   0.732   6.677
 8760SOL     OW27178   2.455   1.629   4.155
 8760SOL    HW127179   2.496   1.549   4.110
 8760SOL    HW227180   2.358   1.631   4.134
 8761SOL     OW27181   4.880   1.151   2.037
 8761SOL    HW127182   4.848   1.239   2.003
 8761SOL    HW227183   4.934   1.165   2.120
 8762SOL     OW27184   1.774   4.951   3.989
 8762SOL    HW127185   1.718   4.890   3.934
 8762SOL    HW227186   1.867   4.917   3.993
 8763SOL     OW27187   6.995   1.017   5.541
 8763SOL    HW127188   6.934   1.066   5.479
 8763SOL    HW227189   0.061   0.999   5.495
 8764SOL     OW27190   4.296   4.995   5.785
 8764SOL    HW127191   4.199   4.993   5.810
 8764SOL    HW227192   4.330   4.901   5.779
 8765SOL     OW27193   5.056   0.447   5.305
 8765SOL    HW127194   5.071   0.507   5.383
 8765SOL    HW227195   5.106   0.361   5.319
 8766SOL     OW27196   4.891   4.261   6.024
 8766SOL    HW127197   4.912   4.164   6.039
 8766SOL    HW227198   4.898   4.310   6.111
 8767SOL     OW27199   2.798   0.357   3.820
 8767SOL    HW127200   2.791   0.419   3.898
 8767SOL    HW227201   2.750   0.271   3.841
 8768SOL     OW27202   6.578   2.959   0.170
 8768SOL    HW127203   6.555   2.863   0.157
 8768SOL    HW227204   6.525   2.996   0.246
 8769SOL     OW27205   6.509   1.215   1.469
 8769SOL    HW127206   6.445   1.285   1.439
 8769SOL    HW227207   6.599   1.256   1.487
 8770SOL     OW27208   5.485   3.278   2.191
 8770SOL    HW127209   5.545   3.210   2.148
 8770SOL    HW227210   5.390   3.259   2.164
 8771SOL     OW27211   0.650   3.723   6.312
 8771SOL    HW127212   0.699   3.786   6.372
 8771SOL    HW227213   0.707   3.701   6.233
 8772SOL     OW27214   5.309   0.347   4.890
 8772SOL    HW127215   5.267   0.307   4.808
 8772SOL    HW227216   5.238   0.359   4.960
 8773SOL     OW27217   6.898   1.889   4.213
 8773SOL    HW127218   6.980   1.902   4.156
 8773SOL    HW227219   6.907   1.803   4.264
 8774SOL     OW27220   1.325   0.093   6.857
 8774SOL    HW127221   1.293   0.046   6.940
 8774SOL    HW227222   1.379   0.029   6.802
 8775SOL     OW27223   5.528   1.943   4.192
 8775SOL    HW127224   5.446   1.890   4.213
 8775SOL    HW227225   5.507   2.011   4.122
 8776SOL     OW27226   4.911   2.655   0.778
 8776SOL    HW127227   4.979   2.591   0.741
 8776SOL    HW227228   4.839   2.604   0.825
 8777SOL     OW27229   1.141   2.856   2.621
 8777SOL    HW127230   1.153   2.857   2.721
 8777SOL    HW227231   1.068   2.919   2.596
 8778SOL     OW27232   4.670   4.442   5.711
 8778SOL    HW127233   4.611   4.408   5.784
 8778SOL    HW227234   4.762   4.459   5.747
 8779SOL     OW27235   3.351   5.023   2.814
 8779SOL    HW127236   3.305   4.970   2.885
 8779SOL    HW227237   3.352   4.971   2.729
 8780SOL     OW27238   0.321   5.517   2.126
 8780SOL    HW127239   0.263   5.580   2.074
 8780SOL    HW227240   0.326   5.548   2.221
 8781SOL     OW27241   4.000   6.683   2.205
 8781SOL    HW127242   3.945   6.758   2.241
 8781SOL    HW227243   4.071   6.720   2.145
 8782SOL     OW27244   4.753   1.051   1.489
 8782SOL    HW127245   4.788   1.013   1.574
 8782SOL    HW227246   4.759   1.150   1.492
 8783SOL     OW27247   4.914   3.331   4.553
 8783SOL    HW127248   4.904   3.368   4.645
 8783SOL    HW227249   4.874   3.395   4.486
 8784SOL     OW27250   5.874   6.843   0.460
 8784SOL    HW127251   5.928   6.901   0.398
 8784SOL    HW227252   5.831   6.900   0.530
 8785SOL     OW27253   0.084   5.897   6.578
 8785SOL    HW127254   7.011   5.866   6.567
 8785SOL    HW227255   0.145   5.839   6.524
 8786SOL     OW27256   4.130   2.208   1.972
 8786SOL    HW127257   4.040   2.167   1.958
 8786SOL    HW227258   4.140   2.289   1.914
 8787SOL     OW27259   3.361   0.710   1.518
 8787SOL    HW127260   3.332   0.620   1.487
 8787SOL    HW227261   3.281   0.762   1.548
 8788SOL     OW27262   0.274   0.456   4.835
 8788SOL    HW127263   0.238   0.422   4.922
 8788SOL    HW227264   0.308   0.549   4.847
 8789SOL     OW27265   0.311   4.118   5.061
 8789SOL    HW127266   0.294   4.186   5.132
 8789SOL    HW227267   0.269   4.148   4.976
 8790SOL     OW27268   5.792   2.740   6.839
 8790SOL    HW127269   5.781   2.668   6.907
 8790SOL    HW227270   5.702   2.774   6.812
 8791SOL     OW27271   4.729   5.717   5.378
 8791SOL    HW127272   4.644   5.666   5.387
 8791SOL    HW227273   4.806   5.656   5.398
 8792SOL     OW27274   4.389   5.283   1.450
 8792SOL    HW127275   4.316   5.339   1.489
 8792SOL    HW227276   4.476   5.332   1.459
 8793SOL     OW27277   0.791   5.251   4.037
 8793SOL    HW127278   0.825   5.345   4.039
 8793SOL    HW227279   0.767   5.222   4.129
 8794SOL     OW27280   0.076   0.633   2.197
 8794SOL    HW127281   0.059   0.553   2.254
 8794SOL    HW227282   0.131   0.607   2.118
 8795SOL     OW27283   1.524   5.120   5.042
 8795SOL    HW127284   1.513   5.090   5.137
 8795SOL    HW227285   1.599   5.070   4.999
 8796SOL     OW27286   6.627   3.502   3.520
 8796SOL    HW127287   6.693   3.547   3.581
 8796SOL    HW227288   6.535   3.536   3.539
 8797SOL     OW27289   6.430   0.014   3.101
 8797SOL    HW127290   6.388   6.946   3.095
 8797SOL    HW227291   6.506   0.012   3.165
 8798SOL     OW27292   4.538   6.676   4.948
 8798SOL    HW127293   4.502   6.675   5.042
 8798SOL    HW227294   4.604   6.750   4.939
 8799SOL     OW27295   2.482   4.999   2.077
 8799SOL    HW127296   2.474   4.993   2.177
 8799SOL    HW227297   2.490   4.908   2.038
 8800SOL     OW27298   0.101   5.773   5.373
 8800SOL    HW127299   0.199   5.778   5.394
 8800SOL    HW227300   0.085   5.813   5.283
 8801SOL     OW27301   6.155   1.839   5.044
 8801SOL    HW127302   6.254   1.854   5.050
 8801SOL    HW227303   6.137   1.749   5.003
 8802SOL     OW27304   0.780   5.695   5.932
 8802SOL    HW127305   0.746   5.701   6.026
 8802SOL    HW227306   0.716   5.742   5.871
 8803SOL     OW27307   6.334   0.554   6.731
 8803SOL    HW127308   6.376   0.615   6.663
 8803SOL    HW227309   6.381   0.566   6.819
 8804SOL     OW27310   1.880   5.905   1.798
 8804SOL    HW127311   1.907   5.895   1.894
 8804SOL    HW227312   1.949   5.959   1.749
 8805SOL     OW27313   4.407   5.818   2.405
 8805SOL    HW127314   4.434   5.802   2.310
 8805SOL    HW227315   4.324   5.873   2.407
 8806SOL     OW27316   2.341   5.811   0.524
 8806SOL    HW127317   2.383   5.878   0.463
 8806SOL    HW227318   2.320   5.853   0.612
 8807SOL     OW27319   5.036   2.021   0.935
 8807SOL    HW127320   4.993   2.111   0.943
 8807SOL    HW227321   4.987   1.966   0.868
 8808SOL     OW27322   2.155   2.351   0.187
 8808SOL    HW127323   2.070   2.358   0.135
 8808SOL    HW227324   2.218   2.290   0.140
 8809SOL     OW27325   2.166   3.814   4.016
 8809SOL    HW127326   2.202   3.864   3.938
 8809SOL    HW227327   2.134   3.878   4.086
 8810SOL     OW27328   6.778   1.950   5.778
 8810SOL    HW127329   6.873   1.929   5.801
 8810SOL    HW227330   6.724   1.865   5.779
 8811SOL     OW27331   4.367   6.416   2.473
 8811SOL    HW127332   4.332   6.413   2.379
 8811SOL    HW227333   4.431   6.340   2.487
 8812SOL     OW27334   3.153   1.557   6.811
 8812SOL    HW127335   3.119   1.568   6.718
 8812SOL    HW227336   3.159   1.460   6.834
 8813SOL     OW27337   1.952   4.356   3.359
 8813SOL    HW127338   1.919   4.264   3.379
 8813SOL    HW227339   1.990   4.359   3.267
 8814SOL     OW27340   5.877   6.826   0.071
 8814SOL    HW127341   5.926   6.911   0.052
 8814SOL    HW227342   5.783   6.847   0.097
 8815SOL     OW27343   5.410   1.142   0.739
 8815SOL    HW127344   5.391   1.175   0.832
 8815SOL    HW227345   5.346   1.186   0.676
 8816SOL     OW27346   0.125   6.359   5.499
 8816SOL    HW127347   0.154   6.439   5.553
 8816SOL    HW227348   0.026   6.349   5.506
 8817SOL     OW27349   1.045   3.629   4.617
 8817SOL    HW127350   1.042   3.530   4.605
 8817SOL    HW227351   1.138   3.657   4.641
 8818SOL     OW27352   2.268   6.628   4.238
 8818SOL    HW127353   2.188   6.688   4.240
 8818SOL    HW227354   2.340   6.667   4.296
 8819SOL     OW27355   5.294   4.128   5.983
 8819SOL    HW127356   5.243   4.148   6.066
 8819SOL    HW227357   5.234   4.133   5.904
 8820SOL     OW27358   3.457   0.933   4.795
 8820SOL    HW127359   3.358   0.942   4.811
 8820SOL    HW227360   3.476   0.843   4.757
 8821SOL     OW27361   1.455   5.080   0.770
 8821SOL    HW127362   1.425   5.012   0.703
 8821SOL    HW227363   1.434   5.172   0.735
 8822SOL     OW27364   6.364   6.692   4.084
 8822SOL    HW127365   6.388   6.730   3.995
 8822SOL    HW227366   6.433   6.719   4.151
 8823SOL     OW27367   3.309   1.670   3.382
 8823SOL    HW127368   3.399   1.627   3.384
 8823SOL    HW227369   3.320   1.768   3.366
 8824SOL     OW27370   1.591   0.470   0.748
 8824SOL    HW127371   1.630   0.554   0.784
 8824SOL    HW227372   1.492   0.472   0.760
 8825SOL     OW27373   0.220   7.005   0.503
 8825SOL    HW127374   0.285   0.059   0.505
 8825SOL    HW227375   0.127   0.020   0.508
 8826SOL     OW27376   0.883   3.469   0.959
 8826SOL    HW127377   0.802   3.528   0.955
 8826SOL    HW227378   0.946   3.493   0.885
 8827SOL     OW27379   4.016   0.232   2.676
 8827SOL    HW127380   4.075   0.163   2.635
 8827SOL    HW227381   4.070   0.312   2.702
 8828SOL     OW27382   4.424   3.666   6.248
 8828SOL    HW127383   4.434   3.605   6.170
 8828SOL    HW227384   4.327   3.685   6.263
 8829SOL     OW27385   0.371   1.696   2.221
 8829SOL    HW127386   0.289   1.641   2.239
 8829SOL    HW227387   0.350   1.765   2.152
 8830SOL     OW27388   2.536   1.960   3.228
 8830SOL    HW127389   2.530   1.952   3.129
 8830SOL    HW227390   2.630   1.944   3.257
 8831SOL     OW27391   0.721   1.761   2.353
 8831SOL    HW127392   0.701   1.711   2.269
 8831SOL    HW227393   0.741   1.696   2.427
 8832SOL     OW27394   6.648   6.801   3.981
 8832SOL    HW127395   6.724   6.736   3.971
 8832SOL    HW227396   6.634   6.820   4.078
 8833SOL     OW27397   3.655   2.515   1.239
 8833SOL    HW127398   3.676   2.543   1.146
 8833SOL    HW227399   3.741   2.494   1.288
 8834SOL     OW27400   5.742   3.935   5.456
 8834SOL    HW127401   5.668   3.869   5.464
 8834SOL    HW227402   5.819   3.907   5.514
 8835SOL     OW27403   6.083   0.529   5.681
 8835SOL    HW127404   6.038   0.473   5.612
 8835SOL    HW227405   6.129   0.606   5.636
 8836SOL     OW27406   5.200   2.511   6.533
 8836SOL    HW127407   5.229   2.603   6.562
 8836SOL    HW227408   5.234   2.443   6.598
 8837SOL     OW27409   6.270   6.798   2.060
 8837SOL    HW127410   6.233   6.738   1.989
 8837SOL    HW227411   6.265   6.893   2.028
 8838SOL     OW27412   0.170   4.312   2.662
 8838SOL    HW127413   0.270   4.308   2.651
 8838SOL    HW227414   0.131   4.378   2.598
 8839SOL     OW27415   5.534   5.881   2.701
 8839SOL    HW127416   5.470   5.851   2.772
 8839SOL    HW227417   5.622   5.837   2.716
 8840SOL     OW27418   0.326   0.959   1.353
 8840SOL    HW127419   0.383   0.937   1.274
 8840SOL    HW227420   0.303   1.056   1.351
 8841SOL     OW27421   3.818   1.245   2.260
 8841SOL    HW127422   3.869   1.177   2.208
 8841SOL    HW227423   3.726   1.256   2.221
 8842SOL     OW27424   3.191   3.508   3.881
 8842SOL    HW127425   3.095   3.485   3.868
 8842SOL    HW227426   3.200   3.605   3.904
 8843SOL     OW27427   2.066   3.657   5.398
 8843SOL    HW127428   2.124   3.669   5.317
 8843SOL    HW227429   2.060   3.560   5.420
 8844SOL     OW27430   5.678   1.937   5.340
 8844SOL    HW127431   5.622   1.866   5.383
 8844SOL    HW227432   5.752   1.893   5.288
 8845SOL     OW27433   1.834   5.242   1.261
 8845SOL    HW127434   1.845   5.214   1.166
 8845SOL    HW227435   1.861   5.337   1.271
 8846SOL     OW27436   5.114   4.211   3.719
 8846SOL    HW127437   5.176   4.163   3.781
 8846SOL    HW227438   5.020   4.179   3.734
 8847SOL     OW27439   2.385   2.334   3.114
 8847SOL    HW127440   2.464   2.310   3.057
 8847SOL    HW227441   2.359   2.255   3.170
 8848SOL     OW27442   3.034   1.596   1.201
 8848SOL    HW127443   3.129   1.566   1.202
 8848SOL    HW227444   3.026   1.680   1.146
 8849SOL     OW27445   3.646   5.841   4.651
 8849SOL    HW127446   3.578   5.868   4.582
 8849SOL    HW227447   3.636   5.744   4.671
 8850SOL     OW27448   2.685   1.688   0.803
 8850SOL    HW127449   2.745   1.722   0.731
 8850SOL    HW227450   2.685   1.588   0.801
 8851SOL     OW27451   1.400   4.297   3.350
 8851SOL    HW127452   1.483   4.287   3.296
 8851SOL    HW227453   1.423   4.337   3.439
 8852SOL     OW27454   5.594   3.090   6.009
 8852SOL    HW127455   5.495   3.076   6.014
 8852SOL    HW227456   5.613   3.186   5.990
 8853SOL     OW27457   4.007   1.864   5.360
 8853SOL    HW127458   4.090   1.909   5.326
 8853SOL    HW227459   4.027   1.820   5.448
 8854SOL     OW27460   1.054   1.184   6.008
 8854SOL    HW127461   1.028   1.266   6.058
 8854SOL    HW227462   1.089   1.209   5.918
 8855SOL     OW27463   6.204   5.901   6.783
 8855SOL    HW127464   6.199   5.802   6.776
 8855SOL    HW227465   6.270   5.937   6.717
 8856SOL     OW27466   6.415   0.449   5.211
 8856SOL    HW127467   6.368   0.487   5.132
 8856SOL    HW227468   6.358   0.377   5.252
 8857SOL     OW27469   6.726   1.854   2.976
 8857SOL    HW127470   6.823   1.874   2.962
 8857SOL    HW227471   6.673   1.889   2.899
 8858SOL     OW27472   0.670   3.900   5.824
 8858SOL    HW127473   0.658   3.886   5.726
 8858SOL    HW227474   0.757   3.860   5.853
 8859SOL     OW27475   1.232   6.624   4.774
 8859SOL    HW127476   1.180   6.592   4.853
 8859SOL    HW227477   1.307   6.682   4.806
 8860SOL     OW27478   1.367   2.752   2.787
 8860SOL    HW127479   1.398   2.834   2.837
 8860SOL    HW227480   1.425   2.675   2.812
 8861SOL     OW27481   3.714   2.888   0.076
 8861SOL    HW127482   3.710   2.919   0.171
 8861SOL    HW227483   3.800   2.918   0.034
 8862SOL     OW27484   5.965   1.507   5.042
 8862SOL    HW127485   6.004   1.523   4.951
 8862SOL    HW227486   5.992   1.416   5.073
 8863SOL     OW27487   2.153   5.881   4.954
 8863SOL    HW127488   2.242   5.846   4.982
 8863SOL    HW227489   2.161   5.977   4.927
 8864SOL     OW27490   2.312   3.468   6.690
 8864SOL    HW127491   2.245   3.434   6.623
 8864SOL    HW227492   2.318   3.568   6.682
 8865SOL     OW27493   2.788   1.632   5.202
 8865SOL    HW127494   2.821   1.610   5.110
 8865SOL    HW227495   2.778   1.547   5.254
 8866SOL     OW27496   3.927   6.500   3.209
 8866SOL    HW127497   3.995   6.484   3.280
 8866SOL    HW227498   3.934   6.594   3.177
 8867SOL     OW27499   5.611   2.160   2.839
 8867SOL    HW127500   5.555   2.224   2.786
 8867SOL    HW227501   5.623   2.075   2.788
 8868SOL     OW27502   4.819   3.783   0.539
 8868SOL    HW127503   4.867   3.864   0.505
 8868SOL    HW227504   4.730   3.810   0.574
 8869SOL     OW27505   5.029   3.962   3.345
 8869SOL    HW127506   5.020   3.927   3.252
 8869SOL    HW227507   5.030   4.062   3.343
 8870SOL     OW27508   3.610   1.190   0.809
 8870SOL    HW127509   3.550   1.134   0.865
 8870SOL    HW227510   3.625   1.278   0.853
 8871SOL     OW27511   1.719   0.999   3.728
 8871SOL    HW127512   1.704   1.078   3.670
 8871SOL    HW227513   1.814   0.969   3.720
 8872SOL     OW27514   2.100   4.263   3.880
 8872SOL    HW127515   2.057   4.331   3.820
 8872SOL    HW227516   2.047   4.179   3.879
 8873SOL     OW27517   0.354   5.924   3.557
 8873SOL    HW127518   0.434   5.982   3.571
 8873SOL    HW227519   0.355   5.849   3.622
 8874SOL     OW27520   2.469   6.982   1.242
 8874SOL    HW127521   2.383   6.994   1.192
 8874SOL    HW227522   2.503   6.889   1.229
 8875SOL     OW27523   1.472   2.454   4.334
 8875SOL    HW127524   1.499   2.509   4.255
 8875SOL    HW227525   1.405   2.505   4.389
 8876SOL     OW27526   6.950   1.570   4.660
 8876SOL    HW127527   6.946   1.498   4.729
 8876SOL    HW227528   0.021   1.606   4.654
 8877SOL     OW27529   3.113   0.709   4.251
 8877SOL    HW127530   3.134   0.642   4.180
 8877SOL    HW227531   3.028   0.756   4.228
 8878SOL     OW27532   0.176   4.402   0.700
 8878SOL    HW127533   0.153   4.498   0.716
 8878SOL    HW227534   0.114   4.344   0.753
 8879SOL     OW27535   5.099   5.806   0.470
 8879SOL    HW127536   5.041   5.874   0.515
 8879SOL    HW227537   5.093   5.719   0.520
 8880SOL     OW27538   6.565   5.319   4.349
 8880SOL    HW127539   6.473   5.312   4.387
 8880SOL    HW227540   6.621   5.378   4.408
 8881SOL     OW27541   6.797   1.214   2.459
 8881SOL    HW127542   6.744   1.146   2.409
 8881SOL    HW227543   6.748   1.241   2.542
 8882SOL     OW27544   5.498   1.563   6.810
 8882SOL    HW127545   5.435   1.495   6.771
 8882SOL    HW227546   5.574   1.516   6.855
 8883SOL     OW27547   6.809   0.979   6.146
 8883SOL    HW127548   6.784   1.048   6.078
 8883SOL    HW227549   6.743   0.904   6.143
 8884SOL     OW27550   5.550   6.860   6.320
 8884SOL    HW127551   5.466   6.888   6.365
 8884SOL    HW227552   5.543   6.877   6.221
 8885SOL     OW27553   6.152   4.316   1.780
 8885SOL    HW127554   6.122   4.230   1.738
 8885SOL    HW227555   6.085   4.345   1.848
 8886SOL     OW27556   2.787   6.348   6.060
 8886SOL    HW127557   2.872   6.396   6.041
 8886SOL    HW227558   2.759   6.296   5.979
 8887SOL     OW27559   2.574   1.326   1.501
 8887SOL    HW127560   2.502   1.258   1.515
 8887SOL    HW227561   2.532   1.414   1.476
 8888SOL     OW27562   1.047   1.263   0.948
 8888SOL    HW127563   1.125   1.208   0.919
 8888SOL    HW227564   1.078   1.357   0.967
 8889SOL     OW27565   5.063   0.146   4.782
 8889SOL    HW127566   5.135   0.102   4.835
 8889SOL    HW227567   5.001   0.077   4.746
 8890SOL     OW27568   6.717   5.761   4.301
 8890SOL    HW127569   6.764   5.841   4.340
 8890SOL    HW227570   6.618   5.772   4.311
 8891SOL     OW27571   5.626   3.165   6.391
 8891SOL    HW127572   5.684   3.138   6.314
 8891SOL    HW227573   5.535   3.127   6.379
 8892SOL     OW27574   2.252   7.018   3.344
 8892SOL    HW127575   2.153   0.009   3.355
 8892SOL    HW227576   2.298   0.084   3.361
 8893SOL     OW27577   6.940   1.016   1.378
 8893SOL    HW127578   6.990   0.946   1.430
 8893SOL    HW227579   6.900   1.082   1.441
 8894SOL     OW27580   4.208   2.489   5.993
 8894SOL    HW127581   4.207   2.490   6.093
 8894SOL    HW227582   4.218   2.582   5.958
 8895SOL     OW27583   0.197   6.494   1.118
 8895SOL    HW127584   0.186   6.473   1.021
 8895SOL    HW227585   0.151   6.579   1.139
 8896SOL     OW27586   1.796   3.942   5.180
 8896SOL    HW127587   1.747   3.958   5.094
 8896SOL    HW227588   1.888   3.908   5.160
 8897SOL     OW27589   1.389   1.518   1.630
 8897SOL    HW127590   1.304   1.549   1.673
 8897SOL    HW227591   1.422   1.436   1.677
 8898SOL     OW27592   6.205   3.508   4.617
 8898SOL    HW127593   6.165   3.598   4.637
 8898SOL    HW227594   6.181   3.444   4.689
 8899SOL     OW27595   2.105   3.981   6.939
 8899SOL    HW127596   2.204   3.992   6.941
 8899SOL    HW227597   2.080   3.910   6.874
 8900SOL     OW27598   5.305   3.091   3.180
 8900SOL    HW127599   5.293   3.029   3.257
 8900SOL    HW227600   5.276   3.045   3.095
 8901SOL     OW27601   1.384   0.708   2.595
 8901SOL    HW127602   1.384   0.637   2.524
 8901SOL    HW227603   1.293   0.712   2.638
 8902SOL     OW27604   1.836   5.687   6.500
 8902SOL    HW127605   1.908   5.703   6.432
 8902SOL    HW227606   1.860   5.607   6.555
 8903SOL     OW27607   2.389   1.700   3.636
 8903SOL    HW127608   2.371   1.627   3.570
 8903SOL    HW227609   2.386   1.788   3.589
 8904SOL     OW27610   0.089   5.867   3.521
 8904SOL    HW127611   0.034   5.848   3.602
 8904SOL    HW227612   0.177   5.906   3.549
 8905SOL     OW27613   2.250   3.092   5.315
 8905SOL    HW127614   2.194   3.151   5.257
 8905SOL    HW227615   2.324   3.052   5.260
 8906SOL     OW27616   6.491   5.919   6.412
 8906SOL    HW127617   6.407   5.864   6.409
 8906SOL    HW227618   6.467   6.015   6.425
 8907SOL     OW27619   3.380   2.625   5.278
 8907SOL    HW127620   3.335   2.543   5.243
 8907SOL    HW227621   3.315   2.701   5.276
 8908SOL     OW27622   1.471   1.987   1.090
 8908SOL    HW127623   1.441   2.054   1.022
 8908SOL    HW227624   1.469   1.896   1.050
 8909SOL     OW27625   3.283   0.243   5.884
 8909SOL    HW127626   3.313   0.160   5.838
 8909SOL    HW227627   3.309   0.323   5.828
 8910SOL     OW27628   3.021   3.058   6.337
 8910SOL    HW127629   3.068   3.122   6.277
 8910SOL    HW227630   3.017   2.968   6.292
 8911SOL     OW27631   3.058   1.923   4.388
 8911SOL    HW127632   3.093   1.919   4.482
 8911SOL    HW227633   3.095   2.004   4.342
 8912SOL     OW27634   4.583   1.732   6.164
 8912SOL    HW127635   4.668   1.724   6.112
 8912SOL    HW227636   4.564   1.647   6.212
 8913SOL     OW27637   5.114   4.027   1.800
 8913SOL    HW127638   5.159   4.000   1.884
 8913SOL    HW227639   5.164   4.102   1.757
 8914SOL     OW27640   4.070   1.725   5.070
 8914SOL    HW127641   3.984   1.738   5.020
 8914SOL    HW227642   4.050   1.692   5.163
 8915SOL     OW27643   2.188   3.117   3.664
 8915SOL    HW127644   2.209   3.095   3.759
 8915SOL    HW227645   2.205   3.215   3.648
 8916SOL     OW27646   0.213   4.543   2.477
 8916SOL    HW127647   0.284   4.551   2.547
 8916SOL    HW227648   0.165   4.630   2.469
 8917SOL     OW27649   5.851   5.814   6.694
 8917SOL    HW127650   5.941   5.781   6.666
 8917SOL    HW227651   5.850   5.826   6.793
 8918SOL     OW27652   5.721   6.340   6.722
 8918SOL    HW127653   5.768   6.403   6.784
 8918SOL    HW227654   5.753   6.356   6.629
 8919SOL     OW27655   3.557   4.254   0.959
 8919SOL    HW127656   3.508   4.338   0.939
 8919SOL    HW227657   3.580   4.206   0.874
 8920SOL     OW27658   6.100   5.430   6.384
 8920SOL    HW127659   6.004   5.450   6.404
 8920SOL    HW227660   6.118   5.333   6.402
 8921SOL     OW27661   1.437   0.878   3.711
 8921SOL    HW127662   1.536   0.891   3.703
 8921SOL    HW227663   1.397   0.866   3.621
 8922SOL     OW27664   2.264   5.141   0.828
 8922SOL    HW127665   2.322   5.063   0.848
 8922SOL    HW227666   2.210   5.123   0.745
 8923SOL     OW27667   1.987   3.627   6.766
 8923SOL    HW127668   1.951   3.586   6.682
 8923SOL    HW227669   2.026   3.717   6.745
 8924SOL     OW27670   2.595   4.882   5.627
 8924SOL    HW127671   2.569   4.798   5.580
 8924SOL    HW227672   2.694   4.883   5.641
 8925SOL     OW27673   6.998   6.713   2.430
 8925SOL    HW127674   6.902   6.740   2.426
 8925SOL    HW227675   7.007   6.619   2.396
 8926SOL     OW27676   5.584   2.319   2.330
 8926SOL    HW127677   5.514   2.340   2.399
 8926SOL    HW227678   5.542   2.324   2.239
 8927SOL     OW27679   2.278   2.695   4.901
 8927SOL    HW127680   2.265   2.789   4.868
 8927SOL    HW227681   2.265   2.693   5.000
 8928SOL     OW27682   0.409   0.627   5.587
 8928SOL    HW127683   0.329   0.669   5.630
 8928SOL    HW227684   0.397   0.528   5.584
 8929SOL     OW27685   6.803   3.833   3.980
 8929SOL    HW127686   6.768   3.741   4.002
 8929SOL    HW227687   6.789   3.893   4.059
 8930SOL     OW27688   1.063   5.196   4.881
 8930SOL    HW127689   1.034   5.181   4.786
 8930SOL    HW227690   1.161   5.180   4.888
 8931SOL     OW27691   5.196   1.929   1.257
 8931SOL    HW127692   5.271   1.958   1.197
 8931SOL    HW227693   5.150   2.009   1.294
 8932SOL     OW27694   5.670   0.165   6.311
 8932SOL    HW127695   5.699   0.107   6.235
 8932SOL    HW227696   5.572   0.186   6.302
 8933SOL     OW27697   1.152   1.026   4.934
 8933SOL    HW127698   1.081   1.045   4.866
 8933SOL    HW227699   1.110   1.022   5.025
 8934SOL     OW27700   3.579   5.428   3.432
 8934SOL    HW127701   3.488   5.413   3.393
 8934SOL    HW227702   3.579   5.399   3.528
 8935SOL     OW27703   4.716   2.799   2.686
 8935SOL    HW127704   4.751   2.891   2.672
 8935SOL    HW227705   4.696   2.785   2.783
 8936SOL     OW27706   0.279   4.406   1.291
 8936SOL    HW127707   0.284   4.370   1.384
 8936SOL    HW227708   0.208   4.476   1.286
 8937SOL     OW27709   0.149   7.002   3.903
 8937SOL    HW127710   0.095   0.064   3.912
 8937SOL    HW227711   0.198   6.984   3.989
 8938SOL     OW27712   6.226   0.752   0.559
 8938SOL    HW127713   6.169   0.702   0.494
 8938SOL    HW227714   6.215   0.850   0.545
 8939SOL     OW27715   0.217   2.760   4.326
 8939SOL    HW127716   0.128   2.795   4.297
 8939SOL    HW227717   0.209   2.719   4.417
 8940SOL     OW27718   6.809   3.391   0.949
 8940SOL    HW127719   6.734   3.457   0.942
 8940SOL    HW227720   6.822   3.345   0.861
 8941SOL     OW27721   4.947   2.519   1.956
 8941SOL    HW127722   4.852   2.550   1.946
 8941SOL    HW227723   4.948   2.420   1.970
 8942SOL     OW27724   6.427   5.077   3.792
 8942SOL    HW127725   6.442   5.043   3.699
 8942SOL    HW227726   6.511   5.120   3.826
 8943SOL     OW27727   4.524   3.374   0.136
 8943SOL    HW127728   4.493   3.313   0.064
 8943SOL    HW227729   4.520   3.327   0.224
 8944SOL     OW27730   4.710   5.339   4.716
 8944SOL    HW127731   4.797   5.380   4.688
 8944SOL    HW227732   4.682   5.378   4.804
 8945SOL     OW27733   6.113   3.488   5.224
 8945SOL    HW127734   6.162   3.402   5.209
 8945SOL    HW227735   6.178   3.563   5.233
 8946SOL     OW27736   4.837   0.925   4.152
 8946SOL    HW127737   4.797   0.848   4.103
 8946SOL    HW227738   4.920   0.895   4.199
 8947SOL     OW27739   1.240   4.981   6.363
 8947SOL    HW127740   1.224   4.976   6.265
 8947SOL    HW227741   1.153   4.998   6.410
 8948SOL     OW27742   6.135   6.920   3.699
 8948SOL    HW127743   6.066   6.886   3.762
 8948SOL    HW227744   6.206   6.851   3.686
 8949SOL     OW27745   3.384   6.139   0.310
 8949SOL    HW127746   3.307   6.107   0.365
 8949SOL    HW227747   3.442   6.199   0.365
 8950SOL     OW27748   4.733   4.604   1.390
 8950SOL    HW127749   4.678   4.556   1.458
 8950SOL    HW227750   4.807   4.545   1.359
 8951SOL     OW27751   2.465   1.323   3.975
 8951SOL    HW127752   2.537   1.327   3.905
 8951SOL    HW227753   2.432   1.229   3.982
 8952SOL     OW27754   2.390   4.750   3.434
 8952SOL    HW127755   2.454   4.673   3.429
 8952SOL    HW227756   2.329   4.738   3.512
 8953SOL     OW27757   2.511   5.338   2.414
 8953SOL    HW127758   2.585   5.303   2.471
 8953SOL    HW227759   2.424   5.301   2.445
 8954SOL     OW27760   0.892   5.960   4.526
 8954SOL    HW127761   0.978   5.987   4.569
 8954SOL    HW227762   0.846   5.892   4.583
 8955SOL     OW27763   5.740   3.011   3.578
 8955SOL    HW127764   5.667   3.080   3.581
 8955SOL    HW227765   5.770   2.998   3.484
 8956SOL     OW27766   0.776   6.257   5.708
 8956SOL    HW127767   0.767   6.157   5.701
 8956SOL    HW227768   0.685   6.297   5.719
 8957SOL     OW27769   1.432   5.250   2.047
 8957SOL    HW127770   1.405   5.230   2.141
 8957SOL    HW227771   1.366   5.313   2.006
 8958SOL     OW27772   1.995   3.416   5.466
 8958SOL    HW127773   1.959   3.351   5.400
 8958SOL    HW227774   1.942   3.409   5.551
 8959SOL     OW27775   0.684   3.340   2.296
 8959SOL    HW127776   0.766   3.283   2.297
 8959SOL    HW227777   0.701   3.422   2.242
 8960SOL     OW27778   5.729   3.856   4.035
 8960SOL    HW127779   5.780   3.773   4.011
 8960SOL    HW227780   5.792   3.924   4.071
 8961SOL     OW27781   3.453   6.456   4.994
 8961SOL    HW127782   3.452   6.493   5.087
 8961SOL    HW227783   3.359   6.438   4.965
 8962SOL     OW27784   0.803   5.905   1.297
 8962SOL    HW127785   0.846   5.979   1.245
 8962SOL    HW227786   0.849   5.819   1.275
 8963SOL     OW27787   3.688   6.131   4.643
 8963SOL    HW127788   3.665   6.190   4.720
 8963SOL    HW227789   3.712   6.040   4.677
 8964SOL     OW27790   6.413   3.946   3.640
 8964SOL    HW127791   6.359   4.027   3.617
 8964SOL    HW227792   6.441   3.900   3.556
 8965SOL     OW27793   4.266   5.072   0.413
 8965SOL    HW127794   4.235   4.977   0.408
 8965SOL    HW227795   4.253   5.108   0.505
 8966SOL     OW27796   5.202   5.698   6.345
 8966SOL    HW127797   5.132   5.731   6.281
 8966SOL    HW227798   5.207   5.760   6.423
 8967SOL     OW27799   3.450   0.845   3.221
 8967SOL    HW127800   3.520   0.841   3.150
 8967SOL    HW227801   3.492   0.873   3.307
 8968SOL     OW27802   3.399   5.009   1.846
 8968SOL    HW127803   3.397   5.077   1.772
 8968SOL    HW227804   3.435   5.052   1.929
 8969SOL     OW27805   6.932   0.610   2.823
 8969SOL    HW127806   6.967   0.608   2.916
 8969SOL    HW227807   6.929   0.517   2.786
 8970SOL     OW27808   1.216   1.650   6.162
 8970SOL    HW127809   1.159   1.730   6.181
 8970SOL    HW227810   1.204   1.623   6.066
 8971SOL     OW27811   4.358   5.725   0.709
 8971SOL    HW127812   4.267   5.766   0.714
 8971SOL    HW227813   4.356   5.634   0.751
 8972SOL     OW27814   5.742   4.988   0.535
 8972SOL    HW127815   5.770   4.897   0.505
 8972SOL    HW227816   5.818   5.052   0.523
 8973SOL     OW27817   0.683   2.397   1.939
 8973SOL    HW127818   0.634   2.477   1.902
 8973SOL    HW227819   0.777   2.424   1.960
 8974SOL     OW27820   2.318   4.395   4.466
 8974SOL    HW127821   2.273   4.389   4.555
 8974SOL    HW227822   2.397   4.456   4.474
 8975SOL     OW27823   0.473   0.402   6.501
 8975SOL    HW127824   0.426   0.331   6.448
 8975SOL    HW227825   0.415   0.431   6.577
 8976SOL     OW27826   6.759   0.320   1.819
 8976SOL    HW127827   6.809   0.362   1.894
 8976SOL    HW227828   6.777   0.370   1.734
 8977SOL     OW27829   6.666   5.096   6.366
 8977SOL    HW127830   6.734   5.029   6.337
 8977SOL    HW227831   6.588   5.095   6.303
 8978SOL     OW27832   5.919   5.573   5.726
 8978SOL    HW127833   5.979   5.637   5.678
 8978SOL    HW227834   5.922   5.485   5.680
 8979SOL     OW27835   0.488   5.565   5.797
 8979SOL    HW127836   0.524   5.484   5.843
 8979SOL    HW227837   0.431   5.617   5.861
 8980SOL     OW27838   3.836   1.341   5.146
 8980SOL    HW127839   3.838   1.419   5.209
 8980SOL    HW227840   3.856   1.373   5.053
 8981SOL     OW27841   4.508   2.409   6.725
 8981SOL    HW127842   4.519   2.331   6.787
 8981SOL    HW227843   4.439   2.472   6.762
 8982SOL     OW27844   6.824   1.175   1.596
 8982SOL    HW127845   6.752   1.150   1.661
 8982SOL    HW227846   6.869   1.259   1.627
 8983SOL     OW27847   0.802   5.735   3.131
 8983SOL    HW127848   0.886   5.724   3.078
 8983SOL    HW227849   0.787   5.832   3.150
 8984SOL     OW27850   6.026   0.317   4.235
 8984SOL    HW127851   6.080   0.391   4.275
 8984SOL    HW227852   6.042   0.313   4.136
 8985SOL     OW27853   5.218   1.889   0.773
 8985SOL    HW127854   5.164   1.806   0.760
 8985SOL    HW227855   5.172   1.948   0.840
 8986SOL     OW27856   6.255   4.560   1.716
 8986SOL    HW127857   6.191   4.631   1.747
 8986SOL    HW227858   6.242   4.477   1.769
 8987SOL     OW27859   2.505   6.702   1.534
 8987SOL    HW127860   2.512   6.716   1.435
 8987SOL    HW227861   2.411   6.677   1.558
 8988SOL     OW27862   2.114   4.938   1.158
 8988SOL    HW127863   2.142   4.947   1.063
 8988SOL    HW227864   2.180   4.982   1.218
 8989SOL     OW27865   5.449   1.992   1.964
 8989SOL    HW127866   5.492   2.060   1.904
 8989SOL    HW227867   5.360   2.026   1.994
 8990SOL     OW27868   3.540   6.566   1.632
 8990SOL    HW127869   3.495   6.619   1.560
 8990SOL    HW227870   3.629   6.605   1.653
 8991SOL     OW27871   1.961   1.931   0.689
 8991SOL    HW127872   2.012   1.893   0.612
 8991SOL    HW227873   2.021   1.988   0.745
 8992SOL     OW27874   0.983   3.300   6.897
 8992SOL    HW127875   1.015   3.210   6.865
 8992SOL    HW227876   1.059   3.365   6.896
 8993SOL     OW27877   5.645   2.576   3.287
 8993SOL    HW127878   5.687   2.513   3.221
 8993SOL    HW227879   5.590   2.644   3.237
 8994SOL     OW27880   1.335   5.084   3.784
 8994SOL    HW127881   1.277   5.122   3.713
 8994SOL    HW227882   1.429   5.075   3.750
 8995SOL     OW27883   1.939   3.178   5.211
 8995SOL    HW127884   2.006   3.175   5.137
 8995SOL    HW227885   1.869   3.246   5.191
 8996SOL     OW27886   0.603   3.951   2.407
 8996SOL    HW127887   0.683   3.905   2.371
 8996SOL    HW227888   0.533   3.883   2.431
 8997SOL     OW27889   4.224   1.261   5.052
 8997SOL    HW127890   4.189   1.245   5.145
 8997SOL    HW227891   4.148   1.285   4.992
 8998SOL     OW27892   1.530   2.748   5.846
 8998SOL    HW127893   1.599   2.680   5.823
 8998SOL    HW227894   1.474   2.715   5.922
 8999SOL     OW27895   5.175   1.519   5.479
 8999SOL    HW127896   5.242   1.509   5.552
 8999SOL    HW227897   5.116   1.597   5.499
 9000SOL     OW27898   3.866   4.029   0.617
 9000SOL    HW127899   3.896   3.934   0.609
 9000SOL    HW227900   3.820   4.057   0.533
 9001SOL     OW27901   2.369   4.467   3.667
 9001SOL    HW127902   2.310   4.548   3.665
 9001SOL    HW227903   2.413   4.459   3.756
 9002SOL     OW27904   6.076   4.474   6.056
 9002SOL    HW127905   6.035   4.565   6.062
 9002SOL    HW227906   6.123   4.454   6.142
 9003SOL     OW27907   6.451   3.176   0.000
 9003SOL    HW127908   6.372   3.115   7.017
 9003SOL    HW227909   6.532   3.124   0.026
 9004SOL     OW27910   4.843   6.459   1.458
 9004SOL    HW127911   4.745   6.458   1.437
 9004SOL    HW227912   4.871   6.369   1.491
 9005SOL     OW27913   4.778   1.980   3.435
 9005SOL    HW127914   4.777   2.032   3.350
 9005SOL    HW227915   4.688   1.940   3.451
 9006SOL     OW27916   1.907   5.146   0.980
 9006SOL    HW127917   1.865   5.171   0.893
 9006SOL    HW227918   1.885   5.051   1.002
 9007SOL     OW27919   3.415   5.500   4.212
 9007SOL    HW127920   3.505   5.512   4.170
 9007SOL    HW227921   3.408   5.560   4.292
 9008SOL     OW27922   0.108   4.225   1.593
 9008SOL    HW127923   0.130   4.321   1.607
 9008SOL    HW227924   0.187   4.178   1.553
 9009SOL     OW27925   2.882   6.396   0.648
 9009SOL    HW127926   2.938   6.387   0.731
 9009SOL    HW227927   2.916   6.334   0.578
 9010SOL     OW27928   0.535   6.886   5.084
 9010SOL    HW127929   0.452   6.865   5.136
 9010SOL    HW227930   0.513   6.954   5.014
 9011SOL     OW27931   4.032   1.841   1.096
 9011SOL    HW127932   3.962   1.886   1.151
 9011SOL    HW227933   4.005   1.747   1.077
 9012SOL     OW27934   0.679   5.240   1.590
 9012SOL    HW127935   0.750   5.311   1.591
 9012SOL    HW227936   0.716   5.155   1.554
 9013SOL     OW27937   6.414   5.917   3.439
 9013SOL    HW127938   6.315   5.901   3.440
 9013SOL    HW227939   6.445   5.943   3.530
 9014SOL     OW27940   1.560   0.939   0.485
 9014SOL    HW127941   1.544   0.848   0.447
 9014SOL    HW227942   1.657   0.950   0.507
 9015SOL     OW27943   0.307   1.372   5.696
 9015SOL    HW127944   0.252   1.289   5.703
 9015SOL    HW227945   0.355   1.388   5.782
 9016SOL     OW27946   6.513   6.043   5.873
 9016SOL    HW127947   6.603   6.078   5.898
 9016SOL    HW227948   6.520   5.944   5.856
 9017SOL     OW27949   5.911   2.373   3.529
 9017SOL    HW127950   6.010   2.379   3.516
 9017SOL    HW227951   5.874   2.465   3.544
 9018SOL     OW27952   3.030   1.757   5.286
 9018SOL    HW127953   2.991   1.672   5.250
 9018SOL    HW227954   2.988   1.835   5.240
 9019SOL     OW27955   2.933   5.909   0.430
 9019SOL    HW127956   2.863   5.910   0.358
 9019SOL    HW227957   2.984   5.824   0.425
 9020SOL     OW27958   1.822   4.506   2.527
 9020SOL    HW127959   1.786   4.547   2.443
 9020SOL    HW227960   1.834   4.407   2.513
 9021SOL     OW27961   0.157   5.307   4.361
 9021SOL    HW127962   0.080   5.263   4.316
 9021SOL    HW227963   0.179   5.392   4.314
 9022SOL     OW27964   2.695   0.418   0.268
 9022SOL    HW127965   2.693   0.470   0.183
 9022SOL    HW227966   2.625   0.346   0.264
 9023SOL     OW27967   3.291   3.590   3.604
 9023SOL    HW127968   3.218   3.641   3.560
 9023SOL    HW227969   3.282   3.597   3.703
 9024SOL     OW27970   1.434   6.335   5.949
 9024SOL    HW127971   1.513   6.275   5.967
 9024SOL    HW227972   1.369   6.327   6.024
 9025SOL     OW27973   6.183   4.912   1.889
 9025SOL    HW127974   6.176   4.812   1.899
 9025SOL    HW227975   6.092   4.952   1.897
 9026SOL     OW27976   3.744   2.973   4.541
 9026SOL    HW127977   3.752   3.072   4.534
 9026SOL    HW227978   3.767   2.944   4.634
 9027SOL     OW27979   2.725   2.369   3.185
 9027SOL    HW127980   2.734   2.349   3.283
 9027SOL    HW227981   2.721   2.468   3.172
 9028SOL     OW27982   2.392   4.624   5.132
 9028SOL    HW127983   2.482   4.593   5.163
 9028SOL    HW227984   2.374   4.587   5.041
 9029SOL     OW27985   5.002   5.444   3.405
 9029SOL    HW127986   4.904   5.457   3.390
 9029SOL    HW227987   5.043   5.531   3.434
 9030SOL     OW27988   2.278   0.909   2.717
 9030SOL    HW127989   2.181   0.907   2.693
 9030SOL    HW227990   2.315   0.816   2.716
 9031SOL     OW27991   2.494   6.401   6.094
 9031SOL    HW127992   2.475   6.366   6.185
 9031SOL    HW227993   2.593   6.404   6.079
 9032SOL     OW27994   2.517   2.423   1.852
 9032SOL    HW127995   2.603   2.431   1.902
 9032SOL    HW227996   2.501   2.506   1.798
 9033SOL     OW27997   1.842   3.275   4.074
 9033SOL    HW127998   1.813   3.215   4.148
 9033SOL    HW227999   1.917   3.333   4.106
 9034SOL     OW28000   2.890   6.584   5.500
 9034SOL    HW128001   2.948   6.503   5.512
 9034SOL    HW228002   2.836   6.599   5.582
 9035SOL     OW28003   6.821   0.906   4.267
 9035SOL    HW128004   6.869   0.932   4.351
 9035SOL    HW228005   6.847   0.970   4.194
 9036SOL     OW28006   1.424   2.562   5.599
 9036SOL    HW128007   1.446   2.614   5.516
 9036SOL    HW228008   1.496   2.576   5.667
 9037SOL     OW28009   2.592   4.203   6.830
 9037SOL    HW128010   2.641   4.118   6.847
 9037SOL    HW228011   2.501   4.198   6.871
 9038SOL     OW28012   5.025   6.948   5.179
 9038SOL    HW128013   4.997   0.022   5.169
 9038SOL    HW228014   5.105   6.943   5.239
 9039SOL     OW28015   1.915   5.133   4.943
 9039SOL    HW128016   1.887   5.205   4.880
 9039SOL    HW228017   1.953   5.174   5.026
 9040SOL     OW28018   2.284   1.650   2.477
 9040SOL    HW128019   2.292   1.563   2.428
 9040SOL    HW228020   2.188   1.667   2.499
 9041SOL     OW28021   1.126   2.155   1.006
 9041SOL    HW128022   1.076   2.075   0.975
 9041SOL    HW228023   1.193   2.127   1.075
 9042SOL     OW28024   3.253   5.225   3.104
 9042SOL    HW128025   3.203   5.212   3.190
 9042SOL    HW228026   3.218   5.160   3.036
 9043SOL     OW28027   1.099   2.667   6.122
 9043SOL    HW128028   1.064   2.726   6.195
 9043SOL    HW228029   1.050   2.688   6.037
 9044SOL     OW28030   5.875   0.264   0.767
 9044SOL    HW128031   5.899   0.168   0.780
 9044SOL    HW228032   5.830   0.298   0.850
 9045SOL     OW28033   3.227   0.272   3.044
 9045SOL    HW128034   3.201   0.195   2.987
 9045SOL    HW228035   3.213   0.358   2.994
 9046SOL     OW28036   3.222   4.240   5.580
 9046SOL    HW128037   3.159   4.204   5.649
 9046SOL    HW228038   3.194   4.333   5.556
 9047SOL     OW28039   1.402   4.218   3.952
 9047SOL    HW128040   1.376   4.138   4.006
 9047SOL    HW228041   1.393   4.197   3.855
 9048SOL     OW28042   1.680   3.937   4.910
 9048SOL    HW128043   1.738   3.857   4.891
 9048SOL    HW228044   1.586   3.916   4.884
 9049SOL     OW28045   5.539   6.209   5.826
 9049SOL    HW128046   5.457   6.259   5.800
 9049SOL    HW228047   5.584   6.255   5.902
 9050SOL     OW28048   0.221   5.081   6.995
 9050SOL    HW128049   0.259   4.989   6.983
 9050SOL    HW228050   0.295   5.148   7.000
 9051SOL     OW28051   4.965   6.213   0.244
 9051SOL    HW128052   4.882   6.193   0.192
 9051SOL    HW228053   5.043   6.218   0.183
 9052SOL     OW28054   2.645   4.913   4.695
 9052SOL    HW128055   2.676   4.985   4.757
 9052SOL    HW228056   2.562   4.942   4.649
 9053SOL     OW28057   2.390   2.742   3.776
 9053SOL    HW128058   2.468   2.688   3.745
 9053SOL    HW228059   2.402   2.766   3.872
 9054SOL     OW28060   1.615   0.810   1.964
 9054SOL    HW128061   1.670   0.883   2.005
 9054SOL    HW228062   1.588   0.745   2.035
 9055SOL     OW28063   1.161   2.551   4.246
 9055SOL    HW128064   1.104   2.545   4.329
 9055SOL    HW228065   1.218   2.633   4.251
 9056SOL     OW28066   5.131   0.424   2.576
 9056SOL    HW128067   5.161   0.497   2.638
 9056SOL    HW228068   5.125   0.338   2.627
 9057SOL     OW28069   6.491   5.663   0.424
 9057SOL    HW128070   6.536   5.591   0.477
 9057SOL    HW228071   6.406   5.690   0.468
 9058SOL     OW28072   1.957   2.750   4.982
 9058SOL    HW128073   1.974   2.747   5.081
 9058SOL    HW228074   1.982   2.840   4.947
 9059SOL     OW28075   6.490   1.587   3.325
 9059SOL    HW128076   6.585   1.558   3.317
 9059SOL    HW228077   6.463   1.636   3.243
 9060SOL     OW28078   6.818   3.533   1.987
 9060SOL    HW128079   6.881   3.458   1.969
 9060SOL    HW228080   6.774   3.561   1.902
 9061SOL     OW28081   4.640   5.895   2.817
 9061SOL    HW128082   4.676   5.973   2.869
 9061SOL    HW228083   4.540   5.896   2.822
 9062SOL     OW28084   1.133   4.396   3.233
 9062SOL    HW128085   1.143   4.348   3.145
 9062SOL    HW228086   1.220   4.392   3.282
 9063SOL     OW28087   3.046   1.327   2.480
 9063SOL    HW128088   3.078   1.368   2.565
 9063SOL    HW228089   3.066   1.388   2.404
 9064SOL     OW28090   0.352   3.828   3.692
 9064SOL    HW128091   0.443   3.815   3.651
 9064SOL    HW228092   0.337   3.925   3.710
 9065SOL     OW28093   2.980   6.257   4.885
 9065SOL    HW128094   3.000   6.199   4.806
 9065SOL    HW228095   2.977   6.201   4.968
 9066SOL     OW28096   5.679   5.934   6.501
 9066SOL    HW128097   5.680   5.853   6.443
 9066SOL    HW228098   5.765   5.938   6.554
 9067SOL     OW28099   6.615   0.018   4.292
 9067SOL    HW128100   6.576   0.049   4.379
 9067SOL    HW228101   6.590   0.083   4.220
 9068SOL     OW28102   5.102   0.148   5.362
 9068SOL    HW128103   5.132   0.141   5.457
 9068SOL    HW228104   5.178   0.127   5.301
 9069SOL     OW28105   4.646   2.123   2.010
 9069SOL    HW128106   4.561   2.097   2.055
 9069SOL    HW228107   4.684   2.045   1.961
 9070SOL     OW28108   1.131   2.160   5.975
 9070SOL    HW128109   1.180   2.100   6.038
 9070SOL    HW228110   1.033   2.152   5.991
 9071SOL     OW28111   4.376   1.324   6.177
 9071SOL    HW128112   4.287   1.352   6.142
 9071SOL    HW228113   4.416   1.398   6.230
 9072SOL     OW28114   5.324   0.105   1.439
 9072SOL    HW128115   5.404   0.144   1.392
 9072SOL    HW228116   5.254   0.082   1.372
 9073SOL     OW28117   4.284   0.179   0.445
 9073SOL    HW128118   4.351   0.149   0.512
 9073SOL    HW228119   4.212   0.110   0.435
 9074SOL     OW28120   1.398   0.430   1.536
 9074SOL    HW128121   1.496   0.416   1.530
 9074SOL    HW228122   1.353   0.387   1.458
 9075SOL     OW28123   6.484   0.748   2.099
 9075SOL    HW128124   6.555   0.751   2.169
 9075SOL    HW228125   6.464   0.653   2.075
 9076SOL     OW28126   5.147   0.556   2.845
 9076SOL    HW128127   5.104   0.489   2.906
 9076SOL    HW228128   5.156   0.643   2.894
 9077SOL     OW28129   5.151   1.291   5.806
 9077SOL    HW128130   5.150   1.195   5.776
 9077SOL    HW228131   5.202   1.298   5.891
 9078SOL     OW28132   4.813   5.377   6.714
 9078SOL    HW128133   4.898   5.325   6.705
 9078SOL    HW228134   4.786   5.380   6.811
 9079SOL     OW28135   1.631   0.501   5.229
 9079SOL    HW128136   1.709   0.549   5.269
 9079SOL    HW228137   1.560   0.490   5.298
 9080SOL     OW28138   6.522   4.073   0.831
 9080SOL    HW128139   6.570   3.991   0.800
 9080SOL    HW228140   6.461   4.105   0.759
 9081SOL     OW28141   3.674   1.794   1.693
 9081SOL    HW128142   3.692   1.798   1.792
 9081SOL    HW228143   3.751   1.834   1.644
 9082SOL     OW28144   3.044   6.173   6.404
 9082SOL    HW128145   2.998   6.127   6.480
 9082SOL    HW228146   3.118   6.115   6.370
 9083SOL     OW28147   5.130   4.605   6.158
 9083SOL    HW128148   5.158   4.700   6.144
 9083SOL    HW228149   5.030   4.599   6.157
 9084SOL     OW28150   0.601   3.000   5.510
 9084SOL    HW128151   0.567   3.094   5.520
 9084SOL    HW228152   0.598   2.954   5.598
 9085SOL     OW28153   3.175   4.786   0.030
 9085SOL    HW128154   3.226   4.814   6.970
 9085SOL    HW228155   3.135   4.696   0.016
 9086SOL     OW28156   6.697   4.284   0.903
 9086SOL    HW128157   6.670   4.262   0.810
 9086SOL    HW228158   6.719   4.200   0.953
 9087SOL     OW28159   5.939   2.901   2.421
 9087SOL    HW128160   6.033   2.935   2.429
 9087SOL    HW228161   5.939   2.811   2.378
 9088SOL     OW28162   6.003   0.346   1.717
 9088SOL    HW128163   6.044   0.345   1.808
 9088SOL    HW228164   5.970   0.254   1.694
 9089SOL     OW28165   4.323   5.367   4.079
 9089SOL    HW128166   4.378   5.447   4.104
 9089SOL    HW228167   4.240   5.365   4.135
 9090SOL     OW28168   5.543   6.263   4.186
 9090SOL    HW128169   5.639   6.232   4.189
 9090SOL    HW228170   5.513   6.267   4.091
 9091SOL     OW28171   3.436   2.314   0.710
 9091SOL    HW128172   3.523   2.361   0.694
 9091SOL    HW228173   3.365   2.381   0.729
 9092SOL     OW28174   1.397   0.380   5.685
 9092SOL    HW128175   1.325   0.369   5.754
 9092SOL    HW228176   1.485   0.354   5.725
 9093SOL     OW28177   1.585   6.226   7.014
 9093SOL    HW128178   1.589   6.130   6.984
 9093SOL    HW228179   1.651   6.241   0.066
 9094SOL     OW28180   0.238   6.155   2.056
 9094SOL    HW128181   0.299   6.113   2.123
 9094SOL    HW228182   0.272   6.137   1.964
 9095SOL     OW28183   5.254   3.503   6.827
 9095SOL    HW128184   5.219   3.434   6.890
 9095SOL    HW228185   5.333   3.549   6.867
 9096SOL     OW28186   5.543   3.155   3.075
 9096SOL    HW128187   5.459   3.148   3.130
 9096SOL    HW228188   5.618   3.109   3.123
 9097SOL     OW28189   1.173   3.511   6.912
 9097SOL    HW128190   1.137   3.577   6.846
 9097SOL    HW228191   1.273   3.510   6.907
 9098SOL     OW28192   4.037   3.562   1.597
 9098SOL    HW128193   3.942   3.543   1.618
 9098SOL    HW228194   4.075   3.487   1.543
 9099SOL     OW28195   3.383   3.570   1.221
 9099SOL    HW128196   3.384   3.639   1.149
 9099SOL    HW228197   3.303   3.584   1.279
 9100SOL     OW28198   0.824   2.880   1.760
 9100SOL    HW128199   0.924   2.887   1.750
 9100SOL    HW228200   0.790   2.807   1.702
 9101SOL     OW28201   2.137   3.143   2.909
 9101SOL    HW128202   2.170   3.168   3.000
 9101SOL    HW228203   2.163   3.049   2.889
 9102SOL     OW28204   3.725   5.779   2.672
 9102SOL    HW128205   3.780   5.713   2.723
 9102SOL    HW228206   3.784   5.853   2.639
 9103SOL     OW28207   0.221   3.548   0.646
 9103SOL    HW128208   0.160   3.624   0.621
 9103SOL    HW228209   0.198   3.468   0.590
 9104SOL     OW28210   3.851   6.283   2.063
 9104SOL    HW128211   3.822   6.211   2.000
 9104SOL    HW228212   3.828   6.373   2.025
 9105SOL     OW28213   1.597   0.692   6.770
 9105SOL    HW128214   1.618   0.703   6.867
 9105SOL    HW228215   1.510   0.736   6.750
 9106SOL     OW28216   6.433   4.120   0.417
 9106SOL    HW128217   6.384   4.197   0.376
 9106SOL    HW228218   6.497   4.082   0.350
 9107SOL     OW28219   4.411   6.626   6.667
 9107SOL    HW128220   4.438   6.701   6.726
 9107SOL    HW228221   4.445   6.642   6.574
 9108SOL     OW28222   5.044   4.471   5.304
 9108SOL    HW128223   5.001   4.435   5.221
 9108SOL    HW228224   5.143   4.460   5.298
 9109SOL     OW28225   1.711   2.269   2.847
 9109SOL    HW128226   1.724   2.356   2.799
 9109SOL    HW228227   1.769   2.199   2.805
 9110SOL     OW28228   2.447   4.469   3.928
 9110SOL    HW128229   2.422   4.387   3.979
 9110SOL    HW228230   2.531   4.507   3.965
 9111SOL     OW28231   4.252   3.787   0.663
 9111SOL    HW128232   4.294   3.719   0.602
 9111SOL    HW228233   4.229   3.744   0.750
 9112SOL     OW28234   0.625   3.775   3.698
 9112SOL    HW128235   0.690   3.802   3.627
 9112SOL    HW228236   0.662   3.700   3.752
 9113SOL     OW28237   4.464   0.768   0.294
 9113SOL    HW128238   4.456   0.867   0.304
 9113SOL    HW228239   4.561   0.743   0.289
 9114SOL     OW28240   1.928   4.969   2.352
 9114SOL    HW128241   1.907   5.019   2.436
 9114SOL    HW228242   1.868   4.889   2.345
 9115SOL     OW28243   0.866   5.520   4.797
 9115SOL    HW128244   0.803   5.450   4.831
 9115SOL    HW228245   0.956   5.509   4.840
 9116SOL     OW28246   6.872   1.857   0.161
 9116SOL    HW128247   6.907   1.871   0.068
 9116SOL    HW228248   6.808   1.780   0.160
 9117SOL     OW28249   6.190   2.939   6.543
 9117SOL    HW128250   6.209   2.841   6.539
 9117SOL    HW228251   6.174   2.966   6.638
 9118SOL     OW28252   5.561   6.459   0.411
 9118SOL    HW128253   5.535   6.540   0.462
 9118SOL    HW228254   5.659   6.461   0.390
 9119SOL     OW28255   5.876   1.502   2.756
 9119SOL    HW128256   5.852   1.576   2.693
 9119SOL    HW228257   5.967   1.467   2.735
 9120SOL     OW28258   5.869   2.837   5.573
 9120SOL    HW128259   5.814   2.755   5.555
 9120SOL    HW228260   5.819   2.918   5.543
 9121SOL     OW28261   0.856   3.281   5.729
 9121SOL    HW128262   0.790   3.241   5.793
 9121SOL    HW228263   0.901   3.209   5.677
 9122SOL     OW28264   1.983   2.510   1.693
 9122SOL    HW128265   1.966   2.412   1.705
 9122SOL    HW228266   1.997   2.553   1.782
 9123SOL     OW28267   3.473   7.007   5.261
 9123SOL    HW128268   3.443   6.966   5.175
 9123SOL    HW228269   3.439   0.079   5.267
 9124SOL     OW28270   5.857   6.183   5.823
 9124SOL    HW128271   5.828   6.174   5.918
 9124SOL    HW228272   5.809   6.261   5.781
 9125SOL     OW28273   4.298   4.627   4.008
 9125SOL    HW128274   4.343   4.609   4.095
 9125SOL    HW228275   4.357   4.596   3.933
 9126SOL     OW28276   5.738   1.468   2.442
 9126SOL    HW128277   5.693   1.463   2.352
 9126SOL    HW228278   5.670   1.484   2.513
 9127SOL     OW28279   6.484   0.105   6.120
 9127SOL    HW128280   6.401   0.092   6.174
 9127SOL    HW228281   6.504   0.021   6.070
 9128SOL     OW28282   3.664   2.227   5.369
 9128SOL    HW128283   3.696   2.137   5.398
 9128SOL    HW228284   3.565   2.233   5.382
 9129SOL     OW28285   2.124   3.176   1.058
 9129SOL    HW128286   2.050   3.211   1.115
 9129SOL    HW228287   2.210   3.218   1.087
 9130SOL     OW28288   0.314   3.700   0.134
 9130SOL    HW128289   0.387   3.660   0.079
 9130SOL    HW228290   0.338   3.694   0.231
 9131SOL     OW28291   0.015   4.374   5.264
 9131SOL    HW128292   6.944   4.347   5.290
 9131SOL    HW228293   0.021   4.382   5.164
 9132SOL     OW28294   0.606   4.626   4.150
 9132SOL    HW128295   0.574   4.599   4.059
 9132SOL    HW228296   0.653   4.549   4.193
 9133SOL     OW28297   3.004   5.584   0.808
 9133SOL    HW128298   3.007   5.663   0.747
 9133SOL    HW228299   3.096   5.561   0.839
 9134SOL     OW28300   3.578   6.896   0.879
 9134SOL    HW128301   3.652   6.943   0.830
 9134SOL    HW228302   3.514   6.964   0.914
 9135SOL     OW28303   0.010   6.438   1.801
 9135SOL    HW128304   6.970   6.504   1.844
 9135SOL    HW228305   0.037   6.471   1.711
 9136SOL     OW28306   4.894   5.507   5.403
 9136SOL    HW128307   4.948   5.516   5.319
 9136SOL    HW228308   4.931   5.566   5.474
 9137SOL     OW28309   5.221   1.708   1.097
 9137SOL    HW128310   5.213   1.794   1.147
 9137SOL    HW228311   5.290   1.719   1.025
 9138SOL     OW28312   6.582   4.587   6.191
 9138SOL    HW128313   6.523   4.662   6.220
 9138SOL    HW228314   6.633   4.552   6.269
 9139SOL     OW28315   2.302   1.420   4.341
 9139SOL    HW128316   2.317   1.340   4.399
 9139SOL    HW228317   2.385   1.439   4.289
 9140SOL     OW28318   6.519   3.426   2.825
 9140SOL    HW128319   6.466   3.497   2.873
 9140SOL    HW228320   6.540   3.459   2.733
 9141SOL     OW28321   5.515   0.524   6.667
 9141SOL    HW128322   5.442   0.557   6.608
 9141SOL    HW228323   5.485   0.441   6.714
 9142SOL     OW28324   0.680   2.573   6.805
 9142SOL    HW128325   0.634   2.513   6.739
 9142SOL    HW228326   0.614   2.638   6.843
 9143SOL     OW28327   5.230   3.991   0.285
 9143SOL    HW128328   5.143   4.030   0.257
 9143SOL    HW228329   5.222   3.891   0.288
 9144SOL     OW28330   2.401   5.487   5.742
 9144SOL    HW128331   2.365   5.435   5.820
 9144SOL    HW228332   2.416   5.426   5.665
 9145SOL     OW28333   6.815   5.592   0.760
 9145SOL    HW128334   6.911   5.598   0.733
 9145SOL    HW228335   6.769   5.679   0.741
 9146SOL     OW28336   4.806   1.845   1.916
 9146SOL    HW128337   4.899   1.820   1.887
 9146SOL    HW228338   4.767   1.770   1.970
 9147SOL     OW28339   5.749   0.239   4.232
 9147SOL    HW128340   5.835   0.292   4.234
 9147SOL    HW228341   5.752   0.174   4.157
 9148SOL     OW28342   4.951   6.901   0.922
 9148SOL    HW128343   4.989   6.993   0.927
 9148SOL    HW228344   5.022   6.838   0.891
 9149SOL     OW28345   5.254   3.167   3.751
 9149SOL    HW128346   5.187   3.134   3.684
 9149SOL    HW228347   5.279   3.261   3.731
 9150SOL     OW28348   3.574   5.299   3.687
 9150SOL    HW128349   3.476   5.319   3.680
 9150SOL    HW228350   3.601   5.302   3.783
 9151SOL     OW28351   1.470   4.630   3.393
 9151SOL    HW128352   1.530   4.608   3.469
 9151SOL    HW228353   1.517   4.608   3.307
 9152SOL     OW28354   2.721   5.148   4.826
 9152SOL    HW128355   2.778   5.157   4.745
 9152SOL    HW228356   2.652   5.221   4.826
 9153SOL     OW28357   1.303   3.310   1.114
 9153SOL    HW128358   1.386   3.290   1.166
 9153SOL    HW228359   1.279   3.407   1.124
 9154SOL     OW28360   3.731   5.467   0.043
 9154SOL    HW128361   3.826   5.473   0.013
 9154SOL    HW228362   3.708   5.550   0.093
 9155SOL     OW28363   1.680   3.363   0.801
 9155SOL    HW128364   1.609   3.296   0.777
 9155SOL    HW228365   1.758   3.316   0.841
 9156SOL     OW28366   2.066   3.048   0.597
 9156SOL    HW128367   2.082   3.087   0.506
 9156SOL    HW228368   2.152   3.010   0.632
 9157SOL     OW28369   5.811   4.705   6.375
 9157SOL    HW128370   5.747   4.746   6.439
 9157SOL    HW228371   5.777   4.615   6.346
 9158SOL     OW28372   6.041   3.411   4.821
 9158SOL    HW128373   6.070   3.440   4.912
 9158SOL    HW228374   5.945   3.434   4.807
 9159SOL     OW28375   0.918   0.078   2.887
 9159SOL    HW128376   0.924   0.159   2.944
 9159SOL    HW228377   0.833   0.029   2.906
 9160SOL     OW28378   6.520   0.088   5.155
 9160SOL    HW128379   6.612   0.093   5.116
 9160SOL    HW228380   6.515   0.012   5.220
 9161SOL     OW28381   4.756   4.007   4.404
 9161SOL    HW128382   4.699   4.088   4.419
 9161SOL    HW228383   4.756   3.985   4.306
 9162SOL     OW28384   4.945   1.519   3.829
 9162SOL    HW128385   4.913   1.525   3.924
 9162SOL    HW228386   4.991   1.431   3.815
 9163SOL     OW28387   2.012   3.391   4.469
 9163SOL    HW128388   2.079   3.329   4.508
 9163SOL    HW228389   2.034   3.410   4.374
 9164SOL     OW28390   2.515   0.498   6.962
 9164SOL    HW128391   2.522   0.466   6.867
 9164SOL    HW228392   2.460   0.433   7.014
 9165SOL     OW28393   5.614   1.481   5.160
 9165SOL    HW128394   5.680   1.521   5.096
 9165SOL    HW228395   5.521   1.510   5.135
 9166SOL     OW28396   4.513   6.292   0.841
 9166SOL    HW128397   4.497   6.391   0.840
 9166SOL    HW228398   4.431   6.245   0.808
 9167SOL     OW28399   1.695   2.654   6.088
 9167SOL    HW128400   1.757   2.709   6.032
 9167SOL    HW228401   1.747   2.585   6.138
 9168SOL     OW28402   0.444   0.556   6.117
 9168SOL    HW128403   0.532   0.526   6.152
 9168SOL    HW228404   0.436   0.656   6.125
 9169SOL     OW28405   6.160   0.979   5.251
 9169SOL    HW128406   6.218   0.899   5.234
 9169SOL    HW228407   6.068   0.949   5.278
 9170SOL     OW28408   0.981   4.892   0.745
 9170SOL    HW128409   0.901   4.909   0.802
 9170SOL    HW228410   1.061   4.875   0.804
 9171SOL     OW28411   3.349   4.874   1.114
 9171SOL    HW128412   3.253   4.851   1.098
 9171SOL    HW228413   3.379   4.940   1.045
 9172SOL     OW28414   3.254   0.373   5.064
 9172SOL    HW128415   3.273   0.471   5.060
 9172SOL    HW228416   3.155   0.358   5.057
 9173SOL     OW28417   5.968   4.147   4.790
 9173SOL    HW128418   5.926   4.069   4.744
 9173SOL    HW228419   6.067   4.136   4.789
 9174SOL     OW28420   5.945   4.823   1.010
 9174SOL    HW128421   5.993   4.741   0.980
 9174SOL    HW228422   5.907   4.808   1.101
 9175SOL     OW28423   1.135   6.963   3.926
 9175SOL    HW128424   1.096   6.917   3.847
 9175SOL    HW228425   1.086   0.026   3.944
 9176SOL     OW28426   3.205   1.229   5.118
 9176SOL    HW128427   3.210   1.221   5.019
 9176SOL    HW228428   3.287   1.190   5.159
 9177SOL     OW28429   1.524   4.742   5.143
 9177SOL    HW128430   1.585   4.685   5.198
 9177SOL    HW228431   1.506   4.696   5.056
 9178SOL     OW28432   2.306   5.726   6.995
 9178SOL    HW128433   2.273   5.802   6.938
 9178SOL    HW228434   2.355   5.661   6.937
 9179SOL     OW28435   3.223   5.302   4.254
 9179SOL    HW128436   3.258   5.395   4.244
 9179SOL    HW228437   3.169   5.278   4.173
 9180SOL     OW28438   5.484   1.899   3.211
 9180SOL    HW128439   5.524   1.969   3.272
 9180SOL    HW228440   5.441   1.945   3.134
 9181SOL     OW28441   3.811   2.156   4.005
 9181SOL    HW128442   3.869   2.201   4.073
 9181SOL    HW228443   3.734   2.112   4.051
 9182SOL     OW28444   2.108   6.589   2.274
 9182SOL    HW128445   2.083   6.577   2.178
 9182SOL    HW228446   2.203   6.559   2.287
 9183SOL     OW28447   5.332   6.668   0.598
 9183SOL    HW128448   5.317   6.668   0.499
 9183SOL    HW228449   5.426   6.696   0.618
 9184SOL     OW28450   5.191   1.839   0.497
 9184SOL    HW128451   5.092   1.829   0.486
 9184SOL    HW228452   5.211   1.869   0.590
 9185SOL     OW28453   3.864   6.780   5.039
 9185SOL    HW128454   3.768   6.758   5.023
 9185SOL    HW228455   3.921   6.702   5.011
 9186SOL     OW28456   5.529   6.983   3.936
 9186SOL    HW128457   5.539   6.973   4.035
 9186SOL    HW228458   5.534   0.058   3.911
 9187SOL     OW28459   2.746   1.571   1.241
 9187SOL    HW128460   2.677   1.545   1.308
 9187SOL    HW228461   2.835   1.583   1.286
 9188SOL     OW28462   1.699   6.799   1.657
 9188SOL    HW128463   1.699   6.827   1.561
 9188SOL    HW228464   1.659   6.708   1.666
 9189SOL     OW28465   4.550   6.105   1.079
 9189SOL    HW128466   4.576   6.158   1.160
 9189SOL    HW228467   4.560   6.161   0.997
 9190SOL     OW28468   2.017   4.085   0.146
 9190SOL    HW128469   2.048   4.063   0.054
 9190SOL    HW228470   1.919   4.105   0.145
 9191SOL     OW28471   5.920   1.354   5.667
 9191SOL    HW128472   5.827   1.363   5.704
 9191SOL    HW228473   5.919   1.374   5.569
 9192SOL     OW28474   0.656   4.155   6.139
 9192SOL    HW128475   0.610   4.129   6.055
 9192SOL    HW228476   0.749   4.117   6.139
 9193SOL     OW28477   4.645   4.176   0.450
 9193SOL    HW128478   4.586   4.096   0.435
 9193SOL    HW228479   4.740   4.150   0.435
 9194SOL     OW28480   2.978   0.342   3.155
 9194SOL    HW128481   3.078   0.334   3.153
 9194SOL    HW228482   2.949   0.373   3.245
 9195SOL     OW28483   2.197   2.073   4.288
 9195SOL    HW128484   2.144   1.994   4.258
 9195SOL    HW228485   2.218   2.064   4.386
 9196SOL     OW28486   4.212   0.160   4.095
 9196SOL    HW128487   4.196   0.145   4.193
 9196SOL    HW228488   4.300   0.205   4.082
 9197SOL     OW28489   2.123   4.871   2.188
 9197SOL    HW128490   2.160   4.930   2.115
 9197SOL    HW228491   2.063   4.924   2.247
 9198SOL     OW28492   6.614   4.994   6.619
 9198SOL    HW128493   6.549   4.921   6.596
 9198SOL    HW228494   6.646   5.037   6.535
 9199SOL     OW28495   1.629   3.857   6.022
 9199SOL    HW128496   1.721   3.836   6.055
 9199SOL    HW228497   1.606   3.951   6.046
 9200SOL     OW28498   3.090   6.698   0.907
 9200SOL    HW128499   3.137   6.636   0.845
 9200SOL    HW228500   3.128   6.687   0.999
 9201SOL     OW28501   0.135   2.925   0.576
 9201SOL    HW128502   0.209   2.940   0.642
 9201SOL    HW228503   0.073   2.855   0.610
 9202SOL     OW28504   1.512   6.466   3.019
 9202SOL    HW128505   1.414   6.447   3.026
 9202SOL    HW228506   1.563   6.380   3.021
 9203SOL     OW28507   0.774   4.872   0.084
 9203SOL    HW128508   0.816   4.799   0.138
 9203SOL    HW228509   0.830   4.954   0.089
 9204SOL     OW28510   4.489   2.833   6.081
 9204SOL    HW128511   4.460   2.770   6.152
 9204SOL    HW228512   4.425   2.910   6.076
 9205SOL     OW28513   6.822   4.425   2.686
 9205SOL    HW128514   6.735   4.469   2.670
 9205SOL    HW228515   6.808   4.327   2.701
 9206SOL     OW28516   4.201   5.409   1.839
 9206SOL    HW128517   4.290   5.380   1.874
 9206SOL    HW228518   4.129   5.373   1.898
 9207SOL     OW28519   4.689   4.950   6.254
 9207SOL    HW128520   4.662   4.997   6.338
 9207SOL    HW228521   4.673   5.009   6.175
 9208SOL     OW28522   5.544   4.321   4.008
 9208SOL    HW128523   5.594   4.258   4.067
 9208SOL    HW228524   5.446   4.318   4.030
 9209SOL     OW28525   3.113   0.574   6.506
 9209SOL    HW128526   3.019   0.582   6.537
 9209SOL    HW228527   3.145   0.663   6.472
 9210SOL     OW28528   0.248   0.901   3.012
 9210SOL    HW128529   0.171   0.932   2.957
 9210SOL    HW228530   0.235   0.805   3.036
 9211SOL     OW28531   0.212   2.770   4.604
 9211SOL    HW128532   0.169   2.756   4.693
 9211SOL    HW228533   0.308   2.742   4.608
 9212SOL     OW28534   4.757   5.173   4.509
 9212SOL    HW128535   4.730   5.078   4.527
 9212SOL    HW228536   4.723   5.232   4.583
 9213SOL     OW28537   5.140   3.637   5.685
 9213SOL    HW128538   5.192   3.600   5.762
 9213SOL    HW228539   5.143   3.737   5.687
 9214SOL     OW28540   0.043   4.180   6.173
 9214SOL    HW128541   0.109   4.105   6.172
 9214SOL    HW228542   0.046   4.226   6.261
 9215SOL     OW28543   1.151   2.422   0.412
 9215SOL    HW128544   1.211   2.342   0.411
 9215SOL    HW228545   1.057   2.393   0.431
 9216SOL     OW28546   2.548   0.114   2.666
 9216SOL    HW128547   2.545   0.200   2.615
 9216SOL    HW228548   2.455   0.078   2.675
 9217SOL     OW28549   0.559   1.550   0.034
 9217SOL    HW128550   0.644   1.502   0.011
 9217SOL    HW228551   0.499   1.488   0.084
 9218SOL     OW28552   2.724   6.803   0.323
 9218SOL    HW128553   2.677   6.730   0.274
 9218SOL    HW228554   2.658   6.872   0.353
 9219SOL     OW28555   6.953   2.600   1.439
 9219SOL    HW128556   6.934   2.533   1.511
 9219SOL    HW228557   6.902   2.684   1.457
 9220SOL     OW28558   1.567   6.585   0.572
 9220SOL    HW128559   1.608   6.671   0.541
 9220SOL    HW228560   1.602   6.561   0.662
 9221SOL     OW28561   3.156   0.914   4.061
 9221SOL    HW128562   3.205   0.979   4.120
 9221SOL    HW228563   3.218   0.841   4.033
 9222SOL     OW28564   2.131   0.169   6.268
 9222SOL    HW128565   2.218   0.192   6.226
 9222SOL    HW228566   2.059   0.227   6.230
 9223SOL     OW28567   1.441   1.193   3.977
 9223SOL    HW128568   1.446   1.096   3.952
 9223SOL    HW228569   1.529   1.223   4.013
 9224SOL     OW28570   2.054   5.271   5.171
 9224SOL    HW128571   2.118   5.246   5.244
 9224SOL    HW228572   2.051   5.370   5.162
 9225SOL     OW28573   3.606   6.426   6.292
 9225SOL    HW128574   3.638   6.378   6.209
 9225SOL    HW228575   3.666   6.402   6.368
 9226SOL     OW28576   5.519   6.941   1.766
 9226SOL    HW128577   5.445   7.008   1.767
 9226SOL    HW228578   5.541   6.914   1.860
 9227SOL     OW28579   0.835   4.990   1.475
 9227SOL    HW128580   0.870   5.041   1.553
 9227SOL    HW228581   0.846   4.892   1.493
 9228SOL     OW28582   1.465   1.123   5.909
 9228SOL    HW128583   1.412   1.047   5.870
 9228SOL    HW228584   1.407   1.205   5.913
 9229SOL     OW28585   1.165   5.029   4.514
 9229SOL    HW128586   1.152   4.971   4.595
 9229SOL    HW228587   1.260   5.061   4.511
 9230SOL     OW28588   5.225   1.290   3.367
 9230SOL    HW128589   5.286   1.347   3.311
 9230SOL    HW228590   5.280   1.222   3.416
 9231SOL     OW28591   1.037   4.594   4.579
 9231SOL    HW128592   1.109   4.660   4.557
 9231SOL    HW228593   1.064   4.503   4.548
 9232SOL     OW28594   3.668   5.221   6.784
 9232SOL    HW128595   3.707   5.144   6.834
 9232SOL    HW228596   3.711   5.306   6.814
 9233SOL     OW28597   5.307   5.306   1.800
 9233SOL    HW128598   5.382   5.305   1.733
 9233SOL    HW228599   5.338   5.350   1.884
 9234SOL     OW28600   3.413   5.290   5.464
 9234SOL    HW128601   3.363   5.377   5.466
 9234SOL    HW228602   3.420   5.258   5.369
 9235SOL     OW28603   1.336   2.753   3.804
 9235SOL    HW128604   1.398   2.818   3.760
 9235SOL    HW228605   1.389   2.683   3.851
 9236SOL     OW28606   2.980   4.226   5.776
 9236SOL    HW128607   2.918   4.156   5.811
 9236SOL    HW228608   3.033   4.264   5.851
 9237SOL     OW28609   2.032   5.492   5.021
 9237SOL    HW128610   1.958   5.456   4.964
 9237SOL    HW228611   2.112   5.510   4.964
 9238SOL     OW28612   3.952   1.459   6.545
 9238SOL    HW128613   4.043   1.460   6.587
 9238SOL    HW228614   3.930   1.366   6.516
 9239SOL     OW28615   0.092   3.945   0.529
 9239SOL    HW128616   0.147   3.862   0.520
 9239SOL    HW228617   0.110   4.006   0.452
 9240SOL     OW28618   4.902   1.874   0.742
 9240SOL    HW128619   4.917   1.893   0.645
 9240SOL    HW228620   4.881   1.777   0.754
 9241SOL     OW28621   0.329   5.394   6.070
 9241SOL    HW128622   0.253   5.431   6.124
 9241SOL    HW228623   0.387   5.469   6.037
 9242SOL     OW28624   0.318   5.390   0.650
 9242SOL    HW128625   0.388   5.453   0.616
 9242SOL    HW228626   0.300   5.410   0.747
 9243SOL     OW28627   5.751   0.121   2.393
 9243SOL    HW128628   5.723   0.144   2.486
 9243SOL    HW228629   5.843   0.158   2.376
 9244SOL     OW28630   4.816   4.709   6.366
 9244SOL    HW128631   4.763   4.780   6.320
 9244SOL    HW228632   4.893   4.750   6.414
 9245SOL     OW28633   2.371   5.023   3.572
 9245SOL    HW128634   2.411   4.931   3.566
 9245SOL    HW228635   2.271   5.014   3.578
 9246SOL     OW28636   0.191   4.235   3.115
 9246SOL    HW128637   0.290   4.251   3.124
 9246SOL    HW228638   0.147   4.316   3.076
 9247SOL     OW28639   0.904   0.010   3.287
 9247SOL    HW128640   0.881   0.083   3.223
 9247SOL    HW228641   0.910   6.945   3.237
 9248SOL     OW28642   1.904   2.775   5.934
 9248SOL    HW128643   1.928   2.847   5.869
 9248SOL    HW228644   1.975   2.769   6.004
 9249SOL     OW28645   4.910   3.528   6.885
 9249SOL    HW128646   4.920   3.555   6.789
 9249SOL    HW228647   4.830   3.574   6.924
 9250SOL     OW28648   5.578   3.432   4.867
 9250SOL    HW128649   5.661   3.487   4.872
 9250SOL    HW228650   5.503   3.481   4.912
 9251SOL     OW28651   3.840   2.161   3.186
 9251SOL    HW128652   3.798   2.251   3.195
 9251SOL    HW228653   3.802   2.114   3.106
 9252SOL     OW28654   5.811   0.055   3.987
 9252SOL    HW128655   5.910   0.066   3.977
 9252SOL    HW228656   5.772   0.028   3.899
 9253SOL     OW28657   6.012   6.236   6.144
 9253SOL    HW128658   6.064   6.158   6.180
 9253SOL    HW228659   5.969   6.285   6.219
 9254SOL     OW28660   6.539   4.450   2.595
 9254SOL    HW128661   6.558   4.369   2.649
 9254SOL    HW228662   6.552   4.429   2.498
 9255SOL     OW28663   4.909   4.044   0.467
 9255SOL    HW128664   4.916   4.121   0.405
 9255SOL    HW228665   4.978   4.053   0.540
 9256SOL     OW28666   3.652   5.611   3.026
 9256SOL    HW128667   3.592   5.553   2.971
 9256SOL    HW228668   3.627   5.707   3.013
 9257SOL     OW28669   0.482   3.267   3.182
 9257SOL    HW128670   0.568   3.235   3.221
 9257SOL    HW228671   0.462   3.359   3.216
 9258SOL     OW28672   3.671   3.046   3.252
 9258SOL    HW128673   3.666   2.992   3.168
 9258SOL    HW228674   3.614   3.004   3.322
 9259SOL     OW28675   1.265   1.774   0.794
 9259SOL    HW128676   1.303   1.685   0.818
 9259SOL    HW228677   1.214   1.767   0.708
 9260SOL     OW28678   4.875   1.646   5.402
 9260SOL    HW128679   4.827   1.565   5.436
 9260SOL    HW228680   4.885   1.713   5.475
 9261SOL     OW28681   4.936   0.853   6.538
 9261SOL    HW128682   4.939   0.944   6.496
 9261SOL    HW228683   4.843   0.832   6.568
 9262SOL     OW28684   6.564   3.008   5.212
 9262SOL    HW128685   6.513   3.082   5.256
 9262SOL    HW228686   6.617   2.958   5.281
 9263SOL     OW28687   5.863   4.741   1.392
 9263SOL    HW128688   5.851   4.658   1.338
 9263SOL    HW228689   5.795   4.743   1.466
 9264SOL     OW28690   5.372   4.204   0.216
 9264SOL    HW128691   5.315   4.129   0.251
 9264SOL    HW228692   5.450   4.217   0.276
 9265SOL     OW28693   2.575   1.542   0.050
 9265SOL    HW128694   2.609   1.609   0.117
 9265SOL    HW228695   2.645   1.524   7.004
 9266SOL     OW28696   2.404   6.473   2.318
 9266SOL    HW128697   2.380   6.454   2.414
 9266SOL    HW228698   2.458   6.557   2.314
 9267SOL     OW28699   0.015   4.300   5.947
 9267SOL    HW128700   0.023   4.244   6.029
 9267SOL    HW228701   6.950   4.279   5.901
 9268SOL     OW28702   1.664   5.379   1.031
 9268SOL    HW128703   1.609   5.426   0.962
 9268SOL    HW228704   1.745   5.433   1.052
 9269SOL     OW28705   3.340   2.383   5.993
 9269SOL    HW128706   3.283   2.387   5.911
 9269SOL    HW228707   3.282   2.367   6.073
 9270SOL     OW28708   5.089   6.982   5.867
 9270SOL    HW128709   5.012   0.022   5.882
 9270SOL    HW228710   5.142   6.974   5.951
 9271SOL     OW28711   1.573   5.350   7.015
 9271SOL    HW128712   1.664   5.319   0.022
 9271SOL    HW228713   1.569   5.450   7.020
 9272SOL     OW28714   2.148   5.562   5.683
 9272SOL    HW128715   2.243   5.579   5.711
 9272SOL    HW228716   2.091   5.640   5.710
 9273SOL     OW28717   5.758   6.161   3.975
 9273SOL    HW128718   5.711   6.205   3.899
 9273SOL    HW228719   5.764   6.062   3.958
 9274SOL     OW28720   6.260   2.991   0.026
 9274SOL    HW128721   6.192   3.012   0.096
 9274SOL    HW228722   6.285   2.895   0.030
 9275SOL     OW28723   0.138   2.125   6.848
 9275SOL    HW128724   0.091   2.129   6.937
 9275SOL    HW228725   0.182   2.036   6.838
 9276SOL     OW28726   2.881   4.809   3.808
 9276SOL    HW128727   2.945   4.840   3.878
 9276SOL    HW228728   2.893   4.864   3.725
 9277SOL     OW28729   4.998   3.503   0.634
 9277SOL    HW128730   4.906   3.520   0.668
 9277SOL    HW228731   5.002   3.522   0.536
 9278SOL     OW28732   1.324   0.870   4.534
 9278SOL    HW128733   1.416   0.870   4.494
 9278SOL    HW228734   1.306   0.959   4.575
 9279SOL     OW28735   3.999   0.787   1.545
 9279SOL    HW128736   4.064   0.860   1.526
 9279SOL    HW228737   3.907   0.818   1.522
 9280SOL     OW28738   1.329   0.578   2.910
 9280SOL    HW128739   1.311   0.507   2.978
 9280SOL    HW228740   1.265   0.568   2.834
 9281SOL     OW28741   3.347   4.269   1.416
 9281SOL    HW128742   3.322   4.216   1.497
 9281SOL    HW228743   3.320   4.219   1.334
 9282SOL     OW28744   4.788   1.906   4.996
 9282SOL    HW128745   4.811   1.823   4.945
 9282SOL    HW228746   4.758   1.977   4.932
 9283SOL     OW28747   5.597   0.593   3.709
 9283SOL    HW128748   5.594   0.510   3.653
 9283SOL    HW228749   5.638   0.572   3.798
 9284SOL     OW28750   3.391   5.092   5.992
 9284SOL    HW128751   3.437   5.080   5.904
 9284SOL    HW228752   3.446   5.151   6.051
 9285SOL     OW28753   4.975   3.068   0.909
 9285SOL    HW128754   4.955   3.086   1.005
 9285SOL    HW228755   5.026   2.982   0.901
 9286SOL     OW28756   5.365   0.122   5.939
 9286SOL    HW128757   5.300   0.066   5.990
 9286SOL    HW228758   5.342   0.218   5.949
 9287SOL     OW28759   2.988   4.841   0.286
 9287SOL    HW128760   2.974   4.908   0.213
 9287SOL    HW228761   3.069   4.786   0.265
 9288SOL     OW28762   3.438   1.096   5.196
 9288SOL    HW128763   3.528   1.111   5.154
 9288SOL    HW228764   3.446   1.103   5.295
 9289SOL     OW28765   3.505   1.873   2.692
 9289SOL    HW128766   3.435   1.887   2.761
 9289SOL    HW228767   3.463   1.842   2.607
 9290SOL     OW28768   5.142   1.687   3.738
 9290SOL    HW128769   5.204   1.642   3.674
 9290SOL    HW228770   5.081   1.620   3.780
 9291SOL     OW28771   2.677   0.149   5.376
 9291SOL    HW128772   2.770   0.121   5.401
 9291SOL    HW228773   2.657   0.121   5.282
 9292SOL     OW28774   0.519   3.017   6.426
 9292SOL    HW128775   0.584   3.053   6.359
 9292SOL    HW228776   0.436   3.074   6.425
 9293SOL     OW28777   6.324   4.137   0.649
 9293SOL    HW128778   6.255   4.065   0.660
 9293SOL    HW228779   6.368   4.128   0.560
 9294SOL     OW28780   3.897   6.694   5.309
 9294SOL    HW128781   3.864   6.754   5.381
 9294SOL    HW228782   3.868   6.730   5.220
 9295SOL     OW28783   5.593   2.310   3.973
 9295SOL    HW128784   5.546   2.225   3.995
 9295SOL    HW228785   5.615   2.311   3.875
 9296SOL     OW28786   0.686   6.517   6.456
 9296SOL    HW128787   0.709   6.436   6.401
 9296SOL    HW228788   0.698   6.599   6.401
 9297SOL     OW28789   6.716   0.698   0.493
 9297SOL    HW128790   6.677   0.606   0.505
 9297SOL    HW228791   6.642   0.764   0.480
 9298SOL     OW28792   1.202   0.390   5.329
 9298SOL    HW128793   1.169   0.446   5.405
 9298SOL    HW228794   1.300   0.407   5.315
 9299SOL     OW28795   1.051   2.706   4.819
 9299SOL    HW128796   1.073   2.609   4.830
 9299SOL    HW228797   1.069   2.755   4.904
 9300SOL     OW28798   0.060   4.661   5.112
 9300SOL    HW128799   0.149   4.651   5.068
 9300SOL    HW228800   7.012   4.616   5.056
 9301SOL     OW28801   4.654   4.219   3.594
 9301SOL    HW128802   4.716   4.175   3.658
 9301SOL    HW228803   4.629   4.154   3.521
 9302SOL     OW28804   2.183   3.204   4.575
 9302SOL    HW128805   2.183   3.131   4.506
 9302SOL    HW228806   2.191   3.164   4.666
 9303SOL     OW28807   3.979   6.354   1.064
 9303SOL    HW128808   3.943   6.292   0.995
 9303SOL    HW228809   3.931   6.442   1.059
 9304SOL     OW28810   4.859   4.360   0.755
 9304SOL    HW128811   4.936   4.296   0.764
 9304SOL    HW228812   4.787   4.337   0.820
 9305SOL     OW28813   3.812   1.938   2.149
 9305SOL    HW128814   3.762   1.941   2.236
 9305SOL    HW228815   3.910   1.948   2.167
 9306SOL     OW28816   0.293   4.373   5.196
 9306SOL    HW128817   0.200   4.388   5.228
 9306SOL    HW228818   0.335   4.462   5.174
 9307SOL     OW28819   1.131   3.362   1.909
 9307SOL    HW128820   1.200   3.361   1.836
 9307SOL    HW228821   1.141   3.280   1.964
 9308SOL     OW28822   1.209   4.180   0.751
 9308SOL    HW128823   1.156   4.258   0.719
 9308SOL    HW228824   1.280   4.210   0.814
 9309SOL     OW28825   3.269   4.839   5.445
 9309SOL    HW128826   3.333   4.857   5.371
 9309SOL    HW228827   3.176   4.862   5.416
 9310SOL     OW28828   4.869   5.240   6.361
 9310SOL    HW128829   4.897   5.334   6.379
 9310SOL    HW228830   4.769   5.234   6.367
 9311SOL     OW28831   5.226   5.050   1.870
 9311SOL    HW128832   5.276   5.056   1.956
 9311SOL    HW228833   5.231   5.137   1.822
 9312SOL     OW28834   1.408   3.783   1.563
 9312SOL    HW128835   1.475   3.752   1.630
 9312SOL    HW228836   1.319   3.796   1.607
 9313SOL     OW28837   0.038   0.667   0.818
 9313SOL    HW128838   0.138   0.657   0.825
 9313SOL    HW228839   0.012   0.671   0.722
 9314SOL     OW28840   4.350   5.610   6.165
 9314SOL    HW128841   4.391   5.700   6.151
 9314SOL    HW228842   4.310   5.579   6.079
 9315SOL     OW28843   6.656   0.675   5.199
 9315SOL    HW128844   6.657   0.773   5.181
 9315SOL    HW228845   6.661   0.624   5.113
 9316SOL     OW28846   4.121   5.344   5.614
 9316SOL    HW128847   4.204   5.293   5.592
 9316SOL    HW228848   4.118   5.429   5.561
 9317SOL     OW28849   6.685   5.291   3.384
 9317SOL    HW128850   6.690   5.219   3.453
 9317SOL    HW228851   6.677   5.250   3.293
 9318SOL     OW28852   6.419   0.502   5.630
 9318SOL    HW128853   6.321   0.518   5.639
 9318SOL    HW228854   6.456   0.561   5.558
 9319SOL     OW28855   0.776   2.887   6.282
 9319SOL    HW128856   0.762   2.902   6.184
 9319SOL    HW228857   0.780   2.789   6.301
 9320SOL     OW28858   4.043   1.062   6.211
 9320SOL    HW128859   3.963   1.069   6.150
 9320SOL    HW228860   4.091   0.977   6.193
 9321SOL     OW28861   6.389   0.210   2.603
 9321SOL    HW128862   6.350   0.164   2.683
 9321SOL    HW228863   6.443   0.289   2.633
 9322SOL     OW28864   0.303   5.252   6.454
 9322SOL    HW128865   0.387   5.307   6.449
 9322SOL    HW228866   0.325   5.159   6.482
 9323SOL     OW28867   1.604   0.099   5.212
 9323SOL    HW128868   1.506   0.089   5.229
 9323SOL    HW228869   1.652   0.112   5.299
 9324SOL     OW28870   2.138   4.995   0.304
 9324SOL    HW128871   2.220   5.051   0.303
 9324SOL    HW228872   2.132   4.942   0.219
 9325SOL     OW28873   4.972   1.293   0.144
 9325SOL    HW128874   5.036   1.278   0.068
 9325SOL    HW228875   4.966   1.391   0.164
 9326SOL     OW28876   1.819   6.664   0.909
 9326SOL    HW128877   1.744   6.724   0.935
 9326SOL    HW228878   1.884   6.657   0.985
 9327SOL     OW28879   5.155   0.035   2.697
 9327SOL    HW128880   5.252   0.018   2.678
 9327SOL    HW228881   5.143   0.129   2.728
 9328SOL     OW28882   3.330   1.321   5.840
 9328SOL    HW128883   3.401   1.385   5.809
 9328SOL    HW228884   3.335   1.238   5.785
 9329SOL     OW28885   6.697   4.177   2.171
 9329SOL    HW128886   6.709   4.209   2.265
 9329SOL    HW228887   6.713   4.252   2.107
 9330SOL     OW28888   0.222   6.451   6.923
 9330SOL    HW128889   0.320   6.461   6.936
 9330SOL    HW228890   0.204   6.379   6.856
 9331SOL     OW28891   1.457   1.912   5.956
 9331SOL    HW128892   1.546   1.889   5.994
 9331SOL    HW228893   1.406   1.969   6.020
 9332SOL     OW28894   3.662   4.031   2.702
 9332SOL    HW128895   3.702   4.079   2.780
 9332SOL    HW228896   3.695   3.936   2.701
 9333SOL     OW28897   4.292   3.873   1.350
 9333SOL    HW128898   4.206   3.879   1.401
 9333SOL    HW228899   4.317   3.963   1.316
 9334SOL     OW28900   4.436   6.060   3.852
 9334SOL    HW128901   4.467   6.101   3.767
 9334SOL    HW228902   4.465   6.115   3.929
 9335SOL     OW28903   0.702   1.685   5.771
 9335SOL    HW128904   0.698   1.779   5.736
 9335SOL    HW228905   0.665   1.682   5.864
 9336SOL     OW28906   3.087   5.301   5.516
 9336SOL    HW128907   3.166   5.261   5.562
 9336SOL    HW228908   3.079   5.263   5.424
 9337SOL     OW28909   4.810   0.711   3.425
 9337SOL    HW128910   4.761   0.763   3.495
 9337SOL    HW228911   4.887   0.766   3.391
 9338SOL     OW28912   3.723   0.623   1.978
 9338SOL    HW128913   3.738   0.706   1.925
 9338SOL    HW228914   3.735   0.642   2.075
 9339SOL     OW28915   5.360   6.612   0.981
 9339SOL    HW128916   5.285   6.675   0.959
 9339SOL    HW228917   5.408   6.643   1.062
 9340SOL     OW28918   5.913   3.785   5.022
 9340SOL    HW128919   5.970   3.806   4.943
 9340SOL    HW228920   5.957   3.819   5.105
 9341SOL     OW28921   0.289   5.912   6.752
 9341SOL    HW128922   0.212   5.965   6.719
 9341SOL    HW228923   0.271   5.814   6.738
 9342SOL     OW28924   2.122   0.481   3.865
 9342SOL    HW128925   2.086   0.443   3.780
 9342SOL    HW228926   2.056   0.546   3.902
 9343SOL     OW28927   5.901   4.298   2.984
 9343SOL    HW128928   5.977   4.274   2.923
 9343SOL    HW228929   5.816   4.302   2.932
 9344SOL     OW28930   4.742   6.457   1.815
 9344SOL    HW128931   4.784   6.367   1.809
 9344SOL    HW228932   4.765   6.498   1.904
 9345SOL     OW28933   6.276   3.875   2.311
 9345SOL    HW128934   6.323   3.870   2.224
 9345SOL    HW228935   6.314   3.808   2.375
 9346SOL     OW28936   6.241   0.727   0.969
 9346SOL    HW128937   6.208   0.805   0.916
 9346SOL    HW228938   6.298   0.669   0.911
 9347SOL     OW28939   1.224   4.972   1.337
 9347SOL    HW128940   1.319   4.992   1.315
 9347SOL    HW228941   1.176   5.057   1.360
 9348SOL     OW28942   3.852   5.634   1.727
 9348SOL    HW128943   3.799   5.697   1.671
 9348SOL    HW228944   3.833   5.540   1.700
 9349SOL     OW28945   1.132   6.280   2.611
 9349SOL    HW128946   1.167   6.307   2.521
 9349SOL    HW228947   1.175   6.195   2.639
 9350SOL     OW28948   0.601   3.557   5.513
 9350SOL    HW128949   0.691   3.516   5.498
 9350SOL    HW228950   0.611   3.656   5.521
 9351SOL     OW28951   3.106   1.278   6.359
 9351SOL    HW128952   3.160   1.330   6.424
 9351SOL    HW228953   3.161   1.259   6.277
 9352SOL     OW28954   2.720   2.278   0.129
 9352SOL    HW128955   2.676   2.334   0.060
 9352SOL    HW228956   2.672   2.190   0.137
 9353SOL     OW28957   0.395   5.295   0.922
 9353SOL    HW128958   0.328   5.223   0.941
 9353SOL    HW228959   0.351   5.384   0.933
 9354SOL     OW28960   6.437   2.352   6.918
 9354SOL    HW128961   6.516   2.412   6.927
 9354SOL    HW228962   6.468   2.259   6.898
 9355SOL     OW28963   0.208   2.212   4.958
 9355SOL    HW128964   0.228   2.114   4.948
 9355SOL    HW228965   0.215   2.238   5.054
 9356SOL     OW28966   3.838   0.347   1.071
 9356SOL    HW128967   3.934   0.355   1.045
 9356SOL    HW228968   3.810   0.430   1.119
 9357SOL     OW28969   1.221   3.421   6.136
 9357SOL    HW128970   1.319   3.437   6.122
 9357SOL    HW228971   1.206   3.324   6.158
 9358SOL     OW28972   6.856   3.943   2.143
 9358SOL    HW128973   6.799   4.024   2.150
 9358SOL    HW228974   6.802   3.862   2.165
 9359SOL     OW28975   1.672   4.357   6.518
 9359SOL    HW128976   1.580   4.364   6.558
 9359SOL    HW228977   1.739   4.347   6.591
 9360SOL     OW28978   1.104   5.967   6.097
 9360SOL    HW128979   1.099   5.881   6.048
 9360SOL    HW228980   1.142   5.951   6.188
 9361SOL     OW28981   2.061   5.217   3.423
 9361SOL    HW128982   1.981   5.232   3.482
 9361SOL    HW228983   2.042   5.252   3.332
 9362SOL     OW28984   1.490   1.624   2.833
 9362SOL    HW128985   1.565   1.589   2.776
 9362SOL    HW228986   1.522   1.703   2.884
 9363SOL     OW28987   3.425   5.571   1.610
 9363SOL    HW128988   3.352   5.508   1.637
 9363SOL    HW228989   3.409   5.602   1.516
 9364SOL     OW28990   2.155   1.507   1.214
 9364SOL    HW128991   2.151   1.503   1.114
 9364SOL    HW228992   2.230   1.448   1.246
 9365SOL     OW28993   3.020   1.888   4.028
 9365SOL    HW128994   3.098   1.856   3.975
 9365SOL    HW228995   2.997   1.981   4.000
 9366SOL     OW28996   3.156   5.908   0.163
 9366SOL    HW128997   3.188   5.990   0.116
 9366SOL    HW228998   3.217   5.885   0.238
 9367SOL     OW28999   6.163   0.011   1.494
 9367SOL    HW129000   6.117   0.091   1.456
 9367SOL    HW229001   6.259   0.034   1.513
 9368SOL     OW29002   3.919   0.431   1.978
 9368SOL    HW129003   3.850   0.497   1.948
 9368SOL    HW229004   3.944   0.372   1.901
 9369SOL     OW29005   0.610   6.135   5.048
 9369SOL    HW129006   0.705   6.102   5.050
 9369SOL    HW229007   0.567   6.108   4.962
 9370SOL     OW29008   5.069   1.258   3.747
 9370SOL    HW129009   5.136   1.191   3.716
 9370SOL    HW229010   4.998   1.213   3.800
 9371SOL     OW29011   2.759   5.623   0.935
 9371SOL    HW129012   2.744   5.716   0.904
 9371SOL    HW229013   2.847   5.589   0.900
 9372SOL     OW29014   4.176   6.819   2.030
 9372SOL    HW129015   4.150   6.863   1.944
 9372SOL    HW229016   4.269   6.847   2.055
 9373SOL     OW29017   6.036   2.512   0.613
 9373SOL    HW129018   5.980   2.543   0.536
 9373SOL    HW229019   6.017   2.568   0.694
 9374SOL     OW29020   6.893   3.578   6.013
 9374SOL    HW129021   6.855   3.577   6.106
 9374SOL    HW229022   6.857   3.657   5.963
 9375SOL     OW29023   0.030   1.946   0.768
 9375SOL    HW129024   0.040   1.846   0.764
 9375SOL    HW229025   6.994   1.970   0.846
 9376SOL     OW29026   2.128   3.237   2.047
 9376SOL    HW129027   2.090   3.208   1.959
 9376SOL    HW229028   2.151   3.334   2.043
 9377SOL     OW29029   2.976   5.569   3.246
 9377SOL    HW129030   3.075   5.582   3.257
 9377SOL    HW229031   2.935   5.656   3.217
 9378SOL     OW29032   3.310   1.217   3.912
 9378SOL    HW129033   3.385   1.212   3.979
 9378SOL    HW229034   3.232   1.264   3.954
 9379SOL     OW29035   4.681   0.474   4.794
 9379SOL    HW129036   4.768   0.432   4.767
 9379SOL    HW229037   4.669   0.464   4.893
 9380SOL     OW29038   3.270   6.069   6.191
 9380SOL    HW129039   3.331   6.111   6.259
 9380SOL    HW229040   3.286   5.970   6.189
 9381SOL     OW29041   5.261   2.326   4.290
 9381SOL    HW129042   5.173   2.281   4.304
 9381SOL    HW229043   5.265   2.365   4.198
 9382SOL     OW29044   4.164   0.860   4.542
 9382SOL    HW129045   4.237   0.860   4.610
 9382SOL    HW229046   4.200   0.889   4.454
 9383SOL     OW29047   4.715   4.309   4.117
 9383SOL    HW129048   4.807   4.282   4.091
 9383SOL    HW229049   4.659   4.320   4.035
 9384SOL     OW29050   2.346   0.037   1.832
 9384SOL    HW129051   2.387   0.042   1.741
 9384SOL    HW229052   2.369   6.971   1.875
 9385SOL     OW29053   3.924   1.839   4.373
 9385SOL    HW129054   4.017   1.872   4.354
 9385SOL    HW229055   3.864   1.917   4.390
 9386SOL     OW29056   3.542   5.929   5.330
 9386SOL    HW129057   3.521   5.859   5.397
 9386SOL    HW229058   3.478   5.923   5.253
 9387SOL     OW29059   3.827   2.167   0.390
 9387SOL    HW129060   3.833   2.068   0.386
 9387SOL    HW229061   3.757   2.193   0.457
 9388SOL     OW29062   1.604   6.318   3.725
 9388SOL    HW129063   1.514   6.346   3.693
 9388SOL    HW229064   1.629   6.372   3.805
 9389SOL     OW29065   3.275   5.517   2.194
 9389SOL    HW129066   3.188   5.470   2.181
 9389SOL    HW229067   3.289   5.537   2.291
 9390SOL     OW29068   5.347   4.438   6.040
 9390SOL    HW129069   5.267   4.485   6.077
 9390SOL    HW229070   5.320   4.383   5.961
 9391SOL     OW29071   0.730   0.305   4.867
 9391SOL    HW129072   0.800   0.350   4.812
 9391SOL    HW229073   0.652   0.282   4.808
 9392SOL     OW29074   4.901   4.450   3.601
 9392SOL    HW129075   4.843   4.402   3.535
 9392SOL    HW229076   4.963   4.512   3.552
 9393SOL     OW29077   3.266   6.369   6.451
 9393SOL    HW129078   3.337   6.308   6.488
 9393SOL    HW229079   3.193   6.313   6.410
 9394SOL     OW29080   5.586   0.494   1.505
 9394SOL    HW129081   5.557   0.583   1.471
 9394SOL    HW229082   5.685   0.492   1.515
 9395SOL     OW29083   2.276   1.382   0.675
 9395SOL    HW129084   2.216   1.386   0.754
 9395SOL    HW229085   2.237   1.435   0.600
 9396SOL     OW29086   2.141   5.934   5.798
 9396SOL    HW129087   2.088   5.864   5.750
 9396SOL    HW229088   2.211   5.970   5.737
 9397SOL     OW29089   3.466   6.648   6.294
 9397SOL    HW129090   3.389   6.634   6.233
 9397SOL    HW229091   3.520   6.563   6.299
 9398SOL     OW29092   6.232   1.040   5.916
 9398SOL    HW129093   6.150   1.098   5.909
 9398SOL    HW229094   6.313   1.098   5.924
 9399SOL     OW29095   1.191   2.461   3.717
 9399SOL    HW129096   1.170   2.364   3.731
 9399SOL    HW229097   1.226   2.500   3.802
 9400SOL     OW29098   5.018   1.132   0.376
 9400SOL    HW129099   4.977   1.182   0.452
 9400SOL    HW229100   4.998   1.181   0.290
 9401SOL     OW29101   0.240   2.967   1.977
 9401SOL    HW129102   0.324   2.915   1.962
 9401SOL    HW229103   0.191   2.930   2.056
 9402SOL     OW29104   2.235   5.426   3.869
 9402SOL    HW129105   2.200   5.516   3.842
 9402SOL    HW229106   2.298   5.392   3.800
 9403SOL     OW29107   0.020   1.223   2.334
 9403SOL    HW129108   0.112   1.203   2.366
 9403SOL    HW229109   6.975   1.198   2.405
 9404SOL     OW29110   0.560   3.110   1.270
 9404SOL    HW129111   0.530   3.182   1.332
 9404SOL    HW229112   0.582   3.028   1.322
 9405SOL     OW29113   0.407   4.636   4.865
 9405SOL    HW129114   0.439   4.622   4.771
 9405SOL    HW229115   0.313   4.605   4.873
 9406SOL     OW29116   1.081   2.937   6.679
 9406SOL    HW129117   1.005   2.910   6.620
 9406SOL    HW229118   1.127   3.017   6.640
 9407SOL     OW29119   2.830   5.074   5.109
 9407SOL    HW129120   2.758   5.005   5.109
 9407SOL    HW229121   2.821   5.131   5.027
 9408SOL     OW29122   6.831   3.259   5.421
 9408SOL    HW129123   6.808   3.314   5.340
 9408SOL    HW229124   6.890   3.183   5.393
 9409SOL     OW29125   6.943   5.582   2.235
 9409SOL    HW129126   6.892   5.523   2.297
 9409SOL    HW229127   6.913   5.677   2.247
 9410SOL     OW29128   4.662   1.036   1.829
 9410SOL    HW129129   4.761   1.028   1.830
 9410SOL    HW229130   4.625   1.011   1.918
 9411SOL     OW29131   3.197   3.341   3.483
 9411SOL    HW129132   3.288   3.308   3.458
 9411SOL    HW229133   3.204   3.404   3.560
 9412SOL     OW29134   0.751   0.626   1.050
 9412SOL    HW129135   0.756   0.701   1.116
 9412SOL    HW229136   0.679   0.563   1.078
 9413SOL     OW29137   4.481   4.818   4.701
 9413SOL    HW129138   4.543   4.805   4.778
 9413SOL    HW229139   4.408   4.750   4.705
 9414SOL     OW29140   2.236   2.410   4.806
 9414SOL    HW129141   2.160   2.370   4.858
 9414SOL    HW229142   2.272   2.490   4.854
 9415SOL     OW29143   3.001   0.801   1.934
 9415SOL    HW129144   3.028   0.726   1.995
 9415SOL    HW229145   2.933   0.768   1.869
 9416SOL     OW29146   0.217   7.020   5.645
 9416SOL    HW129147   0.174   0.075   5.596
 9416SOL    HW229148   0.285   6.977   5.586
 9417SOL     OW29149   3.374   6.371   1.433
 9417SOL    HW129150   3.412   6.422   1.357
 9417SOL    HW229151   3.277   6.393   1.444
 9418SOL     OW29152   3.099   1.530   3.633
 9418SOL    HW129153   3.174   1.463   3.642
 9418SOL    HW229154   3.130   1.608   3.580
 9419SOL     OW29155   2.486   2.519   6.360
 9419SOL    HW129156   2.402   2.490   6.407
 9419SOL    HW229157   2.531   2.439   6.321
 9420SOL     OW29158   5.686   4.289   0.412
 9420SOL    HW129159   5.711   4.303   0.508
 9420SOL    HW229160   5.703   4.372   0.360
 9421SOL     OW29161   3.914   6.062   4.909
 9421SOL    HW129162   3.934   6.088   4.815
 9421SOL    HW229163   3.976   6.110   4.971
 9422SOL     OW29164   2.370   6.045   4.425
 9422SOL    HW129165   2.377   6.099   4.509
 9422SOL    HW229166   2.435   5.968   4.429
 9423SOL     OW29167   4.128   5.675   3.168
 9423SOL    HW129168   4.040   5.626   3.165
 9423SOL    HW229169   4.184   5.647   3.090
 9424SOL     OW29170   5.420   1.726   4.424
 9424SOL    HW129171   5.399   1.691   4.333
 9424SOL    HW229172   5.519   1.740   4.432
 9425SOL     OW29173   5.981   4.532   1.221
 9425SOL    HW129174   6.058   4.594   1.205
 9425SOL    HW229175   6.010   4.459   1.283
 9426SOL     OW29176   0.842   2.294   6.242
 9426SOL    HW129177   0.927   2.342   6.220
 9426SOL    HW229178   0.804   2.332   6.327
 9427SOL     OW29179   2.925   5.822   2.833
 9427SOL    HW129180   2.893   5.899   2.888
 9427SOL    HW229181   3.013   5.790   2.869
 9428SOL     OW29182   6.256   6.244   0.054
 9428SOL    HW129183   6.309   6.283   0.129
 9428SOL    HW229184   6.273   6.146   0.049
 9429SOL     OW29185   1.514   2.321   3.993
 9429SOL    HW129186   1.608   2.312   3.963
 9429SOL    HW229187   1.474   2.231   4.007
 9430SOL     OW29188   0.589   2.044   4.344
 9430SOL    HW129189   0.595   1.947   4.365
 9430SOL    HW229190   0.680   2.079   4.322
 9431SOL     OW29191   6.978   4.282   0.873
 9431SOL    HW129192   6.966   4.216   0.799
 9431SOL    HW229193   6.899   4.278   0.934
 9432SOL     OW29194   6.692   1.483   3.689
 9432SOL    HW129195   6.743   1.530   3.617
 9432SOL    HW229196   6.594   1.498   3.675
 9433SOL     OW29197   3.932   5.643   2.821
 9433SOL    HW129198   3.985   5.627   2.904
 9433SOL    HW229199   3.858   5.576   2.815
 9434SOL     OW29200   5.465   5.416   4.288
 9434SOL    HW129201   5.466   5.322   4.253
 9434SOL    HW229202   5.371   5.446   4.300
 9435SOL     OW29203   0.740   2.525   2.693
 9435SOL    HW129204   0.740   2.535   2.792
 9435SOL    HW229205   0.834   2.514   2.661
 9436SOL     OW29206   0.725   1.056   2.436
 9436SOL    HW129207   0.647   1.033   2.495
 9436SOL    HW229208   0.734   1.156   2.431
 9437SOL     OW29209   0.346   5.074   3.458
 9437SOL    HW129210   0.317   5.168   3.437
 9437SOL    HW229211   0.443   5.074   3.483
 9438SOL     OW29212   2.232   6.456   1.805
 9438SOL    HW129213   2.158   6.517   1.777
 9438SOL    HW229214   2.200   6.361   1.806
 9439SOL     OW29215   1.057   2.678   0.448
 9439SOL    HW129216   1.117   2.747   0.406
 9439SOL    HW229217   1.096   2.587   0.435
 9440SOL     OW29218   3.107   5.059   3.584
 9440SOL    HW129219   3.170   4.983   3.574
 9440SOL    HW229220   3.075   5.063   3.678
 9441SOL     OW29221   6.435   5.696   4.656
 9441SOL    HW129222   6.486   5.642   4.722
 9441SOL    HW229223   6.388   5.635   4.592
 9442SOL     OW29224   4.857   3.621   1.131
 9442SOL    HW129225   4.777   3.628   1.072
 9442SOL    HW229226   4.900   3.531   1.119
 9443SOL     OW29227   3.253   5.456   1.886
 9443SOL    HW129228   3.290   5.427   1.974
 9443SOL    HW229229   3.213   5.547   1.896
 9444SOL     OW29230   2.132   3.709   0.468
 9444SOL    HW129231   2.079   3.790   0.445
 9444SOL    HW229232   2.072   3.641   0.512
 9445SOL     OW29233   0.502   1.608   3.985
 9445SOL    HW129234   0.446   1.688   3.962
 9445SOL    HW229235   0.582   1.637   4.038
 9446SOL     OW29236   6.166   5.205   3.741
 9446SOL    HW129237   6.161   5.233   3.837
 9446SOL    HW229238   6.256   5.165   3.723
 9447SOL     OW29239   5.366   5.313   2.683
 9447SOL    HW129240   5.429   5.241   2.658
 9447SOL    HW229241   5.272   5.278   2.682
 9448SOL     OW29242   5.893   0.103   5.896
 9448SOL    HW129243   5.820   0.132   5.959
 9448SOL    HW229244   5.937   0.184   5.857
 9449SOL     OW29245   5.328   6.916   0.047
 9449SOL    HW129246   5.285   6.905   6.979
 9449SOL    HW229247   5.260   6.946   0.113
 9450SOL     OW29248   1.362   5.631   4.461
 9450SOL    HW129249   1.442   5.586   4.500
 9450SOL    HW229250   1.315   5.685   4.531
 9451SOL     OW29251   3.463   5.603   6.211
 9451SOL    HW129252   3.391   5.584   6.144
 9451SOL    HW229253   3.464   5.701   6.231
 9452SOL     OW29254   0.576   4.212   1.289
 9452SOL    HW129255   0.562   4.302   1.247
 9452SOL    HW229256   0.518   4.145   1.242
 9453SOL     OW29257   3.518   5.015   3.342
 9453SOL    HW129258   3.561   5.031   3.431
 9453SOL    HW229259   3.534   5.093   3.282
 9454SOL     OW29260   4.682   4.365   0.965
 9454SOL    HW129261   4.685   4.351   1.064
 9454SOL    HW229262   4.627   4.446   0.944
 9455SOL     OW29263   3.053   2.173   2.391
 9455SOL    HW129264   3.024   2.134   2.304
 9455SOL    HW229265   3.152   2.188   2.389
 9456SOL     OW29266   6.226   3.574   2.265
 9456SOL    HW129267   6.305   3.614   2.310
 9456SOL    HW229268   6.152   3.561   2.331
 9457SOL     OW29269   1.465   4.811   4.316
 9457SOL    HW129270   1.511   4.893   4.349
 9457SOL    HW229271   1.526   4.733   4.323
 9458SOL     OW29272   6.861   4.179   0.352
 9458SOL    HW129273   6.890   4.177   0.256
 9458SOL    HW229274   6.823   4.269   0.372
 9459SOL     OW29275   5.006   4.551   4.846
 9459SOL    HW129276   5.060   4.634   4.830
 9459SOL    HW229277   5.017   4.489   4.769
 9460SOL     OW29278   1.599   3.412   3.937
 9460SOL    HW129279   1.671   3.365   3.988
 9460SOL    HW229280   1.513   3.363   3.947
 9461SOL     OW29281   1.066   1.959   1.214
 9461SOL    HW129282   0.972   1.978   1.243
 9461SOL    HW229283   1.065   1.890   1.142
 9462SOL     OW29284   2.093   2.019   3.834
 9462SOL    HW129285   2.166   2.059   3.888
 9462SOL    HW229286   2.006   2.027   3.883
 9463SOL     OW29287   5.245   6.642   1.318
 9463SOL    HW129288   5.162   6.588   1.302
 9463SOL    HW229289   5.324   6.580   1.324
 9464SOL     OW29290   6.722   0.792   1.941
 9464SOL    HW129291   6.656   0.739   1.994
 9464SOL    HW229292   6.678   0.873   1.902
 9465SOL     OW29293   0.184   4.004   1.401
 9465SOL    HW129294   0.188   4.040   1.308
 9465SOL    HW229295   0.102   4.037   1.447
 9466SOL     OW29296   4.113   5.580   6.390
 9466SOL    HW129297   4.154   5.607   6.303
 9466SOL    HW229298   4.014   5.572   6.379
 9467SOL     OW29299   1.794   2.623   0.636
 9467SOL    HW129300   1.742   2.681   0.699
 9467SOL    HW229301   1.843   2.681   0.570
 9468SOL     OW29302   0.161   3.738   6.943
 9468SOL    HW129303   0.214   3.743   0.006
 9468SOL    HW229304   0.166   3.646   6.906
 9469SOL     OW29305   6.952   6.178   0.204
 9469SOL    HW129306   6.903   6.091   0.202
 9469SOL    HW229307   6.933   6.229   0.120
 9470SOL     OW29308   4.825   4.051   0.009
 9470SOL    HW129309   4.860   3.963   0.039
 9470SOL    HW229310   4.900   4.116   0.001
 9471SOL     OW29311   6.172   2.074   5.370
 9471SOL    HW129312   6.259   2.115   5.346
 9471SOL    HW229313   6.100   2.107   5.309
 9472SOL     OW29314   1.494   4.876   6.165
 9472SOL    HW129315   1.540   4.818   6.098
 9472SOL    HW229316   1.404   4.902   6.130
 9473SOL     OW29317   2.863   4.045   0.120
 9473SOL    HW129318   2.880   3.965   0.178
 9473SOL    HW229319   2.809   4.112   0.171
 9474SOL     OW29320   5.719   3.772   1.883
 9474SOL    HW129321   5.650   3.843   1.865
 9474SOL    HW229322   5.799   3.814   1.925
 9475SOL     OW29323   4.943   3.887   5.850
 9475SOL    HW129324   4.931   3.931   5.761
 9475SOL    HW229325   5.040   3.867   5.864
 9476SOL     OW29326   3.950   4.335   5.689
 9476SOL    HW129327   3.862   4.293   5.667
 9476SOL    HW229328   3.953   4.358   5.787
 9477SOL     OW29329   1.955   3.478   1.875
 9477SOL    HW129330   2.043   3.479   1.923
 9477SOL    HW229331   1.920   3.571   1.867
 9478SOL     OW29332   4.717   2.604   1.046
 9478SOL    HW129333   4.736   2.700   1.066
 9478SOL    HW229334   4.789   2.547   1.087
 9479SOL     OW29335   4.535   0.980   1.361
 9479SOL    HW129336   4.620   1.018   1.397
 9479SOL    HW229337   4.551   0.944   1.269
 9480SOL     OW29338   5.518   5.772   0.274
 9480SOL    HW129339   5.505   5.869   0.253
 9480SOL    HW229340   5.430   5.729   0.291
 9481SOL     OW29341   4.483   1.563   3.547
 9481SOL    HW129342   4.462   1.506   3.626
 9481SOL    HW229343   4.582   1.567   3.534
 9482SOL     OW29344   5.854   0.903   0.890
 9482SOL    HW129345   5.805   0.973   0.839
 9482SOL    HW229346   5.832   0.812   0.854
 9483SOL     OW29347   0.621   0.670   6.778
 9483SOL    HW129348   0.697   0.633   6.724
 9483SOL    HW229349   0.605   0.612   6.858
 9484SOL     OW29350   2.801   6.390   4.532
 9484SOL    HW129351   2.730   6.382   4.461
 9484SOL    HW229352   2.846   6.479   4.524
 9485SOL     OW29353   6.123   1.247   0.653
 9485SOL    HW129354   6.041   1.304   0.653
 9485SOL    HW229355   6.203   1.306   0.638
 9486SOL     OW29356   4.645   5.763   0.396
 9486SOL    HW129357   4.546   5.768   0.411
 9486SOL    HW229358   4.685   5.698   0.460
 9487SOL     OW29359   3.151   4.090   4.338
 9487SOL    HW129360   3.109   4.118   4.425
 9487SOL    HW229361   3.242   4.131   4.331
 9488SOL     OW29362   1.610   1.349   1.238
 9488SOL    HW129363   1.708   1.360   1.253
 9488SOL    HW229364   1.575   1.275   1.295
 9489SOL     OW29365   5.440   4.350   1.356
 9489SOL    HW129366   5.395   4.371   1.443
 9489SOL    HW229367   5.432   4.252   1.337
 9490SOL     OW29368   6.034   5.181   3.502
 9490SOL    HW129369   6.080   5.182   3.591
 9490SOL    HW229370   6.098   5.211   3.431
 9491SOL     OW29371   5.551   6.045   3.765
 9491SOL    HW129372   5.565   5.947   3.758
 9491SOL    HW229373   5.567   6.087   3.675
 9492SOL     OW29374   4.744   2.882   5.139
 9492SOL    HW129375   4.696   2.817   5.080
 9492SOL    HW229376   4.687   2.905   5.217
 9493SOL     OW29377   3.648   6.283   4.425
 9493SOL    HW129378   3.737   6.329   4.424
 9493SOL    HW229379   3.653   6.203   4.484
 9494SOL     OW29380   5.567   2.780   2.134
 9494SOL    HW129381   5.555   2.867   2.183
 9494SOL    HW229382   5.503   2.712   2.170
 9495SOL     OW29383   6.966   0.902   2.183
 9495SOL    HW129384   0.005   0.827   2.157
 9495SOL    HW229385   6.922   0.939   2.102
 9496SOL     OW29386   4.429   2.022   2.131
 9496SOL    HW129387   4.406   1.925   2.124
 9496SOL    HW229388   4.345   2.076   2.137
 9497SOL     OW29389   5.450   5.991   5.127
 9497SOL    HW129390   5.368   6.037   5.094
 9497SOL    HW229391   5.519   5.989   5.054
 9498SOL     OW29392   6.656   4.869   4.396
 9498SOL    HW129393   6.571   4.914   4.423
 9498SOL    HW229394   6.639   4.772   4.381
 9499SOL     OW29395   6.646   5.343   5.131
 9499SOL    HW129396   6.612   5.274   5.066
 9499SOL    HW229397   6.639   5.308   5.224
 9500SOL     OW29398   4.194   6.978   1.009
 9500SOL    HW129399   4.198   0.034   1.072
 9500SOL    HW229400   4.280   6.928   1.011
 9501SOL     OW29401   1.768   1.826   4.413
 9501SOL    HW129402   1.830   1.752   4.388
 9501SOL    HW229403   1.816   1.914   4.401
 9502SOL     OW29404   5.352   4.593   5.004
 9502SOL    HW129405   5.325   4.684   5.035
 9502SOL    HW229406   5.329   4.583   4.907
 9503SOL     OW29407   0.480   2.177   0.422
 9503SOL    HW129408   0.501   2.082   0.448
 9503SOL    HW229409   0.535   2.202   0.342
 9504SOL     OW29410   0.199   3.903   1.848
 9504SOL    HW129411   0.135   3.955   1.792
 9504SOL    HW229412   0.173   3.910   1.945
 9505SOL     OW29413   4.692   5.053   5.974
 9505SOL    HW129414   4.615   5.116   5.967
 9505SOL    HW229415   4.776   5.104   5.993
 9506SOL     OW29416   2.109   2.110   0.825
 9506SOL    HW129417   2.184   2.082   0.886
 9506SOL    HW229418   2.141   2.185   0.767
 9507SOL     OW29419   6.083   0.224   1.348
 9507SOL    HW129420   6.073   0.308   1.402
 9507SOL    HW229421   6.014   0.223   1.276
 9508SOL     OW29422   4.688   1.275   2.421
 9508SOL    HW129423   4.648   1.215   2.490
 9508SOL    HW229424   4.617   1.306   2.357
 9509SOL     OW29425   6.608   0.910   2.790
 9509SOL    HW129426   6.563   0.933   2.703
 9509SOL    HW229427   6.550   0.848   2.843
 9510SOL     OW29428   0.705   3.525   3.767
 9510SOL    HW129429   0.789   3.479   3.740
 9510SOL    HW229430   0.696   3.523   3.867
 9511SOL     OW29431   0.851   0.929   0.934
 9511SOL    HW129432   0.858   1.008   0.995
 9511SOL    HW229433   0.802   0.955   0.851
 9512SOL     OW29434   6.549   3.113   1.375
 9512SOL    HW129435   6.512   3.122   1.283
 9512SOL    HW229436   6.598   3.026   1.383
 9513SOL     OW29437   3.607   4.632   5.905
 9513SOL    HW129438   3.529   4.630   5.968
 9513SOL    HW229439   3.676   4.695   5.941
 9514SOL     OW29440   3.175   2.930   6.822
 9514SOL    HW129441   3.261   2.959   6.861
 9514SOL    HW229442   3.099   2.966   6.876
 9515SOL     OW29443   2.775   5.248   3.456
 9515SOL    HW129444   2.694   5.193   3.435
 9515SOL    HW229445   2.825   5.205   3.532
 9516SOL     OW29446   6.524   4.635   0.426
 9516SOL    HW129447   6.467   4.703   0.471
 9516SOL    HW229448   6.466   4.576   0.369
 9517SOL     OW29449   1.235   4.740   1.518
 9517SOL    HW129450   1.195   4.657   1.479
 9517SOL    HW229451   1.218   4.817   1.457
 9518SOL     OW29452   2.722   0.953   0.722
 9518SOL    HW129453   2.623   0.954   0.739
 9518SOL    HW229454   2.759   1.045   0.732
 9519SOL     OW29455   1.155   2.516   5.468
 9519SOL    HW129456   1.145   2.607   5.509
 9519SOL    HW229457   1.225   2.465   5.518
 9520SOL     OW29458   2.235   0.288   2.539
 9520SOL    HW129459   2.257   0.249   2.449
 9520SOL    HW229460   2.136   0.279   2.555
 9521SOL     OW29461   5.833   6.229   4.232
 9521SOL    HW129462   5.853   6.155   4.168
 9521SOL    HW229463   5.895   6.225   4.310
 9522SOL     OW29464   3.323   5.927   1.019
 9522SOL    HW129465   3.233   5.944   0.980
 9522SOL    HW229466   3.393   5.970   0.962
 9523SOL     OW29467   3.495   5.229   4.307
 9523SOL    HW129468   3.497   5.262   4.401
 9523SOL    HW229469   3.400   5.233   4.273
 9524SOL     OW29470   3.412   2.906   1.299
 9524SOL    HW129471   3.406   2.962   1.381
 9524SOL    HW229472   3.419   2.810   1.324
 9525SOL     OW29473   1.871   1.213   6.065
 9525SOL    HW129474   1.947   1.272   6.040
 9525SOL    HW229475   1.823   1.183   5.983
 9526SOL     OW29476   5.073   6.031   3.190
 9526SOL    HW129477   5.145   6.008   3.257
 9526SOL    HW229478   5.115   6.054   3.103
 9527SOL     OW29479   0.877   0.775   2.070
 9527SOL    HW129480   0.919   0.852   2.022
 9527SOL    HW229481   0.916   0.689   2.037
 9528SOL     OW29482   6.312   0.080   1.095
 9528SOL    HW129483   6.252   0.143   1.045
 9528SOL    HW229484   6.397   0.127   1.120
 9529SOL     OW29485   1.193   3.171   6.501
 9529SOL    HW129486   1.273   3.174   6.561
 9529SOL    HW229487   1.143   3.258   6.508
 9530SOL     OW29488   1.992   2.770   2.848
 9530SOL    HW129489   1.900   2.791   2.882
 9530SOL    HW229490   2.010   2.672   2.858
 9531SOL     OW29491   4.030   6.127   3.143
 9531SOL    HW129492   4.033   6.031   3.170
 9531SOL    HW229493   3.935   6.155   3.132
 9532SOL     OW29494   1.492   6.159   1.174
 9532SOL    HW129495   1.517   6.062   1.173
 9532SOL    HW229496   1.575   6.215   1.177
 9533SOL     OW29497   0.470   1.175   4.959
 9533SOL    HW129498   0.451   1.088   5.005
 9533SOL    HW229499   0.494   1.156   4.864
 9534SOL     OW29500   5.466   2.018   4.654
 9534SOL    HW129501   5.424   2.061   4.574
 9534SOL    HW229502   5.467   2.083   4.730
 9535SOL     OW29503   2.914   0.965   6.148
 9535SOL    HW129504   2.908   1.054   6.102
 9535SOL    HW229505   3.004   0.957   6.191
 9536SOL     OW29506   1.931   5.746   5.699
 9536SOL    HW129507   1.877   5.740   5.782
 9536SOL    HW229508   1.870   5.753   5.620
 9537SOL     OW29509   2.942   0.630   2.228
 9537SOL    HW129510   3.020   0.594   2.178
 9537SOL    HW229511   2.964   0.634   2.326
 9538SOL     OW29512   6.463   2.117   4.382
 9538SOL    HW129513   6.547   2.169   4.390
 9538SOL    HW229514   6.389   2.177   4.351
 9539SOL     OW29515   1.650   5.488   6.611
 9539SOL    HW129516   1.605   5.400   6.621
 9539SOL    HW229517   1.588   5.562   6.638
 9540SOL     OW29518   4.628   4.999   5.693
 9540SOL    HW129519   4.663   5.060   5.763
 9540SOL    HW229520   4.614   4.907   5.731
 9541SOL     OW29521   1.667   2.715   4.986
 9541SOL    HW129522   1.765   2.724   5.003
 9541SOL    HW229523   1.617   2.781   5.042
 9542SOL     OW29524   4.949   3.110   4.722
 9542SOL    HW129525   4.967   3.162   4.805
 9542SOL    HW229526   4.944   3.173   4.644
 9543SOL     OW29527   4.669   1.290   3.991
 9543SOL    HW129528   4.754   1.325   4.032
 9543SOL    HW229529   4.600   1.277   4.062
 9544SOL     OW29530   5.560   0.207   2.197
 9544SOL    HW129531   5.617   0.180   2.275
 9544SOL    HW229532   5.573   0.304   2.179
 9545SOL     OW29533   6.342   6.671   3.215
 9545SOL    HW129534   6.334   6.650   3.312
 9545SOL    HW229535   6.436   6.658   3.185
 9546SOL     OW29536   2.936   4.813   6.804
 9546SOL    HW129537   3.017   4.856   6.764
 9546SOL    HW229538   2.854   4.850   6.761
 9547SOL     OW29539   1.210   6.368   4.455
 9547SOL    HW129540   1.235   6.341   4.363
 9547SOL    HW229541   1.134   6.311   4.487
 9548SOL     OW29542   5.900   5.687   4.793
 9548SOL    HW129543   5.805   5.687   4.761
 9548SOL    HW229544   5.948   5.766   4.755
 9549SOL     OW29545   3.398   5.217   0.329
 9549SOL    HW129546   3.402   5.282   0.253
 9549SOL    HW229547   3.481   5.162   0.330
 9550SOL     OW29548   0.655   1.462   0.355
 9550SOL    HW129549   0.578   1.419   0.308
 9550SOL    HW229550   0.622   1.541   0.407
 9551SOL     OW29551   0.445   0.258   4.762
 9551SOL    HW129552   0.449   0.261   4.662
 9551SOL    HW229553   0.423   0.349   4.797
 9552SOL     OW29554   1.395   6.684   3.496
 9552SOL    HW129555   1.455   6.761   3.476
 9552SOL    HW229556   1.300   6.711   3.481
 9553SOL     OW29557   5.578   4.778   6.490
 9553SOL    HW129558   5.600   4.805   6.584
 9553SOL    HW229559   5.502   4.714   6.491
 9554SOL     OW29560   2.402   0.952   2.450
 9554SOL    HW129561   2.339   0.985   2.380
 9554SOL    HW229562   2.359   0.961   2.540
 9555SOL     OW29563   6.490   2.396   0.964
 9555SOL    HW129564   6.522   2.337   0.889
 9555SOL    HW229565   6.391   2.409   0.956
 9556SOL     OW29566   2.171   1.161   1.020
 9556SOL    HW129567   2.159   1.212   1.106
 9556SOL    HW229568   2.089   1.169   0.965
 9557SOL     OW29569   6.001   0.480   2.171
 9557SOL    HW129570   5.902   0.481   2.188
 9557SOL    HW229571   6.044   0.554   2.223
 9558SOL     OW29572   6.798   4.880   3.021
 9558SOL    HW129573   6.763   4.821   2.948
 9558SOL    HW229574   6.880   4.928   2.988
 9559SOL     OW29575   0.010   3.285   2.480
 9559SOL    HW129576   0.078   3.243   2.541
 9559SOL    HW229577   0.051   3.301   2.390
 9560SOL     OW29578   2.689   1.277   3.280
 9560SOL    HW129579   2.724   1.342   3.212
 9560SOL    HW229580   2.764   1.218   3.311
 9561SOL     OW29581   3.428   6.609   0.900
 9561SOL    HW129582   3.444   6.553   0.981
 9561SOL    HW229583   3.473   6.698   0.912
 9562SOL     OW29584   4.658   5.714   2.435
 9562SOL    HW129585   4.697   5.714   2.527
 9562SOL    HW229586   4.580   5.776   2.431
 9563SOL     OW29587   6.804   5.832   5.972
 9563SOL    HW129588   6.857   5.910   5.941
 9563SOL    HW229589   6.855   5.783   6.043
 9564SOL     OW29590   2.969   6.929   6.633
 9564SOL    HW129591   2.903   6.861   6.665
 9564SOL    HW229592   3.056   6.885   6.613
 9565SOL     OW29593   3.942   6.592   4.382
 9565SOL    HW129594   3.875   6.585   4.308
 9565SOL    HW229595   3.920   6.524   4.452
 9566SOL     OW29596   2.839   4.464   5.704
 9566SOL    HW129597   2.755   4.474   5.651
 9566SOL    HW229598   2.859   4.366   5.715
 9567SOL     OW29599   6.780   5.895   6.788
 9567SOL    HW129600   6.819   5.870   6.700
 9567SOL    HW229601   6.721   5.821   6.822
 9568SOL     OW29602   5.399   3.772   6.840
 9568SOL    HW129603   5.452   3.793   6.758
 9568SOL    HW229604   5.308   3.812   6.833
 9569SOL     OW29605   6.502   0.924   6.979
 9569SOL    HW129606   6.468   0.915   6.885
 9569SOL    HW229607   6.585   0.870   6.990
 9570SOL     OW29608   0.296   1.570   0.430
 9570SOL    HW129609   0.240   1.652   0.435
 9570SOL    HW229610   0.393   1.594   0.440
 9571SOL     OW29611   2.268   3.122   0.158
 9571SOL    HW129612   2.307   3.039   0.117
 9571SOL    HW229613   2.188   3.150   0.106
 9572SOL     OW29614   1.414   4.369   1.833
 9572SOL    HW129615   1.468   4.451   1.853
 9572SOL    HW229616   1.320   4.395   1.812
 9573SOL     OW29617   1.799   1.270   0.054
 9573SOL    HW129618   1.846   1.332   7.012
 9573SOL    HW229619   1.701   1.289   0.054
 9574SOL     OW29620   3.551   3.487   5.646
 9574SOL    HW129621   3.626   3.548   5.620
 9574SOL    HW229622   3.587   3.408   5.695
 9575SOL     OW29623   5.150   0.671   2.106
 9575SOL    HW129624   5.085   0.735   2.147
 9575SOL    HW229625   5.136   0.668   2.007
 9576SOL     OW29626   3.486   1.412   4.658
 9576SOL    HW129627   3.508   1.350   4.733
 9576SOL    HW229628   3.464   1.502   4.696
 9577SOL     OW29629   0.779   5.945   2.573
 9577SOL    HW129630   0.763   5.983   2.664
 9577SOL    HW229631   0.753   5.848   2.573
 9578SOL     OW29632   6.413   2.863   1.978
 9578SOL    HW129633   6.314   2.851   1.976
 9578SOL    HW229634   6.435   2.958   2.001
 9579SOL     OW29635   1.612   0.179   2.130
 9579SOL    HW129636   1.622   0.101   2.191
 9579SOL    HW229637   1.697   0.231   2.129
 9580SOL     OW29638   4.367   3.751   7.000
 9580SOL    HW129639   4.325   3.812   0.046
 9580SOL    HW229640   4.449   3.710   0.018
 9581SOL     OW29641   1.223   4.930   6.094
 9581SOL    HW129642   1.239   4.944   5.997
 9581SOL    HW229643   1.127   4.950   6.115
 9582SOL     OW29644   4.318   4.748   4.348
 9582SOL    HW129645   4.395   4.688   4.325
 9582SOL    HW229646   4.251   4.746   4.274
 9583SOL     OW29647   2.098   3.514   2.245
 9583SOL    HW129648   2.054   3.604   2.238
 9583SOL    HW229649   2.151   3.497   2.161
 9584SOL     OW29650   6.065   5.545   0.134
 9584SOL    HW129651   6.058   5.502   0.044
 9584SOL    HW229652   6.032   5.482   0.204
 9585SOL     OW29653   6.051   0.056   3.041
 9585SOL    HW129654   6.104   0.063   2.957
 9585SOL    HW229655   6.107   0.016   3.113
 9586SOL     OW29656   4.936   3.319   3.169
 9586SOL    HW129657   5.033   3.322   3.195
 9586SOL    HW229658   4.928   3.309   3.070
 9587SOL     OW29659   5.587   0.469   2.108
 9587SOL    HW129660   5.526   0.517   2.170
 9587SOL    HW229661   5.592   0.519   2.021
 9588SOL     OW29662   0.435   0.526   1.446
 9588SOL    HW129663   0.437   0.568   1.355
 9588SOL    HW229664   0.522   0.482   1.465
 9589SOL     OW29665   2.630   0.547   6.143
 9589SOL    HW129666   2.560   0.617   6.158
 9589SOL    HW229667   2.718   0.581   6.177
 9590SOL     OW29668   6.798   4.183   3.305
 9590SOL    HW129669   6.897   4.187   3.317
 9590SOL    HW229670   6.761   4.110   3.362
 9591SOL     OW29671   2.111   5.363   0.927
 9591SOL    HW129672   2.019   5.323   0.927
 9591SOL    HW229673   2.178   5.291   0.908
 9592SOL     OW29674   4.321   5.563   2.200
 9592SOL    HW129675   4.221   5.566   2.202
 9592SOL    HW229676   4.357   5.656   2.188
 9593SOL     OW29677   6.983   2.761   4.145
 9593SOL    HW129678   6.930   2.677   4.156
 9593SOL    HW229679   0.035   2.745   4.080
 9594SOL     OW29680   6.566   6.683   2.420
 9594SOL    HW129681   6.544   6.772   2.458
 9594SOL    HW229682   6.630   6.694   2.344
 9595SOL     OW29683   1.980   5.834   4.705
 9595SOL    HW129684   2.032   5.876   4.631
 9595SOL    HW229685   2.037   5.829   4.787
 9596SOL     OW29686   5.868   5.721   5.403
 9596SOL    HW129687   5.905   5.630   5.387
 9596SOL    HW229688   5.783   5.714   5.455
 9597SOL     OW29689   1.628   4.241   1.698
 9597SOL    HW129690   1.568   4.299   1.753
 9597SOL    HW229691   1.707   4.214   1.753
 9598SOL     OW29692   0.295   5.217   5.867
 9598SOL    HW129693   0.208   5.220   5.817
 9598SOL    HW229694   0.285   5.264   5.955
 9599SOL     OW29695   4.412   1.393   5.588
 9599SOL    HW129696   4.498   1.441   5.570
 9599SOL    HW229697   4.377   1.354   5.503
 9600SOL     OW29698   1.612   6.851   5.998
 9600SOL    HW129699   1.639   6.857   6.094
 9600SOL    HW229700   1.521   6.893   5.987
 9601SOL     OW29701   0.404   4.937   5.562
 9601SOL    HW129702   0.308   4.966   5.564
 9601SOL    HW229703   0.449   4.966   5.647
 9602SOL     OW29704   0.916   5.710   6.700
 9602SOL    HW129705   0.818   5.694   6.696
 9602SOL    HW229706   0.939   5.793   6.649
 9603SOL     OW29707   1.855   6.141   4.726
 9603SOL    HW129708   1.787   6.194   4.777
 9603SOL    HW229709   1.817   6.051   4.703
 9604SOL     OW29710   5.844   1.824   6.690
 9604SOL    HW129711   5.902   1.824   6.771
 9604SOL    HW229712   5.892   1.869   6.615
 9605SOL     OW29713   1.981   6.135   6.468
 9605SOL    HW129714   1.980   6.235   6.472
 9605SOL    HW229715   2.062   6.104   6.417
 9606SOL     OW29716   0.362   6.981   3.695
 9606SOL    HW129717   0.356   6.907   3.628
 9606SOL    HW229718   0.273   6.993   3.739
 9607SOL     OW29719   1.409   1.617   2.094
 9607SOL    HW129720   1.492   1.561   2.100
 9607SOL    HW229721   1.382   1.647   2.186
 9608SOL     OW29722   0.371   6.941   2.516
 9608SOL    HW129723   0.439   7.012   2.531
 9608SOL    HW229724   0.334   6.949   2.423
 9609SOL     OW29725   2.060   4.518   4.418
 9609SOL    HW129726   2.005   4.439   4.446
 9609SOL    HW229727   2.153   4.509   4.456
 9610SOL     OW29728   1.992   1.721   6.103
 9610SOL    HW129729   2.067   1.748   6.042
 9610SOL    HW229730   1.929   1.662   6.053
 9611SOL     OW29731   6.114   0.212   0.926
 9611SOL    HW129732   6.152   0.289   0.875
 9611SOL    HW229733   6.068   0.245   1.008
 9612SOL     OW29734   5.875   3.265   1.822
 9612SOL    HW129735   5.779   3.237   1.816
 9612SOL    HW229736   5.895   3.295   1.915
 9613SOL     OW29737   6.544   6.715   5.076
 9613SOL    HW129738   6.638   6.685   5.084
 9613SOL    HW229739   6.492   6.650   5.021
 9614SOL     OW29740   3.583   3.813   2.277
 9614SOL    HW129741   3.501   3.818   2.335
 9614SOL    HW229742   3.659   3.776   2.331
 9615SOL     OW29743   1.377   6.031   2.554
 9615SOL    HW129744   1.383   6.123   2.591
 9615SOL    HW229745   1.286   6.016   2.515
 9616SOL     OW29746   3.727   2.605   0.973
 9616SOL    HW129747   3.813   2.651   0.954
 9616SOL    HW229748   3.692   2.564   0.888
 9617SOL     OW29749   1.097   2.879   3.885
 9617SOL    HW129750   1.072   2.868   3.981
 9617SOL    HW229751   1.180   2.827   3.865
 9618SOL     OW29752   3.399   6.084   6.655
 9618SOL    HW129753   3.380   5.986   6.659
 9618SOL    HW229754   3.428   6.109   6.563
 9619SOL     OW29755   3.055   6.333   0.834
 9619SOL    HW129756   3.020   6.393   0.906
 9619SOL    HW229757   3.049   6.238   0.864
 9620SOL     OW29758   3.384   1.705   6.456
 9620SOL    HW129759   3.416   1.616   6.423
 9620SOL    HW229760   3.287   1.716   6.434
 9621SOL     OW29761   0.447   0.712   1.753
 9621SOL    HW129762   0.481   0.620   1.735
 9621SOL    HW229763   0.413   0.752   1.668
 9622SOL     OW29764   5.814   0.418   6.274
 9622SOL    HW129765   5.871   0.456   6.347
 9622SOL    HW229766   5.777   0.330   6.303
 9623SOL     OW29767   4.674   6.222   6.367
 9623SOL    HW129768   4.773   6.221   6.363
 9623SOL    HW229769   4.643   6.301   6.421
 9624SOL     OW29770   4.397   5.168   5.103
 9624SOL    HW129771   4.304   5.135   5.089
 9624SOL    HW229772   4.458   5.125   5.037
 9625SOL     OW29773   5.089   4.293   6.453
 9625SOL    HW129774   5.030   4.361   6.496
 9625SOL    HW229775   5.133   4.237   6.523
 9626SOL     OW29776   1.938   4.014   6.023
 9626SOL    HW129777   1.869   4.047   5.959
 9626SOL    HW229778   1.917   3.920   6.050
 9627SOL     OW29779   0.629   5.142   6.723
 9627SOL    HW129780   0.548   5.083   6.729
 9627SOL    HW229781   0.683   5.133   6.806
 9628SOL     OW29782   6.058   3.468   0.012
 9628SOL    HW129783   6.022   3.555   7.000
 9628SOL    HW229784   6.114   3.484   0.094
 9629SOL     OW29785   0.155   5.822   2.646
 9629SOL    HW129786   0.245   5.834   2.686
 9629SOL    HW229787   0.143   5.726   2.619
 9630SOL     OW29788   6.543   5.775   5.856
 9630SOL    HW129789   6.496   5.722   5.927
 9630SOL    HW229790   6.637   5.791   5.885
 9631SOL     OW29791   4.399   1.433   0.574
 9631SOL    HW129792   4.440   1.398   0.658
 9631SOL    HW229793   4.397   1.532   0.576
 9632SOL     OW29794   3.501   6.500   1.237
 9632SOL    HW129795   3.573   6.457   1.290
 9632SOL    HW229796   3.523   6.597   1.223
 9633SOL     OW29797   3.906   3.083   2.560
 9633SOL    HW129798   3.825   3.049   2.607
 9633SOL    HW229799   3.987   3.068   2.616
 9634SOL     OW29800   5.341   4.711   2.310
 9634SOL    HW129801   5.302   4.745   2.225
 9634SOL    HW229802   5.271   4.661   2.361
 9635SOL     OW29803   1.145   3.768   3.634
 9635SOL    HW129804   1.058   3.804   3.668
 9635SOL    HW229805   1.207   3.844   3.613
 9636SOL     OW29806   4.225   2.259   4.667
 9636SOL    HW129807   4.272   2.305   4.592
 9636SOL    HW229808   4.224   2.161   4.650
 9637SOL     OW29809   2.312   3.001   0.701
 9637SOL    HW129810   2.346   2.916   0.662
 9637SOL    HW229811   2.388   3.063   0.720
 9638SOL     OW29812   6.828   4.512   5.503
 9638SOL    HW129813   6.857   4.588   5.444
 9638SOL    HW229814   6.832   4.427   5.451
 9639SOL     OW29815   4.569   1.617   1.551
 9639SOL    HW129816   4.592   1.627   1.454
 9639SOL    HW229817   4.552   1.707   1.591
 9640SOL     OW29818   3.514   0.703   2.376
 9640SOL    HW129819   3.442   0.772   2.376
 9640SOL    HW229820   3.501   0.640   2.452
 9641SOL     OW29821   6.018   4.158   2.751
 9641SOL    HW129822   5.923   4.186   2.736
 9641SOL    HW229823   6.039   4.080   2.691
 9642SOL     OW29824   2.017   0.439   3.616
 9642SOL    HW129825   2.061   0.501   3.551
 9642SOL    HW229826   1.964   0.370   3.566
 9643SOL     OW29827   5.219   4.414   4.174
 9643SOL    HW129828   5.226   4.324   4.217
 9643SOL    HW229829   5.157   4.409   4.096
 9644SOL     OW29830   1.434   5.549   5.144
 9644SOL    HW129831   1.370   5.487   5.190
 9644SOL    HW229832   1.520   5.502   5.128
 9645SOL     OW29833   1.496   5.692   6.219
 9645SOL    HW129834   1.480   5.657   6.127
 9645SOL    HW229835   1.454   5.631   6.286
 9646SOL     OW29836   3.452   6.811   5.804
 9646SOL    HW129837   3.370   6.768   5.765
 9646SOL    HW229838   3.530   6.792   5.744
 9647SOL     OW29839   6.147   5.984   3.397
 9647SOL    HW129840   6.050   5.962   3.382
 9647SOL    HW229841   6.169   6.069   3.348
 9648SOL     OW29842   4.813   2.248   1.029
 9648SOL    HW129843   4.810   2.181   1.103
 9648SOL    HW229844   4.881   2.318   1.051
 9649SOL     OW29845   2.776   3.415   0.785
 9649SOL    HW129846   2.774   3.391   0.688
 9649SOL    HW229847   2.838   3.353   0.834
 9650SOL     OW29848   6.912   4.861   4.380
 9650SOL    HW129849   6.967   4.936   4.416
 9650SOL    HW229850   6.819   4.869   4.415
 9651SOL     OW29851   2.670   1.717   0.269
 9651SOL    HW129852   2.725   1.641   0.305
 9651SOL    HW229853   2.648   1.780   0.344
 9652SOL     OW29854   6.932   3.795   0.886
 9652SOL    HW129855   7.005   3.863   0.886
 9652SOL    HW229856   6.950   3.727   0.957
 9653SOL     OW29857   4.593   3.846   6.066
 9653SOL    HW129858   4.557   3.785   6.137
 9653SOL    HW229859   4.641   3.922   6.109
 9654SOL     OW29860   3.483   3.239   4.163
 9654SOL    HW129861   3.574   3.272   4.140
 9654SOL    HW229862   3.423   3.316   4.184
 9655SOL     OW29863   5.354   0.604   2.251
 9655SOL    HW129864   5.277   0.612   2.188
 9655SOL    HW229865   5.418   0.679   2.236
 9656SOL     OW29866   5.495   3.990   1.069
 9656SOL    HW129867   5.577   3.933   1.059
 9656SOL    HW229868   5.517   4.085   1.045
 9657SOL     OW29869   5.915   3.784   3.311
 9657SOL    HW129870   5.875   3.711   3.257
 9657SOL    HW229871   5.901   3.765   3.409
 9658SOL     OW29872   4.862   1.436   2.584
 9658SOL    HW129873   4.821   1.377   2.514
 9658SOL    HW229874   4.865   1.388   2.671
 9659SOL     OW29875   2.754   2.556   0.976
 9659SOL    HW129876   2.750   2.538   1.074
 9659SOL    HW229877   2.703   2.484   0.927
 9660SOL     OW29878   1.082   5.413   0.832
 9660SOL    HW129879   1.032   5.329   0.853
 9660SOL    HW229880   1.045   5.488   0.888
 9661SOL     OW29881   5.233   4.933   1.182
 9661SOL    HW129882   5.221   5.029   1.159
 9661SOL    HW229883   5.202   4.876   1.105
 9662SOL     OW29884   5.306   4.152   6.960
 9662SOL    HW129885   5.373   4.189   6.895
 9662SOL    HW229886   5.332   4.177   0.031
 9663SOL     OW29887   0.674   4.162   3.206
 9663SOL    HW129888   0.690   4.117   3.294
 9663SOL    HW229889   0.732   4.243   3.199
 9664SOL     OW29890   5.273   4.152   3.283
 9664SOL    HW129891   5.339   4.081   3.256
 9664SOL    HW229892   5.296   4.185   3.375
 9665SOL     OW29893   6.026   6.216   6.465
 9665SOL    HW129894   6.034   6.213   6.564
 9665SOL    HW229895   5.946   6.272   6.440
 9666SOL     OW29896   5.925   4.395   0.980
 9666SOL    HW129897   5.913   4.480   1.032
 9666SOL    HW229898   6.010   4.351   1.008
 9667SOL     OW29899   4.711   5.497   0.899
 9667SOL    HW129900   4.616   5.525   0.891
 9667SOL    HW229901   4.742   5.509   0.993
 9668SOL     OW29902   0.965   6.176   5.997
 9668SOL    HW129903   0.915   6.123   5.928
 9668SOL    HW229904   1.022   6.114   6.051
 9669SOL     OW29905   2.963   6.789   0.466
 9669SOL    HW129906   2.905   6.818   0.390
 9669SOL    HW229907   3.001   6.870   0.512
 9670SOL     OW29908   0.023   0.177   6.130
 9670SOL    HW129909   7.021   0.097   6.073
 9670SOL    HW229910   0.117   0.167   6.163
 9671SOL     OW29911   1.063   4.663   6.598
 9671SOL    HW129912   1.078   4.565   6.617
 9671SOL    HW229913   1.124   4.692   6.525
 9672SOL     OW29914   0.851   4.435   4.006
 9672SOL    HW129915   0.938   4.388   4.023
 9672SOL    HW229916   0.776   4.381   4.044
 9673SOL     OW29917   2.930   3.926   1.370
 9673SOL    HW129918   2.847   3.871   1.375
 9673SOL    HW229919   2.906   4.021   1.353
 9674SOL     OW29920   3.235   6.333   2.948
 9674SOL    HW129921   3.329   6.363   2.961
 9674SOL    HW229922   3.228   6.278   2.864
 9675SOL     OW29923   4.856   3.947   1.465
 9675SOL    HW129924   4.815   3.856   1.468
 9675SOL    HW229925   4.783   4.016   1.471
 9676SOL     OW29926   1.459   3.088   5.587
 9676SOL    HW129927   1.439   3.057   5.680
 9676SOL    HW229928   1.411   3.029   5.521
 9677SOL     OW29929   6.304   4.963   0.315
 9677SOL    HW129930   6.390   4.975   0.265
 9677SOL    HW229931   6.247   4.896   0.268
 9678SOL     OW29932   3.335   3.949   5.099
 9678SOL    HW129933   3.340   3.861   5.146
 9678SOL    HW229934   3.314   4.021   5.165
 9679SOL     OW29935   2.208   1.652   4.486
 9679SOL    HW129936   2.235   1.563   4.452
 9679SOL    HW229937   2.265   1.678   4.564
 9680SOL     OW29938   4.580   6.475   3.367
 9680SOL    HW129939   4.663   6.442   3.411
 9680SOL    HW229940   4.500   6.439   3.414
 9681SOL     OW29941   2.082   0.587   1.080
 9681SOL    HW129942   2.041   0.513   1.026
 9681SOL    HW229943   2.083   0.671   1.026
 9682SOL     OW29944   5.735   5.722   4.463
 9682SOL    HW129945   5.730   5.819   4.487
 9682SOL    HW229946   5.714   5.667   4.544
 9683SOL     OW29947   1.946   6.921   0.751
 9683SOL    HW129948   2.038   6.955   0.774
 9683SOL    HW229949   1.913   6.862   0.824
 9684SOL     OW29950   1.568   4.300   5.488
 9684SOL    HW129951   1.474   4.295   5.521
 9684SOL    HW229952   1.604   4.208   5.474
 9685SOL     OW29953   4.417   3.640   0.458
 9685SOL    HW129954   4.511   3.607   0.462
 9685SOL    HW229955   4.379   3.623   0.367
 9686SOL     OW29956   6.046   2.321   6.052
 9686SOL    HW129957   5.996   2.336   5.966
 9686SOL    HW229958   6.130   2.271   6.033
 9687SOL     OW29959   6.349   0.222   2.286
 9687SOL    HW129960   6.306   0.254   2.371
 9687SOL    HW229961   6.326   0.126   2.271
 9688SOL     OW29962   2.000   4.861   1.427
 9688SOL    HW129963   2.017   4.876   1.330
 9688SOL    HW229964   1.957   4.942   1.466
 9689SOL     OW29965   1.211   6.248   6.759
 9689SOL    HW129966   1.196   6.164   6.810
 9689SOL    HW229967   1.293   6.294   6.794
 9690SOL     OW29968   5.440   5.694   4.844
 9690SOL    HW129969   5.410   5.615   4.790
 9690SOL    HW229970   5.399   5.688   4.935
 9691SOL     OW29971   3.012   3.848   1.903
 9691SOL    HW129972   3.073   3.926   1.920
 9691SOL    HW229973   2.945   3.872   1.834
 9692SOL     OW29974   4.588   5.034   0.291
 9692SOL    HW129975   4.507   4.994   0.334
 9692SOL    HW229976   4.560   5.096   0.218
 9693SOL     OW29977   6.042   4.033   3.736
 9693SOL    HW129978   6.092   4.105   3.686
 9693SOL    HW229979   5.953   4.018   3.694
 9694SOL     OW29980   2.840   6.801   1.960
 9694SOL    HW129981   2.793   6.878   1.916
 9694SOL    HW229982   2.788   6.717   1.944
 9695SOL     OW29983   0.031   3.909   3.836
 9695SOL    HW129984   6.977   3.856   3.875
 9695SOL    HW229985   0.001   4.003   3.818
 9696SOL     OW29986   5.765   2.071   3.091
 9696SOL    HW129987   5.717   2.100   3.009
 9696SOL    HW229988   5.711   2.094   3.172
 9697SOL     OW29989   0.012   5.723   0.410
 9697SOL    HW129990   6.979   5.799   0.446
 9697SOL    HW229991   7.020   5.717   0.311
 9698SOL     OW29992   5.379   3.646   0.414
 9698SOL    HW129993   5.475   3.672   0.414
 9698SOL    HW229994   5.352   3.616   0.505
 9699SOL     OW29995   1.279   5.016   0.240
 9699SOL    HW129996   1.196   5.041   0.291
 9699SOL    HW229997   1.331   5.098   0.219
 9700SOL     OW29998   5.960   6.752   3.825
 9700SOL    HW129999   5.879   6.696   3.840
 9700SOL    HW230000   5.945   6.843   3.863
 9701SOL     OW30001   4.959   2.792   6.703
 9701SOL    HW130002   5.009   2.723   6.755
 9701SOL    HW230003   4.974   2.778   6.606
 9702SOL     OW30004   3.600   2.882   0.598
 9702SOL    HW130005   3.601   2.942   0.678
 9702SOL    HW230006   3.505   2.864   0.571
 9703SOL     OW30007   6.070   4.271   5.073
 9703SOL    HW130008   6.078   4.369   5.089
 9703SOL    HW230009   6.041   4.256   4.978
 9704SOL     OW30010   3.058   4.808   2.581
 9704SOL    HW130011   3.155   4.831   2.569
 9704SOL    HW230012   3.010   4.822   2.495
 9705SOL     OW30013   6.101   4.284   5.497
 9705SOL    HW130014   6.056   4.215   5.441
 9705SOL    HW230015   6.086   4.374   5.456
 9706SOL     OW30016   1.121   1.586   1.712
 9706SOL    HW130017   1.104   1.524   1.635
 9706SOL    HW230018   1.067   1.670   1.699
 9707SOL     OW30019   6.419   4.725   2.382
 9707SOL    HW130020   6.346   4.769   2.330
 9707SOL    HW230021   6.408   4.626   2.378
 9708SOL     OW30022   1.611   0.825   2.696
 9708SOL    HW130023   1.584   0.775   2.779
 9708SOL    HW230024   1.559   0.790   2.618
 9709SOL     OW30025   5.895   3.223   2.661
 9709SOL    HW130026   5.843   3.141   2.637
 9709SOL    HW230027   5.992   3.200   2.669
 9710SOL     OW30028   6.123   6.409   5.957
 9710SOL    HW130029   6.147   6.479   6.024
 9710SOL    HW230030   6.079   6.332   6.004
 9711SOL     OW30031   4.056   6.141   6.915
 9711SOL    HW130032   3.983   6.208   6.901
 9711SOL    HW230033   4.144   6.183   6.897
 9712SOL     OW30034   5.882   2.956   0.976
 9712SOL    HW130035   5.883   2.887   0.904
 9712SOL    HW230036   5.883   2.911   1.065
 9713SOL     OW30037   1.790   5.985   3.541
 9713SOL    HW130038   1.697   6.021   3.538
 9713SOL    HW230039   1.854   6.062   3.547
 9714SOL     OW30040   3.972   5.362   4.700
 9714SOL    HW130041   4.020   5.379   4.786
 9714SOL    HW230042   3.956   5.449   4.654
 9715SOL     OW30043   6.098   4.630   0.910
 9715SOL    HW130044   6.142   4.594   0.992
 9715SOL    HW230045   6.104   4.563   0.837
 9716SOL     OW30046   4.172   4.070   6.685
 9716SOL    HW130047   4.112   4.062   6.764
 9716SOL    HW230048   4.248   4.005   6.695
 9717SOL     OW30049   4.421   0.592   5.998
 9717SOL    HW130050   4.330   0.630   5.984
 9717SOL    HW230051   4.421   0.496   5.972
 9718SOL     OW30052   3.501   1.895   0.361
 9718SOL    HW130053   3.487   1.943   0.275
 9718SOL    HW230054   3.429   1.919   0.425
 9719SOL     OW30055   4.920   6.233   4.655
 9719SOL    HW130056   4.994   6.287   4.617
 9719SOL    HW230057   4.861   6.201   4.582
 9720SOL     OW30058   1.636   4.049   3.004
 9720SOL    HW130059   1.658   3.951   3.007
 9720SOL    HW230060   1.666   4.093   3.089
 9721SOL     OW30061   0.851   1.731   0.462
 9721SOL    HW130062   0.763   1.704   0.423
 9721SOL    HW230063   0.896   1.796   0.402
 9722SOL     OW30064   3.513   2.553   5.514
 9722SOL    HW130065   3.608   2.584   5.516
 9722SOL    HW230066   3.475   2.569   5.422
 9723SOL     OW30067   6.206   4.404   4.763
 9723SOL    HW130068   6.127   4.455   4.799
 9723SOL    HW230069   6.242   4.451   4.683
 9724SOL     OW30070   1.510   5.643   6.994
 9724SOL    HW130071   1.433   5.687   0.019
 9724SOL    HW230072   1.516   5.675   6.900
 9725SOL     OW30073   3.692   5.324   5.566
 9725SOL    HW130074   3.593   5.314   5.557
 9725SOL    HW230075   3.712   5.392   5.637
 9726SOL     OW30076   5.946   0.632   4.270
 9726SOL    HW130077   5.850   0.654   4.256
 9726SOL    HW230078   5.994   0.630   4.183
 9727SOL     OW30079   0.172   2.470   6.814
 9727SOL    HW130080   0.200   2.426   6.899
 9727SOL    HW230081   0.159   2.568   6.830
 9728SOL     OW30082   5.471   0.727   6.046
 9728SOL    HW130083   5.503   0.710   5.953
 9728SOL    HW230084   5.494   0.648   6.103
 9729SOL     OW30085   0.748   3.746   3.459
 9729SOL    HW130086   0.689   3.685   3.406
 9729SOL    HW230087   0.817   3.692   3.508
 9730SOL     OW30088   0.390   4.278   3.382
 9730SOL    HW130089   0.386   4.179   3.393
 9730SOL    HW230090   0.468   4.314   3.433
 9731SOL     OW30091   4.993   3.564   2.524
 9731SOL    HW130092   4.990   3.464   2.529
 9731SOL    HW230093   4.930   3.595   2.452
 9732SOL     OW30094   1.574   2.869   2.266
 9732SOL    HW130095   1.553   2.925   2.185
 9732SOL    HW230096   1.673   2.851   2.269
 9733SOL     OW30097   6.254   5.675   2.855
 9733SOL    HW130098   6.213   5.661   2.765
 9733SOL    HW230099   6.204   5.621   2.923
 9734SOL     OW30100   6.324   6.288   6.643
 9734SOL    HW130101   6.229   6.289   6.675
 9734SOL    HW230102   6.329   6.243   6.554
 9735SOL     OW30103   1.398   1.757   3.275
 9735SOL    HW130104   1.404   1.709   3.363
 9735SOL    HW230105   1.419   1.693   3.201
 9736SOL     OW30106   4.917   1.956   5.227
 9736SOL    HW130107   4.990   2.024   5.214
 9736SOL    HW230108   4.869   1.941   5.141
 9737SOL     OW30109   6.020   1.831   2.530
 9737SOL    HW130110   5.936   1.816   2.479
 9737SOL    HW230111   6.079   1.751   2.523
 9738SOL     OW30112   2.269   5.954   0.735
 9738SOL    HW130113   2.349   5.995   0.779
 9738SOL    HW230114   2.216   5.903   0.802
 9739SOL     OW30115   4.479   6.849   0.130
 9739SOL    HW130116   4.577   6.857   0.150
 9739SOL    HW230117   4.434   6.936   0.150
 9740SOL     OW30118   5.756   1.176   2.606
 9740SOL    HW130119   5.850   1.199   2.629
 9740SOL    HW230120   5.694   1.227   2.666
 9741SOL     OW30121   3.143   1.339   4.323
 9741SOL    HW130122   3.131   1.431   4.286
 9741SOL    HW230123   3.083   1.275   4.273
 9742SOL     OW30124   4.395   1.329   6.577
 9742SOL    HW130125   4.324   1.282   6.524
 9742SOL    HW230126   4.482   1.282   6.566
 9743SOL     OW30127   0.169   3.132   3.636
 9743SOL    HW130128   0.221   3.170   3.560
 9743SOL    HW230129   0.175   3.193   3.715
 9744SOL     OW30130   2.086   6.758   3.391
 9744SOL    HW130131   2.151   6.834   3.390
 9744SOL    HW230132   2.132   6.676   3.425
 9745SOL     OW30133   5.679   1.398   5.802
 9745SOL    HW130134   5.706   1.486   5.840
 9745SOL    HW230135   5.591   1.371   5.842
 9746SOL     OW30136   4.536   6.390   6.809
 9746SOL    HW130137   4.586   6.409   6.893
 9746SOL    HW230138   4.496   6.475   6.774
 9747SOL     OW30139   2.355   1.977   1.983
 9747SOL    HW130140   2.368   2.038   1.905
 9747SOL    HW230141   2.435   1.917   1.992
 9748SOL     OW30142   0.039   0.620   3.084
 9748SOL    HW130143   7.017   0.530   3.094
 9748SOL    HW230144   0.027   0.673   3.168
 9749SOL     OW30145   0.553   1.932   1.874
 9749SOL    HW130146   0.623   2.004   1.878
 9749SOL    HW230147   0.467   1.967   1.912
 9750SOL     OW30148   6.138   4.719   4.293
 9750SOL    HW130149   6.198   4.788   4.253
 9750SOL    HW230150   6.069   4.691   4.225
 9751SOL     OW30151   2.358   0.374   1.492
 9751SOL    HW130152   2.300   0.294   1.479
 9751SOL    HW230153   2.300   0.454   1.510
 9752SOL     OW30154   4.140   2.082   0.342
 9752SOL    HW130155   4.129   2.012   0.412
 9752SOL    HW230156   4.051   2.121   0.319
 9753SOL     OW30157   0.447   5.834   6.383
 9753SOL    HW130158   0.435   5.893   6.303
 9753SOL    HW230159   0.453   5.891   6.465
 9754SOL     OW30160   3.881   0.529   0.787
 9754SOL    HW130161   3.892   0.449   0.846
 9754SOL    HW230162   3.961   0.538   0.728
 9755SOL     OW30163   3.283   4.118   5.333
 9755SOL    HW130164   3.381   4.140   5.325
 9755SOL    HW230165   3.247   4.160   5.417
 9756SOL     OW30166   5.587   1.531   6.238
 9756SOL    HW130167   5.563   1.498   6.330
 9756SOL    HW230168   5.638   1.460   6.190
 9757SOL     OW30169   5.595   4.100   4.208
 9757SOL    HW130170   5.563   4.006   4.200
 9757SOL    HW230171   5.694   4.100   4.223
 9758SOL     OW30172   1.251   0.945   0.444
 9758SOL    HW130173   1.171   0.887   0.458
 9758SOL    HW230174   1.223   1.041   0.434
 9759SOL     OW30175   0.802   1.252   0.435
 9759SOL    HW130176   0.723   1.190   0.440
 9759SOL    HW230177   0.770   1.343   0.409
 9760SOL     OW30178   4.833   2.321   0.063
 9760SOL    HW130179   4.786   2.278   0.140
 9760SOL    HW230180   4.776   2.393   0.025
 9761SOL     OW30181   1.393   1.049   1.833
 9761SOL    HW130182   1.478   0.997   1.822
 9761SOL    HW230183   1.332   1.029   1.756
 9762SOL     OW30184   2.860   1.566   4.929
 9762SOL    HW130185   2.901   1.482   4.894
 9762SOL    HW230186   2.819   1.617   4.853
 9763SOL     OW30187   6.574   1.598   1.964
 9763SOL    HW130188   6.631   1.542   1.905
 9763SOL    HW230189   6.620   1.684   1.983
 9764SOL     OW30190   5.752   2.691   2.334
 9764SOL    HW130191   5.840   2.675   2.288
 9764SOL    HW230192   5.697   2.754   2.280
 9765SOL     OW30193   6.453   1.453   2.170
 9765SOL    HW130194   6.414   1.527   2.225
 9765SOL    HW230195   6.502   1.492   2.092
 9766SOL     OW30196   2.765   0.950   3.613
 9766SOL    HW130197   2.793   0.861   3.578
 9766SOL    HW230198   2.714   0.938   3.698
 9767SOL     OW30199   2.583   3.135   6.191
 9767SOL    HW130200   2.580   3.056   6.130
 9767SOL    HW230201   2.592   3.103   6.286
 9768SOL     OW30202   5.708   2.606   0.579
 9768SOL    HW130203   5.735   2.532   0.641
 9768SOL    HW230204   5.609   2.606   0.569
 9769SOL     OW30205   3.084   1.564   5.710
 9769SOL    HW130206   3.045   1.620   5.637
 9769SOL    HW230207   3.134   1.487   5.670
 9770SOL     OW30208   3.593   2.550   6.424
 9770SOL    HW130209   3.578   2.453   6.403
 9770SOL    HW230210   3.690   2.564   6.447
 9771SOL     OW30211   2.472   6.550   1.920
 9771SOL    HW130212   2.378   6.538   1.887
 9771SOL    HW230213   2.504   6.465   1.962
 9772SOL     OW30214   1.687   6.272   2.026
 9772SOL    HW130215   1.665   6.366   2.001
 9772SOL    HW230216   1.691   6.216   1.944
 9773SOL     OW30217   5.664   5.339   2.945
 9773SOL    HW130218   5.694   5.262   2.889
 9773SOL    HW230219   5.659   5.310   3.041
 9774SOL     OW30220   1.013   5.573   3.919
 9774SOL    HW130221   1.025   5.474   3.923
 9774SOL    HW230222   1.093   5.615   3.875
 9775SOL     OW30223   2.867   0.702   3.535
 9775SOL    HW130224   2.936   0.714   3.607
 9775SOL    HW230225   2.806   0.627   3.560
 9776SOL     OW30226   1.765   5.292   6.003
 9776SOL    HW130227   1.753   5.225   6.075
 9776SOL    HW230228   1.835   5.261   5.939
 9777SOL     OW30229   5.155   6.736   6.665
 9777SOL    HW130230   5.223   6.734   6.592
 9777SOL    HW230231   5.106   6.649   6.668
 9778SOL     OW30232   0.331   2.091   4.568
 9778SOL    HW130233   0.291   2.071   4.479
 9778SOL    HW230234   0.399   2.164   4.559
 9779SOL     OW30235   0.732   2.150   3.060
 9779SOL    HW130236   0.658   2.087   3.082
 9779SOL    HW230237   0.774   2.182   3.145
 9780SOL     OW30238   1.362   1.486   1.359
 9780SOL    HW130239   1.397   1.503   1.451
 9780SOL    HW230240   1.437   1.460   1.298
 9781SOL     OW30241   1.369   3.704   4.021
 9781SOL    HW130242   1.306   3.639   3.978
 9781SOL    HW230243   1.460   3.694   3.980
 9782SOL     OW30244   0.315   2.556   0.453
 9782SOL    HW130245   0.290   2.637   0.401
 9782SOL    HW230246   0.260   2.551   0.536
 9783SOL     OW30247   4.163   1.869   3.221
 9783SOL    HW130248   4.098   1.852   3.148
 9783SOL    HW230249   4.141   1.812   3.300
 9784SOL     OW30250   3.013   0.871   6.521
 9784SOL    HW130251   3.047   0.879   6.615
 9784SOL    HW230252   2.913   0.869   6.521
 9785SOL     OW30253   6.970   2.398   4.386
 9785SOL    HW130254   0.037   2.402   4.433
 9785SOL    HW230255   6.961   2.310   4.339
 9786SOL     OW30256   3.251   4.220   0.393
 9786SOL    HW130257   3.302   4.135   0.408
 9786SOL    HW230258   3.266   4.282   0.471
 9787SOL     OW30259   3.628   3.672   4.000
 9787SOL    HW130260   3.577   3.586   4.003
 9787SOL    HW230261   3.712   3.662   4.053
 9788SOL     OW30262   0.859   5.606   1.885
 9788SOL    HW130263   0.766   5.621   1.920
 9788SOL    HW230264   0.902   5.532   1.937
 9789SOL     OW30265   3.164   0.113   6.829
 9789SOL    HW130266   3.123   0.097   6.919
 9789SOL    HW230267   3.092   0.131   6.762
 9790SOL     OW30268   6.653   4.072   5.098
 9790SOL    HW130269   6.644   4.009   5.175
 9790SOL    HW230270   6.590   4.148   5.110
 9791SOL     OW30271   0.562   6.812   0.100
 9791SOL    HW130272   0.580   6.843   0.194
 9791SOL    HW230273   0.491   6.870   0.060
 9792SOL     OW30274   3.383   5.303   0.790
 9792SOL    HW130275   3.398   5.222   0.848
 9792SOL    HW230276   3.350   5.274   0.701
 9793SOL     OW30277   4.353   0.712   1.311
 9793SOL    HW130278   4.331   0.730   1.407
 9793SOL    HW230279   4.324   0.789   1.255
 9794SOL     OW30280   5.010   4.393   4.617
 9794SOL    HW130281   5.010   4.454   4.538
 9794SOL    HW230282   4.920   4.349   4.626
 9795SOL     OW30283   0.908   3.224   4.087
 9795SOL    HW130284   0.828   3.268   4.046
 9795SOL    HW230285   0.878   3.163   4.160
 9796SOL     OW30286   3.980   3.818   3.956
 9796SOL    HW130287   4.047   3.760   4.002
 9796SOL    HW230288   3.918   3.761   3.902
 9797SOL     OW30289   2.912   6.314   6.779
 9797SOL    HW130290   2.915   6.348   6.873
 9797SOL    HW230291   2.940   6.386   6.716
 9798SOL     OW30292   2.333   2.078   1.248
 9798SOL    HW130293   2.235   2.062   1.264
 9798SOL    HW230294   2.361   2.161   1.296
 9799SOL     OW30295   2.834   4.807   6.486
 9799SOL    HW130296   2.908   4.862   6.525
 9799SOL    HW230297   2.850   4.710   6.506
 9800SOL     OW30298   5.863   3.101   4.248
 9800SOL    HW130299   5.961   3.117   4.259
 9800SOL    HW230300   5.840   3.098   4.151
 9801SOL     OW30301   5.135   4.670   0.149
 9801SOL    HW130302   5.126   4.657   0.248
 9801SOL    HW230303   5.230   4.685   0.125
 9802SOL     OW30304   4.057   4.630   0.533
 9802SOL    HW130305   4.077   4.714   0.584
 9802SOL    HW230306   3.988   4.577   0.582
 9803SOL     OW30307   1.640   2.908   6.478
 9803SOL    HW130308   1.666   2.994   6.522
 9803SOL    HW230309   1.632   2.837   6.548
 9804SOL     OW30310   6.696   5.765   3.202
 9804SOL    HW130311   6.778   5.808   3.238
 9804SOL    HW230312   6.623   5.833   3.196
 9805SOL     OW30313   0.938   6.766   3.174
 9805SOL    HW130314   0.846   6.739   3.146
 9805SOL    HW230315   1.005   6.733   3.107
 9806SOL     OW30316   3.550   2.194   6.499
 9806SOL    HW130317   3.620   2.219   6.432
 9806SOL    HW230318   3.567   2.243   6.585
 9807SOL     OW30319   3.679   3.006   2.732
 9807SOL    HW130320   3.667   2.941   2.657
 9807SOL    HW230321   3.622   3.086   2.716
 9808SOL     OW30322   4.229   5.743   3.932
 9808SOL    HW130323   4.202   5.838   3.947
 9808SOL    HW230324   4.323   5.729   3.965
 9809SOL     OW30325   0.697   2.959   0.614
 9809SOL    HW130326   0.698   2.874   0.561
 9809SOL    HW230327   0.755   3.027   0.570
 9810SOL     OW30328   2.561   2.082   4.793
 9810SOL    HW130329   2.531   2.055   4.701
 9810SOL    HW230330   2.516   2.168   4.818
 9811SOL     OW30331   6.412   3.666   3.971
 9811SOL    HW130332   6.336   3.628   3.919
 9811SOL    HW230333   6.444   3.750   3.927
 9812SOL     OW30334   2.830   6.649   4.465
 9812SOL    HW130335   2.930   6.654   4.475
 9812SOL    HW230336   2.791   6.740   4.474
 9813SOL     OW30337   5.878   2.771   0.778
 9813SOL    HW130338   5.850   2.743   0.687
 9813SOL    HW230339   5.977   2.760   0.789
 9814SOL     OW30340   5.683   1.872   0.048
 9814SOL    HW130341   5.677   1.860   6.970
 9814SOL    HW230342   5.609   1.821   0.092
 9815SOL     OW30343   4.357   2.437   3.982
 9815SOL    HW130344   4.258   2.423   3.990
 9815SOL    HW230345   4.399   2.355   3.944
 9816SOL     OW30346   1.137   6.838   5.791
 9816SOL    HW130347   1.144   6.923   5.739
 9816SOL    HW230348   1.128   6.761   5.729
 9817SOL     OW30349   0.711   6.720   3.058
 9817SOL    HW130350   0.624   6.674   3.046
 9817SOL    HW230351   0.743   6.755   2.970
 9818SOL     OW30352   5.731   1.648   4.925
 9818SOL    HW130353   5.801   1.586   4.961
 9818SOL    HW230354   5.754   1.674   4.831
 9819SOL     OW30355   4.426   2.471   3.261
 9819SOL    HW130356   4.392   2.378   3.264
 9819SOL    HW230357   4.350   2.535   3.271
 9820SOL     OW30358   3.493   3.407   6.824
 9820SOL    HW130359   3.504   3.506   6.825
 9820SOL    HW230360   3.401   3.384   6.795
 9821SOL     OW30361   5.976   6.605   6.591
 9821SOL    HW130362   6.028   6.521   6.611
 9821SOL    HW230363   5.982   6.667   6.668
 9822SOL     OW30364   0.547   0.233   3.082
 9822SOL    HW130365   0.530   0.315   3.029
 9822SOL    HW230366   0.553   0.154   3.021
 9823SOL     OW30367   3.406   0.549   1.031
 9823SOL    HW130368   3.474   0.579   1.098
 9823SOL    HW230369   3.325   0.513   1.078
 9824SOL     OW30370   1.318   3.940   5.854
 9824SOL    HW130371   1.332   3.847   5.820
 9824SOL    HW230372   1.302   3.937   5.953
 9825SOL     OW30373   3.411   5.657   5.508
 9825SOL    HW130374   3.322   5.671   5.552
 9825SOL    HW230375   3.396   5.632   5.412
 9826SOL     OW30376   4.360   6.112   6.247
 9826SOL    HW130377   4.296   6.089   6.175
 9826SOL    HW230378   4.397   6.029   6.288
 9827SOL     OW30379   1.874   4.310   4.427
 9827SOL    HW130380   1.856   4.325   4.330
 9827SOL    HW230381   1.818   4.233   4.460
 9828SOL     OW30382   3.441   2.759   6.322
 9828SOL    HW130383   3.489   2.681   6.362
 9828SOL    HW230384   3.344   2.737   6.312
 9829SOL     OW30385   3.262   6.480   0.701
 9829SOL    HW130386   3.345   6.487   0.757
 9829SOL    HW230387   3.209   6.401   0.731
 9830SOL     OW30388   5.995   2.127   1.516
 9830SOL    HW130389   6.092   2.142   1.536
 9830SOL    HW230390   5.986   2.084   1.426
 9831SOL     OW30391   1.371   6.156   0.411
 9831SOL    HW130392   1.446   6.209   0.452
 9831SOL    HW230393   1.293   6.215   0.396
 9832SOL     OW30394   4.652   5.355   2.570
 9832SOL    HW130395   4.598   5.407   2.504
 9832SOL    HW230396   4.749   5.368   2.552
 9833SOL     OW30397   3.541   3.138   5.080
 9833SOL    HW130398   3.534   3.050   5.128
 9833SOL    HW230399   3.450   3.168   5.052
 9834SOL     OW30400   2.622   4.212   5.872
 9834SOL    HW130401   2.538   4.254   5.837
 9834SOL    HW230402   2.687   4.199   5.797
 9835SOL     OW30403   4.363   2.131   5.273
 9835SOL    HW130404   4.446   2.079   5.254
 9835SOL    HW230405   4.284   2.080   5.241
 9836SOL     OW30406   6.222   3.845   3.346
 9836SOL    HW130407   6.132   3.804   3.362
 9836SOL    HW230408   6.212   3.924   3.284
 9837SOL     OW30409   1.509   6.906   2.800
 9837SOL    HW130410   1.436   6.974   2.799
 9837SOL    HW230411   1.473   6.819   2.832
 9838SOL     OW30412   0.311   6.862   5.232
 9838SOL    HW130413   0.217   6.840   5.204
 9838SOL    HW230414   0.342   6.796   5.300
 9839SOL     OW30415   6.720   1.537   2.711
 9839SOL    HW130416   6.664   1.476   2.767
 9839SOL    HW230417   6.816   1.518   2.729
 9840SOL     OW30418   0.078   0.468   0.540
 9840SOL    HW130419   0.035   0.558   0.546
 9840SOL    HW230420   0.040   0.408   0.611
 9841SOL     OW30421   1.483   4.580   4.925
 9841SOL    HW130422   1.424   4.500   4.937
 9841SOL    HW230423   1.579   4.551   4.921
 9842SOL     OW30424   3.365   4.104   3.204
 9842SOL    HW130425   3.278   4.067   3.235
 9842SOL    HW230426   3.361   4.124   3.106
 9843SOL     OW30427   6.997   2.009   1.691
 9843SOL    HW130428   6.938   1.928   1.693
 9843SOL    HW230429   0.031   2.006   1.608
 9844SOL     OW30430   4.738   0.060   3.196
 9844SOL    HW130431   4.749   0.117   3.114
 9844SOL    HW230432   4.782   6.993   3.181
 9845SOL     OW30433   2.306   1.333   4.834
 9845SOL    HW130434   2.327   1.423   4.796
 9845SOL    HW230435   2.207   1.322   4.841
 9846SOL     OW30436   3.829   3.946   3.140
 9846SOL    HW130437   3.758   3.997   3.090
 9846SOL    HW230438   3.858   3.999   3.220
 9847SOL     OW30439   2.694   2.499   5.913
 9847SOL    HW130440   2.602   2.522   5.880
 9847SOL    HW230441   2.750   2.582   5.916
 9848SOL     OW30442   3.667   2.365   6.697
 9848SOL    HW130443   3.697   2.459   6.680
 9848SOL    HW230444   3.585   2.366   6.754
 9849SOL     OW30445   6.175   0.752   7.011
 9849SOL    HW130446   6.203   0.717   0.078
 9849SOL    HW230447   6.136   0.678   6.956
 9850SOL     OW30448   5.102   5.685   2.646
 9850SOL    HW130449   5.014   5.713   2.684
 9850SOL    HW230450   5.159   5.646   2.718
 9851SOL     OW30451   4.474   1.981   5.592
 9851SOL    HW130452   4.468   1.886   5.623
 9851SOL    HW230453   4.528   1.985   5.507
 9852SOL     OW30454   4.093   2.133   3.279
 9852SOL    HW130455   3.995   2.130   3.257
 9852SOL    HW230456   4.135   2.045   3.258
 9853SOL     OW30457   4.742   4.110   3.301
 9853SOL    HW130458   4.762   4.188   3.242
 9853SOL    HW230459   4.808   4.109   3.377
 9854SOL     OW30460   5.842   5.131   5.361
 9854SOL    HW130461   5.897   5.212   5.337
 9854SOL    HW230462   5.745   5.152   5.350
 9855SOL     OW30463   1.692   4.554   1.570
 9855SOL    HW130464   1.618   4.619   1.589
 9855SOL    HW230465   1.656   4.477   1.517
 9856SOL     OW30466   4.790   4.395   0.159
 9856SOL    HW130467   4.842   4.447   0.091
 9856SOL    HW230468   4.697   4.433   0.165
 9857SOL     OW30469   5.181   2.098   3.388
 9857SOL    HW130470   5.105   2.099   3.453
 9857SOL    HW230471   5.162   2.161   3.313
 9858SOL     OW30472   6.158   0.463   1.479
 9858SOL    HW130473   6.093   0.470   1.555
 9858SOL    HW230474   6.168   0.552   1.435
 9859SOL     OW30475   6.480   6.981   1.348
 9859SOL    HW130476   6.411   6.922   1.305
 9859SOL    HW230477   6.558   6.991   1.286
 9860SOL     OW30478   0.455   0.970   1.886
 9860SOL    HW130479   0.471   1.043   1.819
 9860SOL    HW230480   0.395   0.901   1.846
 9861SOL     OW30481   2.953   0.038   3.604
 9861SOL    HW130482   2.901   6.976   3.584
 9861SOL    HW230483   2.997   0.029   3.693
 9862SOL     OW30484   2.725   3.855   0.853
 9862SOL    HW130485   2.699   3.758   0.852
 9862SOL    HW230486   2.645   3.912   0.837
 9863SOL     OW30487   3.247   6.985   3.204
 9863SOL    HW130488   3.167   0.018   3.232
 9863SOL    HW230489   3.281   6.933   3.282
 9864SOL     OW30490   4.050   5.616   3.752
 9864SOL    HW130491   4.127   5.679   3.761
 9864SOL    HW230492   4.066   5.537   3.811
 9865SOL     OW30493   1.108   1.276   4.546
 9865SOL    HW130494   1.094   1.241   4.453
 9865SOL    HW230495   1.053   1.358   4.560
 9866SOL     OW30496   5.032   4.088   4.403
 9866SOL    HW130497   4.937   4.067   4.428
 9866SOL    HW230498   5.076   4.137   4.478
 9867SOL     OW30499   5.429   0.366   1.331
 9867SOL    HW130500   5.343   0.416   1.318
 9867SOL    HW230501   5.480   0.406   1.407
 9868SOL     OW30502   1.482   4.515   5.757
 9868SOL    HW130503   1.564   4.490   5.706
 9868SOL    HW230504   1.432   4.433   5.782
 9869SOL     OW30505   2.078   3.353   2.728
 9869SOL    HW130506   2.059   3.442   2.770
 9869SOL    HW230507   2.112   3.290   2.798
 9870SOL     OW30508   4.168   5.929   2.445
 9870SOL    HW130509   4.122   5.841   2.442
 9870SOL    HW230510   4.101   6.002   2.460
 9871SOL     OW30511   0.551   6.431   5.672
 9871SOL    HW130512   0.613   6.509   5.676
 9871SOL    HW230513   0.516   6.420   5.579
 9872SOL     OW30514   3.308   5.411   3.723
 9872SOL    HW130515   3.361   5.374   3.800
 9872SOL    HW230516   3.220   5.363   3.718
 9873SOL     OW30517   1.949   2.189   1.145
 9873SOL    HW130518   1.867   2.169   1.091
 9873SOL    HW230519   2.005   2.256   1.096
 9874SOL     OW30520   0.655   2.947   4.511
 9874SOL    HW130521   0.563   2.956   4.474
 9874SOL    HW230522   0.721   2.985   4.446
 9875SOL     OW30523   0.031   6.781   2.705
 9875SOL    HW130524   0.125   6.764   2.734
 9875SOL    HW230525   0.023   6.765   2.606
 9876SOL     OW30526   0.006   1.237   2.050
 9876SOL    HW130527   0.035   1.234   2.146
 9876SOL    HW230528   6.997   1.146   2.022
 9877SOL     OW30529   0.683   5.940   3.353
 9877SOL    HW130530   0.726   5.990   3.278
 9877SOL    HW230531   0.586   5.928   3.335
 9878SOL     OW30532   2.580   5.445   4.840
 9878SOL    HW130533   2.663   5.464   4.893
 9878SOL    HW230534   2.500   5.478   4.890
 9879SOL     OW30535   5.985   5.246   5.006
 9879SOL    HW130536   6.024   5.328   5.048
 9879SOL    HW230537   6.005   5.166   5.062
 9880SOL     OW30538   1.709   2.020   5.212
 9880SOL    HW130539   1.728   1.929   5.249
 9880SOL    HW230540   1.613   2.025   5.183
 9881SOL     OW30541   1.797   1.370   5.032
 9881SOL    HW130542   1.752   1.434   4.969
 9881SOL    HW230543   1.858   1.421   5.093
 9882SOL     OW30544   0.752   2.295   3.644
 9882SOL    HW130545   0.819   2.365   3.670
 9882SOL    HW230546   0.790   2.237   3.572
 9883SOL     OW30547   1.818   5.610   0.301
 9883SOL    HW130548   1.843   5.520   0.267
 9883SOL    HW230549   1.899   5.670   0.299
 9884SOL     OW30550   4.329   1.445   3.311
 9884SOL    HW130551   4.262   1.377   3.341
 9884SOL    HW230552   4.369   1.490   3.391
 9885SOL     OW30553   6.979   3.468   5.298
 9885SOL    HW130554   0.012   3.410   5.358
 9885SOL    HW230555   0.008   3.487   5.214
 9886SOL     OW30556   0.729   4.355   1.865
 9886SOL    HW130557   0.655   4.320   1.922
 9886SOL    HW230558   0.789   4.412   1.922
 9887SOL     OW30559   3.119   1.644   6.343
 9887SOL    HW130560   3.086   1.721   6.289
 9887SOL    HW230561   3.174   1.583   6.285
 9888SOL     OW30562   6.798   4.287   1.622
 9888SOL    HW130563   6.743   4.241   1.553
 9888SOL    HW230564   6.884   4.318   1.581
 9889SOL     OW30565   6.449   5.097   1.519
 9889SOL    HW130566   6.362   5.073   1.563
 9889SOL    HW230567   6.466   5.195   1.530
 9890SOL     OW30568   1.537   2.245   0.182
 9890SOL    HW130569   1.546   2.248   0.082
 9890SOL    HW230570   1.580   2.162   0.216
 9891SOL     OW30571   5.755   3.409   1.220
 9891SOL    HW130572   5.841   3.459   1.228
 9891SOL    HW230573   5.768   3.331   1.157
 9892SOL     OW30574   6.789   5.175   0.803
 9892SOL    HW130575   6.784   5.079   0.777
 9892SOL    HW230576   6.756   5.185   0.897
 9893SOL     OW30577   1.028   0.421   1.219
 9893SOL    HW130578   1.087   0.412   1.139
 9893SOL    HW230579   1.071   0.376   1.297
 9894SOL     OW30580   1.757   2.397   1.884
 9894SOL    HW130581   1.721   2.311   1.848
 9894SOL    HW230582   1.799   2.381   1.973
 9895SOL     OW30583   6.253   3.525   5.706
 9895SOL    HW130584   6.171   3.471   5.688
 9895SOL    HW230585   6.246   3.613   5.658
 9896SOL     OW30586   6.143   0.375   6.563
 9896SOL    HW130587   6.238   0.383   6.594
 9896SOL    HW230588   6.117   0.457   6.513
 9897SOL     OW30589   6.304   5.543   3.337
 9897SOL    HW130590   6.398   5.512   3.351
 9897SOL    HW230591   6.283   5.618   3.399
 9898SOL     OW30592   2.044   6.703   5.160
 9898SOL    HW130593   1.971   6.739   5.217
 9898SOL    HW230594   2.098   6.637   5.211
 9899SOL     OW30595   0.658   5.588   6.699
 9899SOL    HW130596   0.730   5.550   6.757
 9899SOL    HW230597   0.583   5.522   6.690
 9900SOL     OW30598   1.690   3.833   3.195
 9900SOL    HW130599   1.673   3.750   3.142
 9900SOL    HW230600   1.646   3.826   3.284
 9901SOL     OW30601   2.840   1.675   6.180
 9901SOL    HW130602   2.889   1.616   6.116
 9901SOL    HW230603   2.810   1.620   6.258
 9902SOL     OW30604   3.448   4.521   0.361
 9902SOL    HW130605   3.372   4.577   0.393
 9902SOL    HW230606   3.451   4.522   0.261
 9903SOL     OW30607   4.783   1.313   1.516
 9903SOL    HW130608   4.790   1.406   1.478
 9903SOL    HW230609   4.863   1.295   1.574
 9904SOL     OW30610   0.875   3.725   0.392
 9904SOL    HW130611   0.850   3.756   0.301
 9904SOL    HW230612   0.844   3.793   0.460
 9905SOL     OW30613   2.626   0.476   6.475
 9905SOL    HW130614   2.697   0.522   6.422
 9905SOL    HW230615   2.585   0.403   6.420
 9906SOL     OW30616   2.514   3.124   1.707
 9906SOL    HW130617   2.509   3.218   1.673
 9906SOL    HW230618   2.596   3.080   1.671
 9907SOL     OW30619   6.588   0.260   0.813
 9907SOL    HW130620   6.555   0.176   0.770
 9907SOL    HW230621   6.557   0.264   0.908
 9908SOL     OW30622   5.173   1.828   4.499
 9908SOL    HW130623   5.259   1.828   4.448
 9908SOL    HW230624   5.187   1.783   4.588
 9909SOL     OW30625   4.053   0.386   3.955
 9909SOL    HW130626   4.044   0.319   4.030
 9909SOL    HW230627   3.977   0.373   3.891
 9910SOL     OW30628   1.968   3.835   2.948
 9910SOL    HW130629   1.922   3.790   3.025
 9910SOL    HW230630   2.010   3.766   2.889
 9911SOL     OW30631   2.785   6.288   1.786
 9911SOL    HW130632   2.883   6.284   1.807
 9911SOL    HW230633   2.759   6.206   1.735
 9912SOL     OW30634   3.827   1.212   1.594
 9912SOL    HW130635   3.728   1.223   1.590
 9912SOL    HW230636   3.867   1.237   1.506
 9913SOL     OW30637   6.424   4.387   1.146
 9913SOL    HW130638   6.407   4.383   1.244
 9913SOL    HW230639   6.496   4.322   1.122
 9914SOL     OW30640   5.967   1.941   4.570
 9914SOL    HW130641   6.014   1.967   4.486
 9914SOL    HW230642   5.895   1.874   4.550
 9915SOL     OW30643   5.521   0.848   4.383
 9915SOL    HW130644   5.492   0.767   4.434
 9915SOL    HW230645   5.449   0.874   4.319
 9916SOL     OW30646   1.887   2.769   3.203
 9916SOL    HW130647   1.869   2.726   3.292
 9916SOL    HW230648   1.979   2.746   3.172
 9917SOL     OW30649   5.881   4.101   0.267
 9917SOL    HW130650   5.831   4.161   0.330
 9917SOL    HW230651   5.834   4.013   0.261
 9918SOL     OW30652   3.404   1.136   3.277
 9918SOL    HW130653   3.414   1.087   3.364
 9918SOL    HW230654   3.359   1.223   3.293
 9919SOL     OW30655   6.355   4.955   1.286
 9919SOL    HW130656   6.399   5.011   1.356
 9919SOL    HW230657   6.361   5.002   1.197
 9920SOL     OW30658   4.955   1.180   2.307
 9920SOL    HW130659   5.013   1.260   2.316
 9920SOL    HW230660   4.862   1.203   2.336
 9921SOL     OW30661   4.257   6.994   5.840
 9921SOL    HW130662   4.179   6.972   5.782
 9921SOL    HW230663   4.225   7.017   5.932
 9922SOL     OW30664   2.761   4.292   0.270
 9922SOL    HW130665   2.732   4.297   0.175
 9922SOL    HW230666   2.815   4.373   0.293
 9923SOL     OW30667   4.734   4.774   0.129
 9923SOL    HW130668   4.814   4.721   0.100
 9923SOL    HW230669   4.740   4.866   0.090
 9924SOL     OW30670   6.408   1.727   5.308
 9924SOL    HW130671   6.344   1.674   5.252
 9924SOL    HW230672   6.357   1.780   5.376
 9925SOL     OW30673   6.667   3.578   4.029
 9925SOL    HW130674   6.685   3.569   4.127
 9925SOL    HW230675   6.575   3.615   4.015
 9926SOL     OW30676   4.025   2.661   0.855
 9926SOL    HW130677   4.058   2.698   0.942
 9926SOL    HW230678   4.065   2.570   0.841
 9927SOL     OW30679   6.508   6.730   0.413
 9927SOL    HW130680   6.575   6.667   0.375
 9927SOL    HW230681   6.554   6.795   0.473
 9928SOL     OW30682   5.360   5.382   2.113
 9928SOL    HW130683   5.280   5.442   2.103
 9928SOL    HW230684   5.432   5.430   2.162
 9929SOL     OW30685   3.016   4.937   5.445
 9929SOL    HW130686   2.978   4.861   5.391
 9929SOL    HW230687   2.950   5.011   5.448
 9930SOL     OW30688   6.850   6.902   4.408
 9930SOL    HW130689   6.778   6.905   4.339
 9930SOL    HW230690   6.866   6.807   4.435
 9931SOL     OW30691   0.914   4.988   4.026
 9931SOL    HW130692   0.853   5.067   4.035
 9931SOL    HW230693   1.009   5.020   4.018
 9932SOL     OW30694   2.615   5.311   6.961
 9932SOL    HW130695   2.563   5.363   6.892
 9932SOL    HW230696   2.700   5.358   6.981
 9933SOL     OW30697   0.335   5.728   3.748
 9933SOL    HW130698   0.338   5.729   3.848
 9933SOL    HW230699   0.346   5.633   3.716
 9934SOL     OW30700   5.063   1.718   5.609
 9934SOL    HW130701   5.127   1.717   5.687
 9934SOL    HW230702   5.045   1.813   5.582
 9935SOL     OW30703   2.569   6.623   0.223
 9935SOL    HW130704   2.528   6.599   0.312
 9935SOL    HW230705   2.618   6.544   0.187
 9936SOL     OW30706   6.594   5.283   6.779
 9936SOL    HW130707   6.513   5.307   6.726
 9936SOL    HW230708   6.664   5.354   6.766
 9937SOL     OW30709   6.917   1.877   0.437
 9937SOL    HW130710   6.834   1.844   0.482
 9937SOL    HW230711   6.905   1.873   0.338
 9938SOL     OW30712   6.972   5.030   2.582
 9938SOL    HW130713   0.001   5.057   2.501
 9938SOL    HW230714   0.010   4.977   2.642
 9939SOL     OW30715   4.483   2.438   1.096
 9939SOL    HW130716   4.471   2.338   1.091
 9939SOL    HW230717   4.581   2.459   1.089
 9940SOL     OW30718   1.209   0.391   1.009
 9940SOL    HW130719   1.195   0.304   0.961
 9940SOL    HW230720   1.283   0.380   1.076
 9941SOL     OW30721   3.027   3.881   5.620
 9941SOL    HW130722   2.980   3.847   5.538
 9941SOL    HW230723   2.965   3.878   5.698
 9942SOL     OW30724   2.564   5.539   2.052
 9942SOL    HW130725   2.554   5.440   2.065
 9942SOL    HW230726   2.617   5.577   2.128
 9943SOL     OW30727   6.791   5.009   5.415
 9943SOL    HW130728   6.843   4.958   5.346
 9943SOL    HW230729   6.844   5.090   5.443
 9944SOL     OW30730   1.288   4.450   6.385
 9944SOL    HW130731   1.263   4.520   6.317
 9944SOL    HW230732   1.328   4.372   6.338
 9945SOL     OW30733   5.851   5.491   6.507
 9945SOL    HW130734   5.794   5.448   6.577
 9945SOL    HW230735   5.808   5.576   6.477
 9946SOL     OW30736   4.661   0.796   3.738
 9946SOL    HW130737   4.747   0.775   3.784
 9946SOL    HW230738   4.588   0.741   3.779
 9947SOL     OW30739   1.540   2.892   5.133
 9947SOL    HW130740   1.589   2.879   5.219
 9947SOL    HW230741   1.508   2.987   5.127
 9948SOL     OW30742   5.222   4.270   4.814
 9948SOL    HW130743   5.264   4.357   4.785
 9948SOL    HW230744   5.145   4.249   4.754
 9949SOL     OW30745   6.377   5.004   4.469
 9949SOL    HW130746   6.372   5.092   4.516
 9949SOL    HW230747   6.327   5.010   4.382
 9950SOL     OW30748   5.776   6.096   4.872
 9950SOL    HW130749   5.707   6.039   4.829
 9950SOL    HW230750   5.820   6.153   4.803
 9951SOL     OW30751   6.584   0.386   4.964
 9951SOL    HW130752   6.646   0.314   4.933
 9951SOL    HW230753   6.540   0.358   5.049
 9952SOL     OW30754   0.514   3.303   1.435
 9952SOL    HW130755   0.518   3.321   1.533
 9952SOL    HW230756   0.569   3.370   1.386
 9953SOL     OW30757   6.097   2.750   4.420
 9953SOL    HW130758   6.106   2.786   4.327
 9953SOL    HW230759   6.172   2.687   4.438
 9954SOL     OW30760   6.327   0.332   6.025
 9954SOL    HW130761   6.392   0.258   6.035
 9954SOL    HW230762   6.245   0.299   5.979
 9955SOL     OW30763   6.304   3.646   5.262
 9955SOL    HW130764   6.327   3.701   5.342
 9955SOL    HW230765   6.377   3.654   5.194
 9956SOL     OW30766   0.912   0.227   2.270
 9956SOL    HW130767   0.980   0.190   2.208
 9956SOL    HW230768   0.954   0.298   2.328
 9957SOL     OW30769   5.344   5.582   2.526
 9957SOL    HW130770   5.339   5.482   2.535
 9957SOL    HW230771   5.260   5.623   2.561
 9958SOL     OW30772   3.416   5.683   1.034
 9958SOL    HW130773   3.372   5.770   1.013
 9958SOL    HW230774   3.505   5.700   1.076
 9959SOL     OW30775   4.166   3.578   5.349
 9959SOL    HW130776   4.253   3.627   5.355
 9959SOL    HW230777   4.152   3.546   5.255
 9960SOL     OW30778   6.870   6.392   2.874
 9960SOL    HW130779   6.885   6.429   2.966
 9960SOL    HW230780   6.844   6.466   2.812
 9961SOL     OW30781   2.001   5.364   3.978
 9961SOL    HW130782   1.924   5.427   3.966
 9961SOL    HW230783   2.083   5.403   3.937
 9962SOL     OW30784   6.555   6.991   2.790
 9962SOL    HW130785   6.557   6.932   2.709
 9962SOL    HW230786   6.460   7.015   2.811
 9963SOL     OW30787   2.953   2.376   6.546
 9963SOL    HW130788   2.967   2.352   6.450
 9963SOL    HW230789   2.922   2.295   6.597
 9964SOL     OW30790   5.044   4.839   5.627
 9964SOL    HW130791   4.946   4.820   5.627
 9964SOL    HW230792   5.070   4.879   5.539
 9965SOL     OW30793   3.924   6.477   6.706
 9965SOL    HW130794   4.022   6.488   6.690
 9965SOL    HW230795   3.910   6.418   6.786
 9966SOL     OW30796   1.495   5.718   1.758
 9966SOL    HW130797   1.592   5.709   1.780
 9966SOL    HW230798   1.480   5.695   1.662
 9967SOL     OW30799   0.175   6.414   2.040
 9967SOL    HW130800   0.118   6.409   1.958
 9967SOL    HW230801   0.204   6.321   2.065
 9968SOL     OW30802   3.647   3.594   1.417
 9968SOL    HW130803   3.665   3.687   1.385
 9968SOL    HW230804   3.550   3.584   1.437
 9969SOL     OW30805   1.839   2.845   2.259
 9969SOL    HW130806   1.903   2.768   2.253
 9969SOL    HW230807   1.847   2.901   2.177
 9970SOL     OW30808   4.826   3.797   2.868
 9970SOL    HW130809   4.788   3.879   2.825
 9970SOL    HW230810   4.767   3.769   2.944
 9971SOL     OW30811   1.838   5.081   1.452
 9971SOL    HW130812   1.831   5.151   1.523
 9971SOL    HW230813   1.827   5.124   1.362
 9972SOL     OW30814   5.420   4.937   1.429
 9972SOL    HW130815   5.361   4.901   1.356
 9972SOL    HW230816   5.492   4.994   1.390
 9973SOL     OW30817   5.946   1.855   3.706
 9973SOL    HW130818   5.962   1.759   3.684
 9973SOL    HW230819   5.975   1.873   3.800
 9974SOL     OW30820   0.983   2.560   2.576
 9974SOL    HW130821   0.987   2.654   2.609
 9974SOL    HW230822   1.053   2.506   2.623
 9975SOL     OW30823   6.138   3.910   0.234
 9975SOL    HW130824   6.094   3.999   0.250
 9975SOL    HW230825   6.181   3.879   0.319
 9976SOL     OW30826   0.998   6.397   5.794
 9976SOL    HW130827   0.917   6.367   5.744
 9976SOL    HW230828   1.057   6.318   5.812
 9977SOL     OW30829   6.564   5.293   5.404
 9977SOL    HW130830   6.563   5.205   5.452
 9977SOL    HW230831   6.471   5.314   5.373
 9978SOL     OW30832   0.758   2.457   4.324
 9978SOL    HW130833   0.687   2.527   4.328
 9978SOL    HW230834   0.843   2.494   4.363
 9979SOL     OW30835   6.134   4.977   5.618
 9979SOL    HW130836   6.150   4.923   5.701
 9979SOL    HW230837   6.071   4.927   5.559
 9980SOL     OW30838   1.839   0.911   6.355
 9980SOL    HW130839   1.810   1.004   6.378
 9980SOL    HW230840   1.785   0.878   6.277
 9981SOL     OW30841   2.543   1.706   2.824
 9981SOL    HW130842   2.591   1.668   2.903
 9981SOL    HW230843   2.445   1.687   2.834
 9982SOL     OW30844   6.533   6.270   4.316
 9982SOL    HW130845   6.616   6.325   4.310
 9982SOL    HW230846   6.454   6.330   4.328
 9983SOL     OW30847   6.558   2.238   2.664
 9983SOL    HW130848   6.518   2.301   2.598
 9983SOL    HW230849   6.626   2.286   2.719
 9984SOL     OW30850   2.414   0.765   0.079
 9984SOL    HW130851   2.506   0.728   0.063
 9984SOL    HW230852   2.358   0.750   7.020
 9985SOL     OW30853   1.237   0.745   0.656
 9985SOL    HW130854   1.278   0.827   0.614
 9985SOL    HW230855   1.155   0.720   0.605
 9986SOL     OW30856   5.496   4.690   6.034
 9986SOL    HW130857   5.486   4.750   6.113
 9986SOL    HW230858   5.441   4.608   6.046
 9987SOL     OW30859   0.115   3.024   4.088
 9987SOL    HW130860   0.180   3.069   4.149
 9987SOL    HW230861   0.096   2.932   4.122
 9988SOL     OW30862   0.225   5.984   3.965
 9988SOL    HW130863   0.267   6.073   3.980
 9988SOL    HW230864   0.260   5.944   3.880
 9989SOL     OW30865   6.779   3.412   3.798
 9989SOL    HW130866   6.788   3.314   3.784
 9989SOL    HW230867   6.743   3.430   3.890
 9990SOL     OW30868   2.146   5.022   2.823
 9990SOL    HW130869   2.084   5.036   2.901
 9990SOL    HW230870   2.233   5.067   2.841
 9991SOL     OW30871   2.340   2.157   3.893
 9991SOL    HW130872   2.360   2.215   3.973
 9991SOL    HW230873   2.333   2.215   3.812
 9992SOL     OW30874   5.753   5.237   0.079
 9992SOL    HW130875   5.691   5.186   0.137
 9992SOL    HW230876   5.701   5.296   0.018
 9993SOL     OW30877   3.046   1.184   0.610
 9993SOL    HW130878   2.953   1.217   0.622
 9993SOL    HW230879   3.090   1.174   0.699
 9994SOL     OW30880   6.025   4.525   3.083
 9994SOL    HW130881   5.984   4.443   3.043
 9994SOL    HW230882   6.096   4.499   3.148
 9995SOL     OW30883   4.855   1.332   3.053
 9995SOL    HW130884   4.785   1.363   3.118
 9995SOL    HW230885   4.932   1.397   3.054
 9996SOL     OW30886   3.043   3.723   0.453
 9996SOL    HW130887   3.023   3.775   0.370
 9996SOL    HW230888   3.126   3.668   0.440
 9997SOL     OW30889   2.777   1.625   5.761
 9997SOL    HW130890   2.839   1.586   5.694
 9997SOL    HW230891   2.815   1.712   5.795
 9998SOL     OW30892   5.986   4.731   6.097
 9998SOL    HW130893   6.047   4.779   6.159
 9998SOL    HW230894   5.928   4.668   6.149
 9999SOL     OW30895   6.250   2.881   5.774
 9999SOL    HW130896   6.338   2.927   5.780
 9999SOL    HW230897   6.246   2.825   5.690
10000SOL     OW30898   0.209   4.616   0.126
10000SOL    HW130899   0.140   4.570   0.070
10000SOL    HW230900   0.276   4.548   0.157
10001SOL     OW30901   4.946   7.017   2.005
10001SOL    HW130902   5.035   0.024   1.969
10001SOL    HW230903   4.958   6.986   2.099
10002SOL     OW30904   1.116   6.644   1.991
10002SOL    HW130905   1.180   6.582   2.035
10002SOL    HW230906   1.152   6.737   1.995
10003SOL     OW30907   3.798   2.060   3.653
10003SOL    HW130908   3.831   1.967   3.669
10003SOL    HW230909   3.736   2.086   3.727
10004SOL     OW30910   0.042   2.604   3.769
10004SOL    HW130911   0.128   2.554   3.771
10004SOL    HW230912   0.035   2.662   3.850
10005SOL     OW30913   5.534   0.397   4.217
10005SOL    HW130914   5.545   0.491   4.183
10005SOL    HW230915   5.624   0.354   4.225
10006SOL     OW30916   5.106   5.596   4.793
10006SOL    HW130917   5.196   5.562   4.819
10006SOL    HW230918   5.112   5.693   4.769
10007SOL     OW30919   7.014   4.362   5.001
10007SOL    HW130920   6.982   4.270   5.025
10007SOL    HW230921   6.937   4.426   5.006
10008SOL     OW30922   3.817   1.482   4.892
10008SOL    HW130923   3.812   1.581   4.905
10008SOL    HW230924   3.786   1.459   4.800
10009SOL     OW30925   1.805   3.658   2.442
10009SOL    HW130926   1.869   3.702   2.505
10009SOL    HW230927   1.823   3.560   2.439
10010SOL     OW30928   2.273   1.175   5.888
10010SOL    HW130929   2.194   1.140   5.836
10010SOL    HW230930   2.240   1.235   5.961
10011SOL     OW30931   6.177   0.774   6.028
10011SOL    HW130932   6.229   0.855   5.999
10011SOL    HW230933   6.142   0.789   6.121
10012SOL     OW30934   6.074   1.188   3.006
10012SOL    HW130935   5.999   1.124   2.987
10012SOL    HW230936   6.118   1.214   2.920
10013SOL     OW30937   0.457   1.375   3.018
10013SOL    HW130938   0.373   1.400   3.067
10013SOL    HW230939   0.532   1.434   3.049
10014SOL     OW30940   0.511   4.152   0.135
10014SOL    HW130941   0.582   4.129   0.201
10014SOL    HW230942   0.524   4.099   0.051
10015SOL     OW30943   2.753   4.933   0.833
10015SOL    HW130944   2.745   5.032   0.824
10015SOL    HW230945   2.844   4.904   0.804
10016SOL     OW30946   0.801   1.626   6.250
10016SOL    HW130947   0.713   1.617   6.203
10016SOL    HW230948   0.821   1.723   6.264
10017SOL     OW30949   3.178   2.104   3.210
10017SOL    HW130950   3.105   2.120   3.143
10017SOL    HW230951   3.151   2.142   3.299
10018SOL     OW30952   4.715   0.289   6.656
10018SOL    HW130953   4.677   0.380   6.669
10018SOL    HW230954   4.756   0.283   6.565
10019SOL     OW30955   0.715   1.586   2.776
10019SOL    HW130956   0.733   1.679   2.745
10019SOL    HW230957   0.788   1.557   2.838
10020SOL     OW30958   1.434   2.069   1.580
10020SOL    HW130959   1.403   1.981   1.543
10020SOL    HW230960   1.527   2.087   1.548
10021SOL     OW30961   6.783   2.910   1.212
10021SOL    HW130962   6.842   2.844   1.166
10021SOL    HW230963   6.786   2.997   1.162
10022SOL     OW30964   2.165   1.565   5.762
10022SOL    HW130965   2.222   1.644   5.739
10022SOL    HW230966   2.174   1.496   5.689
10023SOL     OW30967   6.867   4.629   0.941
10023SOL    HW130968   6.918   4.557   0.895
10023SOL    HW230969   6.770   4.618   0.923
10024SOL     OW30970   1.441   6.112   3.190
10024SOL    HW130971   1.504   6.162   3.131
10024SOL    HW230972   1.443   6.152   3.282
10025SOL     OW30973   1.544   0.755   0.762
10025SOL    HW130974   1.469   0.689   0.761
10025SOL    HW230975   1.514   0.839   0.715
10026SOL     OW30976   4.940   0.148   3.819
10026SOL    HW130977   5.024   0.098   3.798
10026SOL    HW230978   4.861   0.098   3.785
10027SOL     OW30979   5.795   3.185   4.520
10027SOL    HW130980   5.866   3.249   4.489
10027SOL    HW230981   5.752   3.142   4.440
10028SOL     OW30982   0.973   0.028   1.134
10028SOL    HW130983   1.023   6.972   1.174
10028SOL    HW230984   1.033   0.075   1.070
10029SOL     OW30985   5.542   2.058   3.607
10029SOL    HW130986   5.613   1.988   3.592
10029SOL    HW230987   5.455   2.013   3.625
10030SOL     OW30988   1.673   0.531   2.959
10030SOL    HW130989   1.632   0.620   2.936
10030SOL    HW230990   1.651   0.466   2.886
10031SOL     OW30991   5.642   4.962   3.849
10031SOL    HW130992   5.571   5.023   3.814
10031SOL    HW230993   5.730   5.009   3.848
10032SOL     OW30994   2.820   1.367   5.670
10032SOL    HW130995   2.743   1.314   5.704
10032SOL    HW230996   2.898   1.357   5.731
10033SOL     OW30997   6.683   3.637   4.298
10033SOL    HW130998   6.607   3.661   4.359
10033SOL    HW230999   6.706   3.541   4.310
10034SOL     OW31000   3.537   0.763   4.233
10034SOL    HW131001   3.620   0.706   4.235
10034SOL    HW231002   3.562   0.859   4.226
10035SOL     OW31003   6.393   5.329   2.184
10035SOL    HW131004   6.478   5.340   2.132
10035SOL    HW231005   6.335   5.409   2.171
10036SOL     OW31006   6.560   2.309   0.680
10036SOL    HW131007   6.472   2.280   0.642
10036SOL    HW231008   6.625   2.327   0.606
10037SOL     OW31009   0.074   1.454   6.261
10037SOL    HW131010   0.117   1.487   6.177
10037SOL    HW231011   7.020   1.514   6.285
10038SOL     OW31012   6.177   0.187   6.952
10038SOL    HW131013   6.163   0.261   6.887
10038SOL    HW231014   6.259   0.135   6.928
10039SOL     OW31015   3.114   0.111   3.371
10039SOL    HW131016   3.152   0.179   3.435
10039SOL    HW231017   3.032   0.071   3.411
10040SOL     OW31018   5.872   4.553   6.886
10040SOL    HW131019   5.798   4.563   6.953
10040SOL    HW231020   5.840   4.499   6.808
10041SOL     OW31021   3.558   6.280   0.494
10041SOL    HW131022   3.552   6.287   0.593
10041SOL    HW231023   3.646   6.239   0.469
10042SOL     OW31024   7.012   2.044   2.952
10042SOL    HW131025   6.998   2.043   2.853
10042SOL    HW231026   7.013   2.138   2.985
10043SOL     OW31027   6.578   2.147   5.910
10043SOL    HW131028   6.619   2.212   5.974
10043SOL    HW231029   6.650   2.091   5.868
10044SOL     OW31030   2.908   3.287   5.920
10044SOL    HW131031   2.849   3.243   5.852
10044SOL    HW231032   2.853   3.317   5.998
10045SOL     OW31033   4.355   1.228   0.369
10045SOL    HW131034   4.366   1.298   0.440
10045SOL    HW231035   4.289   1.260   0.301
10046SOL     OW31036   1.616   4.296   1.134
10046SOL    HW131037   1.597   4.372   1.071
10046SOL    HW231038   1.612   4.329   1.228
10047SOL     OW31039   1.028   3.519   6.291
10047SOL    HW131040   1.081   3.483   6.215
10047SOL    HW231041   1.086   3.525   6.372
10048SOL     OW31042   6.937   6.538   3.092
10048SOL    HW131043   6.986   6.486   3.162
10048SOL    HW231044   6.947   6.636   3.111
10049SOL     OW31045   0.268   2.868   6.071
10049SOL    HW131046   0.323   2.800   6.120
10049SOL    HW231047   0.295   2.960   6.100
10050SOL     OW31048   5.150   3.444   5.052
10050SOL    HW131049   5.234   3.470   5.004
10050SOL    HW231050   5.094   3.385   4.992
10051SOL     OW31051   1.153   4.329   4.579
10051SOL    HW131052   1.111   4.244   4.610
10051SOL    HW231053   1.252   4.316   4.571
10052SOL     OW31054   1.103   0.626   3.441
10052SOL    HW131055   1.086   0.602   3.537
10052SOL    HW231056   1.053   0.709   3.418
10053SOL     OW31057   4.961   5.304   4.424
10053SOL    HW131058   4.885   5.240   4.434
10053SOL    HW231059   5.006   5.290   4.336
10054SOL     OW31060   5.817   3.548   4.860
10054SOL    HW131061   5.801   3.572   4.764
10054SOL    HW231062   5.840   3.630   4.912
10055SOL     OW31063   6.590   2.394   6.597
10055SOL    HW131064   6.559   2.487   6.578
10055SOL    HW231065   6.689   2.393   6.607
10056SOL     OW31066   5.242   3.341   3.290
10056SOL    HW131067   5.292   3.374   3.210
10056SOL    HW231068   5.243   3.241   3.291
10057SOL     OW31069   5.505   4.303   6.406
10057SOL    HW131070   5.478   4.207   6.409
10057SOL    HW231071   5.426   4.359   6.382
10058SOL     OW31072   6.398   3.219   4.921
10058SOL    HW131073   6.432   3.313   4.914
10058SOL    HW231074   6.314   3.209   4.866
10059SOL     OW31075   6.680   1.361   0.229
10059SOL    HW131076   6.614   1.302   0.182
10059SOL    HW231077   6.684   1.335   0.325
10060SOL     OW31078   2.895   1.745   2.349
10060SOL    HW131079   2.878   1.664   2.292
10060SOL    HW231080   2.847   1.824   2.310
10061SOL     OW31081   4.072   0.932   4.060
10061SOL    HW131082   4.010   0.889   3.994
10061SOL    HW231083   4.141   0.984   4.011
10062SOL     OW31084   0.558   0.046   3.863
10062SOL    HW131085   0.576   0.144   3.858
10062SOL    HW231086   0.483   0.022   3.802
10063SOL     OW31087   1.689   2.223   4.789
10063SOL    HW131088   1.714   2.143   4.843
10063SOL    HW231089   1.771   2.263   4.749
10064SOL     OW31090   3.234   6.166   0.047
10064SOL    HW131091   3.182   6.251   0.043
10064SOL    HW231092   3.263   6.149   0.141
10065SOL     OW31093   0.920   0.501   1.761
10065SOL    HW131094   0.957   0.490   1.853
10065SOL    HW231095   0.844   0.438   1.748
10066SOL     OW31096   6.853   3.553   4.715
10066SOL    HW131097   6.890   3.567   4.624
10066SOL    HW231098   6.899   3.476   4.759
10067SOL     OW31099   0.750   2.910   5.990
10067SOL    HW131100   0.687   2.841   5.954
10067SOL    HW231101   0.844   2.884   5.967
10068SOL     OW31102   2.347   2.720   2.665
10068SOL    HW131103   2.390   2.644   2.714
10068SOL    HW231104   2.394   2.734   2.578
10069SOL     OW31105   3.640   5.057   1.673
10069SOL    HW131106   3.729   5.090   1.703
10069SOL    HW231107   3.609   5.111   1.595
10070SOL     OW31108   2.984   5.805   5.043
10070SOL    HW131109   2.892   5.836   5.070
10070SOL    HW231110   3.002   5.833   4.949
10071SOL     OW31111   0.502   6.736   3.327
10071SOL    HW131112   0.563   6.657   3.325
10071SOL    HW231113   0.556   6.820   3.314
10072SOL     OW31114   6.757   1.697   2.464
10072SOL    HW131115   6.751   1.685   2.563
10072SOL    HW231116   6.784   1.610   2.422
10073SOL     OW31117   6.130   3.177   4.240
10073SOL    HW131118   6.122   3.193   4.142
10073SOL    HW231119   6.167   3.258   4.285
10074SOL     OW31120   2.413   5.024   0.274
10074SOL    HW131121   2.466   5.010   0.357
10074SOL    HW231122   2.377   4.937   0.242
10075SOL     OW31123   1.751   2.157   2.273
10075SOL    HW131124   1.657   2.123   2.275
10075SOL    HW231125   1.764   2.224   2.346
10076SOL     OW31126   4.794   5.119   3.528
10076SOL    HW131127   4.845   5.185   3.472
10076SOL    HW231128   4.849   5.093   3.607
10077SOL     OW31129   6.287   3.362   6.893
10077SOL    HW131130   6.205   3.377   6.948
10077SOL    HW231131   6.350   3.302   6.942
10078SOL     OW31132   0.182   6.361   4.616
10078SOL    HW131133   0.132   6.325   4.695
10078SOL    HW231134   0.154   6.310   4.534
10079SOL     OW31135   5.123   2.804   3.111
10079SOL    HW131136   5.183   2.733   3.148
10079SOL    HW231137   5.033   2.765   3.093
10080SOL     OW31138   5.554   0.692   5.795
10080SOL    HW131139   5.549   0.768   5.730
10080SOL    HW231140   5.593   0.612   5.750
10081SOL     OW31141   1.802   2.119   0.574
10081SOL    HW131142   1.857   2.040   0.601
10081SOL    HW231143   1.843   2.202   0.612
10082SOL     OW31144   1.500   4.612   2.389
10082SOL    HW131145   1.506   4.525   2.339
10082SOL    HW231146   1.441   4.600   2.469
10083SOL     OW31147   3.931   5.174   3.814
10083SOL    HW131148   3.979   5.236   3.752
10083SOL    HW231149   3.948   5.079   3.787
10084SOL     OW31150   1.017   0.222   5.269
10084SOL    HW131151   1.081   0.298   5.283
10084SOL    HW231152   0.938   0.234   5.330
10085SOL     OW31153   4.087   6.458   0.459
10085SOL    HW131154   4.001   6.406   0.457
10085SOL    HW231155   4.161   6.401   0.421
10086SOL     OW31156   6.710   5.898   1.865
10086SOL    HW131157   6.785   5.961   1.887
10086SOL    HW231158   6.646   5.942   1.802
10087SOL     OW31159   1.597   6.690   4.498
10087SOL    HW131160   1.653   6.656   4.573
10087SOL    HW231161   1.517   6.738   4.534
10088SOL     OW31162   6.755   3.119   7.004
10088SOL    HW131163   6.759   3.083   0.075
10088SOL    HW231164   6.818   3.196   6.996
10089SOL     OW31165   4.475   1.637   1.884
10089SOL    HW131166   4.457   1.727   1.843
10089SOL    HW231167   4.388   1.594   1.908
10090SOL     OW31168   1.308   5.357   1.079
10090SOL    HW131169   1.369   5.361   1.000
10090SOL    HW231170   1.360   5.374   1.163
10091SOL     OW31171   6.299   4.581   5.913
10091SOL    HW131172   6.304   4.670   5.959
10091SOL    HW231173   6.215   4.535   5.940
10092SOL     OW31174   0.261   2.821   5.383
10092SOL    HW131175   0.187   2.824   5.316
10092SOL    HW231176   0.222   2.831   5.475
10093SOL     OW31177   5.576   4.081   5.934
10093SOL    HW131178   5.487   4.112   5.967
10093SOL    HW231179   5.564   4.005   5.870
10094SOL     OW31180   3.045   0.852   0.905
10094SOL    HW131181   3.009   0.801   0.826
10094SOL    HW231182   3.136   0.819   0.928
10095SOL     OW31183   5.030   2.794   5.115
10095SOL    HW131184   4.944   2.794   5.165
10095SOL    HW231185   5.048   2.885   5.078
10096SOL     OW31186   4.952   0.945   2.794
10096SOL    HW131187   4.878   0.903   2.846
10096SOL    HW231188   4.974   0.888   2.715
10097SOL     OW31189   1.437   1.799   6.647
10097SOL    HW131190   1.511   1.788   6.581
10097SOL    HW231191   1.462   1.754   6.733
10098SOL     OW31192   3.649   5.598   4.722
10098SOL    HW131193   3.575   5.548   4.769
10098SOL    HW231194   3.735   5.580   4.769
10099SOL     OW31195   6.838   4.667   1.968
10099SOL    HW131196   6.914   4.726   1.993
10099SOL    HW231197   6.752   4.714   1.984
10100SOL     OW31198   5.211   5.182   4.566
10100SOL    HW131199   5.126   5.222   4.600
10100SOL    HW231200   5.190   5.099   4.514
10101SOL     OW31201   0.888   1.620   0.939
10101SOL    HW131202   0.823   1.584   1.006
10101SOL    HW231203   0.850   1.610   0.847
10102SOL     OW31204   6.338   6.449   1.520
10102SOL    HW131205   6.290   6.462   1.606
10102SOL    HW231206   6.287   6.385   1.462
10103SOL     OW31207   0.107   6.670   6.086
10103SOL    HW131208   0.059   6.589   6.050
10103SOL    HW231209   0.040   6.737   6.116
10104SOL     OW31210   1.883   0.535   5.538
10104SOL    HW131211   1.911   0.542   5.634
10104SOL    HW231212   1.964   0.515   5.482
10105SOL     OW31213   2.281   0.855   5.907
10105SOL    HW131214   2.295   0.950   5.936
10105SOL    HW231215   2.198   0.849   5.851
10106SOL     OW31216   4.892   5.933   1.461
10106SOL    HW131217   4.917   5.887   1.546
10106SOL    HW231218   4.973   5.939   1.402
10107SOL     OW31219   5.229   4.121   6.631
10107SOL    HW131220   5.322   4.087   6.620
10107SOL    HW231221   5.226   4.191   6.702
10108SOL     OW31222   1.540   1.999   0.544
10108SOL    HW131223   1.622   2.055   0.536
10108SOL    HW231224   1.470   2.050   0.596
10109SOL     OW31225   0.996   1.315   0.664
10109SOL    HW131226   0.924   1.280   0.603
10109SOL    HW231227   0.987   1.272   0.754
10110SOL     OW31228   4.884   6.252   2.926
10110SOL    HW131229   4.926   6.332   2.968
10110SOL    HW231230   4.951   6.208   2.865
10111SOL     OW31231   1.256   1.483   1.899
10111SOL    HW131232   1.289   1.543   1.973
10111SOL    HW231233   1.219   1.538   1.825
10112SOL     OW31234   6.421   2.180   3.572
10112SOL    HW131235   6.411   2.275   3.601
10112SOL    HW231236   6.331   2.136   3.570
10113SOL     OW31237   5.753   1.305   6.691
10113SOL    HW131238   5.800   1.375   6.636
10113SOL    HW231239   5.730   1.343   6.781
10114SOL     OW31240   3.953   1.636   2.522
10114SOL    HW131241   4.005   1.585   2.590
10114SOL    HW231242   3.861   1.654   2.557
10115SOL     OW31243   3.375   2.261   5.374
10115SOL    HW131244   3.313   2.199   5.422
10115SOL    HW231245   3.332   2.295   5.291
10116SOL     OW31246   6.324   0.475   4.787
10116SOL    HW131247   6.387   0.408   4.826
10116SOL    HW231248   6.274   0.520   4.860
10117SOL     OW31249   6.684   5.350   4.087
10117SOL    HW131250   6.612   5.317   4.149
10117SOL    HW231251   6.756   5.393   4.140
10118SOL     OW31252   3.367   4.931   4.961
10118SOL    HW131253   3.449   4.983   4.938
10118SOL    HW231254   3.328   4.893   4.877
10119SOL     OW31255   0.309   5.026   4.770
10119SOL    HW131256   0.322   5.066   4.679
10119SOL    HW231257   0.396   4.990   4.804
10120SOL     OW31258   2.288   2.791   2.054
10120SOL    HW131259   2.208   2.846   2.080
10120SOL    HW231260   2.340   2.839   1.984
10121SOL     OW31261   6.159   4.332   0.768
10121SOL    HW131262   6.218   4.270   0.715
10121SOL    HW231263   6.171   4.314   0.865
10122SOL     OW31264   1.182   1.152   3.886
10122SOL    HW131265   1.160   1.057   3.861
10122SOL    HW231266   1.265   1.153   3.943
10123SOL     OW31267   5.770   5.849   0.597
10123SOL    HW131268   5.743   5.938   0.634
10123SOL    HW231269   5.720   5.777   0.645
10124SOL     OW31270   1.447   4.168   2.857
10124SOL    HW131271   1.510   4.123   2.919
10124SOL    HW231272   1.492   4.246   2.813
10125SOL     OW31273   1.061   1.859   6.194
10125SOL    HW131274   1.004   1.840   6.114
10125SOL    HW231275   1.063   1.958   6.211
10126SOL     OW31276   6.686   6.525   6.614
10126SOL    HW131277   6.696   6.606   6.558
10126SOL    HW231278   6.612   6.468   6.578
10127SOL     OW31279   2.165   5.393   6.039
10127SOL    HW131280   2.213   5.305   6.046
10127SOL    HW231281   2.119   5.398   5.950
10128SOL     OW31282   3.192   0.641   7.011
10128SOL    HW131283   3.267   0.686   0.038
10128SOL    HW231284   3.214   0.635   6.913
10129SOL     OW31285   6.031   1.532   4.088
10129SOL    HW131286   6.096   1.569   4.154
10129SOL    HW231287   6.074   1.529   3.997
10130SOL     OW31288   1.643   1.852   2.884
10130SOL    HW131289   1.612   1.941   2.849
10130SOL    HW231290   1.700   1.866   2.964
10131SOL     OW31291   2.410   0.456   4.591
10131SOL    HW131292   2.323   0.432   4.549
10131SOL    HW231293   2.394   0.489   4.684
10132SOL     OW31294   6.721   0.719   2.234
10132SOL    HW131295   6.787   0.785   2.201
10132SOL    HW231296   6.730   0.634   2.183
10133SOL     OW31297   4.791   6.767   0.339
10133SOL    HW131298   4.822   6.672   0.328
10133SOL    HW231299   4.868   6.824   0.366
10134SOL     OW31300   6.248   1.214   1.780
10134SOL    HW131301   6.235   1.176   1.872
10134SOL    HW231302   6.160   1.228   1.737
10135SOL     OW31303   6.137   0.339   2.535
10135SOL    HW131304   6.210   0.278   2.565
10135SOL    HW231305   6.065   0.286   2.490
10136SOL     OW31306   5.219   1.535   3.221
10136SOL    HW131307   5.141   1.479   3.247
10136SOL    HW231308   5.187   1.627   3.198
10137SOL     OW31309   6.247   5.433   5.744
10137SOL    HW131310   6.166   5.412   5.689
10137SOL    HW231311   6.233   5.520   5.791
10138SOL     OW31312   6.525   1.529   0.493
10138SOL    HW131313   6.583   1.449   0.485
10138SOL    HW231314   6.485   1.550   0.403
10139SOL     OW31315   3.314   3.582   5.635
10139SOL    HW131316   3.326   3.674   5.599
10139SOL    HW231317   3.401   3.532   5.632
10140SOL     OW31318   6.878   6.032   5.704
10140SOL    HW131319   6.893   5.939   5.669
10140SOL    HW231320   6.947   6.054   5.772
10141SOL     OW31321   2.497   1.914   4.188
10141SOL    HW131322   2.438   1.922   4.268
10141SOL    HW231323   2.497   1.819   4.155
10142SOL     OW31324   5.898   6.687   4.283
10142SOL    HW131325   5.866   6.607   4.234
10142SOL    HW231326   5.991   6.710   4.253
10143SOL     OW31327   5.475   3.548   6.999
10143SOL    HW131328   5.465   3.634   6.950
10143SOL    HW231329   5.548   3.494   6.958
10144SOL     OW31330   3.828   6.475   5.755
10144SOL    HW131331   3.782   6.516   5.834
10144SOL    HW231332   3.812   6.532   5.675
10145SOL     OW31333   5.303   6.427   6.781
10145SOL    HW131334   5.343   6.508   6.823
10145SOL    HW231335   5.358   6.399   6.702
10146SOL     OW31336   0.288   2.512   4.199
10146SOL    HW131337   0.292   2.602   4.242
10146SOL    HW231338   0.240   2.448   4.260
10147SOL     OW31339   4.881   5.977   6.195
10147SOL    HW131340   4.929   6.037   6.258
10147SOL    HW231341   4.796   6.020   6.165
10148SOL     OW31342   0.801   4.538   6.569
10148SOL    HW131343   0.869   4.609   6.552
10148SOL    HW231344   0.775   4.539   6.665
10149SOL     OW31345   4.469   4.549   0.654
10149SOL    HW131346   4.382   4.524   0.611
10149SOL    HW231347   4.545   4.522   0.594
10150SOL     OW31348   4.168   4.537   6.751
10150SOL    HW131349   4.130   4.520   6.842
10150SOL    HW231350   4.190   4.634   6.742
10151SOL     OW31351   6.071   6.793   5.612
10151SOL    HW131352   6.152   6.798   5.669
10151SOL    HW231353   6.052   6.883   5.572
10152SOL     OW31354   5.403   6.384   2.923
10152SOL    HW131355   5.327   6.424   2.872
10152SOL    HW231356   5.464   6.456   2.955
10153SOL     OW31357   4.980   4.233   3.427
10153SOL    HW131358   4.978   4.300   3.353
10153SOL    HW231359   5.050   4.258   3.493
10154SOL     OW31360   5.190   5.285   5.120
10154SOL    HW131361   5.282   5.247   5.109
10154SOL    HW231362   5.164   5.281   5.216
10155SOL     OW31363   4.299   2.080   4.953
10155SOL    HW131364   4.204   2.103   4.972
10155SOL    HW231365   4.356   2.161   4.966
10156SOL     OW31366   5.308   2.083   0.043
10156SOL    HW131367   5.225   2.098   0.097
10156SOL    HW231368   5.284   2.053   6.972
10157SOL     OW31369   0.211   2.657   1.122
10157SOL    HW131370   0.157   2.574   1.127
10157SOL    HW231371   0.307   2.636   1.144
10158SOL     OW31372   5.749   5.845   1.324
10158SOL    HW131373   5.710   5.754   1.306
10158SOL    HW231374   5.757   5.895   1.238
10159SOL     OW31375   3.561   3.233   2.402
10159SOL    HW131376   3.573   3.221   2.500
10159SOL    HW231377   3.513   3.319   2.384
10160SOL     OW31378   1.645   5.079   3.469
10160SOL    HW131379   1.660   4.996   3.414
10160SOL    HW231380   1.732   5.126   3.483
10161SOL     OW31381   4.965   3.469   5.544
10161SOL    HW131382   5.016   3.513   5.617
10161SOL    HW231383   4.941   3.536   5.473
10162SOL     OW31384   1.303   3.508   2.685
10162SOL    HW131385   1.225   3.570   2.684
10162SOL    HW231386   1.365   3.532   2.610
10163SOL     OW31387   1.184   6.158   5.095
10163SOL    HW131388   1.106   6.220   5.086
10163SOL    HW231389   1.176   6.084   5.028
10164SOL     OW31390   0.517   2.979   3.148
10164SOL    HW131391   0.432   2.926   3.145
10164SOL    HW231392   0.496   3.076   3.139
10165SOL     OW31393   6.893   3.187   4.278
10165SOL    HW131394   6.908   3.197   4.179
10165SOL    HW231395   6.806   3.228   4.303
10166SOL     OW31396   1.109   0.903   1.006
10166SOL    HW131397   1.145   0.811   1.021
10166SOL    HW231398   1.013   0.896   0.978
10167SOL     OW31399   1.847   0.313   6.871
10167SOL    HW131400   1.896   0.353   6.794
10167SOL    HW231401   1.814   0.222   6.845
10168SOL     OW31402   6.722   1.041   0.531
10168SOL    HW131403   6.651   0.972   0.516
10168SOL    HW231404   6.741   1.048   0.629
10169SOL     OW31405   6.377   2.473   3.613
10169SOL    HW131406   6.402   2.494   3.518
10169SOL    HW231407   6.282   2.502   3.629
10170SOL     OW31408   6.063   5.528   6.129
10170SOL    HW131409   6.064   5.497   6.224
10170SOL    HW231410   6.021   5.459   6.071
10171SOL     OW31411   2.386   3.521   5.939
10171SOL    HW131412   2.381   3.541   6.037
10171SOL    HW231413   2.303   3.472   5.911
10172SOL     OW31414   6.492   0.695   2.555
10172SOL    HW131415   6.424   0.661   2.490
10172SOL    HW231416   6.578   0.646   2.540
10173SOL     OW31417   3.248   4.486   5.901
10173SOL    HW131418   3.201   4.570   5.927
10173SOL    HW231419   3.215   4.455   5.812
10174SOL     OW31420   5.102   5.957   2.576
10174SOL    HW131421   5.050   5.945   2.492
10174SOL    HW231422   5.093   5.875   2.633
10175SOL     OW31423   0.196   1.238   4.124
10175SOL    HW131424   0.285   1.264   4.086
10175SOL    HW231425   0.178   1.142   4.104
10176SOL     OW31426   6.004   2.125   5.837
10176SOL    HW131427   5.921   2.176   5.856
10176SOL    HW231428   6.059   2.174   5.769
10177SOL     OW31429   2.416   0.673   2.675
10177SOL    HW131430   2.452   0.633   2.759
10177SOL    HW231431   2.492   0.687   2.611
10178SOL     OW31432   2.077   1.206   0.073
10178SOL    HW131433   1.985   1.243   0.085
10178SOL    HW231434   2.138   1.244   0.142
10179SOL     OW31435   0.823   4.105   1.379
10179SOL    HW131436   0.820   4.080   1.476
10179SOL    HW231437   0.736   4.147   1.353
10180SOL     OW31438   4.510   6.778   6.228
10180SOL    HW131439   4.418   6.817   6.215
10180SOL    HW231440   4.503   6.697   6.287
10181SOL     OW31441   6.989   3.324   1.923
10181SOL    HW131442   7.009   3.235   1.965
10181SOL    HW231443   0.043   3.387   1.942
10182SOL     OW31444   5.887   2.181   6.789
10182SOL    HW131445   5.896   2.176   6.690
10182SOL    HW231446   5.796   2.147   6.816
10183SOL     OW31447   6.446   2.622   6.585
10183SOL    HW131448   6.347   2.635   6.581
10183SOL    HW231449   6.491   2.709   6.599
10184SOL     OW31450   5.705   3.428   5.980
10184SOL    HW131451   5.773   3.387   5.919
10184SOL    HW231452   5.751   3.471   6.058
10185SOL     OW31453   4.035   5.543   2.357
10185SOL    HW131454   4.051   5.453   2.398
10185SOL    HW231455   3.990   5.603   2.423
10186SOL     OW31456   4.270   3.233   5.984
10186SOL    HW131457   4.368   3.252   5.991
10186SOL    HW231458   4.228   3.296   5.919
10187SOL     OW31459   1.426   5.288   6.138
10187SOL    HW131460   1.457   5.223   6.070
10187SOL    HW231461   1.438   5.381   6.103
10188SOL     OW31462   2.899   0.329   6.769
10188SOL    HW131463   2.941   0.388   6.839
10188SOL    HW231464   2.962   0.316   6.693
10189SOL     OW31465   0.905   1.842   5.973
10189SOL    HW131466   0.928   1.930   5.930
10189SOL    HW231467   0.805   1.834   5.979
10190SOL     OW31468   3.448   5.213   2.081
10190SOL    HW131469   3.534   5.263   2.088
10190SOL    HW231470   3.389   5.238   2.158
10191SOL     OW31471   5.442   5.282   0.175
10191SOL    HW131472   5.517   5.228   0.213
10191SOL    HW231473   5.403   5.235   0.096
10192SOL     OW31474   2.057   1.858   4.567
10192SOL    HW131475   2.109   1.793   4.512
10192SOL    HW231476   2.059   1.831   4.663
10193SOL     OW31477   3.875   4.030   3.426
10193SOL    HW131478   3.795   4.086   3.403
10193SOL    HW231479   3.875   4.012   3.525
10194SOL     OW31480   3.424   6.897   3.769
10194SOL    HW131481   3.505   6.912   3.713
10194SOL    HW231482   3.385   6.807   3.746
10195SOL     OW31483   4.370   6.370   1.862
10195SOL    HW131484   4.401   6.452   1.910
10195SOL    HW231485   4.387   6.289   1.919
10196SOL     OW31486   6.075   1.830   3.364
10196SOL    HW131487   6.017   1.903   3.398
10196SOL    HW231488   6.024   1.774   3.299
10197SOL     OW31489   5.886   0.799   2.502
10197SOL    HW131490   5.849   0.731   2.565
10197SOL    HW231491   5.829   0.803   2.420
10198SOL     OW31492   2.808   0.214   1.477
10198SOL    HW131493   2.762   0.293   1.438
10198SOL    HW231494   2.764   0.130   1.444
10199SOL     OW31495   0.375   1.175   6.668
10199SOL    HW131496   0.364   1.149   6.572
10199SOL    HW231497   0.295   1.145   6.720
10200SOL     OW31498   5.318   4.420   5.219
10200SOL    HW131499   5.294   4.479   5.142
10200SOL    HW231500   5.411   4.386   5.207
10201SOL     OW31501   1.034   4.987   2.469
10201SOL    HW131502   1.133   4.975   2.477
10201SOL    HW231503   1.013   5.048   2.393
10202SOL     OW31504   1.069   3.067   1.887
10202SOL    HW131505   1.096   3.058   1.983
10202SOL    HW231506   0.983   3.119   1.881
10203SOL     OW31507   2.166   2.966   2.430
10203SOL    HW131508   2.177   3.049   2.484
10203SOL    HW231509   2.103   2.904   2.476
10204SOL     OW31510   2.840   4.752   5.348
10204SOL    HW131511   2.764   4.807   5.314
10204SOL    HW231512   2.844   4.666   5.296
10205SOL     OW31513   5.109   2.330   3.245
10205SOL    HW131514   5.082   2.374   3.159
10205SOL    HW231515   5.087   2.390   3.322
10206SOL     OW31516   5.262   6.903   6.066
10206SOL    HW131517   5.352   6.866   6.042
10206SOL    HW231518   5.213   6.837   6.123
10207SOL     OW31519   3.772   0.931   3.184
10207SOL    HW131520   3.814   0.999   3.125
10207SOL    HW231521   3.842   0.873   3.225
10208SOL     OW31522   6.359   4.175   5.749
10208SOL    HW131523   6.264   4.166   5.716
10208SOL    HW231524   6.385   4.271   5.750
10209SOL     OW31525   6.466   6.194   6.383
10209SOL    HW131526   6.558   6.225   6.407
10209SOL    HW231527   6.444   6.222   6.290
10210SOL     OW31528   5.498   5.599   2.296
10210SOL    HW131529   5.594   5.600   2.325
10210SOL    HW231530   5.439   5.591   2.377
10211SOL     OW31531   3.762   5.852   5.037
10211SOL    HW131532   3.815   5.916   4.981
10211SOL    HW231533   3.664   5.872   5.027
10212SOL     OW31534   0.394   0.702   4.321
10212SOL    HW131535   0.325   0.729   4.388
10212SOL    HW231536   0.475   0.760   4.332
10213SOL     OW31537   6.046   1.519   3.600
10213SOL    HW131538   5.954   1.535   3.563
10213SOL    HW231539   6.113   1.522   3.525
10214SOL     OW31540   6.697   1.080   1.844
10214SOL    HW131541   6.606   1.079   1.803
10214SOL    HW231542   6.690   1.114   1.938
10215SOL     OW31543   3.647   4.064   6.859
10215SOL    HW131544   3.679   4.092   6.950
10215SOL    HW231545   3.620   3.968   6.862
10216SOL     OW31546   5.229   0.603   1.248
10216SOL    HW131547   5.152   0.662   1.273
10216SOL    HW231548   5.281   0.646   1.174
10217SOL     OW31549   2.539   1.701   4.441
10217SOL    HW131550   2.481   1.662   4.369
10217SOL    HW231551   2.633   1.710   4.406
10218SOL     OW31552   1.834   0.942   0.562
10218SOL    HW131553   1.837   0.844   0.582
10218SOL    HW231554   1.886   0.961   0.479
10219SOL     OW31555   0.767   2.388   1.347
10219SOL    HW131556   0.843   2.355   1.403
10219SOL    HW231557   0.705   2.312   1.329
10220SOL     OW31558   4.244   1.836   1.344
10220SOL    HW131559   4.191   1.752   1.356
10220SOL    HW231560   4.225   1.874   1.254
10221SOL     OW31561   2.969   0.482   5.234
10221SOL    HW131562   3.034   0.554   5.260
10221SOL    HW231563   2.877   0.510   5.259
10222SOL     OW31564   1.267   4.657   5.369
10222SOL    HW131565   1.263   4.705   5.282
10222SOL    HW231566   1.360   4.624   5.384
10223SOL     OW31567   1.685   4.195   6.891
10223SOL    HW131568   1.676   4.153   6.981
10223SOL    HW231569   1.657   4.291   6.896
10224SOL     OW31570   1.236   0.331   4.167
10224SOL    HW131571   1.315   0.383   4.201
10224SOL    HW231572   1.265   0.237   4.148
10225SOL     OW31573   6.775   5.818   4.849
10225SOL    HW131574   6.719   5.886   4.803
10225SOL    HW231575   6.732   5.793   4.936
10226SOL     OW31576   2.021   0.900   6.553
10226SOL    HW131577   1.960   0.917   6.630
10226SOL    HW231578   1.969   0.906   6.468
10227SOL     OW31579   4.801   4.940   6.745
10227SOL    HW131580   4.835   4.971   6.657
10227SOL    HW231581   4.731   4.870   6.732
10228SOL     OW31582   1.518   5.355   3.666
10228SOL    HW131583   1.495   5.259   3.659
10228SOL    HW231584   1.505   5.400   3.577
10229SOL     OW31585   0.981   0.407   3.307
10229SOL    HW131586   1.050   0.348   3.266
10229SOL    HW231587   1.009   0.503   3.300
10230SOL     OW31588   5.936   0.304   3.803
10230SOL    HW131589   5.954   0.298   3.705
10230SOL    HW231590   6.006   0.253   3.853
10231SOL     OW31591   5.459   6.446   4.914
10231SOL    HW131592   5.537   6.487   4.960
10231SOL    HW231593   5.457   6.474   4.818
10232SOL     OW31594   3.261   1.863   5.051
10232SOL    HW131595   3.240   1.765   5.052
10232SOL    HW231596   3.225   1.905   4.968
10233SOL     OW31597   4.645   2.487   5.517
10233SOL    HW131598   4.718   2.539   5.562
10233SOL    HW231599   4.580   2.455   5.586
10234SOL     OW31600   5.900   6.832   0.908
10234SOL    HW131601   5.865   6.859   0.998
10234SOL    HW231602   5.971   6.763   0.919
10235SOL     OW31603   4.702   1.740   0.117
10235SOL    HW131604   4.782   1.760   0.059
10235SOL    HW231605   4.654   1.661   0.080
10236SOL     OW31606   2.145   5.956   2.178
10236SOL    HW131607   2.217   5.928   2.114
10236SOL    HW231608   2.143   6.056   2.183
10237SOL     OW31609   6.022   3.922   2.595
10237SOL    HW131610   6.021   3.913   2.496
10237SOL    HW231611   5.935   3.890   2.633
10238SOL     OW31612   4.347   4.536   5.503
10238SOL    HW131613   4.252   4.522   5.475
10238SOL    HW231614   4.372   4.469   5.572
10239SOL     OW31615   0.383   4.052   4.715
10239SOL    HW131616   0.294   4.097   4.703
10239SOL    HW231617   0.368   3.958   4.747
10240SOL     OW31618   1.029   3.613   3.261
10240SOL    HW131619   1.114   3.666   3.262
10240SOL    HW231620   1.008   3.582   3.353
10241SOL     OW31621   0.979   1.703   2.555
10241SOL    HW131622   0.949   1.608   2.556
10241SOL    HW231623   1.027   1.722   2.469
10242SOL     OW31624   0.048   1.233   6.080
10242SOL    HW131625   0.093   1.147   6.104
10242SOL    HW231626   0.038   1.289   6.162
10243SOL     OW31627   0.562   5.767   1.542
10243SOL    HW131628   0.612   5.853   1.531
10243SOL    HW231629   0.596   5.700   1.477
10244SOL     OW31630   2.229   5.526   6.730
10244SOL    HW131631   2.141   5.564   6.699
10244SOL    HW231632   2.212   5.457   6.800
10245SOL     OW31633   1.482   3.059   6.096
10245SOL    HW131634   1.493   2.989   6.166
10245SOL    HW231635   1.445   3.019   6.012
10246SOL     OW31636   2.936   3.751   4.784
10246SOL    HW131637   2.960   3.750   4.881
10246SOL    HW231638   2.875   3.828   4.766
10247SOL     OW31639   0.036   5.160   6.090
10247SOL    HW131640   0.078   5.069   6.088
10247SOL    HW231641   0.045   5.199   6.182
10248SOL     OW31642   2.579   0.080   2.231
10248SOL    HW131643   2.578   0.004   2.166
10248SOL    HW231644   2.669   0.123   2.230
10249SOL     OW31645   4.458   1.209   5.795
10249SOL    HW131646   4.520   1.246   5.864
10249SOL    HW231647   4.431   1.281   5.732
10250SOL     OW31648   5.886   1.267   1.061
10250SOL    HW131649   5.978   1.305   1.073
10250SOL    HW231650   5.836   1.320   0.992
10251SOL     OW31651   2.880   2.483   0.199
10251SOL    HW131652   2.897   2.544   0.122
10251SOL    HW231653   2.831   2.401   0.168
10252SOL     OW31654   6.067   0.001   0.792
10252SOL    HW131655   6.097   0.080   0.845
10252SOL    HW231656   6.029   6.954   0.855
10253SOL     OW31657   4.918   4.579   7.014
10253SOL    HW131658   4.991   4.593   0.060
10253SOL    HW231659   4.940   4.628   6.930
10254SOL     OW31660   2.526   1.449   5.476
10254SOL    HW131661   2.607   1.439   5.418
10254SOL    HW231662   2.534   1.534   5.528
10255SOL     OW31663   2.174   5.427   2.348
10255SOL    HW131664   2.216   5.461   2.432
10255SOL    HW231665   2.190   5.493   2.274
10256SOL     OW31666   4.760   0.711   0.311
10256SOL    HW131667   4.845   0.759   0.289
10256SOL    HW231668   4.781   0.618   0.341
10257SOL     OW31669   1.203   5.552   5.931
10257SOL    HW131670   1.171   5.535   6.024
10257SOL    HW231671   1.154   5.493   5.867
10258SOL     OW31672   4.170   6.956   3.579
10258SOL    HW131673   4.166   6.858   3.562
10258SOL    HW231674   4.261   6.980   3.614
10259SOL     OW31675   0.443   3.997   3.998
10259SOL    HW131676   0.397   4.072   4.046
10259SOL    HW231677   0.374   3.935   3.959
10260SOL     OW31678   0.788   6.699   2.328
10260SOL    HW131679   0.854   6.629   2.301
10260SOL    HW231680   0.695   6.662   2.324
10261SOL     OW31681   0.813   5.252   2.110
10261SOL    HW131682   0.826   5.283   2.016
10261SOL    HW231683   0.731   5.295   2.148
10262SOL     OW31684   2.915   4.898   4.334
10262SOL    HW131685   2.837   4.841   4.361
10262SOL    HW231686   2.960   4.856   4.255
10263SOL     OW31687   5.179   1.724   5.882
10263SOL    HW131688   5.266   1.745   5.837
10263SOL    HW231689   5.172   1.775   5.968
10264SOL     OW31690   6.174   0.780   6.313
10264SOL    HW131691   6.270   0.797   6.333
10264SOL    HW231692   6.117   0.824   6.383
10265SOL     OW31693   3.648   1.346   2.829
10265SOL    HW131694   3.597   1.432   2.829
10265SOL    HW231695   3.604   1.282   2.892
10266SOL     OW31696   3.282   3.828   6.456
10266SOL    HW131697   3.253   3.814   6.361
10266SOL    HW231698   3.368   3.879   6.457
10267SOL     OW31699   6.898   2.013   6.587
10267SOL    HW131700   6.821   1.959   6.553
10267SOL    HW231701   6.984   1.964   6.568
10268SOL     OW31702   5.191   5.763   1.533
10268SOL    HW131703   5.251   5.802   1.603
10268SOL    HW231704   5.116   5.714   1.578
10269SOL     OW31705   2.261   2.417   6.122
10269SOL    HW131706   2.250   2.513   6.150
10269SOL    HW231707   2.281   2.414   6.024
10270SOL     OW31708   1.841   5.925   0.662
10270SOL    HW131709   1.872   5.920   0.757
10270SOL    HW231710   1.887   5.855   0.608
10271SOL     OW31711   4.020   3.369   1.385
10271SOL    HW131712   3.922   3.353   1.370
10271SOL    HW231713   4.064   3.281   1.406
10272SOL     OW31714   0.590   0.899   4.295
10272SOL    HW131715   0.613   0.950   4.212
10272SOL    HW231716   0.672   0.855   4.331
10273SOL     OW31717   3.907   5.755   4.594
10273SOL    HW131718   3.932   5.764   4.690
10273SOL    HW231719   3.812   5.787   4.581
10274SOL     OW31720   0.899   4.972   5.845
10274SOL    HW131721   0.851   4.962   5.932
10274SOL    HW231722   0.884   4.890   5.789
10275SOL     OW31723   0.952   6.388   2.983
10275SOL    HW131724   0.868   6.417   3.029
10275SOL    HW231725   0.931   6.362   2.889
10276SOL     OW31726   0.023   5.322   5.143
10276SOL    HW131727   7.002   5.287   5.060
10276SOL    HW231728   0.068   5.409   5.124
10277SOL     OW31729   3.308   6.275   4.142
10277SOL    HW131730   3.275   6.191   4.099
10277SOL    HW231731   3.242   6.349   4.125
10278SOL     OW31732   6.270   0.153   6.455
10278SOL    HW131733   6.203   0.225   6.472
10278SOL    HW231734   6.263   0.123   6.359
10279SOL     OW31735   2.883   0.043   4.546
10279SOL    HW131736   2.883   0.099   4.629
10279SOL    HW231737   2.797   7.013   4.542
10280SOL     OW31738   1.757   3.988   0.902
10280SOL    HW131739   1.707   4.015   0.820
10280SOL    HW231740   1.756   3.888   0.911
10281SOL     OW31741   4.504   1.199   2.998
10281SOL    HW131742   4.497   1.206   2.898
10281SOL    HW231743   4.496   1.289   3.039
10282SOL     OW31744   0.792   1.804   3.667
10282SOL    HW131745   0.839   1.744   3.602
10282SOL    HW231746   0.694   1.803   3.649
10283SOL     OW31747   1.120   3.320   0.885
10283SOL    HW131748   1.198   3.332   0.947
10283SOL    HW231749   1.035   3.326   0.938
10284SOL     OW31750   5.416   3.705   4.961
10284SOL    HW131751   5.483   3.717   4.887
10284SOL    HW231752   5.448   3.751   5.043
10285SOL     OW31753   4.762   1.126   0.562
10285SOL    HW131754   4.840   1.130   0.625
10285SOL    HW231755   4.735   1.031   0.549
10286SOL     OW31756   4.315   0.657   2.954
10286SOL    HW131757   4.295   0.575   3.009
10286SOL    HW231758   4.288   0.738   3.006
10287SOL     OW31759   1.680   6.921   1.417
10287SOL    HW131760   1.646   7.005   1.460
10287SOL    HW231761   1.719   6.942   1.328
10288SOL     OW31762   5.658   5.820   3.046
10288SOL    HW131763   5.673   5.772   2.959
10288SOL    HW231764   5.643   5.917   3.028
10289SOL     OW31765   2.835   1.724   1.645
10289SOL    HW131766   2.901   1.770   1.705
10289SOL    HW231767   2.744   1.730   1.686
10290SOL     OW31768   4.140   3.623   2.807
10290SOL    HW131769   4.117   3.712   2.847
10290SOL    HW231770   4.157   3.557   2.881
10291SOL     OW31771   3.229   0.446   4.117
10291SOL    HW131772   3.273   0.373   4.065
10291SOL    HW231773   3.279   0.461   4.202
10292SOL     OW31774   0.303   2.026   4.287
10292SOL    HW131775   0.401   2.030   4.263
10292SOL    HW231776   0.249   2.045   4.205
10293SOL     OW31777   2.321   6.054   3.309
10293SOL    HW131778   2.300   6.141   3.264
10293SOL    HW231779   2.250   5.987   3.286
10294SOL     OW31780   4.533   1.564   2.737
10294SOL    HW131781   4.519   1.476   2.783
10294SOL    HW231782   4.483   1.564   2.650
10295SOL     OW31783   6.993   4.689   5.818
10295SOL    HW131784   6.955   4.736   5.739
10295SOL    HW231785   0.056   4.642   5.792
10296SOL     OW31786   6.560   3.911   6.760
10296SOL    HW131787   6.654   3.891   6.786
10296SOL    HW231788   6.532   3.850   6.685
10297SOL     OW31789   1.344   5.903   4.087
10297SOL    HW131790   1.248   5.877   4.080
10297SOL    HW231791   1.393   5.836   4.143
10298SOL     OW31792   5.351   4.103   3.885
10298SOL    HW131793   5.351   4.064   3.977
10298SOL    HW231794   5.425   4.062   3.831
10299SOL     OW31795   4.384   4.614   3.428
10299SOL    HW131796   4.328   4.691   3.458
10299SOL    HW231797   4.380   4.608   3.328
10300SOL     OW31798   1.128   3.292   2.297
10300SOL    HW131799   1.095   3.208   2.342
10300SOL    HW231800   1.067   3.368   2.320
10301SOL     OW31801   6.028   1.284   3.239
10301SOL    HW131802   6.037   1.245   3.148
10301SOL    HW231803   6.105   1.254   3.296
10302SOL     OW31804   1.443   5.864   2.870
10302SOL    HW131805   1.413   5.938   2.809
10302SOL    HW231806   1.427   5.776   2.826
10303SOL     OW31807   4.010   3.530   1.140
10303SOL    HW131808   3.999   3.458   1.208
10303SOL    HW231809   3.987   3.619   1.180
10304SOL     OW31810   0.043   6.814   3.151
10304SOL    HW131811   0.136   6.780   3.163
10304SOL    HW231812   0.045   6.905   3.109
10305SOL     OW31813   1.866   6.116   6.910
10305SOL    HW131814   1.783   6.114   6.965
10305SOL    HW231815   1.903   6.023   6.902
10306SOL     OW31816   4.372   5.757   0.424
10306SOL    HW131817   4.319   5.712   0.496
10306SOL    HW231818   4.312   5.818   0.373
10307SOL     OW31819   1.037   1.038   6.402
10307SOL    HW131820   0.979   1.024   6.322
10307SOL    HW231821   1.132   1.050   6.373
10308SOL     OW31822   3.301   5.770   3.719
10308SOL    HW131823   3.325   5.706   3.792
10308SOL    HW231824   3.202   5.767   3.704
10309SOL     OW31825   6.536   6.252   2.830
10309SOL    HW131826   6.498   6.162   2.807
10309SOL    HW231827   6.574   6.249   2.923
10310SOL     OW31828   3.374   3.874   2.419
10310SOL    HW131829   3.397   3.885   2.515
10310SOL    HW231830   3.279   3.903   2.404
10311SOL     OW31831   0.510   5.102   0.386
10311SOL    HW131832   0.500   5.040   0.308
10311SOL    HW231833   0.477   5.193   0.360
10312SOL     OW31834   3.092   4.444   0.572
10312SOL    HW131835   3.160   4.403   0.633
10312SOL    HW231836   3.013   4.473   0.626
10313SOL     OW31837   4.761   0.358   2.586
10313SOL    HW131838   4.712   0.271   2.587
10313SOL    HW231839   4.839   0.353   2.649
10314SOL     OW31840   6.246   0.017   0.516
10314SOL    HW131841   6.157   0.012   0.559
10314SOL    HW231842   6.242   6.997   0.425
10315SOL     OW31843   6.323   5.870   4.843
10315SOL    HW131844   6.288   5.790   4.893
10315SOL    HW231845   6.358   5.841   4.754
10316SOL     OW31846   0.279   3.740   4.509
10316SOL    HW131847   0.213   3.680   4.553
10316SOL    HW231848   0.330   3.689   4.440
10317SOL     OW31849   4.603   5.241   6.379
10317SOL    HW131850   4.569   5.267   6.470
10317SOL    HW231851   4.536   5.268   6.310
10318SOL     OW31852   6.246   5.480   1.435
10318SOL    HW131853   6.321   5.445   1.491
10318SOL    HW231854   6.222   5.414   1.365
10319SOL     OW31855   6.884   5.598   3.877
10319SOL    HW131856   6.788   5.595   3.905
10319SOL    HW231857   6.893   5.656   3.797
10320SOL     OW31858   0.120   5.982   0.758
10320SOL    HW131859   0.130   6.074   0.721
10320SOL    HW231860   0.183   5.920   0.712
10321SOL     OW31861   4.507   5.342   4.463
10321SOL    HW131862   4.491   5.256   4.510
10321SOL    HW231863   4.590   5.335   4.407
10322SOL     OW31864   6.603   4.556   0.933
10322SOL    HW131865   6.623   4.458   0.930
10322SOL    HW231866   6.516   4.574   0.887
10323SOL     OW31867   5.305   3.008   6.036
10323SOL    HW131868   5.346   2.924   6.072
10323SOL    HW231869   5.206   2.995   6.027
10324SOL     OW31870   3.029   3.676   3.505
10324SOL    HW131871   3.056   3.768   3.532
10324SOL    HW231872   2.992   3.679   3.412
10325SOL     OW31873   0.274   2.838   3.149
10325SOL    HW131874   0.255   2.848   3.247
10325SOL    HW231875   0.289   2.742   3.128
10326SOL     OW31876   5.445   2.614   0.541
10326SOL    HW131877   5.355   2.587   0.506
10326SOL    HW231878   5.434   2.667   0.625
10327SOL     OW31879   0.569   0.797   3.235
10327SOL    HW131880   0.470   0.789   3.223
10327SOL    HW231881   0.593   0.894   3.241
10328SOL     OW31882   6.021   3.623   2.485
10328SOL    HW131883   6.087   3.617   2.560
10328SOL    HW231884   5.936   3.577   2.512
10329SOL     OW31885   2.847   0.190   2.970
10329SOL    HW131886   2.914   0.125   2.934
10329SOL    HW231887   2.892   0.252   3.034
10330SOL     OW31888   4.161   5.225   2.313
10330SOL    HW131889   4.151   5.255   2.408
10330SOL    HW231890   4.075   5.184   2.282
10331SOL     OW31891   5.232   1.031   3.711
10331SOL    HW131892   5.175   0.959   3.672
10331SOL    HW231893   5.289   0.993   3.783
10332SOL     OW31894   0.204   2.145   6.561
10332SOL    HW131895   0.219   2.149   6.660
10332SOL    HW231896   0.149   2.065   6.539
10333SOL     OW31897   5.991   5.429   4.374
10333SOL    HW131898   5.927   5.476   4.314
10333SOL    HW231899   6.000   5.333   4.345
10334SOL     OW31900   1.821   4.370   4.157
10334SOL    HW131901   1.791   4.296   4.098
10334SOL    HW231902   1.837   4.452   4.102
10335SOL     OW31903   2.279   5.059   1.342
10335SOL    HW131904   2.372   5.084   1.367
10335SOL    HW231905   2.215   5.095   1.409
10336SOL     OW31906   3.922   6.614   1.895
10336SOL    HW131907   3.838   6.585   1.942
10336SOL    HW231908   3.980   6.664   1.959
10337SOL     OW31909   0.420   5.442   4.902
10337SOL    HW131910   0.383   5.358   4.942
10337SOL    HW231911   0.445   5.506   4.975
10338SOL     OW31912   2.825   6.575   2.762
10338SOL    HW131913   2.797   6.669   2.741
10338SOL    HW231914   2.841   6.566   2.860
10339SOL     OW31915   2.458   6.415   1.617
10339SOL    HW131916   2.540   6.469   1.638
10339SOL    HW231917   2.394   6.421   1.693
10340SOL     OW31918   2.164   6.103   0.521
10340SOL    HW131919   2.168   6.061   0.611
10340SOL    HW231920   2.245   6.075   0.468
10341SOL     OW31921   2.292   1.406   2.304
10341SOL    HW131922   2.364   1.456   2.256
10341SOL    HW231923   2.302   1.308   2.286
10342SOL     OW31924   2.067   0.529   5.720
10342SOL    HW131925   2.147   0.469   5.727
10342SOL    HW231926   2.030   0.546   5.811
10343SOL     OW31927   2.901   3.960   5.892
10343SOL    HW131928   2.832   3.959   5.963
10343SOL    HW231929   2.992   3.967   5.934
10344SOL     OW31930   4.118   3.506   5.074
10344SOL    HW131931   4.155   3.539   4.987
10344SOL    HW231932   4.066   3.422   5.058
10345SOL     OW31933   2.102   1.399   6.478
10345SOL    HW131934   2.002   1.392   6.484
10345SOL    HW231935   2.129   1.493   6.501
10346SOL     OW31936   5.083   0.136   6.992
10346SOL    HW131937   5.150   0.085   6.938
10346SOL    HW231938   4.991   0.121   6.955
10347SOL     OW31939   5.314   1.742   1.699
10347SOL    HW131940   5.268   1.659   1.668
10347SOL    HW231941   5.386   1.717   1.764
10348SOL     OW31942   6.430   0.588   5.986
10348SOL    HW131943   6.368   0.662   6.011
10348SOL    HW231944   6.388   0.500   6.011
10349SOL     OW31945   6.700   1.469   1.305
10349SOL    HW131946   6.671   1.502   1.395
10349SOL    HW231947   6.691   1.543   1.238
10350SOL     OW31948   2.788   5.687   4.268
10350SOL    HW131949   2.765   5.743   4.188
10350SOL    HW231950   2.797   5.746   4.348
10351SOL     OW31951   5.562   4.953   5.482
10351SOL    HW131952   5.554   5.046   5.446
10351SOL    HW231953   5.621   4.954   5.563
10352SOL     OW31954   6.159   2.349   0.213
10352SOL    HW131955   6.232   2.293   0.252
10352SOL    HW231956   6.140   2.319   0.120
10353SOL     OW31957   0.160   2.442   3.303
10353SOL    HW131958   0.256   2.456   3.330
10353SOL    HW231959   0.100   2.468   3.378
10354SOL     OW31960   0.726   3.734   0.718
10354SOL    HW131961   0.631   3.704   0.709
10354SOL    HW231962   0.786   3.654   0.717
10355SOL     OW31963   1.315   0.157   0.696
10355SOL    HW131964   1.408   0.121   0.695
10355SOL    HW231965   1.316   0.253   0.667
10356SOL     OW31966   6.977   4.013   6.623
10356SOL    HW131967   6.935   3.972   6.542
10356SOL    HW231968   6.991   4.111   6.608
10357SOL     OW31969   1.044   3.143   6.037
10357SOL    HW131970   1.102   3.143   6.119
10357SOL    HW231971   0.998   3.232   6.029
10358SOL     OW31972   0.672   2.217   2.806
10358SOL    HW131973   0.692   2.191   2.900
10358SOL    HW231974   0.758   2.234   2.758
10359SOL     OW31975   5.572   2.065   2.399
10359SOL    HW131976   5.473   2.054   2.410
10359SOL    HW231977   5.592   2.156   2.364
10360SOL     OW31978   6.232   4.441   2.394
10360SOL    HW131979   6.135   4.446   2.418
10360SOL    HW231980   6.284   4.410   2.473
10361SOL     OW31981   0.171   1.791   1.148
10361SOL    HW131982   0.089   1.749   1.109
10361SOL    HW231983   0.146   1.874   1.198
10362SOL     OW31984   1.404   4.706   2.660
10362SOL    HW131985   1.391   4.697   2.759
10362SOL    HW231986   1.360   4.790   2.628
10363SOL     OW31987   5.053   4.167   0.800
10363SOL    HW131988   5.096   4.097   0.742
10363SOL    HW231989   5.012   4.123   0.880
10364SOL     OW31990   5.915   4.588   2.045
10364SOL    HW131991   5.935   4.544   2.133
10364SOL    HW231992   5.846   4.659   2.059
10365SOL     OW31993   5.950   5.463   0.348
10365SOL    HW131994   5.984   5.484   0.440
10365SOL    HW231995   5.885   5.533   0.320
10366SOL     OW31996   2.996   6.358   3.100
10366SOL    HW131997   3.075   6.395   3.052
10366SOL    HW231998   3.027   6.295   3.172
10367SOL     OW31999   6.310   2.242   0.556
10367SOL    HW132000   6.323   2.337   0.528
10367SOL    HW232001   6.251   2.239   0.637
10368SOL     OW32002   2.037   0.031   2.218
10368SOL    HW132003   1.995   0.114   2.257
10368SOL    HW232004   1.987   6.972   2.251
10369SOL     OW32005   3.469   6.435   5.798
10369SOL    HW132006   3.567   6.432   5.777
10369SOL    HW232007   3.421   6.369   5.740
10370SOL     OW32008   0.210   1.728   4.356
10370SOL    HW132009   0.220   1.826   4.375
10370SOL    HW232010   0.243   1.710   4.263
10371SOL     OW32011   3.296   6.135   3.267
10371SOL    HW132012   3.204   6.173   3.263
10371SOL    HW232013   3.363   6.208   3.269
10372SOL     OW32014   2.720   6.994   1.399
10372SOL    HW132015   2.720   6.894   1.389
10372SOL    HW232016   2.665   0.013   1.326
10373SOL     OW32017   0.004   2.012   5.182
10373SOL    HW132018   0.002   2.109   5.206
10373SOL    HW232019   6.984   1.958   5.255
10374SOL     OW32020   3.121   0.033   4.424
10374SOL    HW132021   3.157   6.986   4.487
10374SOL    HW232022   3.031   0.063   4.454
10375SOL     OW32023   3.988   2.931   0.216
10375SOL    HW132024   4.019   2.956   0.125
10375SOL    HW232025   4.013   2.836   0.236
10376SOL     OW32026   1.801   5.692   2.821
10376SOL    HW132027   1.844   5.636   2.750
10376SOL    HW232028   1.871   5.734   2.878
10377SOL     OW32029   0.581   1.519   2.175
10377SOL    HW132030   0.591   1.530   2.076
10377SOL    HW232031   0.515   1.587   2.209
10378SOL     OW32032   6.910   4.808   5.581
10378SOL    HW132033   6.984   4.775   5.522
10378SOL    HW232034   6.851   4.870   5.529
10379SOL     OW32035   2.420   6.787   4.416
10379SOL    HW132036   2.346   6.787   4.484
10379SOL    HW232037   2.419   6.874   4.367
10380SOL     OW32038   1.544   2.472   4.882
10380SOL    HW132039   1.621   2.414   4.855
10380SOL    HW232040   1.577   2.562   4.910
10381SOL     OW32041   4.668   4.199   1.727
10381SOL    HW132042   4.750   4.252   1.749
10381SOL    HW232043   4.589   4.237   1.774
10382SOL     OW32044   3.267   4.767   1.870
10382SOL    HW132045   3.328   4.688   1.871
10382SOL    HW232046   3.321   4.851   1.878
10383SOL     OW32047   2.171   4.302   0.278
10383SOL    HW132048   2.258   4.254   0.263
10383SOL    HW232049   2.096   4.247   0.239
10384SOL     OW32050   5.877   6.193   1.292
10384SOL    HW132051   5.951   6.135   1.258
10384SOL    HW232052   5.914   6.282   1.318
10385SOL     OW32053   3.742   4.460   6.252
10385SOL    HW132054   3.722   4.433   6.158
10385SOL    HW232055   3.657   4.467   6.304
10386SOL     OW32056   6.567   0.805   6.140
10386SOL    HW132057   6.532   0.718   6.107
10386SOL    HW232058   6.562   0.808   6.240
10387SOL     OW32059   4.910   3.322   2.896
10387SOL    HW132060   4.976   3.258   2.857
10387SOL    HW232061   4.909   3.407   2.843
10388SOL     OW32062   3.093   0.489   5.558
10388SOL    HW132063   3.062   0.584   5.560
10388SOL    HW232064   3.024   0.432   5.514
10389SOL     OW32065   0.437   3.527   0.367
10389SOL    HW132066   0.517   3.532   0.307
10389SOL    HW232067   0.395   3.436   0.359
10390SOL     OW32068   2.520   2.262   1.087
10390SOL    HW132069   2.541   2.164   1.085
10390SOL    HW232070   2.430   2.276   1.127
10391SOL     OW32071   0.542   6.421   3.046
10391SOL    HW132072   0.531   6.502   2.989
10391SOL    HW232073   0.614   6.436   3.114
10392SOL     OW32074   6.903   5.241   4.929
10392SOL    HW132075   6.840   5.307   4.887
10392SOL    HW232076   6.948   5.188   4.857
10393SOL     OW32077   2.098   3.981   4.220
10393SOL    HW132078   2.128   4.033   4.300
10393SOL    HW232079   2.068   3.890   4.248
10394SOL     OW32080   3.733   5.967   4.330
10394SOL    HW132081   3.693   6.020   4.255
10394SOL    HW232082   3.797   5.900   4.292
10395SOL     OW32083   6.589   6.165   1.015
10395SOL    HW132084   6.639   6.178   0.929
10395SOL    HW232085   6.628   6.087   1.064
10396SOL     OW32086   3.210   2.080   3.823
10396SOL    HW132087   3.290   2.042   3.869
10396SOL    HW232088   3.217   2.063   3.724
10397SOL     OW32089   3.266   1.976   2.221
10397SOL    HW132090   3.348   2.022   2.185
10397SOL    HW232091   3.199   1.967   2.148
10398SOL     OW32092   0.244   3.380   1.644
10398SOL    HW132093   0.270   3.294   1.688
10398SOL    HW232094   0.327   3.428   1.614
10399SOL     OW32095   5.955   2.830   2.902
10399SOL    HW132096   5.964   2.732   2.887
10399SOL    HW232097   5.870   2.863   2.862
10400SOL     OW32098   4.134   6.992   0.313
10400SOL    HW132099   4.095   6.963   0.225
10400SOL    HW232100   4.149   6.912   0.371
10401SOL     OW32101   6.735   0.536   3.646
10401SOL    HW132102   6.778   0.469   3.586
10401SOL    HW232103   6.776   0.626   3.629
10402SOL     OW32104   6.153   3.146   4.723
10402SOL    HW132105   6.103   3.219   4.769
10402SOL    HW232106   6.089   3.078   4.688
10403SOL     OW32107   3.271   0.747   3.804
10403SOL    HW132108   3.298   0.842   3.787
10403SOL    HW232109   3.319   0.713   3.885
10404SOL     OW32110   5.860   6.979   5.220
10404SOL    HW132111   5.810   0.010   5.289
10404SOL    HW232112   5.956   7.007   5.219
10405SOL     OW32113   0.710   1.945   5.659
10405SOL    HW132114   0.648   2.018   5.689
10405SOL    HW232115   0.795   1.951   5.710
10406SOL     OW32116   3.336   4.908   2.583
10406SOL    HW132117   3.376   4.818   2.598
10406SOL    HW232118   3.363   4.942   2.492
10407SOL     OW32119   3.217   5.649   5.714
10407SOL    HW132120   3.280   5.625   5.788
10407SOL    HW232121   3.128   5.608   5.732
10408SOL     OW32122   4.689   1.352   0.386
10408SOL    HW132123   4.607   1.333   0.331
10408SOL    HW232124   4.720   1.268   0.429
10409SOL     OW32125   7.018   4.852   0.845
10409SOL    HW132126   0.040   4.934   0.883
10409SOL    HW232127   6.970   4.803   0.917
10410SOL     OW32128   5.810   1.123   7.000
10410SOL    HW132129   5.872   1.189   0.022
10410SOL    HW232130   5.835   1.112   6.904
10411SOL     OW32131   3.577   6.837   2.901
10411SOL    HW132132   3.540   6.922   2.937
10411SOL    HW232133   3.553   6.827   2.805
10412SOL     OW32134   5.986   0.426   0.578
10412SOL    HW132135   6.079   0.439   0.612
10412SOL    HW232136   5.936   0.365   0.639
10413SOL     OW32137   6.673   1.871   1.286
10413SOL    HW132138   6.682   1.947   1.222
10413SOL    HW232139   6.666   1.907   1.380
10414SOL     OW32140   4.402   4.221   5.522
10414SOL    HW132141   4.354   4.289   5.577
10414SOL    HW232142   4.337   4.149   5.495
10415SOL     OW32143   0.226   4.538   5.517
10415SOL    HW132144   0.243   4.492   5.604
10415SOL    HW232145   0.298   4.605   5.500
10416SOL     OW32146   6.605   0.888   3.191
10416SOL    HW132147   6.677   0.832   3.232
10416SOL    HW232148   6.635   0.983   3.186
10417SOL     OW32149   3.967   5.526   4.420
10417SOL    HW132150   3.874   5.489   4.409
10417SOL    HW232151   3.962   5.610   4.473
10418SOL     OW32152   6.837   4.908   6.279
10418SOL    HW132153   6.831   4.906   6.180
10418SOL    HW232154   6.933   4.918   6.306
10419SOL     OW32155   1.373   0.269   6.306
10419SOL    HW132156   1.378   0.248   6.208
10419SOL    HW232157   1.443   0.336   6.330
10420SOL     OW32158   6.212   2.927   2.419
10420SOL    HW132159   6.286   2.863   2.442
10420SOL    HW232160   6.212   2.943   2.320
10421SOL     OW32161   0.300   1.948   3.414
10421SOL    HW132162   0.317   2.042   3.386
10421SOL    HW232163   0.379   1.914   3.466
10422SOL     OW32164   6.265   2.464   5.723
10422SOL    HW132165   6.356   2.465   5.681
10422SOL    HW232166   6.212   2.388   5.687
10423SOL     OW32167   5.009   4.970   4.502
10423SOL    HW132168   5.033   4.877   4.532
10423SOL    HW232169   4.944   5.010   4.567
10424SOL     OW32170   5.576   3.439   0.317
10424SOL    HW132171   5.515   3.512   0.347
10424SOL    HW232172   5.522   3.361   0.286
10425SOL     OW32173   2.236   6.897   2.092
10425SOL    HW132174   2.186   6.848   2.021
10425SOL    HW232175   2.172   6.949   2.148
10426SOL     OW32176   6.686   4.235   0.620
10426SOL    HW132177   6.749   4.300   0.577
10426SOL    HW232178   6.598   4.237   0.572
10427SOL     OW32179   3.867   1.276   6.979
10427SOL    HW132180   3.789   1.221   7.006
10427SOL    HW232181   3.842   1.373   6.978
10428SOL     OW32182   2.940   1.728   4.610
10428SOL    HW132183   3.022   1.785   4.616
10428SOL    HW232184   2.924   1.702   4.515
10429SOL     OW32185   0.412   5.610   1.279
10429SOL    HW132186   0.473   5.531   1.268
10429SOL    HW232187   0.443   5.685   1.222
10430SOL     OW32188   4.288   6.798   3.835
10430SOL    HW132189   4.284   6.896   3.812
10430SOL    HW232190   4.383   6.771   3.846
10431SOL     OW32191   3.586   6.769   5.345
10431SOL    HW132192   3.543   6.857   5.324
10431SOL    HW232193   3.643   6.741   5.268
10432SOL     OW32194   6.302   0.542   4.364
10432SOL    HW132195   6.297   0.561   4.266
10432SOL    HW232196   6.390   0.499   4.385
10433SOL     OW32197   2.016   6.658   1.740
10433SOL    HW132198   1.933   6.712   1.760
10433SOL    HW232199   2.079   6.713   1.686
10434SOL     OW32200   4.344   6.758   3.045
10434SOL    HW132201   4.280   6.681   3.035
10434SOL    HW232202   4.310   6.836   2.993
10435SOL     OW32203   6.764   0.170   4.893
10435SOL    HW132204   6.795   0.085   4.850
10435SOL    HW232205   6.842   0.220   4.929
10436SOL     OW32206   0.343   5.199   5.366
10436SOL    HW132207   0.419   5.155   5.316
10436SOL    HW232208   0.354   5.183   5.464
10437SOL     OW32209   5.916   4.862   5.435
10437SOL    HW132210   5.843   4.831   5.496
10437SOL    HW232211   5.905   4.960   5.418
10438SOL     OW32212   5.432   6.632   6.885
10438SOL    HW132213   5.513   6.578   6.907
10438SOL    HW232214   5.459   6.726   6.865
10439SOL     OW32215   3.657   1.567   5.990
10439SOL    HW132216   3.623   1.491   6.044
10439SOL    HW232217   3.757   1.563   5.987
10440SOL     OW32218   1.213   6.370   0.340
10440SOL    HW132219   1.277   6.422   0.284
10440SOL    HW232220   1.134   6.343   0.284
10441SOL     OW32221   5.140   1.785   0.131
10441SOL    HW132222   5.207   1.766   0.058
10441SOL    HW232223   5.151   1.879   0.162
10442SOL     OW32224   2.848   5.716   5.532
10442SOL    HW132225   2.906   5.660   5.472
10442SOL    HW232226   2.832   5.667   5.618
10443SOL     OW32227   5.221   3.508   4.634
10443SOL    HW132228   5.131   3.523   4.676
10443SOL    HW232229   5.255   3.418   4.662
10444SOL     OW32230   4.353   5.811   4.809
10444SOL    HW132231   4.422   5.809   4.881
10444SOL    HW232232   4.381   5.749   4.735
10445SOL     OW32233   0.657   5.212   3.788
10445SOL    HW132234   0.692   5.228   3.880
10445SOL    HW232235   0.560   5.186   3.793
10446SOL     OW32236   1.131   3.506   5.849
10446SOL    HW132237   1.181   3.465   5.924
10446SOL    HW232238   1.036   3.520   5.876
10447SOL     OW32239   0.190   1.430   1.988
10447SOL    HW132240   0.138   1.346   2.004
10447SOL    HW232241   0.166   1.498   2.058
10448SOL     OW32242   4.119   2.765   1.086
10448SOL    HW132243   4.057   2.741   1.161
10448SOL    HW232244   4.116   2.864   1.072
10449SOL     OW32245   2.667   5.401   4.345
10449SOL    HW132246   2.613   5.360   4.419
10449SOL    HW232247   2.694   5.494   4.372
10450SOL     OW32248   0.543   2.460   0.332
10450SOL    HW132249   0.512   2.379   0.281
10450SOL    HW232250   0.467   2.501   0.380
10451SOL     OW32251   2.709   4.970   2.808
10451SOL    HW132252   2.718   5.013   2.898
10451SOL    HW232253   2.653   4.888   2.816
10452SOL     OW32254   6.368   3.563   3.559
10452SOL    HW132255   6.313   3.506   3.497
10452SOL    HW232256   6.312   3.639   3.592
10453SOL     OW32257   5.055   6.269   1.969
10453SOL    HW132258   5.076   6.356   2.014
10453SOL    HW232259   5.122   6.252   1.897
10454SOL     OW32260   5.559   2.747   1.374
10454SOL    HW132261   5.622   2.713   1.304
10454SOL    HW232262   5.582   2.841   1.397
10455SOL     OW32263   0.656   4.495   3.175
10455SOL    HW132264   0.626   4.590   3.180
10455SOL    HW232265   0.690   4.466   3.264
10456SOL     OW32266   2.920   6.398   1.351
10456SOL    HW132267   2.973   6.462   1.406
10456SOL    HW232268   2.982   6.333   1.307
10457SOL     OW32269   3.461   3.240   3.429
10457SOL    HW132270   3.462   3.180   3.349
10457SOL    HW232271   3.541   3.222   3.486
10458SOL     OW32272   0.295   0.162   0.216
10458SOL    HW132273   0.254   0.241   0.260
10458SOL    HW232274   0.235   0.083   0.226
10459SOL     OW32275   5.489   5.530   2.846
10459SOL    HW132276   5.559   5.474   2.891
10459SOL    HW232277   5.452   5.480   2.768
10460SOL     OW32278   1.719   5.587   1.374
10460SOL    HW132279   1.758   5.505   1.415
10460SOL    HW232280   1.773   5.667   1.402
10461SOL     OW32281   0.851   5.956   5.383
10461SOL    HW132282   0.942   5.958   5.425
10461SOL    HW232283   0.784   5.996   5.446
10462SOL     OW32284   5.778   1.325   1.838
10462SOL    HW132285   5.717   1.405   1.839
10462SOL    HW232286   5.832   1.324   1.922
10463SOL     OW32287   3.696   3.820   6.047
10463SOL    HW132288   3.787   3.833   6.007
10463SOL    HW232289   3.626   3.837   5.978
10464SOL     OW32290   4.986   0.571   0.629
10464SOL    HW132291   4.994   0.656   0.682
10464SOL    HW232292   4.918   0.584   0.557
10465SOL     OW32293   6.718   0.426   6.791
10465SOL    HW132294   6.704   0.498   6.723
10465SOL    HW232295   6.645   0.358   6.784
10466SOL     OW32296   4.776   5.306   5.052
10466SOL    HW132297   4.781   5.254   5.137
10466SOL    HW232298   4.851   5.373   5.050
10467SOL     OW32299   1.561   1.585   5.141
10467SOL    HW132300   1.502   1.510   5.170
10467SOL    HW232301   1.530   1.618   5.051
10468SOL     OW32302   3.881   6.257   4.115
10468SOL    HW132303   3.944   6.311   4.059
10468SOL    HW232304   3.805   6.316   4.144
10469SOL     OW32305   3.407   3.777   1.032
10469SOL    HW132306   3.365   3.866   1.045
10469SOL    HW232307   3.398   3.749   0.937
10470SOL     OW32308   2.055   2.025   3.090
10470SOL    HW132309   1.981   2.091   3.103
10470SOL    HW232310   2.138   2.059   3.134
10471SOL     OW32311   1.831   3.784   1.291
10471SOL    HW132312   1.869   3.778   1.384
10471SOL    HW232313   1.746   3.835   1.294
10472SOL     OW32314   3.702   6.534   2.005
10472SOL    HW132315   3.626   6.478   1.973
10472SOL    HW232316   3.667   6.607   2.064
10473SOL     OW32317   5.558   6.997   0.917
10473SOL    HW132318   5.542   0.070   0.946
10473SOL    HW232319   5.481   6.940   0.944
10474SOL     OW32320   4.483   0.607   4.521
10474SOL    HW132321   4.497   0.655   4.608
10474SOL    HW232322   4.526   0.659   4.448
10475SOL     OW32323   4.683   5.830   1.355
10475SOL    HW132324   4.629   5.908   1.324
10475SOL    HW232325   4.768   5.862   1.396
10476SOL     OW32326   6.767   5.505   6.764
10476SOL    HW132327   6.740   5.531   6.671
10476SOL    HW232328   6.860   5.535   6.781
10477SOL     OW32329   6.136   3.174   5.276
10477SOL    HW132330   6.055   3.178   5.216
10477SOL    HW232331   6.107   3.170   5.371
10478SOL     OW32332   0.893   0.008   6.637
10478SOL    HW132333   0.868   6.958   6.703
10478SOL    HW232334   0.824   0.012   6.565
10479SOL     OW32335   1.239   2.339   1.870
10479SOL    HW132336   1.315   2.354   1.807
10479SOL    HW232337   1.235   2.242   1.895
10480SOL     OW32338   5.226   6.762   1.583
10480SOL    HW132339   5.204   6.720   1.495
10480SOL    HW232340   5.322   6.788   1.585
10481SOL     OW32341   2.360   1.240   4.530
10481SOL    HW132342   2.440   1.274   4.579
10481SOL    HW232343   2.366   1.141   4.520
10482SOL     OW32344   0.862   6.428   4.513
10482SOL    HW132345   0.874   6.339   4.469
10482SOL    HW232346   0.935   6.490   4.484
10483SOL     OW32347   6.505   5.301   0.920
10483SOL    HW132348   6.473   5.387   0.879
10483SOL    HW232349   6.537   5.240   0.847
10484SOL     OW32350   6.864   0.621   1.020
10484SOL    HW132351   6.910   0.639   0.933
10484SOL    HW232352   6.880   0.696   1.083
10485SOL     OW32353   3.595   4.092   3.062
10485SOL    HW132354   3.535   4.085   3.141
10485SOL    HW232355   3.550   4.147   2.991
10486SOL     OW32356   6.492   0.066   5.679
10486SOL    HW132357   6.570   0.055   5.741
10486SOL    HW232358   6.515   0.134   5.609
10487SOL     OW32359   4.870   1.653   1.687
10487SOL    HW132360   4.833   1.636   1.596
10487SOL    HW232361   4.801   1.699   1.743
10488SOL     OW32362   0.901   2.458   5.111
10488SOL    HW132363   0.877   2.516   5.188
10488SOL    HW232364   0.856   2.491   5.028
10489SOL     OW32365   6.353   5.782   3.729
10489SOL    HW132366   6.415   5.858   3.745
10489SOL    HW232367   6.317   5.748   3.816
10490SOL     OW32368   5.575   0.643   0.561
10490SOL    HW132369   5.573   0.618   0.657
10490SOL    HW232370   5.492   0.694   0.538
10491SOL     OW32371   1.548   2.846   6.231
10491SOL    HW132372   1.616   2.785   6.189
10491SOL    HW232373   1.576   2.867   6.324
10492SOL     OW32374   4.344   6.802   0.679
10492SOL    HW132375   4.401   6.811   0.598
10492SOL    HW232376   4.250   6.827   0.657
10493SOL     OW32377   4.136   5.483   1.081
10493SOL    HW132378   4.102   5.570   1.045
10493SOL    HW232379   4.145   5.489   1.180
10494SOL     OW32380   1.190   4.618   6.173
10494SOL    HW132381   1.133   4.587   6.096
10494SOL    HW232382   1.212   4.714   6.161
10495SOL     OW32383   6.746   6.238   6.428
10495SOL    HW132384   6.829   6.281   6.394
10495SOL    HW232385   6.756   6.219   6.526
10496SOL     OW32386   0.046   3.732   5.408
10496SOL    HW132387   7.004   3.810   5.409
10496SOL    HW232388   0.002   3.654   5.364
10497SOL     OW32389   2.498   6.756   2.084
10497SOL    HW132390   2.408   6.784   2.119
10497SOL    HW232391   2.485   6.697   2.004
10498SOL     OW32392   5.347   5.380   0.694
10498SOL    HW132393   5.436   5.404   0.656
10498SOL    HW232394   5.350   5.388   0.794
10499SOL     OW32395   5.974   5.917   1.470
10499SOL    HW132396   5.991   6.007   1.508
10499SOL    HW232397   5.887   5.917   1.420
10500SOL     OW32398   5.688   3.930   4.968
10500SOL    HW132399   5.766   3.877   5.002
10500SOL    HW232400   5.655   3.889   4.882
10501SOL     OW32401   2.644   5.589   2.412
10501SOL    HW132402   2.616   5.494   2.403
10501SOL    HW232403   2.692   5.601   2.499
10502SOL     OW32404   3.196   3.194   3.004
10502SOL    HW132405   3.167   3.161   2.914
10502SOL    HW232406   3.277   3.144   3.034
10503SOL     OW32407   6.729   3.812   6.187
10503SOL    HW132408   6.718   3.816   6.088
10503SOL    HW232409   6.733   3.905   6.224
10504SOL     OW32410   2.084   3.497   6.268
10504SOL    HW132411   1.988   3.473   6.282
10504SOL    HW232412   2.095   3.596   6.276
10505SOL     OW32413   5.549   6.009   2.094
10505SOL    HW132414   5.627   6.067   2.120
10505SOL    HW232415   5.583   5.918   2.070
10506SOL     OW32416   0.630   3.028   6.891
10506SOL    HW132417   0.675   3.045   6.803
10506SOL    HW232418   0.603   3.115   6.932
10507SOL     OW32419   2.346   4.908   6.897
10507SOL    HW132420   2.441   4.939   6.905
10507SOL    HW232421   2.329   4.878   6.803
10508SOL     OW32422   0.943   5.763   4.981
10508SOL    HW132423   0.959   5.678   4.931
10508SOL    HW232424   1.020   5.825   4.966
10509SOL     OW32425   5.037   3.417   4.171
10509SOL    HW132426   5.097   3.445   4.246
10509SOL    HW232427   4.980   3.494   4.143
10510SOL     OW32428   4.791   6.386   5.566
10510SOL    HW132429   4.823   6.391   5.661
10510SOL    HW232430   4.795   6.476   5.524
10511SOL     OW32431   2.540   1.152   2.123
10511SOL    HW132432   2.592   1.238   2.123
10511SOL    HW232433   2.569   1.095   2.199
10512SOL     OW32434   4.055   0.362   6.109
10512SOL    HW132435   4.155   0.366   6.110
10512SOL    HW232436   4.021   0.343   6.201
10513SOL     OW32437   5.537   3.000   2.287
10513SOL    HW132438   5.599   3.078   2.297
10513SOL    HW232439   5.455   3.014   2.342
10514SOL     OW32440   1.332   2.349   1.416
10514SOL    HW132441   1.354   2.253   1.399
10514SOL    HW232442   1.244   2.372   1.374
10515SOL     OW32443   2.148   2.475   4.545
10515SOL    HW132444   2.186   2.461   4.637
10515SOL    HW232445   2.050   2.455   4.546
10516SOL     OW32446   3.396   2.402   0.097
10516SOL    HW132447   3.466   2.472   0.081
10516SOL    HW232448   3.435   2.328   0.153
10517SOL     OW32449   1.450   3.084   3.315
10517SOL    HW132450   1.438   3.175   3.274
10517SOL    HW232451   1.540   3.048   3.288
10518SOL     OW32452   1.047   5.190   2.249
10518SOL    HW132453   1.046   5.226   2.342
10518SOL    HW232454   0.972   5.231   2.197
10519SOL     OW32455   2.623   5.516   1.781
10519SOL    HW132456   2.591   5.541   1.872
10519SOL    HW232457   2.713   5.472   1.788
10520SOL     OW32458   6.735   1.895   6.114
10520SOL    HW132459   6.664   1.825   6.127
10520SOL    HW232460   6.822   1.850   6.094
10521SOL     OW32461   5.653   3.577   1.561
10521SOL    HW132462   5.605   3.630   1.630
10521SOL    HW232463   5.621   3.482   1.564
10522SOL     OW32464   6.002   2.446   3.004
10522SOL    HW132465   5.998   2.347   2.986
10522SOL    HW232466   6.008   2.495   2.917
10523SOL     OW32467   0.686   4.097   3.952
10523SOL    HW132468   0.686   4.161   4.029
10523SOL    HW232469   0.592   4.066   3.935
10524SOL     OW32470   0.256   5.338   3.393
10524SOL    HW132471   0.174   5.357   3.447
10524SOL    HW232472   0.288   5.423   3.352
10525SOL     OW32473   4.197   1.007   4.959
10525SOL    HW132474   4.134   1.003   4.881
10525SOL    HW232475   4.209   1.102   4.988
10526SOL     OW32476   0.558   5.910   0.220
10526SOL    HW132477   0.576   5.998   0.264
10526SOL    HW232478   0.637   5.850   0.233
10527SOL     OW32479   0.681   1.574   5.384
10527SOL    HW132480   0.725   1.658   5.414
10527SOL    HW232481   0.611   1.547   5.450
10528SOL     OW32482   0.764   4.731   6.838
10528SOL    HW132483   0.768   4.774   6.928
10528SOL    HW232484   0.756   4.801   6.767
10529SOL     OW32485   1.646   6.166   5.983
10529SOL    HW132486   1.737   6.135   5.955
10529SOL    HW232487   1.619   6.118   6.067
10530SOL     OW32488   0.759   6.895   5.616
10530SOL    HW132489   0.720   6.984   5.591
10530SOL    HW232490   0.827   6.868   5.549
10531SOL     OW32491   3.276   2.561   5.655
10531SOL    HW132492   3.357   2.550   5.598
10531SOL    HW232493   3.301   2.546   5.751
10532SOL     OW32494   5.661   6.622   5.871
10532SOL    HW132495   5.733   6.589   5.933
10532SOL    HW232496   5.699   6.630   5.779
10533SOL     OW32497   3.708   5.593   4.117
10533SOL    HW132498   3.747   5.588   4.025
10533SOL    HW232499   3.762   5.657   4.172
10534SOL     OW32500   0.455   5.419   2.817
10534SOL    HW132501   0.385   5.385   2.880
10534SOL    HW232502   0.541   5.432   2.867
10535SOL     OW32503   2.650   1.385   2.284
10535SOL    HW132504   2.612   1.464   2.332
10535SOL    HW232505   2.657   1.308   2.347
10536SOL     OW32506   4.640   0.580   3.978
10536SOL    HW132507   4.700   0.533   3.913
10536SOL    HW232508   4.676   0.566   4.071
10537SOL     OW32509   4.999   6.966   3.060
10537SOL    HW132510   4.968   7.003   2.973
10537SOL    HW232511   4.968   6.871   3.068
10538SOL     OW32512   5.743   3.933   2.291
10538SOL    HW132513   5.839   3.909   2.309
10538SOL    HW232514   5.691   3.849   2.274
10539SOL     OW32515   5.988   5.881   2.753
10539SOL    HW132516   5.993   5.855   2.656
10539SOL    HW232517   5.912   5.833   2.796
10540SOL     OW32518   2.470   4.064   6.398
10540SOL    HW132519   2.552   4.036   6.448
10540SOL    HW232520   2.496   4.127   6.324
10541SOL     OW32521   3.025   3.123   5.097
10541SOL    HW132522   2.965   3.168   5.031
10541SOL    HW232523   2.971   3.089   5.174
10542SOL     OW32524   6.279   0.054   4.660
10542SOL    HW132525   6.186   0.018   4.666
10542SOL    HW232526   6.302   0.101   4.745
10543SOL     OW32527   6.922   2.701   5.687
10543SOL    HW132528   6.927   2.606   5.656
10543SOL    HW232529   6.826   2.729   5.695
10544SOL     OW32530   1.005   1.313   4.006
10544SOL    HW132531   1.058   1.255   3.944
10544SOL    HW232532   1.044   1.405   4.008
10545SOL     OW32533   1.646   2.732   2.623
10545SOL    HW132534   1.703   2.809   2.593
10545SOL    HW232535   1.571   2.766   2.679
10546SOL     OW32536   3.254   6.456   1.123
10546SOL    HW132537   3.200   6.536   1.149
10546SOL    HW232538   3.344   6.461   1.168
10547SOL     OW32539   4.686   0.153   5.004
10547SOL    HW132540   4.606   0.105   4.969
10547SOL    HW232541   4.659   0.245   5.033
10548SOL     OW32542   0.800   4.652   4.678
10548SOL    HW132543   0.887   4.638   4.632
10548SOL    HW232544   0.803   4.612   4.770
10549SOL     OW32545   0.295   1.239   0.567
10549SOL    HW132546   0.349   1.234   0.483
10549SOL    HW232547   0.231   1.162   0.570
10550SOL     OW32548   3.653   6.149   3.304
10550SOL    HW132549   3.669   6.145   3.205
10550SOL    HW232550   3.687   6.236   3.339
10551SOL     OW32551   2.680   2.097   5.733
10551SOL    HW132552   2.629   2.169   5.686
10551SOL    HW232553   2.654   2.008   5.696
10552SOL     OW32554   3.355   1.035   4.324
10552SOL    HW132555   3.301   1.118   4.310
10552SOL    HW232556   3.451   1.053   4.299
10553SOL     OW32557   0.031   5.284   0.794
10553SOL    HW132558   0.043   5.317   0.701
10553SOL    HW232559   6.955   5.276   0.815
10554SOL     OW32560   6.708   4.768   2.784
10554SOL    HW132561   6.628   4.711   2.768
10554SOL    HW232562   6.729   4.820   2.702
10555SOL     OW32563   3.251   2.115   0.620
10555SOL    HW132564   3.300   2.179   0.560
10555SOL    HW232565   3.264   2.142   0.715
10556SOL     OW32566   2.222   1.234   2.789
10556SOL    HW132567   2.289   1.160   2.796
10556SOL    HW232568   2.130   1.196   2.795
10557SOL     OW32569   1.652   3.857   4.429
10557SOL    HW132570   1.632   3.902   4.343
10557SOL    HW232571   1.702   3.920   4.489
10558SOL     OW32572   3.126   4.827   5.180
10558SOL    HW132573   3.068   4.832   5.099
10558SOL    HW232574   3.171   4.916   5.195
10559SOL     OW32575   3.627   0.003   0.514
10559SOL    HW132576   3.592   6.934   0.489
10559SOL    HW232577   3.699   7.014   0.582
10560SOL     OW32578   4.180   6.161   1.647
10560SOL    HW132579   4.278   6.140   1.655
10560SOL    HW232580   4.158   6.238   1.707
10561SOL     OW32581   5.295   4.422   2.014
10561SOL    HW132582   5.268   4.483   1.940
10561SOL    HW232583   5.217   4.403   2.073
10562SOL     OW32584   3.414   6.751   1.445
10562SOL    HW132585   3.332   6.743   1.388
10562SOL    HW232586   3.446   6.845   1.444
10563SOL     OW32587   0.256   0.055   1.003
10563SOL    HW132588   0.193   0.130   1.023
10563SOL    HW232589   0.337   0.063   1.060
10564SOL     OW32590   6.724   5.514   4.470
10564SOL    HW132591   6.823   5.497   4.476
10564SOL    HW232592   6.708   5.598   4.418
10565SOL     OW32593   6.713   6.862   5.484
10565SOL    HW132594   6.646   6.873   5.411
10565SOL    HW232595   6.686   6.786   5.543
10566SOL     OW32596   2.656   2.505   6.826
10566SOL    HW132597   2.669   2.537   6.732
10566SOL    HW232598   2.722   2.432   6.846
10567SOL     OW32599   1.903   2.445   5.868
10567SOL    HW132600   1.938   2.441   5.961
10567SOL    HW232601   1.938   2.366   5.816
10568SOL     OW32602   5.316   2.757   6.593
10568SOL    HW132603   5.278   2.849   6.591
10568SOL    HW232604   5.407   2.760   6.635
10569SOL     OW32605   5.349   0.107   1.742
10569SOL    HW132606   5.359   0.111   1.642
10569SOL    HW232607   5.298   0.187   1.773
10570SOL     OW32608   0.659   5.056   3.478
10570SOL    HW132609   0.758   5.038   3.483
10570SOL    HW232610   0.633   5.073   3.383
10571SOL     OW32611   6.734   4.698   6.411
10571SOL    HW132612   6.771   4.770   6.352
10571SOL    HW232613   6.636   4.711   6.422
10572SOL     OW32614   6.841   4.710   1.406
10572SOL    HW132615   6.815   4.700   1.503
10572SOL    HW232616   6.786   4.647   1.351
10573SOL     OW32617   5.749   0.451   3.942
10573SOL    HW132618   5.820   0.400   3.894
10573SOL    HW232619   5.789   0.503   4.017
10574SOL     OW32620   6.433   0.582   3.654
10574SOL    HW132621   6.397   0.503   3.703
10574SOL    HW232622   6.469   0.648   3.721
10575SOL     OW32623   5.610   0.952   2.654
10575SOL    HW132624   5.652   1.034   2.614
10575SOL    HW232625   5.672   0.874   2.641
10576SOL     OW32626   2.304   4.856   3.190
10576SOL    HW132627   2.296   4.790   3.115
10576SOL    HW232628   2.347   4.811   3.268
10577SOL     OW32629   3.629   6.018   0.723
10577SOL    HW132630   3.559   6.088   0.706
10577SOL    HW232631   3.590   5.927   0.708
10578SOL     OW32632   6.190   2.039   3.608
10578SOL    HW132633   6.201   1.940   3.606
10578SOL    HW232634   6.094   2.062   3.624
10579SOL     OW32635   2.758   3.607   1.144
10579SOL    HW132636   2.738   3.684   1.204
10579SOL    HW232637   2.696   3.609   1.065
10580SOL     OW32638   6.384   6.677   6.395
10580SOL    HW132639   6.377   6.711   6.488
10580SOL    HW232640   6.451   6.733   6.344
10581SOL     OW32641   5.630   6.566   2.932
10581SOL    HW132642   5.678   6.489   2.975
10581SOL    HW232643   5.693   6.643   2.921
10582SOL     OW32644   5.702   4.871   6.710
10582SOL    HW132645   5.663   4.869   6.802
10582SOL    HW232646   5.795   4.909   6.715
10583SOL     OW32647   2.920   6.696   3.697
10583SOL    HW132648   2.927   6.599   3.675
10583SOL    HW232649   2.855   6.740   3.634
10584SOL     OW32650   6.477   0.276   5.497
10584SOL    HW132651   6.472   0.363   5.546
10584SOL    HW232652   6.573   0.256   5.475
10585SOL     OW32653   0.595   2.066   6.163
10585SOL    HW132654   0.634   2.140   6.217
10585SOL    HW232655   0.524   2.020   6.215
10586SOL     OW32656   4.928   4.171   5.374
10586SOL    HW132657   4.839   4.201   5.341
10586SOL    HW232658   4.992   4.166   5.298
10587SOL     OW32659   0.850   6.009   5.117
10587SOL    HW132660   0.863   5.984   5.213
10587SOL    HW232661   0.894   5.941   5.059
10588SOL     OW32662   1.415   3.216   4.004
10588SOL    HW132663   1.474   3.155   3.950
10588SOL    HW232664   1.320   3.189   3.992
10589SOL     OW32665   5.379   6.114   4.624
10589SOL    HW132666   5.444   6.155   4.560
10589SOL    HW232667   5.339   6.185   4.682
10590SOL     OW32668   0.642   6.027   1.479
10590SOL    HW132669   0.715   5.978   1.430
10590SOL    HW232670   0.681   6.107   1.525
10591SOL     OW32671   0.769   1.378   1.264
10591SOL    HW132672   0.717   1.425   1.194
10591SOL    HW232673   0.832   1.442   1.308
10592SOL     OW32674   6.101   2.273   5.110
10592SOL    HW132675   6.167   2.338   5.074
10592SOL    HW232676   6.017   2.321   5.136
10593SOL     OW32677   2.513   6.261   1.248
10593SOL    HW132678   2.439   6.285   1.185
10593SOL    HW232679   2.597   6.308   1.220
10594SOL     OW32680   3.750   1.043   3.417
10594SOL    HW132681   3.762   1.006   3.325
10594SOL    HW232682   3.655   1.030   3.446
10595SOL     OW32683   6.032   0.530   1.039
10595SOL    HW132684   5.935   0.518   1.016
10595SOL    HW232685   6.067   0.610   0.991
10596SOL     OW32686   4.925   1.803   6.985
10596SOL    HW132687   4.995   1.799   0.035
10596SOL    HW232688   4.910   1.898   6.959
10597SOL     OW32689   2.668   0.516   5.840
10597SOL    HW132690   2.720   0.601   5.829
10597SOL    HW232691   2.669   0.488   5.936
10598SOL     OW32692   2.199   1.835   5.953
10598SOL    HW132693   2.203   1.868   5.859
10598SOL    HW232694   2.255   1.894   6.011
10599SOL     OW32695   6.075   4.125   6.205
10599SOL    HW132696   6.035   4.075   6.129
10599SOL    HW232697   6.104   4.215   6.175
10600SOL     OW32698   2.603   1.397   1.987
10600SOL    HW132699   2.696   1.410   1.951
10600SOL    HW232700   2.546   1.474   1.960
10601SOL     OW32701   0.235   6.559   6.309
10601SOL    HW132702   0.186   6.583   6.226
10601SOL    HW232703   0.279   6.641   6.346
10602SOL     OW32704   0.370   0.256   6.992
10602SOL    HW132705   0.352   0.244   0.068
10602SOL    HW232706   0.307   0.323   6.955
10603SOL     OW32707   4.373   0.136   1.981
10603SOL    HW132708   4.446   0.199   1.954
10603SOL    HW232709   4.413   0.054   2.022
10604SOL     OW32710   6.944   6.686   4.632
10604SOL    HW132711   6.935   6.780   4.666
10604SOL    HW232712   0.018   6.657   4.639
10605SOL     OW32713   2.554   0.263   1.049
10605SOL    HW132714   2.589   0.256   0.956
10605SOL    HW232715   2.458   0.293   1.047
10606SOL     OW32716   5.763   0.984   1.500
10606SOL    HW132717   5.670   0.971   1.535
10606SOL    HW232718   5.820   0.907   1.526
10607SOL     OW32719   4.382   4.378   6.781
10607SOL    HW132720   4.422   4.332   6.702
10607SOL    HW232721   4.300   4.428   6.752
10608SOL     OW32722   6.476   2.590   3.323
10608SOL    HW132723   6.465   2.491   3.317
10608SOL    HW232724   6.565   2.617   3.285
10609SOL     OW32725   4.075   6.859   0.623
10609SOL    HW132726   4.056   6.946   0.668
10609SOL    HW232727   4.053   6.784   0.685
10610SOL     OW32728   6.796   1.786   4.580
10610SOL    HW132729   6.871   1.851   4.566
10610SOL    HW232730   6.825   1.714   4.643
10611SOL     OW32731   2.874   5.479   4.903
10611SOL    HW132732   2.879   5.514   4.809
10611SOL    HW232733   2.905   5.385   4.906
10612SOL     OW32734   5.408   1.395   3.955
10612SOL    HW132735   5.493   1.423   3.912
10612SOL    HW232736   5.360   1.477   3.989
10613SOL     OW32737   6.182   6.238   4.170
10613SOL    HW132738   6.249   6.171   4.140
10613SOL    HW232739   6.117   6.256   4.096
10614SOL     OW32740   5.326   0.377   5.945
10614SOL    HW132741   5.235   0.417   5.956
10614SOL    HW232742   5.393   0.436   5.988
10615SOL     OW32743   2.708   2.116   6.020
10615SOL    HW132744   2.807   2.127   6.011
10615SOL    HW232745   2.669   2.098   5.930
10616SOL     OW32746   3.235   5.676   6.513
10616SOL    HW132747   3.272   5.583   6.509
10616SOL    HW232748   3.196   5.692   6.604
10617SOL     OW32749   2.457   3.702   1.734
10617SOL    HW132750   2.388   3.728   1.667
10617SOL    HW232751   2.415   3.644   1.804
10618SOL     OW32752   6.968   5.491   5.378
10618SOL    HW132753   6.992   5.437   5.297
10618SOL    HW232754   0.009   5.569   5.385
10619SOL     OW32755   0.370   2.018   2.825
10619SOL    HW132756   0.279   1.982   2.807
10619SOL    HW232757   0.425   2.012   2.741
10620SOL     OW32758   2.217   0.077   5.536
10620SOL    HW132759   2.238   0.002   5.473
10620SOL    HW232760   2.217   0.043   5.630
10621SOL     OW32761   1.199   4.159   2.716
10621SOL    HW132762   1.210   4.227   2.643
10621SOL    HW232763   1.279   4.160   2.775
10622SOL     OW32764   4.392   2.958   1.005
10622SOL    HW132765   4.417   2.863   1.023
10622SOL    HW232766   4.439   2.990   0.923
10623SOL     OW32767   6.114   6.168   5.735
10623SOL    HW132768   6.101   6.181   5.637
10623SOL    HW232769   6.025   6.159   5.779
10624SOL     OW32770   0.939   3.018   4.946
10624SOL    HW132771   0.867   2.979   4.889
10624SOL    HW232772   0.909   3.108   4.980
10625SOL     OW32773   0.152   3.492   6.723
10625SOL    HW132774   0.088   3.458   6.654
10625SOL    HW232775   0.184   3.415   6.778
10626SOL     OW32776   3.755   3.083   1.885
10626SOL    HW132777   3.792   3.126   1.803
10626SOL    HW232778   3.755   2.984   1.873
10627SOL     OW32779   5.986   0.300   6.075
10627SOL    HW132780   5.939   0.384   6.102
10627SOL    HW232781   5.962   0.227   6.138
10628SOL     OW32782   4.044   0.582   0.557
10628SOL    HW132783   3.965   0.622   0.512
10628SOL    HW232784   4.116   0.563   0.490
10629SOL     OW32785   3.251   5.056   5.161
10629SOL    HW132786   3.293   5.017   5.079
10629SOL    HW232787   3.310   5.128   5.198
10630SOL     OW32788   4.490   0.505   2.723
10630SOL    HW132789   4.449   0.595   2.740
10630SOL    HW232790   4.532   0.505   2.632
10631SOL     OW32791   4.499   5.109   6.656
10631SOL    HW132792   4.520   5.063   6.742
10631SOL    HW232793   4.523   5.206   6.664
10632SOL     OW32794   5.108   5.669   3.526
10632SOL    HW132795   5.087   5.651   3.622
10632SOL    HW232796   5.096   5.767   3.507
10633SOL     OW32797   1.983   2.786   1.531
10633SOL    HW132798   1.997   2.702   1.583
10633SOL    HW232799   1.926   2.766   1.451
10634SOL     OW32800   1.464   5.182   6.837
10634SOL    HW132801   1.498   5.238   6.912
10634SOL    HW232802   1.417   5.240   6.770
10635SOL     OW32803   2.083   3.379   0.135
10635SOL    HW132804   2.102   3.370   0.037
10635SOL    HW232805   2.122   3.466   0.168
10636SOL     OW32806   6.663   2.304   0.391
10636SOL    HW132807   6.621   2.236   0.330
10636SOL    HW232808   6.742   2.264   0.437
10637SOL     OW32809   2.850   6.085   6.589
10637SOL    HW132810   2.839   6.176   6.628
10637SOL    HW232811   2.762   6.039   6.585
10638SOL     OW32812   6.933   6.002   2.012
10638SOL    HW132813   7.017   6.010   1.958
10638SOL    HW232814   6.908   6.091   2.049
10639SOL     OW32815   2.170   3.748   1.962
10639SOL    HW132816   2.184   3.649   1.968
10639SOL    HW232817   2.206   3.781   1.875
10640SOL     OW32818   3.934   0.853   3.552
10640SOL    HW132819   3.891   0.764   3.540
10640SOL    HW232820   3.865   0.925   3.539
10641SOL     OW32821   1.263   0.935   3.497
10641SOL    HW132822   1.164   0.947   3.504
10641SOL    HW232823   1.300   1.001   3.432
10642SOL     OW32824   6.459   2.549   0.304
10642SOL    HW132825   6.389   2.538   0.374
10642SOL    HW232826   6.491   2.458   0.276
10643SOL     OW32827   2.405   5.839   5.025
10643SOL    HW132828   2.400   5.812   5.121
10643SOL    HW232829   2.466   5.917   5.015
10644SOL     OW32830   5.913   2.999   1.933
10644SOL    HW132831   5.929   3.081   1.878
10644SOL    HW232832   5.817   2.972   1.927
10645SOL     OW32833   2.039   3.135   3.433
10645SOL    HW132834   2.106   3.111   3.504
10645SOL    HW232835   2.053   3.076   3.353
10646SOL     OW32836   5.093   1.507   4.724
10646SOL    HW132837   5.147   1.581   4.763
10646SOL    HW232838   5.050   1.538   4.639
10647SOL     OW32839   4.339   5.207   5.576
10647SOL    HW132840   4.430   5.236   5.605
10647SOL    HW232841   4.317   5.118   5.615
10648SOL     OW32842   6.141   5.133   6.121
10648SOL    HW132843   6.189   5.183   6.048
10648SOL    HW232844   6.051   5.174   6.135
10649SOL     OW32845   0.641   2.975   3.613
10649SOL    HW132846   0.685   3.007   3.696
10649SOL    HW232847   0.573   2.906   3.636
10650SOL     OW32848   6.966   0.295   4.106
10650SOL    HW132849   6.949   0.259   4.198
10650SOL    HW232850   6.896   0.261   4.044
10651SOL     OW32851   5.158   6.611   6.138
10651SOL    HW132852   5.231   6.588   6.073
10651SOL    HW232853   5.194   6.613   6.231
10652SOL     OW32854   1.609   6.808   6.269
10652SOL    HW132855   1.561   6.723   6.248
10652SOL    HW232856   1.555   6.862   6.333
10653SOL     OW32857   4.001   6.176   4.684
10653SOL    HW132858   4.094   6.212   4.678
10653SOL    HW232859   3.984   6.114   4.607
10654SOL     OW32860   5.076   1.860   3.960
10654SOL    HW132861   4.985   1.844   3.996
10654SOL    HW232862   5.110   1.776   3.917
10655SOL     OW32863   1.955   4.642   1.607
10655SOL    HW132864   1.965   4.722   1.547
10655SOL    HW232865   1.868   4.597   1.588
10656SOL     OW32866   5.998   1.372   2.534
10656SOL    HW132867   5.906   1.390   2.497
10656SOL    HW232868   6.034   1.288   2.493
10657SOL     OW32869   5.864   1.029   4.592
10657SOL    HW132870   5.908   0.942   4.570
10657SOL    HW232871   5.920   1.079   4.658
10658SOL     OW32872   5.951   4.160   5.295
10658SOL    HW132873   5.943   4.060   5.298
10658SOL    HW232874   5.976   4.188   5.203
10659SOL     OW32875   1.195   4.862   1.084
10659SOL    HW132876   1.184   4.938   1.020
10659SOL    HW232877   1.212   4.899   1.176
10660SOL     OW32878   6.027   3.400   5.681
10660SOL    HW132879   5.990   3.351   5.760
10660SOL    HW232880   5.955   3.454   5.638
10661SOL     OW32881   1.622   4.709   0.718
10661SOL    HW132882   1.529   4.742   0.732
10661SOL    HW232883   1.670   4.707   0.805
10662SOL     OW32884   3.658   1.146   2.455
10662SOL    HW132885   3.664   1.106   2.547
10662SOL    HW232886   3.735   1.115   2.400
10663SOL     OW32887   0.896   1.617   3.486
10663SOL    HW132888   0.909   1.601   3.388
10663SOL    HW232889   0.982   1.599   3.534
10664SOL     OW32890   0.596   5.270   4.474
10664SOL    HW132891   0.497   5.279   4.484
10664SOL    HW232892   0.640   5.285   4.562
10665SOL     OW32893   2.128   2.626   6.581
10665SOL    HW132894   2.145   2.723   6.564
10665SOL    HW232895   2.208   2.573   6.552
10666SOL     OW32896   3.603   3.409   1.833
10666SOL    HW132897   3.554   3.496   1.836
10666SOL    HW232898   3.663   3.401   1.912
10667SOL     OW32899   4.590   1.043   3.600
10667SOL    HW132900   4.646   1.123   3.619
10667SOL    HW232901   4.632   0.962   3.641
10668SOL     OW32902   3.233   2.036   5.491
10668SOL    HW132903   3.192   2.031   5.400
10668SOL    HW232904   3.161   2.050   5.559
10669SOL     OW32905   5.808   0.652   0.818
10669SOL    HW132906   5.855   0.590   0.754
10669SOL    HW232907   5.709   0.640   0.809
10670SOL     OW32908   5.349   4.087   4.526
10670SOL    HW132909   5.404   4.003   4.518
10670SOL    HW232910   5.375   4.151   4.454
10671SOL     OW32911   0.984   1.560   4.361
10671SOL    HW132912   1.043   1.502   4.306
10671SOL    HW232913   0.991   1.655   4.330
10672SOL     OW32914   6.404   4.215   1.771
10672SOL    HW132915   6.418   4.132   1.718
10672SOL    HW232916   6.306   4.226   1.791
10673SOL     OW32917   2.128   6.650   0.612
10673SOL    HW132918   2.122   6.697   0.523
10673SOL    HW232919   2.174   6.709   0.678
10674SOL     OW32920   4.099   3.583   4.480
10674SOL    HW132921   4.075   3.492   4.446
10674SOL    HW232922   4.127   3.641   4.404
10675SOL     OW32923   3.167   0.889   6.288
10675SOL    HW132924   3.119   0.882   6.375
10675SOL    HW232925   3.238   0.959   6.295
10676SOL     OW32926   6.946   5.814   4.630
10676SOL    HW132927   6.995   5.900   4.642
10676SOL    HW232928   6.873   5.807   4.698
10677SOL     OW32929   1.352   0.723   1.339
10677SOL    HW132930   1.379   0.806   1.387
10677SOL    HW232931   1.254   0.708   1.349
10678SOL     OW32932   4.138   4.750   3.774
10678SOL    HW132933   4.197   4.827   3.750
10678SOL    HW232934   4.193   4.676   3.814
10679SOL     OW32935   3.783   5.589   6.719
10679SOL    HW132936   3.810   5.532   6.641
10679SOL    HW232937   3.842   5.569   6.797
10680SOL     OW32938   3.786   1.575   3.992
10680SOL    HW132939   3.690   1.546   3.991
10680SOL    HW232940   3.798   1.652   3.930
10681SOL     OW32941   0.253   3.292   6.919
10681SOL    HW132942   0.316   3.289   6.997
10681SOL    HW232943   0.283   3.227   6.849
10682SOL     OW32944   0.207   3.185   5.068
10682SOL    HW132945   0.289   3.228   5.028
10682SOL    HW232946   0.146   3.156   4.994
10683SOL     OW32947   4.267   0.574   3.649
10683SOL    HW132948   4.222   0.623   3.724
10683SOL    HW232949   4.271   0.634   3.569
10684SOL     OW32950   4.193   5.407   1.581
10684SOL    HW132951   4.218   5.409   1.678
10684SOL    HW232952   4.120   5.472   1.564
10685SOL     OW32953   0.291   5.829   0.662
10685SOL    HW132954   0.375   5.858   0.709
10685SOL    HW232955   0.294   5.860   0.567
10686SOL     OW32956   2.108   4.252   6.316
10686SOL    HW132957   2.082   4.348   6.325
10686SOL    HW232958   2.137   4.234   6.221
10687SOL     OW32959   6.549   4.608   3.650
10687SOL    HW132960   6.490   4.676   3.693
10687SOL    HW232961   6.496   4.557   3.582
10688SOL     OW32962   5.017   1.895   2.812
10688SOL    HW132963   4.959   1.940   2.744
10688SOL    HW232964   4.978   1.909   2.903
10689SOL     OW32965   6.935   6.932   1.625
10689SOL    HW132966   6.865   6.908   1.692
10689SOL    HW232967   6.901   7.006   1.567
10690SOL     OW32968   0.216   5.137   3.173
10690SOL    HW132969   0.247   5.164   3.264
10690SOL    HW232970   0.161   5.054   3.180
10691SOL     OW32971   1.874   1.427   1.582
10691SOL    HW132972   1.830   1.488   1.647
10691SOL    HW232973   1.948   1.475   1.536
10692SOL     OW32974   2.920   0.429   4.434
10692SOL    HW132975   2.826   0.419   4.466
10692SOL    HW232976   2.974   0.476   4.504
10693SOL     OW32977   0.837   6.277   1.348
10693SOL    HW132978   0.832   6.265   1.447
10693SOL    HW232979   0.755   6.241   1.305
10694SOL     OW32980   5.290   6.895   6.414
10694SOL    HW132981   5.197   6.873   6.384
10694SOL    HW232982   5.293   6.986   6.453
10695SOL     OW32983   1.100   2.436   1.304
10695SOL    HW132984   1.034   2.394   1.241
10695SOL    HW232985   1.083   2.534   1.311
10696SOL     OW32986   6.440   3.736   4.497
10696SOL    HW132987   6.446   3.661   4.563
10696SOL    HW232988   6.458   3.822   4.544
10697SOL     OW32989   6.987   6.775   5.630
10697SOL    HW132990   6.909   6.821   5.672
10697SOL    HW232991   0.014   6.838   5.570
10698SOL     OW32992   4.983   4.254   0.279
10698SOL    HW132993   4.905   4.285   0.224
10698SOL    HW232994   5.063   4.309   0.258
10699SOL     OW32995   3.728   4.665   0.970
10699SOL    HW132996   3.822   4.632   0.960
10699SOL    HW232997   3.723   4.761   0.942
10700SOL     OW32998   5.413   0.045   0.546
10700SOL    HW132999   5.436   7.013   0.465
10700SOL    HW233000   5.318   0.077   0.539
10701SOL     OW33001   3.304   7.016   6.158
10701SOL    HW133002   3.267   6.925   6.180
10701SOL    HW233003   3.366   7.008   6.080
10702SOL     OW33004   4.967   3.286   2.548
10702SOL    HW133005   5.059   3.256   2.571
10702SOL    HW233006   4.943   3.254   2.457
10703SOL     OW33007   2.257   2.931   5.746
10703SOL    HW133008   2.252   2.859   5.677
10703SOL    HW233009   2.168   2.942   5.790
10704SOL     OW33010   0.221   4.839   2.467
10704SOL    HW133011   0.271   4.827   2.381
10704SOL    HW233012   0.286   4.836   2.544
10705SOL     OW33013   5.930   5.640   1.576
10705SOL    HW133014   5.962   5.570   1.512
10705SOL    HW233015   5.883   5.712   1.526
10706SOL     OW33016   3.701   0.175   2.168
10706SOL    HW133017   3.701   0.221   2.079
10706SOL    HW233018   3.626   0.210   2.224
10707SOL     OW33019   0.814   6.926   3.879
10707SOL    HW133020   0.820   6.926   3.979
10707SOL    HW233021   0.741   6.989   3.850
10708SOL     OW33022   4.003   1.411   1.198
10708SOL    HW133023   3.914   1.444   1.166
10708SOL    HW233024   3.992   1.320   1.238
10709SOL     OW33025   5.077   5.022   5.026
10709SOL    HW133026   5.092   5.115   5.059
10709SOL    HW233027   5.164   4.973   5.026
10710SOL     OW33028   5.888   1.077   3.796
10710SOL    HW133029   5.794   1.054   3.821
10710SOL    HW233030   5.950   1.005   3.827
10711SOL     OW33031   1.781   6.753   3.965
10711SOL    HW133032   1.710   6.780   4.030
10711SOL    HW233033   1.755   6.782   3.873
10712SOL     OW33034   2.830   0.580   2.914
10712SOL    HW133035   2.813   0.563   3.011
10712SOL    HW233036   2.817   0.678   2.895
10713SOL     OW33037   0.836   3.131   0.849
10713SOL    HW133038   0.768   3.163   0.782
10713SOL    HW233039   0.817   3.174   0.937
10714SOL     OW33040   4.248   3.400   5.732
10714SOL    HW133041   4.286   3.326   5.677
10714SOL    HW233042   4.148   3.398   5.727
10715SOL     OW33043   4.869   0.226   1.937
10715SOL    HW133044   4.885   0.137   1.979
10715SOL    HW233045   4.896   0.298   2.002
10716SOL     OW33046   6.329   3.185   3.653
10716SOL    HW133047   6.354   3.089   3.666
10716SOL    HW233048   6.316   3.203   3.555
10717SOL     OW33049   1.889   3.027   1.489
10717SOL    HW133050   1.933   2.940   1.511
10717SOL    HW233051   1.959   3.093   1.460
10718SOL     OW33052   1.177   3.635   0.144
10718SOL    HW133053   1.268   3.602   0.120
10718SOL    HW233054   1.108   3.581   0.095
10719SOL     OW33055   0.052   5.412   2.440
10719SOL    HW133056   0.040   5.351   2.519
10719SOL    HW233057   0.101   5.364   2.368
10720SOL     OW33058   6.791   4.984   4.748
10720SOL    HW133059   6.752   5.055   4.690
10720SOL    HW233060   6.891   4.995   4.751
10721SOL     OW33061   5.272   3.574   5.414
10721SOL    HW133062   5.201   3.585   5.483
10721SOL    HW233063   5.322   3.489   5.431
10722SOL     OW33064   0.794   5.013   0.947
10722SOL    HW133065   0.767   5.027   1.042
10722SOL    HW233066   0.720   5.045   0.887
10723SOL     OW33067   0.245   2.886   6.490
10723SOL    HW133068   0.298   2.815   6.444
10723SOL    HW233069   0.232   2.861   6.586
10724SOL     OW33070   5.990   0.055   6.192
10724SOL    HW133071   5.926   0.014   6.257
10724SOL    HW233072   5.971   0.021   6.100
10725SOL     OW33073   1.601   6.128   5.265
10725SOL    HW133074   1.591   6.032   5.239
10725SOL    HW233075   1.512   6.173   5.259
10726SOL     OW33076   5.752   0.773   3.891
10726SOL    HW133077   5.782   0.839   3.960
10726SOL    HW233078   5.669   0.806   3.846
10727SOL     OW33079   0.382   5.496   5.351
10727SOL    HW133080   0.398   5.515   5.254
10727SOL    HW233081   0.320   5.417   5.360
10728SOL     OW33082   1.927   5.214   6.451
10728SOL    HW133083   1.959   5.298   6.407
10728SOL    HW233084   1.861   5.168   6.391
10729SOL     OW33085   4.949   1.261   3.343
10729SOL    HW133086   4.915   1.266   3.249
10729SOL    HW233087   5.049   1.265   3.343
10730SOL     OW33088   1.497   0.685   1.092
10730SOL    HW133089   1.504   0.767   1.035
10730SOL    HW233090   1.441   0.705   1.172
10731SOL     OW33091   3.390   1.155   0.973
10731SOL    HW133092   3.380   1.149   1.073
10731SOL    HW233093   3.305   1.127   0.930
10732SOL     OW33094   6.535   4.536   4.840
10732SOL    HW133095   6.592   4.592   4.780
10732SOL    HW233096   6.571   4.539   4.934
10733SOL     OW33097   6.916   1.528   6.606
10733SOL    HW133098   6.911   1.546   6.507
10733SOL    HW233099   6.823   1.523   6.643
10734SOL     OW33100   0.777   0.928   6.952
10734SOL    HW133101   0.752   0.846   6.900
10734SOL    HW233102   0.873   0.951   6.936
10735SOL     OW33103   0.370   2.942   2.461
10735SOL    HW133104   0.345   3.037   2.480
10735SOL    HW233105   0.439   2.911   2.526
10736SOL     OW33106   1.058   0.545   3.693
10736SOL    HW133107   1.011   0.459   3.713
10736SOL    HW233108   1.149   0.543   3.734
10737SOL     OW33109   1.050   1.870   7.018
10737SOL    HW133110   1.149   1.856   7.020
10737SOL    HW233111   1.003   1.782   7.016
10738SOL     OW33112   2.320   0.282   2.815
10738SOL    HW133113   2.343   0.376   2.838
10738SOL    HW233114   2.276   0.280   2.726
10739SOL     OW33115   1.603   0.962   1.050
10739SOL    HW133116   1.685   0.973   0.992
10739SOL    HW233117   1.582   1.048   1.095
10740SOL     OW33118   0.322   5.252   5.063
10740SOL    HW133119   0.381   5.176   5.038
10740SOL    HW233120   0.257   5.223   5.133
10741SOL     OW33121   4.584   0.926   1.091
10741SOL    HW133122   4.642   0.873   1.029
10741SOL    HW233123   4.507   0.964   1.040
10742SOL     OW33124   5.479   6.895   1.504
10742SOL    HW133125   5.431   6.968   1.457
10742SOL    HW233126   5.493   6.920   1.600
10743SOL     OW33127   1.294   1.672   5.407
10743SOL    HW133128   1.258   1.725   5.485
10743SOL    HW233129   1.238   1.591   5.393
10744SOL     OW33130   3.129   1.529   0.767
10744SOL    HW133131   3.073   1.482   0.834
10744SOL    HW233132   3.170   1.611   0.809
10745SOL     OW33133   0.033   5.736   6.071
10745SOL    HW133134   0.044   5.731   5.972
10745SOL    HW233135   0.046   5.646   6.111
10746SOL     OW33136   2.655   4.554   1.134
10746SOL    HW133137   2.647   4.548   1.234
10746SOL    HW233138   2.686   4.645   1.109
10747SOL     OW33139   4.110   1.561   4.620
10747SOL    HW133140   4.059   1.601   4.696
10747SOL    HW233141   4.207   1.554   4.643
10748SOL     OW33142   5.698   1.317   0.435
10748SOL    HW133143   5.715   1.220   0.419
10748SOL    HW233144   5.785   1.363   0.453
10749SOL     OW33145   0.038   5.384   3.592
10749SOL    HW133146   0.050   5.402   3.689
10749SOL    HW233147   6.964   5.360   3.574
10750SOL     OW33148   4.828   5.782   4.168
10750SOL    HW133149   4.831   5.829   4.079
10750SOL    HW233150   4.860   5.843   4.240
10751SOL     OW33151   2.084   4.947   4.805
10751SOL    HW133152   2.021   4.938   4.728
10751SOL    HW233153   2.045   5.011   4.872
10752SOL     OW33154   6.346   4.513   5.405
10752SOL    HW133155   6.427   4.558   5.442
10752SOL    HW233156   6.318   4.439   5.466
10753SOL     OW33157   5.330   4.552   4.740
10753SOL    HW133158   5.412   4.536   4.686
10753SOL    HW233159   5.280   4.630   4.702
10754SOL     OW33160   0.513   0.534   3.310
10754SOL    HW133161   0.567   0.454   3.286
10754SOL    HW233162   0.573   0.614   3.317
10755SOL     OW33163   6.985   0.723   0.535
10755SOL    HW133164   6.891   0.704   0.507
10755SOL    HW233165   0.014   0.764   0.458
10756SOL     OW33166   6.394   5.054   6.850
10756SOL    HW133167   6.344   5.136   6.876
10756SOL    HW233168   6.364   5.025   6.759
10757SOL     OW33169   1.617   2.540   0.199
10757SOL    HW133170   1.540   2.602   0.184
10757SOL    HW233171   1.592   2.448   0.168
10758SOL     OW33172   0.964   6.194   4.378
10758SOL    HW133173   0.936   6.103   4.408
10758SOL    HW233174   0.970   6.197   4.279
10759SOL     OW33175   1.836   3.406   1.608
10759SOL    HW133176   1.888   3.458   1.540
10759SOL    HW233177   1.878   3.418   1.698
10760SOL     OW33178   5.390   0.014   2.117
10760SOL    HW133179   5.435   6.954   2.080
10760SOL    HW233180   5.458   0.070   2.166
10761SOL     OW33181   0.615   6.195   5.933
10761SOL    HW133182   0.712   6.179   5.954
10761SOL    HW233183   0.579   6.117   5.882
10762SOL     OW33184   3.154   2.169   4.272
10762SOL    HW133185   3.251   2.173   4.250
10762SOL    HW233186   3.139   2.199   4.366
10763SOL     OW33187   4.870   6.737   3.046
10763SOL    HW133188   4.879   6.750   2.947
10763SOL    HW233189   4.774   6.720   3.068
10764SOL     OW33190   5.264   2.077   5.966
10764SOL    HW133191   5.356   2.111   5.981
10764SOL    HW233192   5.248   1.997   6.023
10765SOL     OW33193   5.141   2.484   0.742
10765SOL    HW133194   5.197   2.510   0.663
10765SOL    HW233195   5.143   2.385   0.753
10766SOL     OW33196   4.440   5.071   0.686
10766SOL    HW133197   4.406   5.019   0.765
10766SOL    HW233198   4.464   5.007   0.613
10767SOL     OW33199   1.828   0.384   0.667
10767SOL    HW133200   1.740   0.419   0.698
10767SOL    HW233201   1.824   0.284   0.662
10768SOL     OW33202   5.255   5.373   1.406
10768SOL    HW133203   5.251   5.281   1.444
10768SOL    HW233204   5.190   5.381   1.330
10769SOL     OW33205   2.241   4.047   5.364
10769SOL    HW133206   2.317   4.027   5.303
10769SOL    HW233207   2.220   3.967   5.420
10770SOL     OW33208   5.564   6.580   4.299
10770SOL    HW133209   5.637   6.566   4.231
10770SOL    HW233210   5.485   6.524   4.275
10771SOL     OW33211   5.200   0.347   3.312
10771SOL    HW133212   5.267   0.420   3.299
10771SOL    HW233213   5.120   0.384   3.360
10772SOL     OW33214   6.076   0.064   3.924
10772SOL    HW133215   6.139   0.043   3.849
10772SOL    HW233216   6.128   0.081   4.007
10773SOL     OW33217   6.013   5.168   6.446
10773SOL    HW133218   5.992   5.073   6.470
10773SOL    HW233219   5.987   5.184   6.351
10774SOL     OW33220   2.532   1.777   6.056
10774SOL    HW133221   2.460   1.708   6.052
10774SOL    HW233222   2.616   1.735   6.091
10775SOL     OW33223   0.277   4.362   2.273
10775SOL    HW133224   0.178   4.355   2.282
10775SOL    HW233225   0.315   4.401   2.357
10776SOL     OW33226   0.457   0.817   6.162
10776SOL    HW133227   0.441   0.797   6.258
10776SOL    HW233228   0.471   0.915   6.150
10777SOL     OW33229   3.997   5.578   2.067
10777SOL    HW133230   4.020   5.599   2.162
10777SOL    HW233231   4.000   5.479   2.053
10778SOL     OW33232   4.892   6.775   4.106
10778SOL    HW133233   4.797   6.799   4.127
10778SOL    HW233234   4.936   6.737   4.187
10779SOL     OW33235   6.255   2.873   3.907
10779SOL    HW133236   6.335   2.930   3.889
10779SOL    HW233237   6.241   2.811   3.829
10780SOL     OW33238   1.779   0.689   4.356
10780SOL    HW133239   1.734   0.744   4.285
10780SOL    HW233240   1.749   0.594   4.348
10781SOL     OW33241   4.576   1.576   4.243
10781SOL    HW133242   4.588   1.598   4.146
10781SOL    HW233243   4.486   1.607   4.273
10782SOL     OW33244   0.080   1.041   2.864
10782SOL    HW133245   0.092   1.113   2.933
10782SOL    HW233246   7.007   1.009   2.866
10783SOL     OW33247   0.518   1.980   2.590
10783SOL    HW133248   0.510   2.078   2.570
10783SOL    HW233249   0.613   1.959   2.614
10784SOL     OW33250   4.026   6.961   4.007
10784SOL    HW133251   4.082   6.881   4.029
10784SOL    HW233252   4.084   0.021   4.006
10785SOL     OW33253   0.693   4.386   0.620
10785SOL    HW133254   0.768   4.415   0.679
10785SOL    HW233255   0.605   4.408   0.663
10786SOL     OW33256   6.263   4.898   3.080
10786SOL    HW133257   6.277   4.803   3.110
10786SOL    HW233258   6.323   4.917   3.002
10787SOL     OW33259   1.376   1.378   5.913
10787SOL    HW133260   1.307   1.447   5.932
10787SOL    HW233261   1.467   1.418   5.923
10788SOL     OW33262   1.501   4.285   0.604
10788SOL    HW133263   1.410   4.298   0.642
10788SOL    HW233264   1.523   4.362   0.543
10789SOL     OW33265   6.460   3.312   6.484
10789SOL    HW133266   6.514   3.323   6.567
10789SOL    HW233267   6.363   3.309   6.508
10790SOL     OW33268   0.694   0.519   1.959
10790SOL    HW133269   0.629   0.500   1.885
10790SOL    HW233270   0.672   0.607   2.002
10791SOL     OW33271   0.268   6.123   1.746
10791SOL    HW133272   0.329   6.170   1.682
10791SOL    HW233273   0.173   6.138   1.720
10792SOL     OW33274   3.259   2.966   5.032
10792SOL    HW133275   3.183   3.027   5.055
10792SOL    HW233276   3.240   2.922   4.944
10793SOL     OW33277   6.066   3.051   5.893
10793SOL    HW133278   6.130   2.987   5.851
10793SOL    HW233279   5.975   3.009   5.895
10794SOL     OW33280   4.163   3.533   4.763
10794SOL    HW133281   4.120   3.557   4.676
10794SOL    HW233282   4.239   3.471   4.746
10795SOL     OW33283   0.122   5.561   2.722
10795SOL    HW133284   0.120   5.467   2.688
10795SOL    HW233285   0.097   5.562   2.819
10796SOL     OW33286   6.609   6.646   5.598
10796SOL    HW133287   6.531   6.674   5.654
10796SOL    HW233288   6.577   6.584   5.526
10797SOL     OW33289   2.684   2.269   1.317
10797SOL    HW133290   2.613   2.271   1.247
10797SOL    HW233291   2.641   2.260   1.407
10798SOL     OW33292   2.880   0.695   0.296
10798SOL    HW133293   2.802   0.677   0.236
10798SOL    HW233294   2.847   0.727   0.385
10799SOL     OW33295   4.232   1.186   2.061
10799SOL    HW133296   4.303   1.245   2.022
10799SOL    HW233297   4.142   1.216   2.030
10800SOL     OW33298   0.758   6.689   5.117
10800SOL    HW133299   0.693   6.615   5.100
10800SOL    HW233300   0.715   6.777   5.096
10801SOL     OW33301   1.018   0.231   6.978
10801SOL    HW133302   1.101   0.192   6.938
10801SOL    HW233303   1.010   0.202   0.052
10802SOL     OW33304   0.422   0.346   2.430
10802SOL    HW133305   0.403   0.297   2.345
10802SOL    HW233306   0.451   0.281   2.500
10803SOL     OW33307   1.746   5.864   5.508
10803SOL    HW133308   1.710   5.952   5.539
10803SOL    HW233309   1.673   5.813   5.462
10804SOL     OW33310   5.720   3.578   2.786
10804SOL    HW133311   5.769   3.524   2.854
10804SOL    HW233312   5.621   3.564   2.798
10805SOL     OW33313   4.797   0.422   5.292
10805SOL    HW133314   4.778   0.334   5.248
10805SOL    HW233315   4.896   0.440   5.289
10806SOL     OW33316   3.932   3.893   5.863
10806SOL    HW133317   3.918   3.982   5.907
10806SOL    HW233318   4.024   3.860   5.884
10807SOL     OW33319   1.786   6.693   3.453
10807SOL    HW133320   1.865   6.741   3.416
10807SOL    HW233321   1.712   6.758   3.471
10808SOL     OW33322   0.554   3.169   5.921
10808SOL    HW133323   0.581   3.159   6.017
10808SOL    HW233324   0.505   3.255   5.910
10809SOL     OW33325   2.289   4.256   4.083
10809SOL    HW133326   2.223   4.254   4.008
10809SOL    HW233327   2.251   4.208   4.162
10810SOL     OW33328   0.249   0.278   4.368
10810SOL    HW133329   0.246   0.333   4.285
10810SOL    HW233330   0.188   0.199   4.359
10811SOL     OW33331   4.795   4.537   5.475
10811SOL    HW133332   4.843   4.496   5.398
10811SOL    HW233333   4.742   4.467   5.523
10812SOL     OW33334   6.968   3.630   0.654
10812SOL    HW133335   6.915   3.650   0.571
10812SOL    HW233336   6.956   3.705   0.719
10813SOL     OW33337   0.880   3.690   6.139
10813SOL    HW133338   0.933   3.650   6.214
10813SOL    HW233339   0.888   3.632   6.058
10814SOL     OW33340   2.094   0.229   6.543
10814SOL    HW133341   2.095   0.261   6.448
10814SOL    HW233342   2.047   0.297   6.600
10815SOL     OW33343   4.812   2.991   3.067
10815SOL    HW133344   4.726   3.042   3.076
10815SOL    HW233345   4.881   3.050   3.025
10816SOL     OW33346   3.300   2.911   3.080
10816SOL    HW133347   3.246   2.847   3.026
10816SOL    HW233348   3.397   2.894   3.065
10817SOL     OW33349   3.610   0.373   3.367
10817SOL    HW133350   3.659   0.446   3.320
10817SOL    HW233351   3.534   0.342   3.310
10818SOL     OW33352   4.690   3.904   5.333
10818SOL    HW133353   4.641   3.819   5.350
10818SOL    HW233354   4.686   3.962   5.415
10819SOL     OW33355   6.095   5.400   6.934
10819SOL    HW133356   6.078   5.384   6.837
10819SOL    HW233357   6.160   5.332   6.968
10820SOL     OW33358   0.250   5.017   4.422
10820SOL    HW133359   0.267   5.115   4.418
10820SOL    HW233360   0.293   4.972   4.344
10821SOL     OW33361   4.603   6.691   3.116
10821SOL    HW133362   4.511   6.729   3.105
10821SOL    HW233363   4.601   6.620   3.186
10822SOL     OW33364   6.249   1.883   2.225
10822SOL    HW133365   6.206   1.968   2.255
10822SOL    HW233366   6.315   1.852   2.293
10823SOL     OW33367   0.689   0.473   2.715
10823SOL    HW133368   0.691   0.468   2.615
10823SOL    HW233369   0.599   0.504   2.745
10824SOL     OW33370   7.013   0.956   2.463
10824SOL    HW133371   6.925   0.976   2.506
10824SOL    HW233372   7.005   0.968   2.364
10825SOL     OW33373   2.004   1.787   0.432
10825SOL    HW133374   1.931   1.719   0.432
10825SOL    HW233375   2.000   1.840   0.347
10826SOL     OW33376   0.998   1.188   2.907
10826SOL    HW133377   1.089   1.227   2.923
10826SOL    HW233378   0.989   1.162   2.811
10827SOL     OW33379   0.109   3.561   4.649
10827SOL    HW133380   0.103   3.527   4.742
10827SOL    HW233381   0.062   3.498   4.587
10828SOL     OW33382   1.870   4.499   0.987
10828SOL    HW133383   1.896   4.407   1.019
10828SOL    HW233384   1.865   4.561   1.066
10829SOL     OW33385   5.010   2.927   0.149
10829SOL    HW133386   5.010   2.833   0.114
10829SOL    HW233387   4.994   2.925   0.248
10830SOL     OW33388   4.427   1.863   3.252
10830SOL    HW133389   4.473   1.814   3.178
10830SOL    HW233390   4.332   1.879   3.228
10831SOL     OW33391   3.055   6.411   1.783
10831SOL    HW133392   3.039   6.510   1.793
10831SOL    HW233393   3.083   6.373   1.871
10832SOL     OW33394   6.749   3.548   6.260
10832SOL    HW133395   6.669   3.507   6.304
10832SOL    HW233396   6.738   3.647   6.255
10833SOL     OW33397   0.501   1.598   0.824
10833SOL    HW133398   0.572   1.666   0.840
10833SOL    HW233399   0.440   1.593   0.903
10834SOL     OW33400   6.401   1.630   0.255
10834SOL    HW133401   6.387   1.570   0.177
10834SOL    HW233402   6.320   1.627   0.314
10835SOL     OW33403   5.875   3.650   0.173
10835SOL    HW133404   5.788   3.681   0.212
10835SOL    HW233405   5.875   3.667   0.074
10836SOL     OW33406   0.652   1.519   3.140
10836SOL    HW133407   0.721   1.451   3.166
10836SOL    HW233408   0.627   1.573   3.220
10837SOL     OW33409   0.017   5.044   1.968
10837SOL    HW133410   0.046   5.130   2.009
10837SOL    HW233411   6.970   5.063   1.897
10838SOL     OW33412   5.985   6.490   3.928
10838SOL    HW133413   6.046   6.567   3.911
10838SOL    HW233414   5.958   6.490   4.024
10839SOL     OW33415   4.389   3.867   1.077
10839SOL    HW133416   4.409   3.898   1.170
10839SOL    HW233417   4.294   3.889   1.055
10840SOL     OW33418   3.387   6.539   2.060
10840SOL    HW133419   3.289   6.557   2.050
10840SOL    HW233420   3.434   6.623   2.087
10841SOL     OW33421   6.111   4.683   5.004
10841SOL    HW133422   6.052   4.673   5.084
10841SOL    HW233423   6.061   4.654   4.922
10842SOL     OW33424   5.379   2.411   1.302
10842SOL    HW133425   5.335   2.419   1.391
10842SOL    HW233426   5.392   2.501   1.262
10843SOL     OW33427   1.579   1.111   1.396
10843SOL    HW133428   1.504   1.046   1.404
10843SOL    HW233429   1.628   1.117   1.484
10844SOL     OW33430   0.110   4.894   3.132
10844SOL    HW133431   0.199   4.864   3.096
10844SOL    HW233432   0.049   4.915   3.056
10845SOL     OW33433   4.261   6.186   5.285
10845SOL    HW133434   4.180   6.141   5.249
10845SOL    HW233435   4.234   6.257   5.350
10846SOL     OW33436   5.227   0.443   6.524
10846SOL    HW133437   5.242   0.540   6.504
10846SOL    HW233438   5.222   0.431   6.623
10847SOL     OW33439   3.136   2.375   6.978
10847SOL    HW133440   3.184   2.406   0.039
10847SOL    HW233441   3.179   2.416   6.898
10848SOL     OW33442   1.013   4.464   1.139
10848SOL    HW133443   0.930   4.429   1.094
10848SOL    HW233444   1.035   4.406   1.217
10849SOL     OW33445   2.673   4.649   4.088
10849SOL    HW133446   2.625   4.583   4.147
10849SOL    HW233447   2.767   4.620   4.076
10850SOL     OW33448   3.738   6.370   6.542
10850SOL    HW133449   3.649   6.374   6.587
10850SOL    HW233450   3.806   6.419   6.597
10851SOL     OW33451   3.294   3.753   0.766
10851SOL    HW133452   3.195   3.739   0.770
10851SOL    HW233453   3.322   3.770   0.671
10852SOL     OW33454   1.398   1.125   6.847
10852SOL    HW133455   1.349   1.194   6.792
10852SOL    HW233456   1.374   1.137   6.943
10853SOL     OW33457   2.644   3.193   5.825
10853SOL    HW133458   2.553   3.210   5.864
10853SOL    HW233459   2.686   3.116   5.872
10854SOL     OW33460   4.589   5.177   5.333
10854SOL    HW133461   4.602   5.085   5.369
10854SOL    HW233462   4.547   5.173   5.243
10855SOL     OW33463   3.652   0.957   0.252
10855SOL    HW133464   3.558   0.928   0.270
10855SOL    HW233465   3.709   0.936   0.332
10856SOL     OW33466   6.019   1.539   0.393
10856SOL    HW133467   6.019   1.513   0.490
10856SOL    HW233468   6.000   1.637   0.385
10857SOL     OW33469   0.908   2.560   2.318
10857SOL    HW133470   0.959   2.485   2.274
10857SOL    HW233471   0.942   2.573   2.411
10858SOL     OW33472   1.024   0.232   0.249
10858SOL    HW133473   1.001   0.230   0.346
10858SOL    HW233474   1.118   0.262   0.237
10859SOL     OW33475   0.586   4.835   4.575
10859SOL    HW133476   0.648   4.758   4.590
10859SOL    HW233477   0.593   4.864   4.480
10860SOL     OW33478   0.255   3.189   4.533
10860SOL    HW133479   0.286   3.121   4.600
10860SOL    HW233480   0.287   3.279   4.559
10861SOL     OW33481   3.369   3.722   3.285
10861SOL    HW133482   3.397   3.785   3.212
10861SOL    HW233483   3.433   3.645   3.288
10862SOL     OW33484   1.089   1.097   5.561
10862SOL    HW133485   1.133   1.138   5.641
10862SOL    HW233486   1.090   0.997   5.571
10863SOL     OW33487   2.360   0.583   4.841
10863SOL    HW133488   2.270   0.602   4.880
10863SOL    HW233489   2.412   0.524   4.903
10864SOL     OW33490   3.412   5.604   0.204
10864SOL    HW133491   3.491   5.638   0.153
10864SOL    HW233492   3.388   5.513   0.171
10865SOL     OW33493   6.467   1.192   0.835
10865SOL    HW133494   6.402   1.229   0.769
10865SOL    HW233495   6.485   1.096   0.814
10866SOL     OW33496   5.050   4.767   0.980
10866SOL    HW133497   5.035   4.748   0.883
10866SOL    HW233498   4.991   4.842   1.010
10867SOL     OW33499   3.314   4.337   0.731
10867SOL    HW133500   3.292   4.407   0.800
10867SOL    HW233501   3.308   4.247   0.773
10868SOL     OW33502   4.836   1.800   3.707
10868SOL    HW133503   4.935   1.813   3.714
10868SOL    HW233504   4.814   1.768   3.616
10869NA      NA33505   6.545   3.034   4.984
10870NA      NA33506   4.452   4.641   5.157
10871NA      NA33507   1.118   2.905   1.441
10872NA      NA33508   5.014   3.623   5.110
10873NA      NA33509   4.079   2.365   5.282
10874NA      NA33510   3.593   4.851   1.752
10875NA      NA33511   6.641   5.065   6.840
10876NA      NA33512   3.309   3.147   4.628
10877NA      NA33513   4.445   5.909   0.050
10878NA      NA33514   4.316   6.303   4.890
10879NA      NA33515   6.533   5.073   2.457
10880NA      NA33516   2.203   0.061   3.905
10881NA      NA33517   3.982   5.766   1.894
10882NA      NA33518   3.658   3.916   2.027
   7.02156   7.02156   7.02156
