Generated by trjconv : CNT in water t= 588.00000
33518
    1C        C    1   2.842   2.771   4.748
    1C        C    2   2.899   2.724   4.868
    1C        C    3   2.839   2.776   4.984
    1C        C    4   2.849   2.775   4.264
    1C        C    5   2.902   2.730   4.387
    1C        C    6   2.842   2.772   4.508
    1C        C    7   3.008   2.637   4.629
    1C        C    8   2.892   2.716   4.628
    1C        C    9   3.076   2.608   4.750
    1C        C   10   3.009   2.634   4.871
    1C        C   11   3.181   2.494   4.974
    1C        C   12   3.057   2.559   4.979
    1C        C   13   2.849   2.773   3.773
    1C        C   14   2.899   2.721   3.895
    1C        C   15   2.850   2.774   4.016
    1C        C   16   3.018   2.650   4.140
    1C        C   17   2.901   2.730   4.140
    1C        C   18   3.082   2.622   4.262
    1C        C   19   3.023   2.657   4.385
    1C        C   20   3.206   2.559   4.506
    1C        C   21   3.073   2.606   4.507
    1C        C   22   3.278   2.544   4.627
    1C        C   23   3.207   2.553   4.749
    1C        C   24   3.414   2.488   4.866
    1C        C   25   3.271   2.499   4.863
    1C        C   26   3.490   2.487   4.984
    1C        C   27   2.857   2.777   3.282
    1C        C   28   2.908   2.730   3.405
    1C        C   29   2.856   2.779   3.527
    1C        C   30   3.016   2.643   3.651
    1C        C   31   2.906   2.732   3.651
    1C        C   32   3.076   2.606   3.773
    1C        C   33   3.016   2.642   3.896
    1C        C   34   3.208   2.552   4.020
    1C        C   35   3.079   2.610   4.019
    1C        C   36   3.278   2.534   4.141
    1C        C   37   3.211   2.564   4.262
    1C        C   38   3.415   2.513   4.383
    1C        C   39   3.277   2.541   4.385
    1C        C   40   3.487   2.503   4.504
    1C        C   41   3.416   2.516   4.626
    1C        C   42   3.630   2.490   4.747
    1C        C   43   3.488   2.488   4.745
    1C        C   44   3.706   2.492   4.866
    1C        C   45   3.629   2.484   4.983
    1C        C   46   2.843   2.759   2.794
    1C        C   47   2.897   2.714   2.916
    1C        C   48   2.844   2.763   3.038
    1C        C   49   3.021   2.645   3.161
    1C        C   50   2.906   2.726   3.159
    1C        C   51   3.078   2.607   3.285
    1C        C   52   3.018   2.642   3.408
    1C        C   53   3.209   2.549   3.530
    1C        C   54   3.079   2.605   3.530
    1C        C   55   3.275   2.533   3.653
    1C        C   56   3.207   2.554   3.775
    1C        C   57   3.416   2.516   3.895
    1C        C   58   3.276   2.537   3.897
    1C        C   59   3.485   2.505   4.018
    1C        C   60   3.418   2.511   4.141
    1C        C   61   3.630   2.500   4.261
    1C        C   62   3.489   2.500   4.263
    1C        C   63   3.702   2.509   4.382
    1C        C   64   3.628   2.507   4.502
    1C        C   65   3.834   2.544   4.624
    1C        C   66   3.698   2.508   4.625
    1C        C   67   3.904   2.566   4.745
    1C        C   68   3.842   2.529   4.866
    1C        C   69   4.053   2.588   4.982
    1C        C   70   3.922   2.538   4.981
    1C        C   71   2.825   2.736   2.309
    1C        C   72   2.884   2.693   2.429
    1C        C   73   2.833   2.748   2.549
    1C        C   74   3.008   2.628   2.672
    1C        C   75   2.892   2.708   2.672
    1C        C   76   3.075   2.602   2.794
    1C        C   77   3.016   2.638   2.917
    1C        C   78   3.208   2.547   3.038
    1C        C   79   3.080   2.605   3.039
    1C        C   80   3.274   2.529   3.162
    1C        C   81   3.208   2.552   3.284
    1C        C   82   3.414   2.504   3.405
    1C        C   83   3.274   2.527   3.406
    1C        C   84   3.484   2.500   3.528
    1C        C   85   3.415   2.514   3.650
    1C        C   86   3.628   2.507   3.768
    1C        C   87   3.486   2.512   3.773
    1C        C   88   3.696   2.509   3.892
    1C        C   89   3.627   2.505   4.015
    1C        C   90   3.834   2.545   4.136
    1C        C   91   3.697   2.509   4.137
    1C        C   92   3.902   2.574   4.256
    1C        C   93   3.838   2.549   4.380
    1C        C   94   4.031   2.631   4.501
    1C        C   95   3.904   2.569   4.503
    1C        C   96   4.092   2.669   4.623
    1C        C   97   4.031   2.628   4.744
    1C        C   98   4.188   2.770   4.863
    1C        C   99   4.099   2.657   4.865
    1C        C  100   4.214   2.843   4.979
    1C        C  101   2.820   2.730   2.071
    1C        C  102   2.990   2.593   2.190
    1C        C  103   2.876   2.679   2.189
    1C        C  104   3.063   2.574   2.312
    1C        C  105   3.001   2.614   2.432
    1C        C  106   3.204   2.541   2.552
    1C        C  107   3.071   2.588   2.552
    1C        C  108   3.273   2.520   2.674
    1C        C  109   3.205   2.546   2.796
    1C        C  110   3.415   2.498   2.916
    1C        C  111   3.276   2.523   2.916
    1C        C  112   3.484   2.497   3.039
    1C        C  113   3.414   2.505   3.161
    1C        C  114   3.626   2.497   3.280
    1C        C  115   3.485   2.495   3.283
    1C        C  116   3.696   2.507   3.403
    1C        C  117   3.625   2.507   3.525
    1C        C  118   3.837   2.541   3.647
    1C        C  119   3.698   2.514   3.646
    1C        C  120   3.901   2.566   3.770
    1C        C  121   3.833   2.544   3.892
    1C        C  122   4.025   2.636   4.014
    1C        C  123   3.900   2.570   4.014
    1C        C  124   4.085   2.676   4.135
    1C        C  125   4.029   2.636   4.259
    1C        C  126   4.195   2.768   4.379
    1C        C  127   4.091   2.672   4.380
    1C        C  128   4.244   2.819   4.501
    1C        C  129   4.196   2.765   4.622
    1C        C  130   4.322   2.940   4.741
    1C        C  131   4.239   2.825   4.742
    1C        C  132   4.358   3.004   4.862
    1C        C  133   4.288   2.961   4.975
    1C        C  134   3.172   2.472   2.082
    1C        C  135   3.036   2.505   2.087
    1C        C  136   3.259   2.487   2.191
    1C        C  137   3.195   2.523   2.311
    1C        C  138   3.408   2.485   2.425
    1C        C  139   3.268   2.507   2.431
    1C        C  140   3.481   2.481   2.546
    1C        C  141   3.410   2.490   2.669
    1C        C  142   3.621   2.495   2.790
    1C        C  143   3.480   2.488   2.791
    1C        C  144   3.693   2.504   2.911
    1C        C  145   3.626   2.498   3.035
    1C        C  146   3.833   2.537   3.156
    1C        C  147   3.696   2.503   3.158
    1C        C  148   3.900   2.560   3.278
    1C        C  149   3.834   2.534   3.401
    1C        C  150   4.025   2.629   3.522
    1C        C  151   3.901   2.560   3.522
    1C        C  152   4.084   2.667   3.644
    1C        C  153   4.025   2.633   3.768
    1C        C  154   4.190   2.766   3.889
    1C        C  155   4.082   2.676   3.891
    1C        C  156   4.245   2.813   4.010
    1C        C  157   4.195   2.765   4.134
    1C        C  158   4.332   2.927   4.254
    1C        C  159   4.245   2.816   4.255
    1C        C  160   4.373   2.987   4.375
    1C        C  161   4.326   2.934   4.497
    1C        C  162   4.436   3.117   4.615
    1C        C  163   4.360   2.998   4.618
    1C        C  164   4.474   3.182   4.735
    1C        C  165   4.439   3.120   4.857
    1C        C  166   4.521   3.319   4.977
    1C        C  167   4.483   3.185   4.973
    1C        C  168   3.477   2.436   2.075
    1C        C  169   3.398   2.458   2.188
    1C        C  170   3.619   2.465   2.306
    1C        C  171   3.477   2.462   2.305
    1C        C  172   3.692   2.483   2.426
    1C        C  173   3.622   2.482   2.549
    1C        C  174   3.830   2.540   2.663
    1C        C  175   3.693   2.504   2.669
    1C        C  176   3.896   2.562   2.787
    1C        C  177   3.830   2.539   2.910
    1C        C  178   4.021   2.628   3.032
    1C        C  179   3.897   2.561   3.032
    1C        C  180   4.083   2.662   3.154
    1C        C  181   4.026   2.625   3.278
    1C        C  182   4.194   2.755   3.399
    1C        C  183   4.085   2.666   3.399
    1C        C  184   4.243   2.806   3.522
    1C        C  185   4.191   2.759   3.644
    1C        C  186   4.333   2.920   3.764
    1C        C  187   4.241   2.813   3.765
    1C        C  188   4.367   2.983   3.885
    1C        C  189   4.329   2.926   4.009
    1C        C  190   4.434   3.111   4.129
    1C        C  191   4.370   2.985   4.131
    1C        C  192   4.469   3.177   4.249
    1C        C  193   4.440   3.111   4.371
    1C        C  194   4.504   3.316   4.492
    1C        C  195   4.462   3.181   4.492
    1C        C  196   4.531   3.385   4.612
    1C        C  197   4.518   3.317   4.735
    1C        C  198   4.552   3.532   4.853
    1C        C  199   4.532   3.390   4.857
    1C        C  200   4.585   3.617   4.963
    1C        C  201   3.616   2.418   2.072
    1C        C  202   3.828   2.508   2.182
    1C        C  203   3.693   2.461   2.185
    1C        C  204   3.900   2.541   2.300
    1C        C  205   3.828   2.519   2.420
    1C        C  206   4.023   2.614   2.542
    1C        C  207   3.897   2.550   2.539
    1C        C  208   4.081   2.659   2.663
    1C        C  209   4.021   2.627   2.787
    1C        C  210   4.193   2.751   2.908
    1C        C  211   4.082   2.663   2.909
    1C        C  212   4.245   2.798   3.030
    1C        C  213   4.195   2.748   3.153
    1C        C  214   4.332   2.911   3.274
    1C        C  215   4.242   2.802   3.275
    1C        C  216   4.371   2.973   3.395
    1C        C  217   4.328   2.919   3.518
    1C        C  218   4.430   3.105   3.639
    1C        C  219   4.369   2.978   3.640
    1C        C  220   4.462   3.171   3.760
    1C        C  221   4.437   3.106   3.883
    1C        C  222   4.502   3.308   4.004
    1C        C  223   4.461   3.173   4.005
    1C        C  224   4.518   3.381   4.124
    1C        C  225   4.513   3.311   4.247
    1C        C  226   4.523   3.523   4.368
    1C        C  227   4.522   3.382   4.369
    1C        C  228   4.520   3.596   4.489
    1C        C  229   4.533   3.526   4.611
    1C        C  230   4.504   3.740   4.728
    1C        C  231   4.541   3.602   4.730
    1C        C  232   4.498   3.819   4.845
    1C        C  233   4.545   3.751   4.958
    1C        C  234   4.018   2.607   2.063
    1C        C  235   3.894   2.546   2.064
    1C        C  236   4.084   2.650   2.179
    1C        C  237   4.024   2.610   2.301
    1C        C  238   4.201   2.734   2.420
    1C        C  239   4.084   2.654   2.421
    1C        C  240   4.254   2.783   2.542
    1C        C  241   4.197   2.740   2.663
    1C        C  242   4.331   2.908   2.787
    1C        C  243   4.244   2.797   2.784
    1C        C  244   4.367   2.970   2.909
    1C        C  245   4.329   2.912   3.032
    1C        C  246   4.432   3.100   3.149
    1C        C  247   4.372   2.972   3.152
    1C        C  248   4.457   3.166   3.272
    1C        C  249   4.429   3.102   3.394
    1C        C  250   4.500   3.304   3.516
    1C        C  251   4.453   3.171   3.515
    1C        C  252   4.519   3.373   3.637
    1C        C  253   4.504   3.305   3.760
    1C        C  254   4.528   3.517   3.877
    1C        C  255   4.521   3.376   3.882
    1C        C  256   4.524   3.588   3.999
    1C        C  257   4.528   3.522   4.123
    1C        C  258   4.500   3.732   4.244
    1C        C  259   4.523   3.593   4.245
    1C        C  260   4.478   3.803   4.364
    1C        C  261   4.494   3.734   4.486
    1C        C  262   4.426   3.938   4.604
    1C        C  263   4.477   3.807   4.607
    1C        C  264   4.401   4.008   4.725
    1C        C  265   4.436   3.946   4.847
    1C        C  266   4.311   4.122   4.960
    1C        C  267   4.395   4.012   4.963
    1C        C  268   4.264   2.775   2.065
    1C        C  269   4.195   2.737   2.181
    1C        C  270   4.350   2.890   2.301
    1C        C  271   4.256   2.784   2.300
    1C        C  272   4.389   2.951   2.423
    1C        C  273   4.340   2.895   2.543
    1C        C  274   4.446   3.082   2.663
    1C        C  275   4.377   2.958   2.664
    1C        C  276   4.472   3.152   2.782
    1C        C  277   4.439   3.091   2.905
    1C        C  278   4.507   3.295   3.025
    1C        C  279   4.467   3.159   3.026
    1C        C  280   4.515   3.367   3.147
    1C        C  281   4.498   3.301   3.271
    1C        C  282   4.524   3.512   3.390
    1C        C  283   4.513   3.371   3.392
    1C        C  284   4.526   3.582   3.512
    1C        C  285   4.532   3.514   3.636
    1C        C  286   4.503   3.727   3.755
    1C        C  287   4.532   3.589   3.755
    1C        C  288   4.477   3.793   3.877
    1C        C  289   4.497   3.727   4.001
    1C        C  290   4.433   3.933   4.119
    1C        C  291   4.481   3.800   4.121
    1C        C  292   4.405   4.001   4.239
    1C        C  293   4.431   3.936   4.362
    1C        C  294   4.321   4.122   4.480
    1C        C  295   4.392   4.000   4.482
    1C        C  296   4.284   4.184   4.602
    1C        C  297   4.328   4.130   4.724
    1C        C  298   4.198   4.309   4.837
    1C        C  299   4.283   4.194   4.843
    1C        C  300   4.172   4.398   4.947
    1C        C  301   4.351   2.883   2.062
    1C        C  302   4.468   3.070   2.179
    1C        C  303   4.398   2.945   2.179
    1C        C  304   4.475   3.146   2.299
    1C        C  305   4.450   3.078   2.420
    1C        C  306   4.513   3.282   2.539
    1C        C  307   4.479   3.145   2.541
    1C        C  308   4.523   3.357   2.658
    1C        C  309   4.505   3.290   2.781
    1C        C  310   4.533   3.502   2.899
    1C        C  311   4.522   3.361   2.902
    1C        C  312   4.528   3.576   3.019
    1C        C  313   4.525   3.508   3.142
    1C        C  314   4.495   3.717   3.264
    1C        C  315   4.521   3.578   3.265
    1C        C  316   4.479   3.787   3.386
    1C        C  317   4.499   3.721   3.509
    1C        C  318   4.432   3.923   3.627
    1C        C  319   4.482   3.791   3.630
    1C        C  320   4.396   3.985   3.749
    1C        C  321   4.426   3.924   3.873
    1C        C  322   4.319   4.107   3.989
    1C        C  323   4.399   3.990   3.995
    1C        C  324   4.276   4.165   4.111
    1C        C  325   4.322   4.115   4.235
    1C        C  326   4.180   4.276   4.354
    1C        C  327   4.276   4.172   4.355
    1C        C  328   4.133   4.332   4.474
    1C        C  329   4.191   4.290   4.596
    1C        C  330   4.026   4.434   4.712
    1C        C  331   4.139   4.348   4.714
    1C        C  332   3.970   4.491   4.829
    1C        C  333   4.055   4.475   4.939
    1C        C  334   4.561   3.265   2.063
    1C        C  335   4.536   3.127   2.066
    1C        C  336   4.538   3.349   2.173
    1C        C  337   4.517   3.282   2.295
    1C        C  338   4.523   3.494   2.411
    1C        C  339   4.520   3.353   2.417
    1C        C  340   4.522   3.567   2.532
    1C        C  341   4.527   3.498   2.656
    1C        C  342   4.500   3.711   2.772
    1C        C  343   4.521   3.572   2.776
    1C        C  344   4.479   3.780   2.894
    1C        C  345   4.493   3.713   3.017
    1C        C  346   4.425   3.913   3.137
    1C        C  347   4.471   3.779   3.140
    1C        C  348   4.396   3.980   3.258
    1C        C  349   4.428   3.919   3.381
    1C        C  350   4.321   4.101   3.503
    1C        C  351   4.399   3.983   3.504
    1C        C  352   4.277   4.160   3.624
    1C        C  353   4.320   4.104   3.746
    1C        C  354   4.177   4.264   3.866
    1C        C  355   4.275   4.162   3.867
    1C        C  356   4.120   4.308   3.987
    1C        C  357   4.175   4.264   4.110
    1C        C  358   4.009   4.396   4.231
    1C        C  359   4.129   4.321   4.230
    1C        C  360   3.951   4.442   4.351
    1C        C  361   4.016   4.411   4.472
    1C        C  362   3.829   4.518   4.590
    1C        C  363   3.958   4.461   4.591
    1C        C  364   3.763   4.551   4.711
    1C        C  365   3.839   4.545   4.829
    1C        C  366   3.631   4.592   4.949
    1C        C  367   3.769   4.580   4.945
    1C        C  368   4.502   3.564   2.053
    1C        C  369   4.523   3.489   2.170
    1C        C  370   4.504   3.705   2.285
    1C        C  371   4.521   3.565   2.289
    1C        C  372   4.488   3.776   2.406
    1C        C  373   4.506   3.708   2.528
    1C        C  374   4.433   3.910   2.649
    1C        C  375   4.486   3.779   2.649
    1C        C  376   4.398   3.976   2.769
    1C        C  377   4.432   3.914   2.892
    1C        C  378   4.319   4.094   3.011
    1C        C  379   4.399   3.977   3.014
    1C        C  380   4.271   4.147   3.132
    1C        C  381   4.314   4.095   3.256
    1C        C  382   4.173   4.250   3.376
    1C        C  383   4.271   4.149   3.380
    1C        C  384   4.122   4.301   3.497
    1C        C  385   4.178   4.260   3.620
    1C        C  386   4.006   4.385   3.742
    1C        C  387   4.125   4.308   3.742
    1C        C  388   3.944   4.423   3.863
    1C        C  389   4.003   4.388   3.987
    1C        C  390   3.818   4.490   4.109
    1C        C  391   3.945   4.428   4.109
    1C        C  392   3.748   4.514   4.229
    1C        C  393   3.823   4.502   4.348
    1C        C  394   3.617   4.556   4.474
    1C        C  395   3.756   4.530   4.470
    1C        C  396   3.547   4.571   4.596
    1C        C  397   3.623   4.569   4.715
    1C        C  398   3.411   4.557   4.840
    1C        C  399   3.550   4.582   4.836
    1C        C  400   3.342   4.523   4.958
    1C        C  401   4.503   3.703   2.050
    1C        C  402   4.453   3.915   2.166
    1C        C  403   4.495   3.781   2.166
    1C        C  404   4.414   3.976   2.287
    1C        C  405   4.442   3.909   2.409
    1C        C  406   4.323   4.091   2.526
    1C        C  407   4.403   3.975   2.528
    1C        C  408   4.274   4.149   2.645
    1C        C  409   4.315   4.090   2.766
    1C        C  410   4.174   4.246   2.890
    1C        C  411   4.278   4.150   2.888
    1C        C  412   4.119   4.293   3.012
    1C        C  413   4.172   4.248   3.135
    1C        C  414   3.997   4.373   3.254
    1C        C  415   4.117   4.297   3.255
    1C        C  416   3.939   4.409   3.378
    1C        C  417   4.002   4.375   3.500
    1C        C  418   3.814   4.477   3.620
    1C        C  419   3.941   4.414   3.621
    1C        C  420   3.748   4.508   3.741
    1C        C  421   3.814   4.478   3.862
    1C        C  422   3.612   4.532   3.988
    1C        C  423   3.751   4.505   3.986
    1C        C  424   3.541   4.543   4.109
    1C        C  425   3.610   4.544   4.232
    1C        C  426   3.401   4.550   4.357
    1C        C  427   3.542   4.559   4.355
    1C        C  428   3.333   4.547   4.481
    1C        C  429   3.407   4.558   4.601
    1C        C  430   3.196   4.515   4.723
    1C        C  431   3.334   4.548   4.722
    1C        C  432   3.125   4.494   4.845
    1C        C  433   3.204   4.505   4.960
    1C        C  434   4.386   4.120   2.052
    1C        C  435   4.447   3.994   2.050
    1C        C  436   4.305   4.162   2.163
    1C        C  437   4.336   4.095   2.284
    1C        C  438   4.179   4.246   2.401
    1C        C  439   4.279   4.146   2.403
    1C        C  440   4.123   4.296   2.521
    1C        C  441   4.172   4.247   2.644
    1C        C  442   4.004   4.372   2.765
    1C        C  443   4.121   4.293   2.768
    1C        C  444   3.942   4.409   2.886
    1C        C  445   4.004   4.375   3.009
    1C        C  446   3.812   4.470   3.132
    1C        C  447   3.939   4.407   3.130
    1C        C  448   3.747   4.497   3.254
    1C        C  449   3.812   4.470   3.377
    1C        C  450   3.608   4.531   3.497
    1C        C  451   3.745   4.497   3.498
    1C        C  452   3.540   4.541   3.621
    1C        C  453   3.611   4.540   3.743
    1C        C  454   3.401   4.552   3.863
    1C        C  455   3.542   4.549   3.866
    1C        C  456   3.333   4.543   3.987
    1C        C  457   3.400   4.550   4.111
    1C        C  458   3.193   4.510   4.235
    1C        C  459   3.332   4.538   4.234
    1C        C  460   3.127   4.495   4.359
    1C        C  461   3.195   4.517   4.480
    1C        C  462   3.000   4.433   4.603
    1C        C  463   3.126   4.497   4.601
    1C        C  464   2.932   4.398   4.722
    1C        C  465   2.991   4.443   4.844
    1C        C  466   2.802   4.340   4.956
    1C        C  467   2.906   4.435   4.958
    1C        C  468   4.123   4.282   2.044
    1C        C  469   4.188   4.244   2.162
    1C        C  470   4.005   4.370   2.280
    1C        C  471   4.125   4.293   2.280
    1C        C  472   3.942   4.404   2.401
    1C        C  473   4.006   4.375   2.524
    1C        C  474   3.813   4.467   2.644
    1C        C  475   3.944   4.414   2.644
    1C        C  476   3.745   4.493   2.765
    1C        C  477   3.813   4.466   2.886
    1C        C  478   3.608   4.519   3.009
    1C        C  479   3.746   4.489   3.009
    1C        C  480   3.537   4.530   3.131
    1C        C  481   3.607   4.521   3.253
    1C        C  482   3.396   4.534   3.375
    1C        C  483   3.538   4.536   3.375
    1C        C  484   3.329   4.533   3.499
    1C        C  485   3.399   4.550   3.621
    1C        C  486   3.191   4.505   3.746
    1C        C  487   3.327   4.544   3.742
    1C        C  488   3.131   4.480   3.871
    1C        C  489   3.197   4.505   3.993
    1C        C  490   3.003   4.414   4.114
    1C        C  491   3.129   4.478   4.113
    1C        C  492   2.943   4.383   4.239
    1C        C  493   3.003   4.426   4.359
    1C        C  494   2.833   4.300   4.483
    1C        C  495   2.942   4.391   4.482
    1C        C  496   2.775   4.254   4.603
    1C        C  497   2.823   4.308   4.725
    1C        C  498   2.668   4.160   4.846
    1C        C  499   2.755   4.271   4.843
    1C        C  500   2.594   4.117   4.957
    1C        C  501   4.004   4.354   2.043
    1C        C  502   3.813   4.461   2.155
    1C        C  503   3.943   4.405   2.158
    1C        C  504   3.746   4.482   2.278
    1C        C  505   3.812   4.460   2.400
    1C        C  506   3.606   4.513   2.521
    1C        C  507   3.744   4.484   2.522
    1C        C  508   3.535   4.519   2.643
    1C        C  509   3.606   4.517   2.765
    1C        C  510   3.395   4.529   2.885
    1C        C  511   3.536   4.526   2.888
    1C        C  512   3.325   4.527   3.008
    1C        C  513   3.396   4.537   3.130
    1C        C  514   3.189   4.497   3.256
    1C        C  515   3.326   4.532   3.253
    1C        C  516   3.122   4.474   3.379
    1C        C  517   3.192   4.498   3.499
    1C        C  518   3.002   4.413   3.627
    1C        C  519   3.128   4.477   3.623
    1C        C  520   2.941   4.376   3.749
    1C        C  521   3.008   4.410   3.869
    1C        C  522   2.840   4.282   3.997
    1C        C  523   2.950   4.370   3.991
    1C        C  524   2.788   4.237   4.120
    1C        C  525   2.838   4.289   4.241
    1C        C  526   2.700   4.130   4.365
    1C        C  527   2.785   4.243   4.364
    1C        C  528   2.655   4.074   4.487
    1C        C  529   2.692   4.139   4.606
    1C        C  530   2.592   3.954   4.734
    1C        C  531   2.647   4.085   4.728
    1C        C  532   2.541   3.898   4.854
    1C        C  533   2.533   3.991   4.962
    1C        C  534   3.618   4.560   2.043
    1C        C  535   3.753   4.523   2.045
    1C        C  536   3.537   4.539   2.159
    1C        C  537   3.607   4.512   2.279
    1C        C  538   3.393   4.521   2.402
    1C        C  539   3.534   4.523   2.400
    1C        C  540   3.320   4.518   2.523
    1C        C  541   3.394   4.525   2.643
    1C        C  542   3.185   4.488   2.767
    1C        C  543   3.322   4.521   2.765
    1C        C  544   3.121   4.464   2.891
    1C        C  545   3.189   4.489   3.013
    1C        C  546   2.995   4.407   3.136
    1C        C  547   3.121   4.470   3.135
    1C        C  548   2.940   4.367   3.259
    1C        C  549   2.997   4.408   3.382
    1C        C  550   2.836   4.277   3.508
    1C        C  551   2.942   4.371   3.506
    1C        C  552   2.787   4.228   3.631
    1C        C  553   2.836   4.282   3.752
    1C        C  554   2.708   4.114   3.875
    1C        C  555   2.795   4.226   3.875
    1C        C  556   2.667   4.060   3.999
    1C        C  557   2.704   4.123   4.120
    1C        C  558   2.596   3.943   4.245
    1C        C  559   2.663   4.068   4.244
    1C        C  560   2.570   3.880   4.369
    1C        C  561   2.597   3.945   4.491
    1C        C  562   2.533   3.746   4.614
    1C        C  563   2.569   3.883   4.614
    1C        C  564   2.511   3.681   4.737
    1C        C  565   2.518   3.757   4.857
    1C        C  566   2.531   3.547   4.976
    1C        C  567   2.521   3.685   4.978
    1C        C  568   3.329   4.480   2.042
    1C        C  569   3.396   4.518   2.158
    1C        C  570   3.184   4.478   2.281
    1C        C  571   3.323   4.510   2.280
    1C        C  572   3.114   4.463   2.403
    1C        C  573   3.182   4.489   2.524
    1C        C  574   2.987   4.406   2.648
    1C        C  575   3.115   4.467   2.646
    1C        C  576   2.930   4.367   2.771
    1C        C  577   2.994   4.402   2.892
    1C        C  578   2.831   4.271   3.017
    1C        C  579   2.934   4.367   3.015
    1C        C  580   2.780   4.224   3.140
    1C        C  581   2.832   4.276   3.261
    1C        C  582   2.702   4.113   3.386
    1C        C  583   2.787   4.226   3.385
    1C        C  584   2.663   4.056   3.509
    1C        C  585   2.705   4.113   3.631
    1C        C  586   2.597   3.932   3.756
    1C        C  587   2.668   4.054   3.754
    1C        C  588   2.572   3.870   3.881
    1C        C  589   2.603   3.934   4.003
    1C        C  590   2.535   3.736   4.129
    1C        C  591   2.570   3.873   4.126
    1C        C  592   2.525   3.669   4.252
    1C        C  593   2.536   3.743   4.372
    1C        C  594   2.512   3.533   4.496
    1C        C  595   2.520   3.674   4.494
    1C        C  596   2.508   3.462   4.619
    1C        C  597   2.511   3.539   4.737
    1C        C  598   2.527   3.328   4.865
    1C        C  599   2.520   3.469   4.860
    1C        C  600   2.530   3.249   4.980
    1C        C  601   3.195   4.443   2.045
    1C        C  602   2.983   4.392   2.161
    1C        C  603   3.117   4.440   2.162
    1C        C  604   2.929   4.352   2.286
    1C        C  605   2.988   4.398   2.406
    1C        C  606   2.824   4.266   2.532
    1C        C  607   2.928   4.362   2.528
    1C        C  608   2.777   4.213   2.654
    1C        C  609   2.828   4.269   2.773
    1C        C  610   2.692   4.107   2.894
    1C        C  611   2.780   4.218   2.896
    1C        C  612   2.658   4.051   3.019
    1C        C  613   2.696   4.111   3.142
    1C        C  614   2.601   3.924   3.265
    1C        C  615   2.662   4.051   3.265
    1C        C  616   2.576   3.863   3.390
    1C        C  617   2.599   3.930   3.513
    1C        C  618   2.529   3.730   3.638
    1C        C  619   2.567   3.866   3.635
    1C        C  620   2.517   3.662   3.762
    1C        C  621   2.532   3.735   3.882
    1C        C  622   2.510   3.527   4.009
    1C        C  623   2.521   3.668   4.006
    1C        C  624   2.511   3.457   4.132
    1C        C  625   2.510   3.528   4.254
    1C        C  626   2.533   3.318   4.380
    1C        C  627   2.517   3.458   4.376
    1C        C  628   2.546   3.249   4.503
    1C        C  629   2.528   3.322   4.622
    1C        C  630   2.591   3.120   4.743
    1C        C  631   2.548   3.256   4.745
    1C        C  632   2.613   3.051   4.865
    1C        C  633   2.561   3.112   4.983
    1C        C  634   2.781   4.304   2.055
    1C        C  635   2.891   4.391   2.051
    1C        C  636   2.752   4.228   2.170
    1C        C  637   2.810   4.274   2.290
    1C        C  638   2.678   4.108   2.410
    1C        C  639   2.768   4.217   2.412
    1C        C  640   2.640   4.047   2.532
    1C        C  641   2.690   4.102   2.652
    1C        C  642   2.585   3.920   2.776
    1C        C  643   2.648   4.046   2.775
    1C        C  644   2.567   3.856   2.901
    1C        C  645   2.594   3.925   3.021
    1C        C  646   2.531   3.723   3.150
    1C        C  647   2.574   3.857   3.143
    1C        C  648   2.516   3.656   3.273
    1C        C  649   2.535   3.728   3.393
    1C        C  650   2.507   3.519   3.519
    1C        C  651   2.518   3.660   3.516
    1C        C  652   2.510   3.449   3.642
    1C        C  653   2.509   3.521   3.763
    1C        C  654   2.528   3.314   3.890
    1C        C  655   2.513   3.455   3.888
    1C        C  656   2.547   3.246   4.013
    1C        C  657   2.534   3.317   4.134
    1C        C  658   2.607   3.121   4.256
    1C        C  659   2.549   3.250   4.257
    1C        C  660   2.638   3.058   4.379
    1C        C  661   2.600   3.119   4.501
    1C        C  662   2.703   2.935   4.626
    1C        C  663   2.625   3.053   4.623
    1C        C  664   2.750   2.879   4.747
    1C        C  665   2.692   2.931   4.867
    1C        C  666   2.738   2.871   4.984
    1C        C  667   2.678   4.025   2.053
    1C        C  668   2.687   4.103   2.170
    1C        C  669   2.593   3.909   2.289
    1C        C  670   2.645   4.042   2.290
    1C        C  671   2.563   3.846   2.412
    1C        C  672   2.580   3.919   2.532
    1C        C  673   2.517   3.717   2.660
    1C        C  674   2.558   3.853   2.655
    1C        C  675   2.512   3.648   2.784
    1C        C  676   2.528   3.720   2.904
    1C        C  677   2.508   3.512   3.033
    1C        C  678   2.518   3.653   3.028
    1C        C  679   2.507   3.442   3.155
    1C        C  680   2.508   3.515   3.277
    1C        C  681   2.530   3.305   3.401
    1C        C  682   2.508   3.444   3.399
    1C        C  683   2.546   3.238   3.524
    1C        C  684   2.533   3.310   3.645
    1C        C  685   2.598   3.112   3.770
    1C        C  686   2.546   3.243   3.769
    1C        C  687   2.634   3.052   3.892
    1C        C  688   2.596   3.114   4.013
    1C        C  689   2.713   2.938   4.139
    1C        C  690   2.629   3.051   4.135
    1C        C  691   2.757   2.882   4.261
    1C        C  692   2.717   2.942   4.383
    1C        C  693   2.751   2.880   4.505
    1C        C  694   2.628   3.894   2.056
    1C        C  695   2.529   3.701   2.176
    1C        C  696   2.575   3.835   2.171
    1C        C  697   2.509   3.637   2.299
    1C        C  698   2.520   3.712   2.419
    1C        C  699   2.486   3.504   2.543
    1C        C  700   2.497   3.645   2.541
    1C        C  701   2.498   3.435   2.665
    1C        C  702   2.502   3.507   2.787
    1C        C  703   2.526   3.300   2.909
    1C        C  704   2.509   3.440   2.911
    1C        C  705   2.544   3.234   3.032
    1C        C  706   2.529   3.303   3.155
    1C        C  707   2.591   3.102   3.277
    1C        C  708   2.544   3.236   3.278
    1C        C  709   2.628   3.043   3.400
    1C        C  710   2.598   3.106   3.523
    1C        C  711   2.709   2.932   3.650
    1C        C  712   2.627   3.047   3.648
    1C        C  713   2.756   2.879   3.772
    1C        C  714   2.717   2.937   3.895
    1C        C  715   2.754   2.878   4.018
    1C        C  716   2.450   3.502   2.063
    1C        C  717   2.486   3.637   2.059
    1C        C  718   2.466   3.423   2.181
    1C        C  719   2.485   3.497   2.300
    1C        C  720   2.510   3.289   2.423
    1C        C  721   2.483   3.428   2.424
    1C        C  722   2.531   3.221   2.545
    1C        C  723   2.520   3.296   2.664
    1C        C  724   2.593   3.098   2.789
    1C        C  725   2.543   3.230   2.787
    1C        C  726   2.621   3.035   2.912
    1C        C  727   2.595   3.102   3.034
    1C        C  728   2.707   2.923   3.160
    1C        C  729   2.625   3.038   3.156
    1C        C  730   2.752   2.872   3.283
    1C        C  731   2.705   2.925   3.405
    1C        C  732   2.753   2.875   3.528
    1C        C  733   2.499   3.201   2.067
    1C        C  734   2.489   3.281   2.182
    1C        C  735   2.578   3.084   2.304
    1C        C  736   2.524   3.216   2.303
    1C        C  737   2.609   3.021   2.426
    1C        C  738   2.584   3.090   2.547
    1C        C  739   2.697   2.910   2.669
    1C        C  740   2.622   3.030   2.669
    1C        C  741   2.745   2.861   2.792
    1C        C  742   2.706   2.922   2.914
    1C        C  743   2.750   2.869   3.037
    1C        C  744   2.546   3.071   2.071
    1C        C  745   2.686   2.899   2.184
    1C        C  746   2.611   3.018   2.184
    1C        C  747   2.732   2.844   2.306
    1C        C  748   2.685   2.901   2.426
    1C        C  749   2.734   2.848   2.548
    1C        C  750   2.740   2.843   2.067
    1C        C  751   3.667   2.297   2.004
    1C        O  752   3.652   2.182   2.054
    1C        O  753   3.657   2.288   1.865
    1C        C  754   4.616   3.041   1.976
    1C        O  755   4.607   3.031   1.851
    1C        O  756   4.734   2.985   2.028
    1C        C  757   4.453   4.214   1.960
    1C        O  758   4.559   4.279   1.981
    1C        O  759   4.430   4.198   1.822
    1C        C  760   3.578   4.657   1.938
    1C        O  761   3.547   4.777   1.961
    1C        O  762   3.538   4.607   1.813
    1C        C  763   2.864   4.509   1.965
    1C        O  764   2.924   4.531   1.857
    1C        O  765   2.765   4.607   1.981
    1C        C  766   2.339   3.474   1.968
    1C        O  767   2.361   3.438   1.849
    1C        O  768   2.209   3.515   1.996
    1C        C  769   4.713   3.587   5.031
    1C        O  770   4.715   3.566   5.155
    1C        O  771   4.834   3.607   4.963
    1C        C  772   4.281   4.467   5.019
    1C        O  773   4.292   4.467   5.144
    1C        O  774   4.343   4.580   4.963
    1C        C  775   4.136   2.546   5.097
    1C        O  776   4.174   2.426   5.101
    1C        O  777   4.122   2.593   5.228
    1C        C  778   2.874   4.551   5.044
    1C        O  779   2.854   4.667   4.998
    1C        O  780   2.912   4.555   5.178
    1C        C  781   2.479   3.041   5.083
    1C        O  782   2.370   2.985   5.055
    1C        O  783   2.536   3.020   5.208
    1C        C  784   2.413   3.977   5.048
    1C        O  785   2.300   4.026   5.018
    1C        O  786   2.426   3.988   5.187
    1C        C  787   2.936   2.414   2.025
    1C        O  788   2.880   2.426   1.913
    1C        O  789   2.925   2.286   2.079
    1C        C  790   3.204   2.384   5.070
    1C        O  791   3.158   2.272   5.034
    1C        O  792   3.185   2.402   5.207
    1C        H  793   4.300   3.019   5.064
    1C        H  794   4.134   2.846   5.049
    1C        H  795   4.537   3.123   5.041
    1C        H  796   4.565   3.358   5.066
    1C        H  797   4.577   3.817   5.037
    1C        H  798   4.395   3.952   5.052
    1C        H  799   4.280   4.159   5.055
    1C        H  800   4.037   4.538   5.023
    1C        H  801   3.816   4.574   5.041
    1C        H  802   3.591   4.642   5.035
    1C        H  803   3.399   4.504   5.046
    1C        H  804   3.166   4.466   5.052
    1C        H  805   3.894   2.478   5.065
    1C        H  806   3.671   2.425   5.062
    1C        H  807   2.988   2.526   5.053
    1C        H  808   3.437   2.523   5.070
    1C        H  809   2.907   2.785   5.067
    1C        H  810   2.730   2.927   5.075
    1C        H  811   2.509   3.289   5.077
    1C        H  812   2.541   3.494   5.069
    1C        H  813   2.540   3.735   5.070
    1C        H  814   2.546   4.194   5.014
    1C        H  815   2.770   4.297   5.048
    1C        H  816   2.731   2.897   1.975
    1C        H  817   2.866   2.696   1.981
    1C        H  818   3.219   2.475   1.987
    1C        H  819   3.429   2.399   1.986
    1C        H  820   3.835   2.562   1.976
    1C        H  821   4.072   2.601   1.971
    1C        H  822   4.245   2.727   1.972
    1C        H  823   4.321   2.955   1.988
    1C        H  824   4.626   3.299   1.986
    1C        H  825   4.489   3.514   1.959
    1C        H  826   4.503   3.750   1.953
    1C        H  827   3.812   4.560   1.964
    1C        H  828   3.971   4.399   1.952
    1C        H  829   4.128   4.213   1.963
    1C        H  830   4.513   3.976   1.968
    1C        H  831   2.674   3.827   1.987
    1C        H  832   2.718   4.063   1.961
    1C        H  833   2.707   4.316   1.979
    1C        H  834   3.378   4.444   1.954
    1C        H  835   3.147   4.422   1.952
    1C        H  836   2.483   2.996   2.028
    1C        H  837   2.523   3.245   1.973
    1C        H  838   2.457   3.697   1.975
    2V3OU   H29  839   2.804   3.548   6.378
    2V3OU   C27  840   2.784   3.505   6.479
    2V3OU   H27  841   2.723   3.575   6.541
    2V3OU   H28  842   2.727   3.409   6.468
    2V3OU   O11  843   2.911   3.469   6.534
    2V3OU   C15  844   2.921   3.395   6.649
    2V3OU   C13  845   3.049   3.377   6.707
    2V3OU   C14  846   3.074   3.272   6.797
    2V3OU   C16  847   2.972   3.187   6.837
    2V3OU    H6  848   2.993   3.105   6.907
    2V3OU   C12  849   3.213   3.228   6.819
    2V3OU    O2  850   3.237   3.124   6.884
    2V3OU   C10  851   3.326   3.306   6.766
    2V3OU    C8  852   3.459   3.272   6.792
    2V3OU   O10  853   3.486   3.156   6.856
    2V3OU   H26  854   3.402   3.113   6.878
    2V3OU    C6  855   3.569   3.352   6.750
    2V3OU    C5  856   3.538   3.466   6.677
    2V3OU    C4  857   3.708   3.299   6.742
    2V3OU    H4  858   3.723   3.231   6.830
    2V3OU    H5  859   3.711   3.229   6.653
    2V3OU    C2  860   3.822   3.401   6.736
    2V3OU    O6  861   3.808   3.479   6.855
    2V3OU   H21  862   3.766   3.557   6.816
    2V3OU    C3  863   3.780   3.496   6.624
    2V3OU    H2  864   3.855   3.575   6.597
    2V3OU    H3  865   3.775   3.434   6.531
    2V3OU   C25  866   3.953   3.324   6.714
    2V3OU    O7  867   4.000   3.302   6.603
    2V3OU   C26  868   4.029   3.291   6.842
    2V3OU   H22  869   4.072   3.383   6.888
    2V3OU   H23  870   4.115   3.223   6.817
    2V3OU    O8  871   3.961   3.207   6.932
    2V3OU   H24  872   3.928   3.263   7.004
    2V3OU    C1  873   3.645   3.565   6.640
    2V3OU    H1  874   3.622   3.618   6.543
    2V3OU    O3  875   3.662   3.657   6.748
    2V3OU   C19  876   3.619   3.793   6.743
    2V3OU    H9  877   3.523   3.804   6.684
    2V3OU    O4  878   3.720   3.848   6.661
    2V3OU   C20  879   3.850   3.875   6.714
    2V3OU   H10  880   3.892   3.772   6.735
    2V3OU   C24  881   3.610   3.853   6.884
    2V3OU   H16  882   3.541   3.789   6.945
    2V3OU   H17  883   3.567   3.956   6.881
    2V3OU   C23  884   3.748   3.872   6.946
    2V3OU   H15  885   3.793   3.769   6.965
    2V3OU    N1  886   3.738   3.952   0.043
    2V3OU   H19  887   3.810   3.921   0.105
    2V3OU   H20  888   3.650   3.936   0.086
    2V3OU   C21  889   3.847   3.945   6.850
    2V3OU   H11  890   3.954   3.929   6.884
    2V3OU    O5  891   3.823   4.085   6.848
    2V3OU   H18  892   3.784   4.107   6.935
    2V3OU   C22  893   3.914   3.951   6.599
    2V3OU   H12  894   3.860   4.047   6.582
    2V3OU   H13  895   3.906   3.894   6.503
    2V3OU   H14  896   4.023   3.967   6.619
    2V3OU   C11  897   3.156   3.470   6.667
    2V3OU    O1  898   3.139   3.582   6.615
    2V3OU    C9  899   3.294   3.425   6.696
    2V3OU    C7  900   3.402   3.501   6.652
    2V3OU    O9  901   3.390   3.612   6.572
    2V3OU   H25  902   3.294   3.623   6.560
    2V3OU   C17  903   2.820   3.311   6.700
    2V3OU    H7  904   2.719   3.348   6.681
    2V3OU   C18  905   2.843   3.208   6.790
    2V3OU    H8  906   2.754   3.159   6.834
    3SOL     OW  907   2.860   3.470   5.119
    3SOL    HW1  908   2.791   3.445   5.188
    3SOL    HW2  909   2.887   3.565   5.132
    4SOL     OW  910   1.050   0.388   0.502
    4SOL    HW1  911   0.964   0.373   0.552
    4SOL    HW2  912   1.126   0.353   0.557
    5SOL     OW  913   3.861   1.951   0.524
    5SOL    HW1  914   3.820   1.952   0.616
    5SOL    HW2  915   3.959   1.970   0.531
    6SOL     OW  916   3.100   2.137   1.946
    6SOL    HW1  917   3.027   2.201   1.972
    6SOL    HW2  918   3.164   2.127   2.022
    7SOL     OW  919   1.707   2.961   4.753
    7SOL    HW1  920   1.791   2.947   4.701
    7SOL    HW2  921   1.720   3.036   4.817
    8SOL     OW  922   1.183   1.719   6.003
    8SOL    HW1  923   1.163   1.815   5.983
    8SOL    HW2  924   1.115   1.684   6.068
    9SOL     OW  925   2.235   2.216   5.477
    9SOL    HW1  926   2.151   2.162   5.481
    9SOL    HW2  927   2.306   2.173   5.534
   10SOL     OW  928   5.719   4.848   0.744
   10SOL    HW1  929   5.693   4.779   0.675
   10SOL    HW2  930   5.751   4.802   0.827
   11SOL     OW  931   2.973   1.252   0.994
   11SOL    HW1  932   3.060   1.296   1.017
   11SOL    HW2  933   2.926   1.306   0.924
   12SOL     OW  934   5.490   4.700   1.107
   12SOL    HW1  935   5.457   4.710   1.013
   12SOL    HW2  936   5.476   4.786   1.156
   13SOL     OW  937   4.569   5.902   1.769
   13SOL    HW1  938   4.545   5.805   1.761
   13SOL    HW2  939   4.567   5.929   1.865
   14SOL     OW  940   4.642   5.904   1.005
   14SOL    HW1  941   4.669   5.989   1.051
   14SOL    HW2  942   4.681   5.902   0.913
   15SOL     OW  943   0.347   0.144   6.625
   15SOL    HW1  944   0.254   0.129   6.591
   15SOL    HW2  945   0.368   0.241   6.625
   16SOL     OW  946   1.692   5.211   5.508
   16SOL    HW1  947   1.627   5.180   5.578
   16SOL    HW2  948   1.643   5.228   5.422
   17SOL     OW  949   0.256   2.246   4.200
   17SOL    HW1  950   0.203   2.331   4.196
   17SOL    HW2  951   0.237   2.191   4.119
   18SOL     OW  952   2.396   6.990   5.243
   18SOL    HW1  953   2.347   6.909   5.211
   18SOL    HW2  954   2.494   6.971   5.248
   19SOL     OW  955   4.228   5.758   3.287
   19SOL    HW1  956   4.269   5.666   3.286
   19SOL    HW2  957   4.191   5.777   3.377
   20SOL     OW  958   0.177   1.588   4.540
   20SOL    HW1  959   0.167   1.677   4.496
   20SOL    HW2  960   0.101   1.572   4.603
   21SOL     OW  961   1.981   3.286   2.073
   21SOL    HW1  962   1.894   3.237   2.071
   21SOL    HW2  963   2.017   3.287   2.167
   22SOL     OW  964   0.534   0.574   0.214
   22SOL    HW1  965   0.596   0.576   0.292
   22SOL    HW2  966   0.448   0.619   0.239
   23SOL     OW  967   0.492   5.505   0.521
   23SOL    HW1  968   0.502   5.487   0.619
   23SOL    HW2  969   0.419   5.449   0.484
   24SOL     OW  970   4.332   0.727   6.680
   24SOL    HW1  971   4.252   0.787   6.687
   24SOL    HW2  972   4.383   0.749   6.597
   25SOL     OW  973   2.306   0.522   5.598
   25SOL    HW1  974   2.386   0.468   5.573
   25SOL    HW2  975   2.295   0.522   5.698
   26SOL     OW  976   2.432   6.461   5.332
   26SOL    HW1  977   2.335   6.437   5.335
   26SOL    HW2  978   2.460   6.499   5.420
   27SOL     OW  979   0.191   0.148   2.212
   27SOL    HW1  980   0.154   0.241   2.208
   27SOL    HW2  981   0.234   0.133   2.301
   28SOL     OW  982   2.162   0.535   5.253
   28SOL    HW1  983   2.121   0.456   5.298
   28SOL    HW2  984   2.112   0.618   5.279
   29SOL     OW  985   5.205   0.397   1.974
   29SOL    HW1  986   5.115   0.438   1.962
   29SOL    HW2  987   5.196   0.303   2.006
   30SOL     OW  988   4.787   6.693   4.664
   30SOL    HW1  989   4.836   6.633   4.600
   30SOL    HW2  990   4.834   6.692   4.752
   31SOL     OW  991   5.732   3.646   4.562
   31SOL    HW1  992   5.809   3.618   4.620
   31SOL    HW2  993   5.756   3.630   4.466
   32SOL     OW  994   3.519   1.733   1.415
   32SOL    HW1  995   3.455   1.692   1.350
   32SOL    HW2  996   3.611   1.732   1.375
   33SOL     OW  997   1.827   4.979   5.217
   33SOL    HW1  998   1.885   4.942   5.290
   33SOL    HW2  999   1.810   5.076   5.235
   34SOL     OW 1000   2.511   0.363   5.448
   34SOL    HW1 1001   2.470   0.272   5.451
   34SOL    HW2 1002   2.610   0.356   5.457
   35SOL     OW 1003   1.173   3.515   4.408
   35SOL    HW1 1004   1.142   3.431   4.363
   35SOL    HW2 1005   1.259   3.545   4.366
   36SOL     OW 1006   5.676   0.900   4.702
   36SOL    HW1 1007   5.577   0.916   4.696
   36SOL    HW2 1008   5.719   0.931   4.617
   37SOL     OW 1009   1.216   5.986   3.675
   37SOL    HW1 1010   1.117   5.980   3.680
   37SOL    HW2 1011   1.257   5.899   3.706
   38SOL     OW 1012   0.639   3.392   1.945
   38SOL    HW1 1013   0.595   3.482   1.941
   38SOL    HW2 1014   0.689   3.376   1.860
   39SOL     OW 1015   6.102   5.818   1.127
   39SOL    HW1 1016   6.117   5.719   1.123
   39SOL    HW2 1017   6.133   5.860   1.042
   40SOL     OW 1018   4.215   0.691   5.797
   40SOL    HW1 1019   4.148   0.739   5.739
   40SOL    HW2 1020   4.186   0.596   5.809
   41SOL     OW 1021   0.398   3.717   1.140
   41SOL    HW1 1022   0.488   3.676   1.154
   41SOL    HW2 1023   0.359   3.743   1.229
   42SOL     OW 1024   2.580   3.674   0.971
   42SOL    HW1 1025   2.507   3.699   1.034
   42SOL    HW2 1026   2.665   3.663   1.022
   43SOL     OW 1027   4.992   0.602   3.526
   43SOL    HW1 1028   4.981   0.503   3.511
   43SOL    HW2 1029   4.902   0.646   3.525
   44SOL     OW 1030   6.865   1.166   6.844
   44SOL    HW1 1031   6.876   1.265   6.837
   44SOL    HW2 1032   6.909   1.133   6.928
   45SOL     OW 1033   2.117   3.649   5.247
   45SOL    HW1 1034   2.058   3.726   5.221
   45SOL    HW2 1035   2.212   3.673   5.231
   46SOL     OW 1036   0.923   5.453   4.286
   46SOL    HW1 1037   0.869   5.536   4.299
   46SOL    HW2 1038   0.875   5.375   4.328
   47SOL     OW 1039   0.345   3.961   5.989
   47SOL    HW1 1040   0.375   4.052   5.959
   47SOL    HW2 1041   0.257   3.940   5.946
   48SOL     OW 1042   0.503   4.197   0.355
   48SOL    HW1 1043   0.574   4.227   0.419
   48SOL    HW2 1044   0.413   4.221   0.391
   49SOL     OW 1045   3.861   0.437   0.339
   49SOL    HW1 1046   3.768   0.414   0.367
   49SOL    HW2 1047   3.915   0.354   0.333
   50SOL     OW 1048   4.707   1.845   5.648
   50SOL    HW1 1049   4.758   1.862   5.732
   50SOL    HW2 1050   4.700   1.929   5.595
   51SOL     OW 1051   0.624   6.653   2.077
   51SOL    HW1 1052   0.563   6.699   2.012
   51SOL    HW2 1053   0.717   6.687   2.065
   52SOL     OW 1054   4.978   3.059   2.745
   52SOL    HW1 1055   4.992   3.092   2.652
   52SOL    HW2 1056   5.058   3.005   2.773
   53SOL     OW 1057   4.141   6.679   1.282
   53SOL    HW1 1058   4.210   6.740   1.322
   53SOL    HW2 1059   4.054   6.692   1.329
   54SOL     OW 1060   0.877   1.187   6.223
   54SOL    HW1 1061   0.969   1.190   6.263
   54SOL    HW2 1062   0.841   1.094   6.230
   55SOL     OW 1063   2.507   3.711   6.413
   55SOL    HW1 1064   2.513   3.613   6.436
   55SOL    HW2 1065   2.546   3.727   6.323
   56SOL     OW 1066   2.281   2.187   0.009
   56SOL    HW1 1067   2.381   2.176   0.010
   56SOL    HW2 1068   2.255   2.253   0.079
   57SOL     OW 1069   4.336   5.992   1.598
   57SOL    HW1 1070   4.331   5.960   1.503
   57SOL    HW2 1071   4.408   5.941   1.645
   58SOL     OW 1072   0.713   0.721   0.045
   58SOL    HW1 1073   0.717   0.820   0.058
   58SOL    HW2 1074   0.679   0.678   0.129
   59SOL     OW 1075   4.235   3.665   0.012
   59SOL    HW1 1076   4.177   3.741   0.041
   59SOL    HW2 1077   4.220   3.647   6.939
   60SOL     OW 1078   6.387   2.662   1.825
   60SOL    HW1 1079   6.313   2.630   1.766
   60SOL    HW2 1080   6.378   2.621   1.916
   61SOL     OW 1081   1.241   4.796   2.639
   61SOL    HW1 1082   1.330   4.776   2.598
   61SOL    HW2 1083   1.247   4.882   2.690
   62SOL     OW 1084   4.910   3.635   2.978
   62SOL    HW1 1085   4.909   3.595   2.886
   62SOL    HW2 1086   4.953   3.571   3.042
   63SOL     OW 1087   4.375   0.188   5.967
   63SOL    HW1 1088   4.356   0.193   5.869
   63SOL    HW2 1089   4.454   0.130   5.983
   64SOL     OW 1090   2.277   1.828   6.772
   64SOL    HW1 1091   2.212   1.903   6.777
   64SOL    HW2 1092   2.331   1.836   6.688
   65SOL     OW 1093   0.692   5.248   4.935
   65SOL    HW1 1094   0.762   5.234   5.006
   65SOL    HW2 1095   0.703   5.339   4.895
   66SOL     OW 1096   4.411   1.809   1.350
   66SOL    HW1 1097   4.438   1.833   1.257
   66SOL    HW2 1098   4.387   1.712   1.355
   67SOL     OW 1099   0.080   3.085   2.849
   67SOL    HW1 1100   0.035   3.148   2.912
   67SOL    HW2 1101   0.159   3.130   2.808
   68SOL     OW 1102   0.022   1.045   6.029
   68SOL    HW1 1103   7.019   1.001   5.943
   68SOL    HW2 1104   0.070   0.979   6.086
   69SOL     OW 1105   1.742   1.196   5.793
   69SOL    HW1 1106   1.832   1.237   5.811
   69SOL    HW2 1107   1.671   1.264   5.808
   70SOL     OW 1108   4.831   5.165   3.124
   70SOL    HW1 1109   4.912   5.109   3.145
   70SOL    HW2 1110   4.792   5.200   3.209
   71SOL     OW 1111   5.195   1.272   5.526
   71SOL    HW1 1112   5.137   1.228   5.457
   71SOL    HW2 1113   5.263   1.329   5.481
   72SOL     OW 1114   6.824   1.895   2.800
   72SOL    HW1 1115   6.906   1.892   2.857
   72SOL    HW2 1116   6.818   1.983   2.753
   73SOL     OW 1117   2.558   1.120   0.675
   73SOL    HW1 1118   2.638   1.087   0.725
   73SOL    HW2 1119   2.498   1.042   0.654
   74SOL     OW 1120   2.606   0.905   0.264
   74SOL    HW1 1121   2.532   0.864   0.212
   74SOL    HW2 1122   2.578   0.996   0.296
   75SOL     OW 1123   2.868   3.347   1.115
   75SOL    HW1 1124   2.840   3.328   1.021
   75SOL    HW2 1125   2.816   3.424   1.150
   76SOL     OW 1126   2.433   5.114   6.304
   76SOL    HW1 1127   2.519   5.083   6.264
   76SOL    HW2 1128   2.442   5.116   6.404
   77SOL     OW 1129   0.585   4.844   5.373
   77SOL    HW1 1130   0.654   4.779   5.403
   77SOL    HW2 1131   0.591   4.855   5.274
   78SOL     OW 1132   4.910   1.320   0.876
   78SOL    HW1 1133   4.956   1.404   0.907
   78SOL    HW2 1134   4.917   1.314   0.776
   79SOL     OW 1135   2.215   4.677   4.275
   79SOL    HW1 1136   2.254   4.716   4.192
   79SOL    HW2 1137   2.226   4.578   4.273
   80SOL     OW 1138   4.250   1.988   5.270
   80SOL    HW1 1139   4.205   1.899   5.273
   80SOL    HW2 1140   4.271   2.012   5.175
   81SOL     OW 1141   2.408   4.543   2.883
   81SOL    HW1 1142   2.421   4.476   2.956
   81SOL    HW2 1143   2.480   4.533   2.815
   82SOL     OW 1144   2.647   0.237   1.346
   82SOL    HW1 1145   2.680   0.269   1.257
   82SOL    HW2 1146   2.687   0.147   1.366
   83SOL     OW 1147   6.101   1.981   3.621
   83SOL    HW1 1148   6.129   1.975   3.525
   83SOL    HW2 1149   6.171   2.029   3.674
   84SOL     OW 1150   5.225   2.055   2.630
   84SOL    HW1 1151   5.203   2.124   2.561
   84SOL    HW2 1152   5.140   2.025   2.675
   85SOL     OW 1153   2.032   5.417   2.889
   85SOL    HW1 1154   2.033   5.320   2.867
   85SOL    HW2 1155   2.112   5.441   2.944
   86SOL     OW 1156   4.398   1.405   5.970
   86SOL    HW1 1157   4.427   1.325   6.022
   86SOL    HW2 1158   4.422   1.393   5.873
   87SOL     OW 1159   2.789   2.222   6.649
   87SOL    HW1 1160   2.719   2.222   6.577
   87SOL    HW2 1161   2.820   2.128   6.664
   88SOL     OW 1162   1.563   1.785   0.272
   88SOL    HW1 1163   1.566   1.691   0.237
   88SOL    HW2 1164   1.641   1.801   0.332
   89SOL     OW 1165   3.860   3.873   6.087
   89SOL    HW1 1166   3.779   3.925   6.060
   89SOL    HW2 1167   3.934   3.936   6.111
   90SOL     OW 1168   0.008   4.088   1.725
   90SOL    HW1 1169   0.078   4.029   1.684
   90SOL    HW2 1170   7.019   4.061   1.821
   91SOL     OW 1171   5.360   4.888   0.666
   91SOL    HW1 1172   5.271   4.901   0.709
   91SOL    HW2 1173   5.411   4.974   0.667
   92SOL     OW 1174   6.739   6.480   6.780
   92SOL    HW1 1175   6.792   6.551   6.826
   92SOL    HW2 1176   6.712   6.512   6.689
   93SOL     OW 1177   2.861   3.377   2.051
   93SOL    HW1 1178   2.838   3.280   2.043
   93SOL    HW2 1179   2.862   3.419   1.960
   94SOL     OW 1180   3.752   1.274   4.139
   94SOL    HW1 1181   3.675   1.285   4.077
   94SOL    HW2 1182   3.796   1.186   4.122
   95SOL     OW 1183   0.696   6.431   4.400
   95SOL    HW1 1184   0.695   6.341   4.444
   95SOL    HW2 1185   0.700   6.419   4.301
   96SOL     OW 1186   0.443   6.641   0.429
   96SOL    HW1 1187   0.495   6.556   0.441
   96SOL    HW2 1188   0.448   6.696   0.513
   97SOL     OW 1189   3.823   5.174   4.357
   97SOL    HW1 1190   3.847   5.088   4.403
   97SOL    HW2 1191   3.789   5.239   4.425
   98SOL     OW 1192   6.627   1.921   4.816
   98SOL    HW1 1193   6.678   1.884   4.738
   98SOL    HW2 1194   6.577   2.003   4.788
   99SOL     OW 1195   4.978   4.650   4.839
   99SOL    HW1 1196   5.029   4.626   4.756
   99SOL    HW2 1197   5.002   4.585   4.912
  100SOL     OW 1198   2.127   1.918   5.312
  100SOL    HW1 1199   2.063   1.994   5.313
  100SOL    HW2 1200   2.191   1.928   5.236
  101SOL     OW 1201   4.969   2.775   2.387
  101SOL    HW1 1202   4.954   2.766   2.486
  101SOL    HW2 1203   4.906   2.845   2.351
  102SOL     OW 1204   4.873   6.791   0.765
  102SOL    HW1 1205   4.929   6.811   0.845
  102SOL    HW2 1206   4.930   6.753   0.692
  103SOL     OW 1207   2.394   2.151   0.879
  103SOL    HW1 1208   2.429   2.061   0.905
  103SOL    HW2 1209   2.451   2.222   0.919
  104SOL     OW 1210   0.936   3.724   1.806
  104SOL    HW1 1211   0.923   3.635   1.761
  104SOL    HW2 1212   0.913   3.797   1.742
  105SOL     OW 1213   0.371   1.824   4.270
  105SOL    HW1 1214   0.287   1.800   4.319
  105SOL    HW2 1215   0.429   1.880   4.329
  106SOL     OW 1216   5.410   3.504   1.187
  106SOL    HW1 1217   5.389   3.406   1.191
  106SOL    HW2 1218   5.367   3.550   1.265
  107SOL     OW 1219   4.425   0.286   2.740
  107SOL    HW1 1220   4.476   0.362   2.780
  107SOL    HW2 1221   4.487   0.209   2.724
  108SOL     OW 1222   3.731   1.179   5.020
  108SOL    HW1 1223   3.679   1.144   4.943
  108SOL    HW2 1224   3.668   1.210   5.092
  109SOL     OW 1225   1.939   1.577   4.527
  109SOL    HW1 1226   1.990   1.565   4.442
  109SOL    HW2 1227   1.910   1.488   4.562
  110SOL     OW 1228   4.031   5.037   5.340
  110SOL    HW1 1229   4.034   5.077   5.249
  110SOL    HW2 1230   4.104   5.076   5.396
  111SOL     OW 1231   0.107   3.382   0.542
  111SOL    HW1 1232   0.111   3.287   0.574
  111SOL    HW2 1233   0.127   3.444   0.619
  112SOL     OW 1234   3.348   6.309   4.749
  112SOL    HW1 1235   3.366   6.380   4.681
  112SOL    HW2 1236   3.310   6.228   4.703
  113SOL     OW 1237   1.533   4.875   2.312
  113SOL    HW1 1238   1.525   4.959   2.366
  113SOL    HW2 1239   1.619   4.875   2.262
  114SOL     OW 1240   6.617   2.277   2.018
  114SOL    HW1 1241   6.562   2.303   1.939
  114SOL    HW2 1242   6.640   2.180   2.012
  115SOL     OW 1243   4.277   0.819   3.306
  115SOL    HW1 1244   4.223   0.765   3.370
  115SOL    HW2 1245   4.360   0.770   3.282
  116SOL     OW 1246   6.243   5.613   6.615
  116SOL    HW1 1247   6.180   5.680   6.653
  116SOL    HW2 1248   6.274   5.551   6.687
  117SOL     OW 1249   2.102   1.599   0.402
  117SOL    HW1 1250   2.114   1.698   0.414
  117SOL    HW2 1251   2.022   1.569   0.454
  118SOL     OW 1252   0.974   3.174   1.622
  118SOL    HW1 1253   0.994   3.154   1.718
  118SOL    HW2 1254   0.957   3.088   1.574
  119SOL     OW 1255   5.426   5.212   4.506
  119SOL    HW1 1256   5.502   5.154   4.535
  119SOL    HW2 1257   5.458   5.306   4.496
  120SOL     OW 1258   4.610   1.452   4.219
  120SOL    HW1 1259   4.563   1.522   4.165
  120SOL    HW2 1260   4.581   1.361   4.188
  121SOL     OW 1261   6.793   4.997   5.452
  121SOL    HW1 1262   6.789   4.959   5.544
  121SOL    HW2 1263   6.885   5.035   5.436
  122SOL     OW 1264   0.035   5.504   5.524
  122SOL    HW1 1265   0.118   5.515   5.469
  122SOL    HW2 1266   6.985   5.474   5.464
  123SOL     OW 1267   0.875   2.110   1.037
  123SOL    HW1 1268   0.956   2.168   1.041
  123SOL    HW2 1269   0.903   2.015   1.022
  124SOL     OW 1270   2.021   3.736   6.714
  124SOL    HW1 1271   2.004   3.811   6.650
  124SOL    HW2 1272   1.984   3.760   6.804
  125SOL     OW 1273   3.952   3.465   1.963
  125SOL    HW1 1274   3.892   3.393   1.929
  125SOL    HW2 1275   4.035   3.468   1.907
  126SOL     OW 1276   3.867   3.365   5.254
  126SOL    HW1 1277   3.833   3.452   5.291
  126SOL    HW2 1278   3.822   3.289   5.301
  127SOL     OW 1279   0.380   4.309   6.154
  127SOL    HW1 1280   0.372   4.309   6.055
  127SOL    HW2 1281   0.476   4.296   6.180
  128SOL     OW 1282   5.105   4.483   6.471
  128SOL    HW1 1283   5.024   4.517   6.518
  128SOL    HW2 1284   5.078   4.414   6.404
  129SOL     OW 1285   0.942   5.373   2.558
  129SOL    HW1 1286   0.951   5.382   2.459
  129SOL    HW2 1287   0.906   5.458   2.597
  130SOL     OW 1288   6.392   4.036   4.892
  130SOL    HW1 1289   6.411   4.027   4.990
  130SOL    HW2 1290   6.444   3.966   4.842
  131SOL     OW 1291   0.294   3.048   1.974
  131SOL    HW1 1292   0.339   3.014   2.057
  131SOL    HW2 1293   0.200   3.015   1.971
  132SOL     OW 1294   3.702   3.831   1.772
  132SOL    HW1 1295   3.774   3.899   1.756
  132SOL    HW2 1296   3.613   3.877   1.776
  133SOL     OW 1297   4.434   4.246   5.867
  133SOL    HW1 1298   4.402   4.205   5.953
  133SOL    HW2 1299   4.527   4.279   5.878
  134SOL     OW 1300   0.389   2.076   6.786
  134SOL    HW1 1301   0.299   2.091   6.827
  134SOL    HW2 1302   0.418   1.982   6.803
  135SOL     OW 1303   4.314   5.059   3.844
  135SOL    HW1 1304   4.363   5.134   3.800
  135SOL    HW2 1305   4.330   4.974   3.793
  136SOL     OW 1306   3.349   6.008   6.335
  136SOL    HW1 1307   3.401   5.924   6.324
  136SOL    HW2 1308   3.262   5.987   6.380
  137SOL     OW 1309   1.917   4.460   6.773
  137SOL    HW1 1310   1.885   4.552   6.794
  137SOL    HW2 1311   1.874   4.394   6.834
  138SOL     OW 1312   0.299   6.739   1.621
  138SOL    HW1 1313   0.235   6.662   1.617
  138SOL    HW2 1314   0.388   6.706   1.651
  139SOL     OW 1315   1.445   0.058   1.044
  139SOL    HW1 1316   1.384   0.019   0.975
  139SOL    HW2 1317   1.528   0.004   1.050
  140SOL     OW 1318   2.947   0.162   3.228
  140SOL    HW1 1319   2.990   0.090   3.283
  140SOL    HW2 1320   2.975   0.151   3.132
  141SOL     OW 1321   2.420   1.950   0.292
  141SOL    HW1 1322   2.355   1.930   0.219
  141SOL    HW2 1323   2.404   2.043   0.327
  142SOL     OW 1324   1.624   4.625   5.861
  142SOL    HW1 1325   1.555   4.679   5.909
  142SOL    HW2 1326   1.584   4.585   5.779
  143SOL     OW 1327   4.780   6.221   2.235
  143SOL    HW1 1328   4.809   6.258   2.147
  143SOL    HW2 1329   4.852   6.235   2.303
  144SOL     OW 1330   2.447   4.927   3.048
  144SOL    HW1 1331   2.528   4.869   3.044
  144SOL    HW2 1332   2.398   4.922   2.960
  145SOL     OW 1333   6.374   6.197   2.277
  145SOL    HW1 1334   6.338   6.257   2.349
  145SOL    HW2 1335   6.411   6.114   2.319
  146SOL     OW 1336   6.484   1.454   4.374
  146SOL    HW1 1337   6.538   1.374   4.349
  146SOL    HW2 1338   6.411   1.428   4.436
  147SOL     OW 1339   5.843   6.497   5.661
  147SOL    HW1 1340   5.830   6.512   5.759
  147SOL    HW2 1341   5.934   6.527   5.635
  148SOL     OW 1342   1.883   0.182   3.630
  148SOL    HW1 1343   1.802   0.239   3.617
  148SOL    HW2 1344   1.859   0.104   3.688
  149SOL     OW 1345   1.903   2.095   5.114
  149SOL    HW1 1346   1.916   2.141   5.026
  149SOL    HW2 1347   1.965   2.134   5.182
  150SOL     OW 1348   5.217   3.118   4.818
  150SOL    HW1 1349   5.128   3.072   4.815
  150SOL    HW2 1350   5.245   3.141   4.724
  151SOL     OW 1351   6.083   2.936   1.733
  151SOL    HW1 1352   6.162   2.994   1.750
  151SOL    HW2 1353   6.017   2.987   1.677
  152SOL     OW 1354   6.021   1.539   0.163
  152SOL    HW1 1355   6.121   1.539   0.165
  152SOL    HW2 1356   5.986   1.501   0.248
  153SOL     OW 1357   1.901   1.920   4.118
  153SOL    HW1 1358   1.970   1.892   4.052
  153SOL    HW2 1359   1.833   1.978   4.073
  154SOL     OW 1360   0.075   2.338   3.696
  154SOL    HW1 1361   0.009   2.299   3.759
  154SOL    HW2 1362   0.129   2.265   3.653
  155SOL     OW 1363   6.085   5.126   3.531
  155SOL    HW1 1364   6.170   5.165   3.495
  155SOL    HW2 1365   6.023   5.200   3.557
  156SOL     OW 1366   4.624   6.958   1.201
  156SOL    HW1 1367   4.635   0.028   1.170
  156SOL    HW2 1368   4.583   6.903   1.128
  157SOL     OW 1369   5.708   1.060   0.751
  157SOL    HW1 1370   5.661   1.036   0.666
  157SOL    HW2 1371   5.667   1.142   0.789
  158SOL     OW 1372   1.115   2.447   5.745
  158SOL    HW1 1373   1.063   2.455   5.661
  158SOL    HW2 1374   1.091   2.523   5.806
  159SOL     OW 1375   0.263   5.076   6.523
  159SOL    HW1 1376   0.208   5.040   6.598
  159SOL    HW2 1377   0.313   5.002   6.478
  160SOL     OW 1378   4.432   6.798   1.915
  160SOL    HW1 1379   4.450   6.700   1.926
  160SOL    HW2 1380   4.407   6.816   1.820
  161SOL     OW 1381   5.757   6.649   1.279
  161SOL    HW1 1382   5.671   6.658   1.229
  161SOL    HW2 1383   5.754   6.567   1.336
  162SOL     OW 1384   4.033   6.885   5.444
  162SOL    HW1 1385   4.097   6.809   5.439
  162SOL    HW2 1386   4.040   6.940   5.360
  163SOL     OW 1387   1.551   3.809   3.104
  163SOL    HW1 1388   1.535   3.865   3.185
  163SOL    HW2 1389   1.518   3.716   3.121
  164SOL     OW 1390   1.599   2.832   1.886
  164SOL    HW1 1391   1.633   2.745   1.921
  164SOL    HW2 1392   1.675   2.896   1.877
  165SOL     OW 1393   0.392   5.891   4.985
  165SOL    HW1 1394   0.319   5.871   4.920
  165SOL    HW2 1395   0.454   5.959   4.946
  166SOL     OW 1396   0.552   5.292   3.836
  166SOL    HW1 1397   0.615   5.355   3.790
  166SOL    HW2 1398   0.530   5.216   3.774
  167SOL     OW 1399   0.049   1.500   3.382
  167SOL    HW1 1400   0.081   1.456   3.465
  167SOL    HW2 1401   0.079   1.447   3.302
  168SOL     OW 1402   3.388   3.963   4.709
  168SOL    HW1 1403   3.340   3.945   4.795
  168SOL    HW2 1404   3.338   3.922   4.633
  169SOL     OW 1405   4.949   2.963   5.771
  169SOL    HW1 1406   4.970   3.060   5.761
  169SOL    HW2 1407   4.876   2.952   5.838
  170SOL     OW 1408   5.876   5.246   2.840
  170SOL    HW1 1409   5.898   5.160   2.795
  170SOL    HW2 1410   5.886   5.322   2.776
  171SOL     OW 1411   3.601   2.876   0.802
  171SOL    HW1 1412   3.569   2.832   0.886
  171SOL    HW2 1413   3.523   2.897   0.744
  172SOL     OW 1414   2.105   0.815   0.049
  172SOL    HW1 1415   2.069   0.900   0.008
  172SOL    HW2 1416   2.029   0.763   0.088
  173SOL     OW 1417   5.458   0.730   4.889
  173SOL    HW1 1418   5.488   0.668   4.817
  173SOL    HW2 1419   5.412   0.809   4.848
  174SOL     OW 1420   6.434   5.119   3.879
  174SOL    HW1 1421   6.394   5.037   3.839
  174SOL    HW2 1422   6.360   5.178   3.912
  175SOL     OW 1423   0.317   5.250   2.190
  175SOL    HW1 1424   0.310   5.237   2.091
  175SOL    HW2 1425   0.403   5.297   2.211
  176SOL     OW 1426   5.920   3.841   0.733
  176SOL    HW1 1427   5.838   3.821   0.787
  176SOL    HW2 1428   5.958   3.756   0.697
  177SOL     OW 1429   5.516   2.276   3.757
  177SOL    HW1 1430   5.500   2.292   3.660
  177SOL    HW2 1431   5.524   2.178   3.774
  178SOL     OW 1432   1.140   5.649   4.664
  178SOL    HW1 1433   1.083   5.576   4.627
  178SOL    HW2 1434   1.234   5.617   4.673
  179SOL     OW 1435   3.062   4.099   1.947
  179SOL    HW1 1436   3.070   4.156   1.865
  179SOL    HW2 1437   3.149   4.097   1.996
  180SOL     OW 1438   5.313   0.530   5.797
  180SOL    HW1 1439   5.328   0.603   5.863
  180SOL    HW2 1440   5.249   0.560   5.727
  181SOL     OW 1441   3.322   5.905   5.430
  181SOL    HW1 1442   3.289   5.989   5.387
  181SOL    HW2 1443   3.259   5.830   5.407
  182SOL     OW 1444   3.276   2.675   5.287
  182SOL    HW1 1445   3.203   2.744   5.293
  182SOL    HW2 1446   3.244   2.598   5.232
  183SOL     OW 1447   1.861   0.764   2.498
  183SOL    HW1 1448   1.808   0.690   2.540
  183SOL    HW2 1449   1.957   0.754   2.523
  184SOL     OW 1450   5.350   6.462   3.954
  184SOL    HW1 1451   5.434   6.475   3.903
  184SOL    HW2 1452   5.322   6.548   3.996
  185SOL     OW 1453   0.779   5.882   5.134
  185SOL    HW1 1454   0.706   5.936   5.177
  185SOL    HW2 1455   0.741   5.798   5.098
  186SOL     OW 1456   3.537   5.063   0.747
  186SOL    HW1 1457   3.617   5.122   0.762
  186SOL    HW2 1458   3.563   4.967   0.760
  187SOL     OW 1459   4.197   5.379   0.427
  187SOL    HW1 1460   4.134   5.375   0.349
  187SOL    HW2 1461   4.290   5.364   0.396
  188SOL     OW 1462   1.328   4.387   3.633
  188SOL    HW1 1463   1.330   4.448   3.554
  188SOL    HW2 1464   1.409   4.328   3.633
  189SOL     OW 1465   6.367   3.796   5.976
  189SOL    HW1 1466   6.397   3.873   5.919
  189SOL    HW2 1467   6.391   3.814   6.072
  190SOL     OW 1468   6.192   6.441   6.928
  190SOL    HW1 1469   6.112   6.435   6.867
  190SOL    HW2 1470   6.189   6.366   6.994
  191SOL     OW 1471   1.845   3.797   6.222
  191SOL    HW1 1472   1.902   3.860   6.275
  191SOL    HW2 1473   1.837   3.829   6.128
  192SOL     OW 1474   0.951   6.573   0.431
  192SOL    HW1 1475   0.998   6.660   0.451
  192SOL    HW2 1476   0.877   6.559   0.498
  193SOL     OW 1477   2.847   6.848   1.916
  193SOL    HW1 1478   2.932   6.858   1.866
  193SOL    HW2 1479   2.806   6.938   1.931
  194SOL     OW 1480   4.121   6.614   3.586
  194SOL    HW1 1481   4.087   6.520   3.595
  194SOL    HW2 1482   4.116   6.642   3.490
  195SOL     OW 1483   3.377   1.097   1.469
  195SOL    HW1 1484   3.359   1.087   1.567
  195SOL    HW2 1485   3.418   1.186   1.452
  196SOL     OW 1486   3.814   2.940   1.667
  196SOL    HW1 1487   3.726   2.986   1.677
  196SOL    HW2 1488   3.853   2.961   1.578
  197SOL     OW 1489   1.027   6.945   1.152
  197SOL    HW1 1490   0.984   6.952   1.242
  197SOL    HW2 1491   0.962   6.974   1.081
  198SOL     OW 1492   6.360   0.572   5.231
  198SOL    HW1 1493   6.350   0.660   5.278
  198SOL    HW2 1494   6.423   0.514   5.283
  199SOL     OW 1495   1.495   0.826   2.823
  199SOL    HW1 1496   1.532   0.877   2.746
  199SOL    HW2 1497   1.549   0.744   2.838
  200SOL     OW 1498   1.572   3.467   3.530
  200SOL    HW1 1499   1.635   3.526   3.480
  200SOL    HW2 1500   1.618   3.430   3.611
  201SOL     OW 1501   5.243   1.061   6.616
  201SOL    HW1 1502   5.296   1.141   6.587
  201SOL    HW2 1503   5.304   0.992   6.655
  202SOL     OW 1504   4.050   0.707   2.642
  202SOL    HW1 1505   4.098   0.794   2.648
  202SOL    HW2 1506   4.090   0.652   2.569
  203SOL     OW 1507   6.138   2.913   0.873
  203SOL    HW1 1508   6.129   2.817   0.898
  203SOL    HW2 1509   6.134   2.922   0.773
  204SOL     OW 1510   2.304   6.018   0.918
  204SOL    HW1 1511   2.305   6.021   1.018
  204SOL    HW2 1512   2.295   5.924   0.887
  205SOL     OW 1513   5.259   0.696   0.899
  205SOL    HW1 1514   5.185   0.741   0.950
  205SOL    HW2 1515   5.230   0.605   0.871
  206SOL     OW 1516   0.274   5.805   1.715
  206SOL    HW1 1517   0.360   5.805   1.663
  206SOL    HW2 1518   0.293   5.821   1.812
  207SOL     OW 1519   6.520   2.777   6.317
  207SOL    HW1 1520   6.435   2.785   6.368
  207SOL    HW2 1521   6.501   2.740   6.226
  208SOL     OW 1522   5.066   3.252   1.308
  208SOL    HW1 1523   5.092   3.156   1.317
  208SOL    HW2 1524   5.021   3.282   1.392
  209SOL     OW 1525   6.375   0.464   4.085
  209SOL    HW1 1526   6.442   0.477   4.011
  209SOL    HW2 1527   6.319   0.547   4.094
  210SOL     OW 1528   5.227   2.654   6.630
  210SOL    HW1 1529   5.276   2.739   6.611
  210SOL    HW2 1530   5.247   2.587   6.559
  211SOL     OW 1531   0.015   4.799   2.147
  211SOL    HW1 1532   0.035   4.734   2.074
  211SOL    HW2 1533   0.076   4.878   2.140
  212SOL     OW 1534   0.869   5.219   5.128
  212SOL    HW1 1535   0.956   5.268   5.132
  212SOL    HW2 1536   0.814   5.243   5.209
  213SOL     OW 1537   4.516   2.335   1.172
  213SOL    HW1 1538   4.526   2.406   1.241
  213SOL    HW2 1539   4.593   2.271   1.177
  214SOL     OW 1540   7.012   5.542   3.813
  214SOL    HW1 1541   6.963   5.572   3.895
  214SOL    HW2 1542   0.085   5.540   3.832
  215SOL     OW 1543   3.874   3.220   3.236
  215SOL    HW1 1544   3.916   3.205   3.146
  215SOL    HW2 1545   3.803   3.289   3.228
  216SOL     OW 1546   3.994   6.628   4.747
  216SOL    HW1 1547   3.981   6.722   4.715
  216SOL    HW2 1548   4.010   6.628   4.846
  217SOL     OW 1549   6.279   2.001   4.855
  217SOL    HW1 1550   6.237   1.910   4.860
  217SOL    HW2 1551   6.259   2.043   4.767
  218SOL     OW 1552   2.357   4.864   5.669
  218SOL    HW1 1553   2.438   4.815   5.638
  218SOL    HW2 1554   2.355   4.956   5.629
  219SOL     OW 1555   3.592   7.008   6.778
  219SOL    HW1 1556   3.578   0.005   6.875
  219SOL    HW2 1557   3.581   6.910   6.763
  220SOL     OW 1558   1.036   4.971   0.098
  220SOL    HW1 1559   1.128   4.956   0.133
  220SOL    HW2 1560   1.040   5.020   0.012
  221SOL     OW 1561   6.348   4.591   4.297
  221SOL    HW1 1562   6.304   4.573   4.209
  221SOL    HW2 1563   6.295   4.659   4.348
  222SOL     OW 1564   1.210   0.344   4.365
  222SOL    HW1 1565   1.190   0.278   4.293
  222SOL    HW2 1566   1.201   0.300   4.454
  223SOL     OW 1567   5.856   5.670   1.693
  223SOL    HW1 1568   5.786   5.707   1.632
  223SOL    HW2 1569   5.822   5.666   1.786
  224SOL     OW 1570   5.431   4.285   2.410
  224SOL    HW1 1571   5.475   4.196   2.400
  224SOL    HW2 1572   5.369   4.282   2.489
  225SOL     OW 1573   4.407   6.423   1.360
  225SOL    HW1 1574   4.330   6.478   1.328
  225SOL    HW2 1575   4.386   6.386   1.451
  226SOL     OW 1576   1.740   5.264   2.709
  226SOL    HW1 1577   1.651   5.308   2.693
  226SOL    HW2 1578   1.812   5.332   2.698
  227SOL     OW 1579   0.914   3.582   3.089
  227SOL    HW1 1580   0.871   3.590   3.179
  227SOL    HW2 1581   0.845   3.558   3.021
  228SOL     OW 1582   3.561   5.264   3.136
  228SOL    HW1 1583   3.493   5.208   3.088
  228SOL    HW2 1584   3.634   5.289   3.072
  229SOL     OW 1585   5.642   6.298   2.313
  229SOL    HW1 1586   5.698   6.297   2.397
  229SOL    HW2 1587   5.637   6.205   2.276
  230SOL     OW 1588   1.067   4.755   4.916
  230SOL    HW1 1589   1.075   4.656   4.925
  230SOL    HW2 1590   1.069   4.781   4.819
  231SOL     OW 1591   0.166   2.102   6.932
  231SOL    HW1 1592   0.124   2.016   6.905
  231SOL    HW2 1593   0.099   2.158   6.982
  232SOL     OW 1594   1.799   3.254   0.280
  232SOL    HW1 1595   1.761   3.262   0.372
  232SOL    HW2 1596   1.886   3.304   0.275
  233SOL     OW 1597   3.727   0.192   0.885
  233SOL    HW1 1598   3.664   0.115   0.888
  233SOL    HW2 1599   3.750   0.212   0.789
  234SOL     OW 1600   1.567   5.359   0.568
  234SOL    HW1 1601   1.660   5.331   0.544
  234SOL    HW2 1602   1.517   5.382   0.484
  235SOL     OW 1603   4.560   2.790   5.792
  235SOL    HW1 1604   4.466   2.758   5.805
  235SOL    HW2 1605   4.559   2.881   5.750
  236SOL     OW 1606   6.963   0.084   6.716
  236SOL    HW1 1607   6.864   0.100   6.715
  236SOL    HW2 1608   6.997   0.090   6.810
  237SOL     OW 1609   5.957   0.784   2.596
  237SOL    HW1 1610   5.899   0.715   2.554
  237SOL    HW2 1611   5.900   0.850   2.646
  238SOL     OW 1612   0.252   2.178   3.356
  238SOL    HW1 1613   0.333   2.191   3.414
  238SOL    HW2 1614   0.259   2.090   3.309
  239SOL     OW 1615   6.299   4.630   6.473
  239SOL    HW1 1616   6.335   4.538   6.486
  239SOL    HW2 1617   6.234   4.651   6.546
  240SOL     OW 1618   0.323   2.579   4.493
  240SOL    HW1 1619   0.266   2.501   4.518
  240SOL    HW2 1620   0.378   2.607   4.572
  241SOL     OW 1621   6.140   2.612   4.499
  241SOL    HW1 1622   6.128   2.706   4.466
  241SOL    HW2 1623   6.083   2.598   4.580
  242SOL     OW 1624   2.466   2.508   3.297
  242SOL    HW1 1625   2.528   2.459   3.234
  242SOL    HW2 1626   2.402   2.443   3.337
  243SOL     OW 1627   5.084   1.296   6.364
  243SOL    HW1 1628   5.084   1.374   6.427
  243SOL    HW2 1629   5.059   1.213   6.413
  244SOL     OW 1630   1.655   0.782   5.545
  244SOL    HW1 1631   1.619   0.846   5.477
  244SOL    HW2 1632   1.682   0.831   5.627
  245SOL     OW 1633   5.287   2.050   4.450
  245SOL    HW1 1634   5.345   2.015   4.377
  245SOL    HW2 1635   5.226   1.977   4.481
  246SOL     OW 1636   5.209   3.819   4.589
  246SOL    HW1 1637   5.174   3.912   4.584
  246SOL    HW2 1638   5.185   3.769   4.506
  247SOL     OW 1639   1.785   0.399   2.749
  247SOL    HW1 1640   1.733   0.319   2.720
  247SOL    HW2 1641   1.879   0.392   2.715
  248SOL     OW 1642   6.673   2.568   3.166
  248SOL    HW1 1643   6.649   2.473   3.184
  248SOL    HW2 1644   6.610   2.606   3.098
  249SOL     OW 1645   1.848   6.386   4.632
  249SOL    HW1 1646   1.758   6.429   4.625
  249SOL    HW2 1647   1.839   6.287   4.619
  250SOL     OW 1648   5.946   2.361   6.950
  250SOL    HW1 1649   5.967   2.264   6.964
  250SOL    HW2 1650   5.906   2.399   0.009
  251SOL     OW 1651   2.353   0.253   2.701
  251SOL    HW1 1652   2.448   0.279   2.683
  251SOL    HW2 1653   2.294   0.289   2.628
  252SOL     OW 1654   6.803   3.229   6.922
  252SOL    HW1 1655   6.837   3.265   7.009
  252SOL    HW2 1656   6.739   3.294   6.882
  253SOL     OW 1657   1.987   4.836   5.431
  253SOL    HW1 1658   1.899   4.790   5.439
  253SOL    HW2 1659   2.042   4.816   5.512
  254SOL     OW 1660   4.978   3.313   6.906
  254SOL    HW1 1661   4.900   3.288   6.963
  254SOL    HW2 1662   5.056   3.253   6.927
  255SOL     OW 1663   4.223   2.265   1.935
  255SOL    HW1 1664   4.169   2.203   1.877
  255SOL    HW2 1665   4.268   2.334   1.877
  256SOL     OW 1666   0.514   6.331   0.959
  256SOL    HW1 1667   0.596   6.312   1.013
  256SOL    HW2 1668   0.469   6.246   0.935
  257SOL     OW 1669   2.889   6.017   6.500
  257SOL    HW1 1670   2.830   5.973   6.433
  257SOL    HW2 1671   2.888   5.964   6.585
  258SOL     OW 1672   5.058   5.306   4.117
  258SOL    HW1 1673   5.097   5.299   4.209
  258SOL    HW2 1674   5.103   5.381   4.068
  259SOL     OW 1675   6.712   1.138   1.713
  259SOL    HW1 1676   6.731   1.042   1.736
  259SOL    HW2 1677   6.653   1.141   1.632
  260SOL     OW 1678   6.230   7.000   6.064
  260SOL    HW1 1679   6.149   0.029   6.089
  260SOL    HW2 1680   6.289   6.990   6.145
  261SOL     OW 1681   0.033   0.965   3.089
  261SOL    HW1 1682   0.033   0.912   3.173
  261SOL    HW2 1683   6.970   0.953   3.041
  262SOL     OW 1684   2.067   5.603   0.857
  262SOL    HW1 1685   2.099   5.691   0.891
  262SOL    HW2 1686   2.069   5.536   0.931
  263SOL     OW 1687   1.283   4.789   5.114
  263SOL    HW1 1688   1.277   4.868   5.175
  263SOL    HW2 1689   1.204   4.789   5.052
  264SOL     OW 1690   4.172   3.862   0.608
  264SOL    HW1 1691   4.112   3.786   0.584
  264SOL    HW2 1692   4.255   3.858   0.551
  265SOL     OW 1693   3.851   5.852   4.119
  265SOL    HW1 1694   3.789   5.773   4.120
  265SOL    HW2 1695   3.946   5.819   4.118
  266SOL     OW 1696   4.788   3.542   0.114
  266SOL    HW1 1697   4.776   3.585   0.204
  266SOL    HW2 1698   4.744   3.598   0.044
  267SOL     OW 1699   2.675   2.264   6.389
  267SOL    HW1 1700   2.735   2.190   6.360
  267SOL    HW2 1701   2.671   2.334   6.318
  268SOL     OW 1702   1.509   4.031   2.599
  268SOL    HW1 1703   1.524   4.062   2.505
  268SOL    HW2 1704   1.497   4.110   2.659
  269SOL     OW 1705   2.759   1.634   5.533
  269SOL    HW1 1706   2.813   1.635   5.617
  269SOL    HW2 1707   2.793   1.562   5.472
  270SOL     OW 1708   5.577   5.344   4.751
  270SOL    HW1 1709   5.531   5.333   4.663
  270SOL    HW2 1710   5.657   5.284   4.754
  271SOL     OW 1711   2.646   0.386   0.109
  271SOL    HW1 1712   2.687   0.387   0.200
  271SOL    HW2 1713   2.607   0.476   0.090
  272SOL     OW 1714   5.888   4.451   6.837
  272SOL    HW1 1715   5.925   4.444   6.745
  272SOL    HW2 1716   5.790   4.469   6.832
  273SOL     OW 1717   0.535   5.665   3.917
  273SOL    HW1 1718   0.533   5.717   3.832
  273SOL    HW2 1719   0.622   5.616   3.925
  274SOL     OW 1720   5.170   3.168   2.200
  274SOL    HW1 1721   5.082   3.197   2.162
  274SOL    HW2 1722   5.242   3.229   2.168
  275SOL     OW 1723   5.859   5.042   5.839
  275SOL    HW1 1724   5.858   5.097   5.755
  275SOL    HW2 1725   5.768   5.006   5.857
  276SOL     OW 1726   0.731   0.341   4.526
  276SOL    HW1 1727   0.791   0.265   4.501
  276SOL    HW2 1728   0.783   0.427   4.521
  277SOL     OW 1729   4.142   3.257   5.710
  277SOL    HW1 1730   4.098   3.344   5.688
  277SOL    HW2 1731   4.198   3.267   5.792
  278SOL     OW 1732   5.948   5.004   1.963
  278SOL    HW1 1733   5.907   4.961   2.044
  278SOL    HW2 1734   5.985   5.094   1.989
  279SOL     OW 1735   6.485   3.327   4.153
  279SOL    HW1 1736   6.562   3.349   4.213
  279SOL    HW2 1737   6.510   3.251   4.094
  280SOL     OW 1738   4.519   1.374   2.466
  280SOL    HW1 1739   4.479   1.418   2.385
  280SOL    HW2 1740   4.569   1.292   2.439
  281SOL     OW 1741   4.944   5.597   5.858
  281SOL    HW1 1742   4.860   5.642   5.888
  281SOL    HW2 1743   4.949   5.599   5.758
  282SOL     OW 1744   0.646   1.750   0.317
  282SOL    HW1 1745   0.710   1.815   0.275
  282SOL    HW2 1746   0.697   1.683   0.370
  283SOL     OW 1747   6.288   4.084   2.085
  283SOL    HW1 1748   6.190   4.073   2.066
  283SOL    HW2 1749   6.302   4.089   2.184
  284SOL     OW 1750   5.962   6.940   2.901
  284SOL    HW1 1751   5.882   6.899   2.856
  284SOL    HW2 1752   6.019   6.986   2.833
  285SOL     OW 1753   5.027   5.834   6.070
  285SOL    HW1 1754   4.948   5.773   6.063
  285SOL    HW2 1755   5.043   5.857   6.166
  286SOL     OW 1756   3.591   5.744   5.354
  286SOL    HW1 1757   3.550   5.703   5.435
  286SOL    HW2 1758   3.672   5.691   5.327
  287SOL     OW 1759   4.406   6.524   0.927
  287SOL    HW1 1760   4.484   6.468   0.902
  287SOL    HW2 1761   4.328   6.466   0.950
  288SOL     OW 1762   3.859   0.825   0.404
  288SOL    HW1 1763   3.793   0.874   0.462
  288SOL    HW2 1764   3.918   0.769   0.462
  289SOL     OW 1765   5.445   5.215   5.139
  289SOL    HW1 1766   5.411   5.216   5.045
  289SOL    HW2 1767   5.438   5.307   5.178
  290SOL     OW 1768   2.736   1.186   4.693
  290SOL    HW1 1769   2.663   1.174   4.760
  290SOL    HW2 1770   2.825   1.190   4.740
  291SOL     OW 1771   6.127   1.134   4.808
  291SOL    HW1 1772   6.053   1.106   4.747
  291SOL    HW2 1773   6.214   1.136   4.758
  292SOL     OW 1774   2.170   0.614   3.833
  292SOL    HW1 1775   2.173   0.651   3.740
  292SOL    HW2 1776   2.253   0.640   3.882
  293SOL     OW 1777   5.634   0.730   3.298
  293SOL    HW1 1778   5.634   0.666   3.222
  293SOL    HW2 1779   5.599   0.686   3.380
  294SOL     OW 1780   6.879   0.764   6.583
  294SOL    HW1 1781   6.853   0.668   6.571
  294SOL    HW2 1782   6.813   0.822   6.536
  295SOL     OW 1783   0.575   0.936   5.007
  295SOL    HW1 1784   0.661   0.886   5.022
  295SOL    HW2 1785   0.546   0.978   5.093
  296SOL     OW 1786   0.105   1.567   6.957
  296SOL    HW1 1787   0.110   1.521   0.021
  296SOL    HW2 1788   0.194   1.566   6.913
  297SOL     OW 1789   5.222   4.342   3.272
  297SOL    HW1 1790   5.256   4.435   3.260
  297SOL    HW2 1791   5.122   4.344   3.280
  298SOL     OW 1792   4.203   6.288   5.629
  298SOL    HW1 1793   4.223   6.278   5.532
  298SOL    HW2 1794   4.125   6.349   5.641
  299SOL     OW 1795   6.958   1.250   6.172
  299SOL    HW1 1796   6.970   1.340   6.130
  299SOL    HW2 1797   6.997   1.180   6.112
  300SOL     OW 1798   4.168   6.529   4.367
  300SOL    HW1 1799   4.084   6.478   4.386
  300SOL    HW2 1800   4.156   6.582   4.283
  301SOL     OW 1801   6.545   6.723   5.418
  301SOL    HW1 1802   6.527   6.819   5.439
  301SOL    HW2 1803   6.581   6.677   5.499
  302SOL     OW 1804   0.877   6.775   2.048
  302SOL    HW1 1805   0.903   6.843   2.117
  302SOL    HW2 1806   0.943   6.700   2.049
  303SOL     OW 1807   4.561   5.484   2.843
  303SOL    HW1 1808   4.486   5.456   2.782
  303SOL    HW2 1809   4.524   5.540   2.917
  304SOL     OW 1810   1.177   1.528   5.145
  304SOL    HW1 1811   1.256   1.525   5.083
  304SOL    HW2 1812   1.160   1.436   5.180
  305SOL     OW 1813   3.017   1.557   0.926
  305SOL    HW1 1814   3.114   1.579   0.937
  305SOL    HW2 1815   2.968   1.574   1.012
  306SOL     OW 1816   0.491   6.588   2.808
  306SOL    HW1 1817   0.453   6.669   2.853
  306SOL    HW2 1818   0.558   6.545   2.867
  307SOL     OW 1819   3.986   3.179   4.656
  307SOL    HW1 1820   4.029   3.267   4.674
  307SOL    HW2 1821   3.974   3.167   4.558
  308SOL     OW 1822   6.389   3.161   0.688
  308SOL    HW1 1823   6.421   3.167   0.783
  308SOL    HW2 1824   6.434   3.084   0.643
  309SOL     OW 1825   1.909   5.183   0.226
  309SOL    HW1 1826   1.910   5.279   0.196
  309SOL    HW2 1827   1.927   5.124   0.147
  310SOL     OW 1828   4.800   6.266   5.599
  310SOL    HW1 1829   4.840   6.330   5.533
  310SOL    HW2 1830   4.775   6.181   5.552
  311SOL     OW 1831   1.704   6.318   2.002
  311SOL    HW1 1832   1.671   6.245   2.062
  311SOL    HW2 1833   1.642   6.396   2.008
  312SOL     OW 1834   3.680   0.362   4.388
  312SOL    HW1 1835   3.737   0.431   4.344
  312SOL    HW2 1836   3.695   0.363   4.487
  313SOL     OW 1837   3.481   2.960   3.699
  313SOL    HW1 1838   3.384   2.980   3.686
  313SOL    HW2 1839   3.515   2.909   3.620
  314SOL     OW 1840   2.238   4.324   6.356
  314SOL    HW1 1841   2.164   4.391   6.358
  314SOL    HW2 1842   2.262   4.298   6.449
  315SOL     OW 1843   5.931   6.804   4.519
  315SOL    HW1 1844   5.885   6.743   4.454
  315SOL    HW2 1845   5.864   6.867   4.559
  316SOL     OW 1846   3.923   1.147   4.708
  316SOL    HW1 1847   3.918   1.240   4.745
  316SOL    HW2 1848   3.909   1.081   4.783
  317SOL     OW 1849   0.514   0.830   2.209
  317SOL    HW1 1850   0.431   0.861   2.164
  317SOL    HW2 1851   0.490   0.783   2.295
  318SOL     OW 1852   1.074   1.646   4.090
  318SOL    HW1 1853   1.132   1.717   4.130
  318SOL    HW2 1854   0.983   1.683   4.071
  319SOL     OW 1855   0.365   2.004   2.106
  319SOL    HW1 1856   0.319   1.922   2.141
  319SOL    HW2 1857   0.339   2.083   2.162
  320SOL     OW 1858   5.017   1.035   6.466
  320SOL    HW1 1859   4.968   0.957   6.503
  320SOL    HW2 1860   5.106   1.043   6.511
  321SOL     OW 1861   4.543   3.171   0.878
  321SOL    HW1 1862   4.526   3.124   0.791
  321SOL    HW2 1863   4.543   3.104   0.952
  322SOL     OW 1864   3.212   2.208   0.317
  322SOL    HW1 1865   3.152   2.145   0.267
  322SOL    HW2 1866   3.204   2.300   0.278
  323SOL     OW 1867   0.356   4.202   1.658
  323SOL    HW1 1868   0.421   4.179   1.731
  323SOL    HW2 1869   0.306   4.285   1.683
  324SOL     OW 1870   6.731   0.331   3.571
  324SOL    HW1 1871   6.681   0.405   3.525
  324SOL    HW2 1872   6.772   0.271   3.502
  325SOL     OW 1873   6.561   3.009   0.548
  325SOL    HW1 1874   6.592   2.952   0.624
  325SOL    HW2 1875   6.591   2.967   0.462
  326SOL     OW 1876   6.080   5.918   6.103
  326SOL    HW1 1877   5.999   5.894   6.050
  326SOL    HW2 1878   6.151   5.849   6.088
  327SOL     OW 1879   4.051   6.014   6.548
  327SOL    HW1 1880   4.016   5.921   6.532
  327SOL    HW2 1881   3.973   6.077   6.556
  328SOL     OW 1882   2.400   4.536   3.496
  328SOL    HW1 1883   2.379   4.455   3.442
  328SOL    HW2 1884   2.494   4.565   3.476
  329SOL     OW 1885   3.144   3.028   2.737
  329SOL    HW1 1886   3.150   2.946   2.680
  329SOL    HW2 1887   3.236   3.060   2.758
  330SOL     OW 1888   1.804   3.645   6.606
  330SOL    HW1 1889   1.760   3.735   6.600
  330SOL    HW2 1890   1.898   3.655   6.640
  331SOL     OW 1891   4.820   5.633   4.064
  331SOL    HW1 1892   4.920   5.629   4.058
  331SOL    HW2 1893   4.782   5.544   4.039
  332SOL     OW 1894   5.960   2.261   2.917
  332SOL    HW1 1895   5.954   2.333   2.986
  332SOL    HW2 1896   5.925   2.296   2.830
  333SOL     OW 1897   2.851   5.922   3.903
  333SOL    HW1 1898   2.786   5.998   3.906
  333SOL    HW2 1899   2.898   5.915   3.991
  334SOL     OW 1900   3.703   3.425   3.875
  334SOL    HW1 1901   3.657   3.349   3.829
  334SOL    HW2 1902   3.747   3.483   3.807
  335SOL     OW 1903   4.221   1.327   7.019
  335SOL    HW1 1904   4.206   1.324   0.094
  335SOL    HW2 1905   4.194   1.417   6.985
  336SOL     OW 1906   3.826   1.847   4.654
  336SOL    HW1 1907   3.808   1.942   4.680
  336SOL    HW2 1908   3.790   1.830   4.562
  337SOL     OW 1909   1.140   1.769   5.289
  337SOL    HW1 1910   1.115   1.679   5.253
  337SOL    HW2 1911   1.153   1.832   5.213
  338SOL     OW 1912   5.292   1.479   1.631
  338SOL    HW1 1913   5.374   1.433   1.663
  338SOL    HW2 1914   5.290   1.573   1.667
  339SOL     OW 1915   3.234   4.862   5.663
  339SOL    HW1 1916   3.331   4.866   5.641
  339SOL    HW2 1917   3.207   4.947   5.710
  340SOL     OW 1918   5.406   4.421   4.981
  340SOL    HW1 1919   5.461   4.486   5.035
  340SOL    HW2 1920   5.324   4.397   5.032
  341SOL     OW 1921   5.943   0.400   1.658
  341SOL    HW1 1922   5.965   0.427   1.564
  341SOL    HW2 1923   5.990   0.315   1.680
  342SOL     OW 1924   4.884   0.606   1.237
  342SOL    HW1 1925   4.851   0.539   1.304
  342SOL    HW2 1926   4.888   0.696   1.280
  343SOL     OW 1927   5.629   0.548   1.859
  343SOL    HW1 1928   5.692   0.605   1.807
  343SOL    HW2 1929   5.542   0.595   1.870
  344SOL     OW 1930   6.332   3.086   1.707
  344SOL    HW1 1931   6.396   3.010   1.702
  344SOL    HW2 1932   6.345   3.145   1.628
  345SOL     OW 1933   0.120   3.403   3.797
  345SOL    HW1 1934   0.118   3.318   3.743
  345SOL    HW2 1935   0.030   3.446   3.795
  346SOL     OW 1936   0.332   0.473   3.504
  346SOL    HW1 1937   0.262   0.415   3.547
  346SOL    HW2 1938   0.409   0.416   3.476
  347SOL     OW 1939   2.053   4.235   1.453
  347SOL    HW1 1940   2.139   4.277   1.483
  347SOL    HW2 1941   1.979   4.261   1.515
  348SOL     OW 1942   5.945   4.885   1.005
  348SOL    HW1 1943   5.894   4.964   1.039
  348SOL    HW2 1944   5.882   4.824   0.957
  349SOL     OW 1945   6.340   5.248   6.639
  349SOL    HW1 1946   6.360   5.165   6.691
  349SOL    HW2 1947   6.340   5.327   6.701
  350SOL     OW 1948   2.810   0.436   0.716
  350SOL    HW1 1949   2.712   0.454   0.721
  350SOL    HW2 1950   2.840   0.389   0.799
  351SOL     OW 1951   4.178   3.950   0.924
  351SOL    HW1 1952   4.184   3.904   1.013
  351SOL    HW2 1953   4.195   3.884   0.851
  352SOL     OW 1954   3.909   0.995   2.490
  352SOL    HW1 1955   3.982   1.006   2.558
  352SOL    HW2 1956   3.856   0.913   2.512
  353SOL     OW 1957   2.640   6.208   0.478
  353SOL    HW1 1958   2.610   6.242   0.389
  353SOL    HW2 1959   2.605   6.267   0.550
  354SOL     OW 1960   2.260   2.489   0.771
  354SOL    HW1 1961   2.353   2.461   0.745
  354SOL    HW2 1962   2.208   2.510   0.689
  355SOL     OW 1963   0.001   2.339   2.516
  355SOL    HW1 1964   6.993   2.343   2.421
  355SOL    HW2 1965   6.969   2.276   2.568
  356SOL     OW 1966   2.813   6.923   6.028
  356SOL    HW1 1967   2.796   7.020   6.049
  356SOL    HW2 1968   2.874   6.884   6.097
  357SOL     OW 1969   6.235   6.177   4.561
  357SOL    HW1 1970   6.217   6.275   4.566
  357SOL    HW2 1971   6.204   6.132   4.645
  358SOL     OW 1972   3.370   5.910   6.815
  358SOL    HW1 1973   3.365   5.976   6.890
  358SOL    HW2 1974   3.442   5.939   6.751
  359SOL     OW 1975   2.013   2.376   0.904
  359SOL    HW1 1976   2.065   2.381   0.819
  359SOL    HW2 1977   1.977   2.467   0.927
  360SOL     OW 1978   1.761   4.652   2.768
  360SOL    HW1 1979   1.664   4.629   2.772
  360SOL    HW2 1980   1.812   4.578   2.726
  361SOL     OW 1981   6.117   2.936   2.316
  361SOL    HW1 1982   6.050   2.949   2.243
  361SOL    HW2 1983   6.188   3.006   2.309
  362SOL     OW 1984   4.144   3.554   2.811
  362SOL    HW1 1985   4.124   3.472   2.757
  362SOL    HW2 1986   4.151   3.530   2.907
  363SOL     OW 1987   4.587   5.540   1.420
  363SOL    HW1 1988   4.633   5.481   1.354
  363SOL    HW2 1989   4.575   5.631   1.381
  364SOL     OW 1990   1.156   0.791   6.987
  364SOL    HW1 1991   1.199   0.754   6.905
  364SOL    HW2 1992   1.150   0.720   0.033
  365SOL     OW 1993   5.009   0.474   3.858
  365SOL    HW1 1994   5.092   0.456   3.806
  365SOL    HW2 1995   4.931   0.431   3.813
  366SOL     OW 1996   5.597   1.120   6.914
  366SOL    HW1 1997   5.646   1.199   6.951
  366SOL    HW2 1998   5.628   1.037   6.961
  367SOL     OW 1999   6.441   6.671   0.055
  367SOL    HW1 2000   6.431   6.609   7.001
  367SOL    HW2 2001   6.375   6.745   0.048
  368SOL     OW 2002   2.747   1.246   5.528
  368SOL    HW1 2003   2.824   1.243   5.592
  368SOL    HW2 2004   2.778   1.278   5.439
  369SOL     OW 2005   4.948   3.631   6.866
  369SOL    HW1 2006   4.979   3.538   6.887
  369SOL    HW2 2007   4.886   3.628   6.787
  370SOL     OW 2008   1.689   2.091   3.990
  370SOL    HW1 2009   1.727   2.138   3.910
  370SOL    HW2 2010   1.592   2.072   3.975
  371SOL     OW 2011   2.703   4.938   0.780
  371SOL    HW1 2012   2.758   5.019   0.756
  371SOL    HW2 2013   2.608   4.965   0.795
  372SOL     OW 2014   2.673   5.933   5.864
  372SOL    HW1 2015   2.712   5.876   5.936
  372SOL    HW2 2016   2.728   6.016   5.852
  373SOL     OW 2017   5.272   4.259   2.997
  373SOL    HW1 2018   5.289   4.306   3.083
  373SOL    HW2 2019   5.318   4.171   2.996
  374SOL     OW 2020   1.997   2.558   2.293
  374SOL    HW1 2021   2.026   2.488   2.227
  374SOL    HW2 2022   2.007   2.649   2.251
  375SOL     OW 2023   0.108   4.826   4.260
  375SOL    HW1 2024   0.122   4.897   4.330
  375SOL    HW2 2025   0.116   4.867   4.169
  376SOL     OW 2026   4.727   0.254   3.461
  376SOL    HW1 2027   4.760   0.159   3.463
  376SOL    HW2 2028   4.677   0.269   3.376
  377SOL     OW 2029   2.594   3.266   6.282
  377SOL    HW1 2030   2.530   3.204   6.237
  377SOL    HW2 2031   2.560   3.290   6.373
  378SOL     OW 2032   4.226   1.026   1.362
  378SOL    HW1 2033   4.161   1.006   1.288
  378SOL    HW2 2034   4.196   0.981   1.446
  379SOL     OW 2035   3.206   3.661   0.659
  379SOL    HW1 2036   3.217   3.584   0.722
  379SOL    HW2 2037   3.154   3.630   0.579
  380SOL     OW 2038   5.176   1.387   6.750
  380SOL    HW1 2039   5.213   1.433   6.669
  380SOL    HW2 2040   5.087   1.348   6.728
  381SOL     OW 2041   0.295   3.327   1.882
  381SOL    HW1 2042   0.210   3.351   1.928
  381SOL    HW2 2043   0.326   3.238   1.915
  382SOL     OW 2044   6.313   0.000   0.862
  382SOL    HW1 2045   6.314   6.999   0.959
  382SOL    HW2 2046   6.397   0.049   0.839
  383SOL     OW 2047   5.381   3.234   1.216
  383SOL    HW1 2048   5.412   3.158   1.159
  383SOL    HW2 2049   5.416   3.223   1.309
  384SOL     OW 2050   1.225   2.877   4.439
  384SOL    HW1 2051   1.316   2.872   4.480
  384SOL    HW2 2052   1.200   2.788   4.401
  385SOL     OW 2053   4.799   2.997   0.033
  385SOL    HW1 2054   4.795   2.983   6.958
  385SOL    HW2 2055   4.816   3.094   0.052
  386SOL     OW 2056   3.218   6.188   5.356
  386SOL    HW1 2057   3.145   6.125   5.331
  386SOL    HW2 2058   3.188   6.282   5.341
  387SOL     OW 2059   1.569   6.433   3.434
  387SOL    HW1 2060   1.664   6.411   3.414
  387SOL    HW2 2061   1.528   6.358   3.486
  388SOL     OW 2062   1.475   5.477   5.617
  388SOL    HW1 2063   1.484   5.415   5.694
  388SOL    HW2 2064   1.562   5.523   5.601
  389SOL     OW 2065   3.995   2.206   6.711
  389SOL    HW1 2066   4.052   2.155   6.775
  389SOL    HW2 2067   3.909   2.232   6.756
  390SOL     OW 2068   3.148   1.571   3.768
  390SOL    HW1 2069   3.142   1.493   3.829
  390SOL    HW2 2070   3.167   1.654   3.820
  391SOL     OW 2071   0.660   1.020   0.611
  391SOL    HW1 2072   0.611   1.050   0.530
  391SOL    HW2 2073   0.726   0.949   0.586
  392SOL     OW 2074   4.161   5.409   4.185
  392SOL    HW1 2075   4.171   5.399   4.284
  392SOL    HW2 2076   4.065   5.423   4.163
  393SOL     OW 2077   5.736   2.864   5.733
  393SOL    HW1 2078   5.733   2.771   5.770
  393SOL    HW2 2079   5.644   2.891   5.705
  394SOL     OW 2080   2.237   1.227   6.844
  394SOL    HW1 2081   2.242   1.324   6.819
  394SOL    HW2 2082   2.261   1.216   6.940
  395SOL     OW 2083   0.125   3.023   0.889
  395SOL    HW1 2084   0.046   2.963   0.874
  395SOL    HW2 2085   0.140   3.079   0.808
  396SOL     OW 2086   3.985   2.747   5.665
  396SOL    HW1 2087   3.998   2.648   5.662
  396SOL    HW2 2088   3.979   2.783   5.572
  397SOL     OW 2089   4.745   6.878   6.665
  397SOL    HW1 2090   4.737   6.962   6.717
  397SOL    HW2 2091   4.827   6.828   6.694
  398SOL     OW 2092   5.994   4.151   2.308
  398SOL    HW1 2093   5.899   4.168   2.335
  398SOL    HW2 2094   6.011   4.190   2.218
  399SOL     OW 2095   2.497   6.104   1.556
  399SOL    HW1 2096   2.586   6.082   1.516
  399SOL    HW2 2097   2.508   6.119   1.654
  400SOL     OW 2098   2.132   4.738   5.645
  400SOL    HW1 2099   2.210   4.791   5.678
  400SOL    HW2 2100   2.062   4.733   5.716
  401SOL     OW 2101   6.083   1.269   1.431
  401SOL    HW1 2102   6.173   1.242   1.463
  401SOL    HW2 2103   6.056   1.355   1.474
  402SOL     OW 2104   0.402   5.645   0.919
  402SOL    HW1 2105   0.337   5.698   0.865
  402SOL    HW2 2106   0.352   5.579   0.977
  403SOL     OW 2107   5.529   4.350   0.457
  403SOL    HW1 2108   5.516   4.301   0.371
  403SOL    HW2 2109   5.446   4.343   0.512
  404SOL     OW 2110   6.802   5.844   4.575
  404SOL    HW1 2111   6.734   5.846   4.502
  404SOL    HW2 2112   6.894   5.836   4.536
  405SOL     OW 2113   1.178   1.401   1.529
  405SOL    HW1 2114   1.183   1.453   1.614
  405SOL    HW2 2115   1.238   1.444   1.461
  406SOL     OW 2116   1.171   3.548   3.743
  406SOL    HW1 2117   1.224   3.587   3.668
  406SOL    HW2 2118   1.087   3.600   3.755
  407SOL     OW 2119   3.202   2.097   4.042
  407SOL    HW1 2120   3.159   2.123   3.956
  407SOL    HW2 2121   3.151   2.138   4.118
  408SOL     OW 2122   2.129   0.063   3.648
  408SOL    HW1 2123   2.042   0.111   3.641
  408SOL    HW2 2124   2.177   0.066   3.560
  409SOL     OW 2125   0.184   4.971   4.496
  409SOL    HW1 2126   0.106   4.944   4.554
  409SOL    HW2 2127   0.252   4.897   4.496
  410SOL     OW 2128   2.555   6.527   6.187
  410SOL    HW1 2129   2.560   6.549   6.284
  410SOL    HW2 2130   2.547   6.611   6.134
  411SOL     OW 2131   0.683   4.407   5.371
  411SOL    HW1 2132   0.723   4.319   5.398
  411SOL    HW2 2133   0.605   4.427   5.431
  412SOL     OW 2134   3.590   6.362   3.046
  412SOL    HW1 2135   3.647   6.413   2.982
  412SOL    HW2 2136   3.546   6.287   2.997
  413SOL     OW 2137   2.340   0.081   1.658
  413SOL    HW1 2138   2.412   0.069   1.589
  413SOL    HW2 2139   2.251   0.067   1.615
  414SOL     OW 2140   4.712   4.428   0.661
  414SOL    HW1 2141   4.639   4.497   0.659
  414SOL    HW2 2142   4.782   4.452   0.594
  415SOL     OW 2143   3.867   6.741   2.816
  415SOL    HW1 2144   3.955   6.710   2.780
  415SOL    HW2 2145   3.811   6.661   2.839
  416SOL     OW 2146   3.714   5.721   0.126
  416SOL    HW1 2147   3.728   5.785   0.201
  416SOL    HW2 2148   3.748   5.631   0.153
  417SOL     OW 2149   5.592   5.466   1.024
  417SOL    HW1 2150   5.587   5.477   0.925
  417SOL    HW2 2151   5.500   5.467   1.063
  418SOL     OW 2152   0.190   5.252   6.333
  418SOL    HW1 2153   0.223   5.346   6.348
  418SOL    HW2 2154   0.222   5.194   6.408
  419SOL     OW 2155   4.908   5.644   6.241
  419SOL    HW1 2156   4.953   5.720   6.289
  419SOL    HW2 2157   4.813   5.638   6.272
  420SOL     OW 2158   5.719   3.635   6.702
  420SOL    HW1 2159   5.724   3.734   6.690
  420SOL    HW2 2160   5.768   3.609   6.785
  421SOL     OW 2161   1.725   6.019   6.285
  421SOL    HW1 2162   1.707   6.107   6.240
  421SOL    HW2 2163   1.814   6.023   6.331
  422SOL     OW 2164   6.479   3.813   6.876
  422SOL    HW1 2165   6.562   3.853   6.838
  422SOL    HW2 2166   6.421   3.885   6.914
  423SOL     OW 2167   1.251   3.338   6.361
  423SOL    HW1 2168   1.337   3.388   6.357
  423SOL    HW2 2169   1.185   3.388   6.416
  424SOL     OW 2170   2.458   4.264   6.200
  424SOL    HW1 2171   2.452   4.164   6.199
  424SOL    HW2 2172   2.395   4.301   6.269
  425SOL     OW 2173   2.603   0.772   0.522
  425SOL    HW1 2174   2.669   0.787   0.595
  425SOL    HW2 2175   2.622   0.833   0.445
  426SOL     OW 2176   0.589   3.317   6.997
  426SOL    HW1 2177   0.589   3.224   6.961
  426SOL    HW2 2178   0.594   3.315   0.073
  427SOL     OW 2179   4.350   3.173   0.147
  427SOL    HW1 2180   4.412   3.222   0.085
  427SOL    HW2 2181   4.348   3.076   0.121
  428SOL     OW 2182   3.614   1.097   4.486
  428SOL    HW1 2183   3.666   1.175   4.452
  428SOL    HW2 2184   3.676   1.032   4.530
  429SOL     OW 2185   3.814   6.204   0.277
  429SOL    HW1 2186   3.902   6.224   0.320
  429SOL    HW2 2187   3.740   6.229   0.339
  430SOL     OW 2188   2.982   0.923   4.670
  430SOL    HW1 2189   2.993   0.907   4.768
  430SOL    HW2 2190   3.068   0.956   4.631
  431SOL     OW 2191   3.756   0.698   6.580
  431SOL    HW1 2192   3.797   0.617   6.622
  431SOL    HW2 2193   3.684   0.734   6.639
  432SOL     OW 2194   6.465   1.438   1.200
  432SOL    HW1 2195   6.430   1.519   1.248
  432SOL    HW2 2196   6.389   1.390   1.156
  433SOL     OW 2197   3.997   6.159   5.000
  433SOL    HW1 2198   3.918   6.216   4.976
  433SOL    HW2 2199   4.062   6.161   4.924
  434SOL     OW 2200   6.843   3.451   0.682
  434SOL    HW1 2201   6.771   3.381   0.680
  434SOL    HW2 2202   6.891   3.448   0.770
  435SOL     OW 2203   3.896   3.189   0.795
  435SOL    HW1 2204   3.943   3.120   0.850
  435SOL    HW2 2205   3.827   3.235   0.850
  436SOL     OW 2206   2.347   1.326   1.368
  436SOL    HW1 2207   2.257   1.307   1.410
  436SOL    HW2 2208   2.370   1.422   1.381
  437SOL     OW 2209   6.160   6.704   6.174
  437SOL    HW1 2210   6.231   6.648   6.217
  437SOL    HW2 2211   6.139   6.782   6.233
  438SOL     OW 2212   1.451   3.295   0.836
  438SOL    HW1 2213   1.419   3.326   0.926
  438SOL    HW2 2214   1.375   3.298   0.771
  439SOL     OW 2215   6.360   4.974   1.813
  439SOL    HW1 2216   6.410   4.891   1.838
  439SOL    HW2 2217   6.294   4.996   1.885
  440SOL     OW 2218   1.718   2.795   2.577
  440SOL    HW1 2219   1.733   2.720   2.512
  440SOL    HW2 2220   1.776   2.781   2.658
  441SOL     OW 2221   6.806   1.401   3.292
  441SOL    HW1 2222   6.789   1.308   3.326
  441SOL    HW2 2223   6.898   1.429   3.317
  442SOL     OW 2224   1.270   5.046   6.485
  442SOL    HW1 2225   1.211   5.048   6.404
  442SOL    HW2 2226   1.252   5.127   6.542
  443SOL     OW 2227   0.442   5.077   5.811
  443SOL    HW1 2228   0.521   5.076   5.872
  443SOL    HW2 2229   0.358   5.089   5.864
  444SOL     OW 2230   5.674   2.902   6.762
  444SOL    HW1 2231   5.584   2.895   6.806
  444SOL    HW2 2232   5.687   2.823   6.702
  445SOL     OW 2233   1.781   3.635   2.996
  445SOL    HW1 2234   1.708   3.679   3.047
  445SOL    HW2 2235   1.761   3.640   2.898
  446SOL     OW 2236   1.875   5.204   4.342
  446SOL    HW1 2237   1.818   5.251   4.410
  446SOL    HW2 2238   1.829   5.119   4.314
  447SOL     OW 2239   0.856   5.968   0.752
  447SOL    HW1 2240   0.788   5.922   0.808
  447SOL    HW2 2241   0.870   6.061   0.787
  448SOL     OW 2242   4.182   0.642   5.010
  448SOL    HW1 2243   4.196   0.622   5.107
  448SOL    HW2 2244   4.227   0.571   4.955
  449SOL     OW 2245   6.025   0.655   4.676
  449SOL    HW1 2246   6.098   0.654   4.608
  449SOL    HW2 2247   6.047   0.723   4.747
  450SOL     OW 2248   6.794   5.742   2.618
  450SOL    HW1 2249   6.817   5.745   2.521
  450SOL    HW2 2250   6.837   5.820   2.665
  451SOL     OW 2251   5.689   3.682   3.979
  451SOL    HW1 2252   5.752   3.672   4.056
  451SOL    HW2 2253   5.740   3.711   3.898
  452SOL     OW 2254   6.227   4.746   5.971
  452SOL    HW1 2255   6.257   4.718   6.062
  452SOL    HW2 2256   6.224   4.846   5.965
  453SOL     OW 2257   3.622   1.167   6.382
  453SOL    HW1 2258   3.549   1.235   6.388
  453SOL    HW2 2259   3.692   1.189   6.450
  454SOL     OW 2260   0.851   5.936   0.456
  454SOL    HW1 2261   0.883   5.945   0.551
  454SOL    HW2 2262   0.867   5.843   0.424
  455SOL     OW 2263   5.187   1.682   4.832
  455SOL    HW1 2264   5.121   1.720   4.896
  455SOL    HW2 2265   5.279   1.686   4.873
  456SOL     OW 2266   4.170   5.736   0.780
  456SOL    HW1 2267   4.205   5.773   0.694
  456SOL    HW2 2268   4.144   5.640   0.766
  457SOL     OW 2269   0.523   4.465   1.506
  457SOL    HW1 2270   0.446   4.449   1.443
  457SOL    HW2 2271   0.608   4.468   1.453
  458SOL     OW 2272   0.593   0.152   5.719
  458SOL    HW1 2273   0.536   0.082   5.764
  458SOL    HW2 2274   0.644   0.110   5.644
  459SOL     OW 2275   1.494   0.777   3.240
  459SOL    HW1 2276   1.582   0.820   3.218
  459SOL    HW2 2277   1.440   0.767   3.157
  460SOL     OW 2278   6.495   2.350   3.287
  460SOL    HW1 2279   6.457   2.442   3.282
  460SOL    HW2 2280   6.420   2.283   3.284
  461SOL     OW 2281   5.158   4.381   6.047
  461SOL    HW1 2282   5.105   4.465   6.058
  461SOL    HW2 2283   5.245   4.391   6.095
  462SOL     OW 2284   3.516   2.867   0.353
  462SOL    HW1 2285   3.530   2.769   0.344
  462SOL    HW2 2286   3.435   2.884   0.409
  463SOL     OW 2287   5.767   6.096   1.748
  463SOL    HW1 2288   5.741   6.166   1.815
  463SOL    HW2 2289   5.703   6.020   1.752
  464SOL     OW 2290   1.907   1.910   5.870
  464SOL    HW1 2291   1.931   1.860   5.787
  464SOL    HW2 2292   1.990   1.939   5.917
  465SOL     OW 2293   0.877   3.495   6.342
  465SOL    HW1 2294   0.859   3.525   6.249
  465SOL    HW2 2295   0.882   3.395   6.345
  466SOL     OW 2296   1.408   0.664   3.470
  466SOL    HW1 2297   1.440   0.687   3.378
  466SOL    HW2 2298   1.325   0.716   3.490
  467SOL     OW 2299   1.686   1.408   4.999
  467SOL    HW1 2300   1.729   1.425   4.910
  467SOL    HW2 2301   1.630   1.487   5.025
  468SOL     OW 2302   2.963   3.650   3.450
  468SOL    HW1 2303   3.037   3.706   3.487
  468SOL    HW2 2304   2.919   3.599   3.524
  469SOL     OW 2305   3.806   0.190   6.508
  469SOL    HW1 2306   3.816   0.091   6.512
  469SOL    HW2 2307   3.711   0.213   6.487
  470SOL     OW 2308   4.528   0.059   3.064
  470SOL    HW1 2309   4.620   0.097   3.070
  470SOL    HW2 2310   4.472   0.095   3.139
  471SOL     OW 2311   2.601   2.406   4.346
  471SOL    HW1 2312   2.518   2.370   4.389
  471SOL    HW2 2313   2.661   2.331   4.321
  472SOL     OW 2314   4.023   4.295   5.488
  472SOL    HW1 2315   4.097   4.362   5.486
  472SOL    HW2 2316   4.025   4.242   5.403
  473SOL     OW 2317   0.142   4.383   4.001
  473SOL    HW1 2318   0.134   4.478   4.032
  473SOL    HW2 2319   0.056   4.354   3.958
  474SOL     OW 2320   4.960   4.884   5.127
  474SOL    HW1 2321   4.907   4.957   5.169
  474SOL    HW2 2322   5.058   4.907   5.130
  475SOL     OW 2323   2.494   6.747   0.429
  475SOL    HW1 2324   2.448   6.816   0.374
  475SOL    HW2 2325   2.479   6.766   0.526
  476SOL     OW 2326   6.839   5.677   3.018
  476SOL    HW1 2327   6.781   5.714   3.091
  476SOL    HW2 2328   6.920   5.734   3.008
  477SOL     OW 2329   1.720   4.606   4.350
  477SOL    HW1 2330   1.676   4.549   4.280
  477SOL    HW2 2331   1.665   4.604   4.434
  478SOL     OW 2332   1.331   4.806   3.500
  478SOL    HW1 2333   1.366   4.809   3.594
  478SOL    HW2 2334   1.241   4.850   3.497
  479SOL     OW 2335   4.330   1.975   2.054
  479SOL    HW1 2336   4.273   2.044   2.099
  479SOL    HW2 2337   4.275   1.893   2.035
  480SOL     OW 2338   1.535   6.171   3.823
  480SOL    HW1 2339   1.561   6.080   3.792
  480SOL    HW2 2340   1.488   6.164   3.911
  481SOL     OW 2341   2.048   0.428   0.818
  481SOL    HW1 2342   2.085   0.437   0.726
  481SOL    HW2 2343   2.029   0.519   0.855
  482SOL     OW 2344   5.543   5.907   0.705
  482SOL    HW1 2345   5.617   5.856   0.661
  482SOL    HW2 2346   5.517   5.862   0.791
  483SOL     OW 2347   5.575   1.818   3.008
  483SOL    HW1 2348   5.673   1.822   3.025
  483SOL    HW2 2349   5.557   1.772   2.921
  484SOL     OW 2350   6.262   1.734   3.791
  484SOL    HW1 2351   6.324   1.779   3.856
  484SOL    HW2 2352   6.168   1.761   3.810
  485SOL     OW 2353   2.933   6.250   0.357
  485SOL    HW1 2354   2.856   6.258   0.420
  485SOL    HW2 2355   3.018   6.265   0.408
  486SOL     OW 2356   6.784   0.393   5.881
  486SOL    HW1 2357   6.716   0.340   5.932
  486SOL    HW2 2358   6.748   0.414   5.790
  487SOL     OW 2359   6.589   2.365   6.663
  487SOL    HW1 2360   6.496   2.330   6.655
  487SOL    HW2 2361   6.631   2.330   6.746
  488SOL     OW 2362   1.173   4.455   3.117
  488SOL    HW1 2363   1.214   4.445   3.026
  488SOL    HW2 2364   1.143   4.366   3.150
  489SOL     OW 2365   3.325   5.191   6.035
  489SOL    HW1 2366   3.316   5.115   6.099
  489SOL    HW2 2367   3.332   5.277   6.086
  490SOL     OW 2368   4.987   0.679   4.536
  490SOL    HW1 2369   4.914   0.684   4.604
  490SOL    HW2 2370   4.955   0.720   4.451
  491SOL     OW 2371   0.566   3.033   3.648
  491SOL    HW1 2372   0.595   3.026   3.553
  491SOL    HW2 2373   0.469   3.008   3.655
  492SOL     OW 2374   1.780   1.466   4.743
  492SOL    HW1 2375   1.845   1.517   4.800
  492SOL    HW2 2376   1.701   1.524   4.723
  493SOL     OW 2377   5.847   4.197   4.446
  493SOL    HW1 2378   5.748   4.183   4.440
  493SOL    HW2 2379   5.892   4.109   4.464
  494SOL     OW 2380   5.719   0.773   6.601
  494SOL    HW1 2381   5.786   0.768   6.527
  494SOL    HW2 2382   5.692   0.868   6.615
  495SOL     OW 2383   5.373   4.576   0.029
  495SOL    HW1 2384   5.436   4.635   0.079
  495SOL    HW2 2385   5.415   4.548   6.967
  496SOL     OW 2386   6.107   3.676   2.815
  496SOL    HW1 2387   6.060   3.645   2.897
  496SOL    HW2 2388   6.046   3.736   2.762
  497SOL     OW 2389   4.338   0.234   4.402
  497SOL    HW1 2390   4.429   0.195   4.391
  497SOL    HW2 2391   4.269   0.167   4.373
  498SOL     OW 2392   1.408   3.389   1.168
  498SOL    HW1 2393   1.356   3.474   1.174
  498SOL    HW2 2394   1.489   3.395   1.226
  499SOL     OW 2395   3.547   1.366   5.140
  499SOL    HW1 2396   3.472   1.432   5.132
  499SOL    HW2 2397   3.553   1.335   5.235
  500SOL     OW 2398   1.268   4.533   2.828
  500SOL    HW1 2399   1.223   4.622   2.827
  500SOL    HW2 2400   1.206   4.464   2.790
  501SOL     OW 2401   0.560   4.790   6.367
  501SOL    HW1 2402   0.621   4.714   6.388
  501SOL    HW2 2403   0.552   4.850   6.447
  502SOL     OW 2404   2.236   4.709   5.964
  502SOL    HW1 2405   2.239   4.797   6.010
  502SOL    HW2 2406   2.329   4.676   5.948
  503SOL     OW 2407   6.886   5.264   4.530
  503SOL    HW1 2408   6.924   5.230   4.444
  503SOL    HW2 2409   6.791   5.292   4.515
  504SOL     OW 2410   1.380   4.949   4.858
  504SOL    HW1 2411   1.435   4.951   4.941
  504SOL    HW2 2412   1.287   4.978   4.879
  505SOL     OW 2413   3.457   6.505   4.593
  505SOL    HW1 2414   3.503   6.554   4.667
  505SOL    HW2 2415   3.395   6.568   4.546
  506SOL     OW 2416   2.182   3.523   0.805
  506SOL    HW1 2417   2.154   3.430   0.781
  506SOL    HW2 2418   2.250   3.520   0.878
  507SOL     OW 2419   3.750   1.858   4.369
  507SOL    HW1 2420   3.844   1.883   4.345
  507SOL    HW2 2421   3.719   1.784   4.309
  508SOL     OW 2422   5.868   5.411   4.416
  508SOL    HW1 2423   5.862   5.391   4.319
  508SOL    HW2 2424   5.780   5.447   4.448
  509SOL     OW 2425   4.812   3.293   1.794
  509SOL    HW1 2426   4.744   3.222   1.813
  509SOL    HW2 2427   4.839   3.288   1.698
  510SOL     OW 2428   0.750   4.339   4.420
  510SOL    HW1 2429   0.785   4.428   4.390
  510SOL    HW2 2430   0.652   4.334   4.400
  511SOL     OW 2431   0.620   5.995   1.362
  511SOL    HW1 2432   0.521   6.009   1.357
  511SOL    HW2 2433   0.667   6.079   1.335
  512SOL     OW 2434   1.986   4.037   5.723
  512SOL    HW1 2435   2.076   4.003   5.748
  512SOL    HW2 2436   1.957   4.108   5.787
  513SOL     OW 2437   0.752   5.218   4.428
  513SOL    HW1 2438   0.676   5.247   4.370
  513SOL    HW2 2439   0.812   5.157   4.377
  514SOL     OW 2440   5.423   1.727   3.317
  514SOL    HW1 2441   5.437   1.776   3.231
  514SOL    HW2 2442   5.451   1.632   3.306
  515SOL     OW 2443   2.920   5.791   0.357
  515SOL    HW1 2444   2.906   5.692   0.345
  515SOL    HW2 2445   3.016   5.808   0.381
  516SOL     OW 2446   1.658   4.398   3.721
  516SOL    HW1 2447   1.725   4.350   3.777
  516SOL    HW2 2448   1.614   4.470   3.774
  517SOL     OW 2449   4.819   0.252   5.828
  517SOL    HW1 2450   4.739   0.290   5.782
  517SOL    HW2 2451   4.803   0.251   5.927
  518SOL     OW 2452   1.972   1.373   0.019
  518SOL    HW1 2453   1.964   1.357   6.945
  518SOL    HW2 2454   2.033   1.451   0.035
  519SOL     OW 2455   0.883   6.729   0.114
  519SOL    HW1 2456   0.850   6.766   0.201
  519SOL    HW2 2457   0.818   6.659   0.082
  520SOL     OW 2458   5.990   4.626   4.569
  520SOL    HW1 2459   5.939   4.544   4.594
  520SOL    HW2 2460   6.088   4.611   4.586
  521SOL     OW 2461   6.594   0.852   0.119
  521SOL    HW1 2462   6.495   0.864   0.115
  521SOL    HW2 2463   6.627   0.878   0.210
  522SOL     OW 2464   3.252   4.043   5.586
  522SOL    HW1 2465   3.199   3.967   5.548
  522SOL    HW2 2466   3.200   4.086   5.659
  523SOL     OW 2467   6.467   6.604   3.580
  523SOL    HW1 2468   6.427   6.694   3.593
  523SOL    HW2 2469   6.551   6.597   3.634
  524SOL     OW 2470   4.032   0.826   4.567
  524SOL    HW1 2471   3.935   0.812   4.591
  524SOL    HW2 2472   4.086   0.827   4.651
  525SOL     OW 2473   3.720   2.849   6.705
  525SOL    HW1 2474   3.735   2.751   6.714
  525SOL    HW2 2475   3.624   2.866   6.685
  526SOL     OW 2476   4.274   6.738   4.505
  526SOL    HW1 2477   4.219   6.660   4.477
  526SOL    HW2 2478   4.361   6.737   4.455
  527SOL     OW 2479   1.040   1.397   0.296
  527SOL    HW1 2480   1.057   1.303   0.324
  527SOL    HW2 2481   0.967   1.436   0.353
  528SOL     OW 2482   1.367   1.890   6.504
  528SOL    HW1 2483   1.332   1.984   6.514
  528SOL    HW2 2484   1.460   1.885   6.538
  529SOL     OW 2485   7.002   4.852   4.612
  529SOL    HW1 2486   6.943   4.772   4.605
  529SOL    HW2 2487   6.950   4.930   4.646
  530SOL     OW 2488   0.143   2.888   5.436
  530SOL    HW1 2489   0.153   2.796   5.473
  530SOL    HW2 2490   0.059   2.893   5.381
  531SOL     OW 2491   0.085   0.123   6.988
  531SOL    HW1 2492   0.109   0.031   7.019
  531SOL    HW2 2493   0.149   0.189   0.003
  532SOL     OW 2494   2.213   1.038   5.756
  532SOL    HW1 2495   2.234   1.131   5.787
  532SOL    HW2 2496   2.171   1.042   5.665
  533SOL     OW 2497   4.374   0.960   5.373
  533SOL    HW1 2498   4.459   0.924   5.335
  533SOL    HW2 2499   4.373   0.945   5.472
  534SOL     OW 2500   3.161   5.763   3.394
  534SOL    HW1 2501   3.138   5.844   3.340
  534SOL    HW2 2502   3.082   5.735   3.448
  535SOL     OW 2503   6.590   4.092   1.920
  535SOL    HW1 2504   6.507   4.037   1.915
  535SOL    HW2 2505   6.633   4.097   1.829
  536SOL     OW 2506   1.953   6.032   1.336
  536SOL    HW1 2507   2.008   5.988   1.407
  536SOL    HW2 2508   1.948   6.130   1.353
  537SOL     OW 2509   2.624   0.244   3.122
  537SOL    HW1 2510   2.550   0.178   3.111
  537SOL    HW2 2511   2.627   0.276   3.217
  538SOL     OW 2512   1.357   5.368   4.194
  538SOL    HW1 2513   1.452   5.363   4.163
  538SOL    HW2 2514   1.349   5.432   4.270
  539SOL     OW 2515   1.616   5.072   1.398
  539SOL    HW1 2516   1.546   5.135   1.365
  539SOL    HW2 2517   1.706   5.107   1.374
  540SOL     OW 2518   2.683   2.683   1.272
  540SOL    HW1 2519   2.720   2.590   1.279
  540SOL    HW2 2520   2.746   2.748   1.314
  541SOL     OW 2521   4.714   5.586   5.171
  541SOL    HW1 2522   4.782   5.608   5.100
  541SOL    HW2 2523   4.644   5.658   5.173
  542SOL     OW 2524   6.156   0.302   6.305
  542SOL    HW1 2525   6.192   0.354   6.382
  542SOL    HW2 2526   6.163   0.356   6.222
  543SOL     OW 2527   6.524   6.976   2.503
  543SOL    HW1 2528   6.508   7.006   2.409
  543SOL    HW2 2529   6.621   6.988   2.526
  544SOL     OW 2530   0.716   5.356   0.446
  544SOL    HW1 2531   0.784   5.376   0.517
  544SOL    HW2 2532   0.624   5.377   0.481
  545SOL     OW 2533   2.950   1.873   3.688
  545SOL    HW1 2534   2.889   1.906   3.616
  545SOL    HW2 2535   2.897   1.826   3.758
  546SOL     OW 2536   1.182   2.102   6.461
  546SOL    HW1 2537   1.178   2.161   6.542
  546SOL    HW2 2538   1.260   2.128   6.404
  547SOL     OW 2539   3.225   2.102   0.812
  547SOL    HW1 2540   3.284   2.056   0.879
  547SOL    HW2 2541   3.149   2.041   0.788
  548SOL     OW 2542   3.013   3.308   5.779
  548SOL    HW1 2543   3.025   3.247   5.856
  548SOL    HW2 2544   2.941   3.273   5.718
  549SOL     OW 2545   0.442   4.361   1.049
  549SOL    HW1 2546   0.374   4.371   0.977
  549SOL    HW2 2547   0.411   4.293   1.116
  550SOL     OW 2548   6.681   4.441   0.919
  550SOL    HW1 2549   6.741   4.387   0.859
  550SOL    HW2 2550   6.589   4.443   0.880
  551SOL     OW 2551   0.336   0.227   0.440
  551SOL    HW1 2552   0.370   0.253   0.350
  551SOL    HW2 2553   0.414   0.213   0.502
  552SOL     OW 2554   4.639   5.402   0.155
  552SOL    HW1 2555   4.595   5.426   0.068
  552SOL    HW2 2556   4.701   5.476   0.181
  553SOL     OW 2557   1.204   2.342   1.148
  553SOL    HW1 2558   1.292   2.388   1.139
  553SOL    HW2 2559   1.205   2.285   1.230
  554SOL     OW 2560   4.466   5.480   4.715
  554SOL    HW1 2561   4.558   5.496   4.752
  554SOL    HW2 2562   4.474   5.436   4.625
  555SOL     OW 2563   1.507   4.521   5.609
  555SOL    HW1 2564   1.437   4.463   5.650
  555SOL    HW2 2565   1.498   4.518   5.509
  556SOL     OW 2566   6.405   3.902   2.571
  556SOL    HW1 2567   6.421   3.958   2.652
  556SOL    HW2 2568   6.316   3.925   2.532
  557SOL     OW 2569   6.440   5.758   5.599
  557SOL    HW1 2570   6.492   5.800   5.525
  557SOL    HW2 2571   6.438   5.659   5.587
  558SOL     OW 2572   4.127   3.886   5.745
  558SOL    HW1 2573   4.129   3.833   5.660
  558SOL    HW2 2574   4.094   3.978   5.727
  559SOL     OW 2575   5.066   5.388   6.402
  559SOL    HW1 2576   5.062   5.309   6.342
  559SOL    HW2 2577   5.138   5.375   6.470
  560SOL     OW 2578   4.672   6.568   0.751
  560SOL    HW1 2579   4.585   6.615   0.763
  560SOL    HW2 2580   4.744   6.617   0.800
  561SOL     OW 2581   4.753   6.885   2.972
  561SOL    HW1 2582   4.713   6.976   2.982
  561SOL    HW2 2583   4.744   6.855   2.877
  562SOL     OW 2584   5.969   0.064   1.491
  562SOL    HW1 2585   5.886   0.039   1.542
  562SOL    HW2 2586   6.014   7.006   1.457
  563SOL     OW 2587   2.803   0.232   5.061
  563SOL    HW1 2588   2.749   0.304   5.019
  563SOL    HW2 2589   2.888   0.220   5.009
  564SOL     OW 2590   0.539   1.107   5.230
  564SOL    HW1 2591   0.629   1.130   5.193
  564SOL    HW2 2592   0.478   1.186   5.219
  565SOL     OW 2593   4.580   3.496   5.831
  565SOL    HW1 2594   4.517   3.469   5.904
  565SOL    HW2 2595   4.531   3.552   5.764
  566SOL     OW 2596   6.860   4.456   2.061
  566SOL    HW1 2597   6.925   4.428   1.991
  566SOL    HW2 2598   6.817   4.375   2.101
  567SOL     OW 2599   3.812   3.689   6.290
  567SOL    HW1 2600   3.885   3.700   6.358
  567SOL    HW2 2601   3.833   3.743   6.209
  568SOL     OW 2602   2.723   0.995   6.368
  568SOL    HW1 2603   2.690   1.063   6.433
  568SOL    HW2 2604   2.666   0.996   6.285
  569SOL     OW 2605   2.020   4.475   6.502
  569SOL    HW1 2606   1.951   4.547   6.488
  569SOL    HW2 2607   2.023   4.450   6.598
  570SOL     OW 2608   0.417   5.572   6.642
  570SOL    HW1 2609   0.413   5.620   6.555
  570SOL    HW2 2610   0.353   5.496   6.642
  571SOL     OW 2611   4.683   5.982   2.649
  571SOL    HW1 2612   4.678   5.922   2.728
  571SOL    HW2 2613   4.738   6.062   2.671
  572SOL     OW 2614   1.959   3.994   3.964
  572SOL    HW1 2615   1.973   3.935   3.885
  572SOL    HW2 2616   2.039   3.988   4.025
  573SOL     OW 2617   4.008   2.615   0.168
  573SOL    HW1 2618   4.092   2.632   0.116
  573SOL    HW2 2619   3.929   2.629   0.109
  574SOL     OW 2620   2.889   2.196   3.662
  574SOL    HW1 2621   2.888   2.100   3.633
  574SOL    HW2 2622   2.984   2.226   3.673
  575SOL     OW 2623   4.622   2.704   6.100
  575SOL    HW1 2624   4.696   2.748   6.050
  575SOL    HW2 2625   4.542   2.695   6.040
  576SOL     OW 2626   0.545   3.562   3.395
  576SOL    HW1 2627   0.556   3.657   3.369
  576SOL    HW2 2628   0.521   3.556   3.492
  577SOL     OW 2629   4.080   1.829   3.425
  577SOL    HW1 2630   4.101   1.835   3.523
  577SOL    HW2 2631   3.998   1.882   3.405
  578SOL     OW 2632   6.612   3.416   4.661
  578SOL    HW1 2633   6.517   3.436   4.636
  578SOL    HW2 2634   6.613   3.361   4.744
  579SOL     OW 2635   4.391   3.540   0.595
  579SOL    HW1 2636   4.346   3.459   0.558
  579SOL    HW2 2637   4.369   3.549   0.692
  580SOL     OW 2638   6.734   0.227   0.134
  580SOL    HW1 2639   6.689   0.145   0.098
  580SOL    HW2 2640   6.800   0.261   0.067
  581SOL     OW 2641   4.102   3.568   3.426
  581SOL    HW1 2642   4.173   3.587   3.494
  581SOL    HW2 2643   4.060   3.479   3.445
  582SOL     OW 2644   0.014   3.781   0.524
  582SOL    HW1 2645   0.079   3.801   0.597
  582SOL    HW2 2646   6.961   3.729   0.561
  583SOL     OW 2647   2.810   6.777   6.820
  583SOL    HW1 2648   2.829   6.707   6.752
  583SOL    HW2 2649   2.894   6.828   6.841
  584SOL     OW 2650   1.740   5.067   4.785
  584SOL    HW1 2651   1.814   5.109   4.733
  584SOL    HW2 2652   1.736   4.969   4.765
  585SOL     OW 2653   5.374   2.049   5.279
  585SOL    HW1 2654   5.305   1.980   5.301
  585SOL    HW2 2655   5.455   2.035   5.336
  586SOL     OW 2656   3.332   5.265   1.143
  586SOL    HW1 2657   3.411   5.215   1.179
  586SOL    HW2 2658   3.364   5.340   1.085
  587SOL     OW 2659   2.426   2.895   6.353
  587SOL    HW1 2660   2.337   2.906   6.396
  587SOL    HW2 2661   2.432   2.952   6.271
  588SOL     OW 2662   2.075   0.250   1.948
  588SOL    HW1 2663   2.139   0.219   2.018
  588SOL    HW2 2664   2.052   0.174   1.888
  589SOL     OW 2665   4.951   5.278   1.956
  589SOL    HW1 2666   4.870   5.243   1.909
  589SOL    HW2 2667   5.008   5.202   1.985
  590SOL     OW 2668   0.504   4.150   1.875
  590SOL    HW1 2669   0.586   4.206   1.871
  590SOL    HW2 2670   0.528   4.055   1.856
  591SOL     OW 2671   2.399   0.535   3.048
  591SOL    HW1 2672   2.486   0.535   2.998
  591SOL    HW2 2673   2.345   0.456   3.020
  592SOL     OW 2674   5.283   0.349   6.356
  592SOL    HW1 2675   5.337   0.323   6.436
  592SOL    HW2 2676   5.256   0.266   6.306
  593SOL     OW 2677   0.424   0.564   4.722
  593SOL    HW1 2678   0.388   0.562   4.815
  593SOL    HW2 2679   0.435   0.470   4.689
  594SOL     OW 2680   5.330   2.248   1.155
  594SOL    HW1 2681   5.403   2.230   1.220
  594SOL    HW2 2682   5.248   2.277   1.204
  595SOL     OW 2683   3.002   6.805   3.820
  595SOL    HW1 2684   2.943   6.749   3.879
  595SOL    HW2 2685   3.091   6.817   3.865
  596SOL     OW 2686   0.707   4.710   2.544
  596SOL    HW1 2687   0.670   4.643   2.608
  596SOL    HW2 2688   0.798   4.737   2.575
  597SOL     OW 2689   4.382   2.174   5.466
  597SOL    HW1 2690   4.376   2.230   5.384
  597SOL    HW2 2691   4.311   2.103   5.464
  598SOL     OW 2692   4.003   3.680   1.600
  598SOL    HW1 2693   3.926   3.620   1.620
  598SOL    HW2 2694   3.980   3.774   1.624
  599SOL     OW 2695   5.591   5.641   3.588
  599SOL    HW1 2696   5.558   5.572   3.523
  599SOL    HW2 2697   5.513   5.680   3.637
  600SOL     OW 2698   3.024   2.112   0.536
  600SOL    HW1 2699   3.018   2.051   0.615
  600SOL    HW2 2700   3.058   2.201   0.566
  601SOL     OW 2701   1.735   4.908   1.740
  601SOL    HW1 2702   1.668   4.878   1.672
  601SOL    HW2 2703   1.768   4.828   1.790
  602SOL     OW 2704   0.321   0.744   2.674
  602SOL    HW1 2705   0.244   0.714   2.617
  602SOL    HW2 2706   0.294   0.824   2.727
  603SOL     OW 2707   4.546   1.348   3.021
  603SOL    HW1 2708   4.530   1.255   3.055
  603SOL    HW2 2709   4.503   1.358   2.931
  604SOL     OW 2710   1.645   3.116   5.996
  604SOL    HW1 2711   1.648   3.091   5.899
  604SOL    HW2 2712   1.564   3.077   6.039
  605SOL     OW 2713   5.179   0.363   4.759
  605SOL    HW1 2714   5.225   0.336   4.674
  605SOL    HW2 2715   5.237   0.342   4.837
  606SOL     OW 2716   2.255   6.995   2.434
  606SOL    HW1 2717   2.174   7.010   2.491
  606SOL    HW2 2718   2.244   6.910   2.383
  607SOL     OW 2719   3.673   6.948   4.532
  607SOL    HW1 2720   3.708   6.858   4.505
  607SOL    HW2 2721   3.679   7.010   4.454
  608SOL     OW 2722   6.551   2.801   0.778
  608SOL    HW1 2723   6.463   2.787   0.822
  608SOL    HW2 2724   6.603   2.716   0.779
  609SOL     OW 2725   3.547   4.142   5.142
  609SOL    HW1 2726   3.638   4.105   5.156
  609SOL    HW2 2727   3.530   4.216   5.207
  610SOL     OW 2728   6.652   2.281   4.770
  610SOL    HW1 2729   6.561   2.320   4.777
  610SOL    HW2 2730   6.686   2.293   4.677
  611SOL     OW 2731   6.575   6.780   0.400
  611SOL    HW1 2732   6.602   6.802   0.307
  611SOL    HW2 2733   6.646   6.723   0.443
  612SOL     OW 2734   1.466   4.358   6.336
  612SOL    HW1 2735   1.402   4.422   6.293
  612SOL    HW2 2736   1.490   4.287   6.270
  613SOL     OW 2737   3.779   1.377   7.016
  613SOL    HW1 2738   3.816   1.460   0.034
  613SOL    HW2 2739   3.855   1.322   6.981
  614SOL     OW 2740   5.279   2.289   0.494
  614SOL    HW1 2741   5.297   2.238   0.410
  614SOL    HW2 2742   5.193   2.258   0.534
  615SOL     OW 2743   6.206   5.665   0.246
  615SOL    HW1 2744   6.194   5.639   0.342
  615SOL    HW2 2745   6.248   5.590   0.196
  616SOL     OW 2746   4.695   1.726   4.736
  616SOL    HW1 2747   4.727   1.700   4.827
  616SOL    HW2 2748   4.631   1.657   4.703
  617SOL     OW 2749   6.296   0.142   5.361
  617SOL    HW1 2750   6.391   0.169   5.348
  617SOL    HW2 2751   6.248   0.143   5.273
  618SOL     OW 2752   5.159   4.893   1.001
  618SOL    HW1 2753   5.223   4.933   1.067
  618SOL    HW2 2754   5.182   4.797   0.987
  619SOL     OW 2755   1.342   0.046   0.070
  619SOL    HW1 2756   1.394   0.040   0.156
  619SOL    HW2 2757   1.320   6.978   0.039
  620SOL     OW 2758   4.647   1.905   1.491
  620SOL    HW1 2759   4.723   1.936   1.433
  620SOL    HW2 2760   4.577   1.863   1.434
  621SOL     OW 2761   1.722   0.095   6.815
  621SOL    HW1 2762   1.687   0.155   6.887
  621SOL    HW2 2763   1.793   0.036   6.852
  622SOL     OW 2764   0.678   3.021   5.774
  622SOL    HW1 2765   0.718   2.970   5.698
  622SOL    HW2 2766   0.715   3.113   5.775
  623SOL     OW 2767   6.568   1.307   2.848
  623SOL    HW1 2768   6.591   1.345   2.938
  623SOL    HW2 2769   6.640   1.331   2.783
  624SOL     OW 2770   5.775   0.880   6.213
  624SOL    HW1 2771   5.732   0.812   6.153
  624SOL    HW2 2772   5.854   0.840   6.258
  625SOL     OW 2773   3.136   1.095   1.336
  625SOL    HW1 2774   3.225   1.110   1.378
  625SOL    HW2 2775   3.068   1.074   1.406
  626SOL     OW 2776   6.935   6.778   3.896
  626SOL    HW1 2777   6.953   6.712   3.823
  626SOL    HW2 2778   6.951   6.871   3.862
  627SOL     OW 2779   6.443   4.190   5.941
  627SOL    HW1 2780   6.505   4.176   6.018
  627SOL    HW2 2781   6.435   4.105   5.889
  628SOL     OW 2782   3.675   4.470   6.830
  628SOL    HW1 2783   3.619   4.458   6.913
  628SOL    HW2 2784   3.656   4.396   6.766
  629SOL     OW 2785   2.209   6.988   6.782
  629SOL    HW1 2786   2.160   7.017   6.864
  629SOL    HW2 2787   2.188   0.025   6.707
  630SOL     OW 2788   6.581   2.023   0.739
  630SOL    HW1 2789   6.498   2.020   0.795
  630SOL    HW2 2790   6.659   2.048   0.796
  631SOL     OW 2791   1.814   3.523   2.282
  631SOL    HW1 2792   1.907   3.528   2.246
  631SOL    HW2 2793   1.788   3.613   2.318
  632SOL     OW 2794   3.948   4.798   1.290
  632SOL    HW1 2795   3.956   4.754   1.379
  632SOL    HW2 2796   4.027   4.856   1.274
  633SOL     OW 2797   1.389   6.129   6.657
  633SOL    HW1 2798   1.378   6.123   6.757
  633SOL    HW2 2799   1.315   6.185   6.619
  634SOL     OW 2800   2.072   3.560   5.577
  634SOL    HW1 2801   2.162   3.604   5.578
  634SOL    HW2 2802   2.066   3.498   5.498
  635SOL     OW 2803   6.865   5.953   6.600
  635SOL    HW1 2804   6.809   5.953   6.683
  635SOL    HW2 2805   6.853   5.866   6.552
  636SOL     OW 2806   1.503   2.175   4.889
  636SOL    HW1 2807   1.408   2.173   4.857
  636SOL    HW2 2808   1.551   2.095   4.852
  637SOL     OW 2809   6.517   1.531   2.129
  637SOL    HW1 2810   6.475   1.615   2.162
  637SOL    HW2 2811   6.484   1.511   2.037
  638SOL     OW 2812   0.371   3.507   5.519
  638SOL    HW1 2813   0.339   3.547   5.433
  638SOL    HW2 2814   0.432   3.431   5.499
  639SOL     OW 2815   5.676   3.546   1.073
  639SOL    HW1 2816   5.740   3.496   1.132
  639SOL    HW2 2817   5.582   3.527   1.101
  640SOL     OW 2818   6.390   3.537   2.350
  640SOL    HW1 2819   6.356   3.618   2.398
  640SOL    HW2 2820   6.339   3.457   2.380
  641SOL     OW 2821   2.332   6.093   4.260
  641SOL    HW1 2822   2.350   6.043   4.175
  641SOL    HW2 2823   2.418   6.114   4.305
  642SOL     OW 2824   1.233   5.316   4.564
  642SOL    HW1 2825   1.267   5.229   4.528
  642SOL    HW2 2826   1.202   5.374   4.488
  643SOL     OW 2827   4.434   4.848   0.301
  643SOL    HW1 2828   4.448   4.795   0.385
  643SOL    HW2 2829   4.515   4.903   0.282
  644SOL     OW 2830   5.774   0.681   4.578
  644SOL    HW1 2831   5.858   0.642   4.615
  644SOL    HW2 2832   5.742   0.754   4.639
  645SOL     OW 2833   3.741   6.122   2.386
  645SOL    HW1 2834   3.778   6.198   2.332
  645SOL    HW2 2835   3.748   6.144   2.484
  646SOL     OW 2836   3.468   0.970   5.351
  646SOL    HW1 2837   3.403   0.970   5.426
  646SOL    HW2 2838   3.505   0.878   5.338
  647SOL     OW 2839   2.085   2.278   6.853
  647SOL    HW1 2840   2.081   2.218   6.773
  647SOL    HW2 2841   2.168   2.260   6.905
  648SOL     OW 2842   5.107   2.374   3.548
  648SOL    HW1 2843   5.119   2.320   3.464
  648SOL    HW2 2844   5.144   2.324   3.626
  649SOL     OW 2845   3.879   6.198   0.969
  649SOL    HW1 2846   3.945   6.221   1.041
  649SOL    HW2 2847   3.786   6.219   1.001
  650SOL     OW 2848   2.145   3.461   1.674
  650SOL    HW1 2849   2.165   3.454   1.577
  650SOL    HW2 2850   2.231   3.466   1.725
  651SOL     OW 2851   6.913   1.898   3.076
  651SOL    HW1 2852   6.834   1.894   3.136
  651SOL    HW2 2853   6.994   1.867   3.125
  652SOL     OW 2854   3.989   6.221   0.491
  652SOL    HW1 2855   3.985   6.175   0.580
  652SOL    HW2 2856   3.954   6.314   0.500
  653SOL     OW 2857   1.733   0.534   3.121
  653SOL    HW1 2858   1.746   0.461   3.188
  653SOL    HW2 2859   1.724   0.622   3.168
  654SOL     OW 2860   1.377   0.397   6.141
  654SOL    HW1 2861   1.299   0.372   6.200
  654SOL    HW2 2862   1.380   0.335   6.063
  655SOL     OW 2863   1.278   3.976   2.081
  655SOL    HW1 2864   1.319   3.896   2.035
  655SOL    HW2 2865   1.189   3.950   2.119
  656SOL     OW 2866   2.262   0.576   6.926
  656SOL    HW1 2867   2.174   0.593   6.880
  656SOL    HW2 2868   2.257   0.611   7.020
  657SOL     OW 2869   3.561   3.574   4.426
  657SOL    HW1 2870   3.557   3.673   4.416
  657SOL    HW2 2871   3.479   3.533   4.386
  658SOL     OW 2872   2.462   0.438   5.154
  658SOL    HW1 2873   2.530   0.509   5.135
  658SOL    HW2 2874   2.446   0.433   5.253
  659SOL     OW 2875   1.487   5.053   6.921
  659SOL    HW1 2876   1.473   5.051   6.822
  659SOL    HW2 2877   1.457   5.141   6.957
  660SOL     OW 2878   5.683   3.631   2.321
  660SOL    HW1 2879   5.601   3.617   2.377
  660SOL    HW2 2880   5.702   3.729   2.313
  661SOL     OW 2881   4.416   5.566   4.266
  661SOL    HW1 2882   4.374   5.655   4.288
  661SOL    HW2 2883   4.366   5.523   4.191
  662SOL     OW 2884   6.827   3.246   0.184
  662SOL    HW1 2885   6.814   3.299   0.268
  662SOL    HW2 2886   6.881   3.165   0.204
  663SOL     OW 2887   1.565   4.179   6.132
  663SOL    HW1 2888   1.596   4.246   6.064
  663SOL    HW2 2889   1.585   4.087   6.099
  664SOL     OW 2890   2.175   0.159   5.721
  664SOL    HW1 2891   2.252   0.202   5.769
  664SOL    HW2 2892   2.090   0.177   5.770
  665SOL     OW 2893   2.347   4.316   3.341
  665SOL    HW1 2894   2.339   4.218   3.363
  665SOL    HW2 2895   2.257   4.352   3.316
  666SOL     OW 2896   3.164   0.592   0.430
  666SOL    HW1 2897   3.184   0.682   0.393
  666SOL    HW2 2898   3.065   0.583   0.446
  667SOL     OW 2899   1.844   2.920   2.218
  667SOL    HW1 2900   1.802   2.983   2.282
  667SOL    HW2 2901   1.934   2.893   2.252
  668SOL     OW 2902   5.068   6.958   0.539
  668SOL    HW1 2903   4.979   6.930   0.504
  668SOL    HW2 2904   5.055   7.020   0.616
  669SOL     OW 2905   6.549   5.659   2.681
  669SOL    HW1 2906   6.645   5.663   2.655
  669SOL    HW2 2907   6.493   5.700   2.609
  670SOL     OW 2908   3.018   3.799   3.210
  670SOL    HW1 2909   2.927   3.803   3.253
  670SOL    HW2 2910   3.050   3.892   3.192
  671SOL     OW 2911   1.550   0.204   6.976
  671SOL    HW1 2912   1.492   0.131   7.012
  671SOL    HW2 2913   1.509   0.293   6.999
  672SOL     OW 2914   0.516   2.090   3.119
  672SOL    HW1 2915   0.552   2.009   3.073
  672SOL    HW2 2916   0.537   2.086   3.216
  673SOL     OW 2917   4.827   0.839   6.502
  673SOL    HW1 2918   4.751   0.813   6.444
  673SOL    HW2 2919   4.849   0.763   6.564
  674SOL     OW 2920   6.675   2.299   4.186
  674SOL    HW1 2921   6.616   2.219   4.175
  674SOL    HW2 2922   6.711   2.301   4.279
  675SOL     OW 2923   5.553   7.018   3.688
  675SOL    HW1 2924   5.537   0.085   3.651
  675SOL    HW2 2925   5.635   6.979   3.646
  676SOL     OW 2926   3.457   4.857   5.152
  676SOL    HW1 2927   3.401   4.927   5.197
  676SOL    HW2 2928   3.425   4.845   5.058
  677SOL     OW 2929   4.845   6.352   0.540
  677SOL    HW1 2930   4.907   6.294   0.488
  677SOL    HW2 2931   4.806   6.299   0.616
  678SOL     OW 2932   2.474   0.686   6.439
  678SOL    HW1 2933   2.552   0.689   6.501
  678SOL    HW2 2934   2.501   0.642   6.353
  679SOL     OW 2935   0.018   0.276   2.587
  679SOL    HW1 2936   0.018   0.375   2.576
  679SOL    HW2 2937   7.004   0.253   2.677
  680SOL     OW 2938   5.984   3.279   3.973
  680SOL    HW1 2939   5.966   3.306   3.879
  680SOL    HW2 2940   6.069   3.226   3.977
  681SOL     OW 2941   0.720   5.035   2.995
  681SOL    HW1 2942   0.724   5.063   3.091
  681SOL    HW2 2943   0.695   4.938   2.990
  682SOL     OW 2944   0.491   6.931   5.820
  682SOL    HW1 2945   0.500   6.932   5.920
  682SOL    HW2 2946   0.520   6.842   5.785
  683SOL     OW 2947   5.155   1.300   1.449
  683SOL    HW1 2948   5.190   1.353   1.526
  683SOL    HW2 2949   5.057   1.288   1.459
  684SOL     OW 2950   6.799   5.800   6.180
  684SOL    HW1 2951   6.808   5.889   6.135
  684SOL    HW2 2952   6.869   5.738   6.145
  685SOL     OW 2953   6.176   0.314   4.809
  685SOL    HW1 2954   6.155   0.410   4.830
  685SOL    HW2 2955   6.206   0.307   4.714
  686SOL     OW 2956   5.658   4.332   0.971
  686SOL    HW1 2957   5.632   4.236   0.963
  686SOL    HW2 2958   5.720   4.344   1.049
  687SOL     OW 2959   5.325   2.681   0.092
  687SOL    HW1 2960   5.257   2.662   0.021
  687SOL    HW2 2961   5.315   2.615   0.166
  688SOL     OW 2962   6.744   2.694   5.342
  688SOL    HW1 2963   6.758   2.620   5.277
  688SOL    HW2 2964   6.749   2.658   5.436
  689SOL     OW 2965   5.533   5.019   4.331
  689SOL    HW1 2966   5.541   4.921   4.348
  689SOL    HW2 2967   5.539   5.069   4.418
  690SOL     OW 2968   6.974   2.168   4.194
  690SOL    HW1 2969   0.010   2.216   4.130
  690SOL    HW2 2970   6.983   2.208   4.285
  691SOL     OW 2971   1.097   2.521   6.685
  691SOL    HW1 2972   1.106   2.620   6.675
  691SOL    HW2 2973   1.042   2.485   6.610
  692SOL     OW 2974   2.590   0.351   3.959
  692SOL    HW1 2975   2.620   0.257   3.973
  692SOL    HW2 2976   2.518   0.353   3.890
  693SOL     OW 2977   5.907   1.057   3.441
  693SOL    HW1 2978   5.999   1.094   3.443
  693SOL    HW2 2979   5.881   1.028   3.533
  694SOL     OW 2980   1.245   0.536   2.722
  694SOL    HW1 2981   1.183   0.465   2.688
  694SOL    HW2 2982   1.265   0.518   2.818
  695SOL     OW 2983   4.493   5.783   6.508
  695SOL    HW1 2984   4.447   5.804   6.422
  695SOL    HW2 2985   4.564   5.715   6.493
  696SOL     OW 2986   5.507   5.726   2.467
  696SOL    HW1 2987   5.563   5.771   2.537
  696SOL    HW2 2988   5.565   5.673   2.406
  697SOL     OW 2989   1.577   4.161   3.109
  697SOL    HW1 2990   1.576   4.238   3.173
  697SOL    HW2 2991   1.602   4.194   3.017
  698SOL     OW 2992   4.524   6.461   4.391
  698SOL    HW1 2993   4.453   6.423   4.332
  698SOL    HW2 2994   4.557   6.390   4.454
  699SOL     OW 2995   1.880   5.911   6.066
  699SOL    HW1 2996   1.818   5.927   6.142
  699SOL    HW2 2997   1.871   5.816   6.035
  700SOL     OW 2998   1.975   2.035   4.585
  700SOL    HW1 2999   1.900   2.096   4.561
  700SOL    HW2 3000   2.063   2.080   4.567
  701SOL     OW 3001   0.564   4.737   6.102
  701SOL    HW1 3002   0.490   4.672   6.084
  701SOL    HW2 3003   0.574   4.748   6.201
  702SOL     OW 3004   5.599   6.022   5.559
  702SOL    HW1 3005   5.526   6.036   5.625
  702SOL    HW2 3006   5.626   5.925   5.559
  703SOL     OW 3007   5.976   3.665   6.160
  703SOL    HW1 3008   5.998   3.679   6.063
  703SOL    HW2 3009   5.883   3.697   6.178
  704SOL     OW 3010   2.288   0.156   2.109
  704SOL    HW1 3011   2.375   0.195   2.141
  704SOL    HW2 3012   2.307   0.074   2.054
  705SOL     OW 3013   1.206   1.915   4.365
  705SOL    HW1 3014   1.233   2.008   4.389
  705SOL    HW2 3015   1.213   1.903   4.266
  706SOL     OW 3016   5.709   3.595   3.622
  706SOL    HW1 3017   5.754   3.559   3.540
  706SOL    HW2 3018   5.772   3.656   3.671
  707SOL     OW 3019   4.852   3.212   2.939
  707SOL    HW1 3020   4.900   3.165   2.865
  707SOL    HW2 3021   4.754   3.191   2.935
  708SOL     OW 3022   5.117   1.066   1.675
  708SOL    HW1 3023   5.024   1.050   1.645
  708SOL    HW2 3024   5.129   1.164   1.694
  709SOL     OW 3025   1.660   3.881   6.685
  709SOL    HW1 3026   1.670   3.918   6.777
  709SOL    HW2 3027   1.565   3.888   6.656
  710SOL     OW 3028   3.268   3.520   3.792
  710SOL    HW1 3029   3.201   3.575   3.842
  710SOL    HW2 3030   3.241   3.513   3.696
  711SOL     OW 3031   1.599   0.936   3.867
  711SOL    HW1 3032   1.565   0.842   3.860
  711SOL    HW2 3033   1.566   0.990   3.789
  712SOL     OW 3034   7.015   4.807   3.743
  712SOL    HW1 3035   0.014   4.879   3.808
  712SOL    HW2 3036   0.059   4.804   3.670
  713SOL     OW 3037   2.321   3.686   5.564
  713SOL    HW1 3038   2.278   3.745   5.496
  713SOL    HW2 3039   2.413   3.662   5.534
  714SOL     OW 3040   4.796   4.856   4.541
  714SOL    HW1 3041   4.756   4.790   4.604
  714SOL    HW2 3042   4.726   4.922   4.513
  715SOL     OW 3043   6.541   0.000   6.163
  715SOL    HW1 3044   6.484   0.001   6.245
  715SOL    HW2 3045   6.597   6.942   6.163
  716SOL     OW 3046   6.450   5.694   6.468
  716SOL    HW1 3047   6.540   5.694   6.512
  716SOL    HW2 3048   6.379   5.681   6.537
  717SOL     OW 3049   5.586   2.814   6.096
  717SOL    HW1 3050   5.607   2.902   6.054
  717SOL    HW2 3051   5.602   2.741   6.030
  718SOL     OW 3052   3.484   3.291   0.700
  718SOL    HW1 3053   3.498   3.229   0.622
  718SOL    HW2 3054   3.553   3.363   0.697
  719SOL     OW 3055   6.520   4.385   6.743
  719SOL    HW1 3056   6.467   4.368   6.827
  719SOL    HW2 3057   6.616   4.362   6.759
  720SOL     OW 3058   3.845   0.823   5.823
  720SOL    HW1 3059   3.875   0.796   5.915
  720SOL    HW2 3060   3.768   0.765   5.795
  721SOL     OW 3061   1.516   0.248   5.445
  721SOL    HW1 3062   1.472   0.337   5.432
  721SOL    HW2 3063   1.615   0.258   5.429
  722SOL     OW 3064   4.532   1.327   5.157
  722SOL    HW1 3065   4.548   1.317   5.059
  722SOL    HW2 3066   4.528   1.424   5.181
  723SOL     OW 3067   0.049   3.759   1.744
  723SOL    HW1 3068   0.100   3.822   1.686
  723SOL    HW2 3069   0.110   3.721   1.814
  724SOL     OW 3070   0.524   2.696   4.643
  724SOL    HW1 3071   0.620   2.718   4.626
  724SOL    HW2 3072   0.479   2.773   4.688
  725SOL     OW 3073   2.393   5.461   2.183
  725SOL    HW1 3074   2.439   5.532   2.236
  725SOL    HW2 3075   2.294   5.474   2.189
  726SOL     OW 3076   5.619   6.287   6.527
  726SOL    HW1 3077   5.671   6.364   6.491
  726SOL    HW2 3078   5.661   6.255   6.612
  727SOL     OW 3079   1.633   5.068   4.343
  727SOL    HW1 3080   1.701   5.008   4.384
  727SOL    HW2 3081   1.597   5.026   4.260
  728SOL     OW 3082   6.653   2.052   6.413
  728SOL    HW1 3083   6.744   2.065   6.373
  728SOL    HW2 3084   6.643   1.956   6.441
  729SOL     OW 3085   4.172   1.464   0.627
  729SOL    HW1 3086   4.192   1.557   0.596
  729SOL    HW2 3087   4.106   1.467   0.702
  730SOL     OW 3088   5.990   1.194   3.881
  730SOL    HW1 3089   6.074   1.147   3.853
  730SOL    HW2 3090   5.975   1.178   3.979
  731SOL     OW 3091   0.501   2.100   3.749
  731SOL    HW1 3092   0.558   2.032   3.703
  731SOL    HW2 3093   0.559   2.170   3.790
  732SOL     OW 3094   0.314   3.900   3.804
  732SOL    HW1 3095   0.374   3.930   3.878
  732SOL    HW2 3096   0.327   3.802   3.789
  733SOL     OW 3097   5.153   4.599   4.637
  733SOL    HW1 3098   5.240   4.562   4.670
  733SOL    HW2 3099   5.094   4.524   4.609
  734SOL     OW 3100   0.971   7.012   0.137
  734SOL    HW1 3101   0.961   6.913   0.126
  734SOL    HW2 3102   0.982   0.030   0.047
  735SOL     OW 3103   3.603   4.233   0.009
  735SOL    HW1 3104   3.507   4.220   7.008
  735SOL    HW2 3105   3.642   4.146   0.039
  736SOL     OW 3106   5.792   1.433   2.180
  736SOL    HW1 3107   5.839   1.355   2.140
  736SOL    HW2 3108   5.749   1.406   2.266
  737SOL     OW 3109   5.081   3.519   0.172
  737SOL    HW1 3110   5.146   3.587   0.138
  737SOL    HW2 3111   4.988   3.544   0.145
  738SOL     OW 3112   6.169   3.874   4.327
  738SOL    HW1 3113   6.241   3.817   4.367
  738SOL    HW2 3114   6.208   3.958   4.290
  739SOL     OW 3115   4.644   6.019   6.214
  739SOL    HW1 3116   4.566   6.071   6.248
  739SOL    HW2 3117   4.690   5.974   6.290
  740SOL     OW 3118   5.846   6.616   0.614
  740SOL    HW1 3119   5.752   6.643   0.595
  740SOL    HW2 3120   5.906   6.696   0.611
  741SOL     OW 3121   1.676   0.369   3.598
  741SOL    HW1 3122   1.631   0.348   3.511
  741SOL    HW2 3123   1.713   0.462   3.595
  742SOL     OW 3124   0.948   5.954   2.466
  742SOL    HW1 3125   0.927   6.043   2.425
  742SOL    HW2 3126   1.002   5.900   2.401
  743SOL     OW 3127   1.756   3.118   2.365
  743SOL    HW1 3128   1.831   3.134   2.429
  743SOL    HW2 3129   1.736   3.203   2.315
  744SOL     OW 3130   6.795   5.202   0.520
  744SOL    HW1 3131   6.778   5.130   0.588
  744SOL    HW2 3132   6.721   5.269   0.524
  745SOL     OW 3133   1.215   6.513   1.838
  745SOL    HW1 3134   1.153   6.446   1.796
  745SOL    HW2 3135   1.172   6.550   1.920
  746SOL     OW 3136   3.123   6.976   3.293
  746SOL    HW1 3137   3.146   6.935   3.381
  746SOL    HW2 3138   3.204   7.019   3.254
  747SOL     OW 3139   0.027   4.106   0.500
  747SOL    HW1 3140   0.054   4.117   0.596
  747SOL    HW2 3141   6.964   4.057   0.495
  748SOL     OW 3142   3.147   3.070   3.416
  748SOL    HW1 3143   3.228   3.013   3.427
  748SOL    HW2 3144   3.085   3.027   3.350
  749SOL     OW 3145   5.179   2.848   5.688
  749SOL    HW1 3146   5.099   2.867   5.745
  749SOL    HW2 3147   5.151   2.840   5.593
  750SOL     OW 3148   2.906   3.566   1.862
  750SOL    HW1 3149   2.916   3.650   1.914
  750SOL    HW2 3150   2.873   3.587   1.770
  751SOL     OW 3151   5.700   1.120   0.400
  751SOL    HW1 3152   5.634   1.073   0.458
  751SOL    HW2 3153   5.661   1.206   0.367
  752SOL     OW 3154   4.525   0.424   2.336
  752SOL    HW1 3155   4.471   0.469   2.407
  752SOL    HW2 3156   4.549   0.332   2.366
  753SOL     OW 3157   3.267   1.360   1.704
  753SOL    HW1 3158   3.224   1.441   1.665
  753SOL    HW2 3159   3.366   1.362   1.685
  754SOL     OW 3160   5.232   5.312   6.615
  754SOL    HW1 3161   5.268   5.237   6.671
  754SOL    HW2 3162   5.159   5.359   6.665
  755SOL     OW 3163   5.807   4.862   2.656
  755SOL    HW1 3164   5.831   4.864   2.559
  755SOL    HW2 3165   5.727   4.803   2.669
  756SOL     OW 3166   2.190   6.975   4.297
  756SOL    HW1 3167   2.257   6.908   4.329
  756SOL    HW2 3168   2.220   7.013   4.210
  757SOL     OW 3169   0.161   0.718   4.247
  757SOL    HW1 3170   0.128   0.809   4.272
  757SOL    HW2 3171   0.196   0.672   4.328
  758SOL     OW 3172   4.130   2.024   0.500
  758SOL    HW1 3173   4.199   2.034   0.572
  758SOL    HW2 3174   4.174   1.994   0.416
  759SOL     OW 3175   2.458   0.056   1.428
  759SOL    HW1 3176   2.382   0.036   1.366
  759SOL    HW2 3177   2.504   0.139   1.399
  760SOL     OW 3178   4.782   1.442   6.121
  760SOL    HW1 3179   4.850   1.492   6.174
  760SOL    HW2 3180   4.750   1.363   6.174
  761SOL     OW 3181   5.048   0.491   6.457
  761SOL    HW1 3182   5.096   0.573   6.426
  761SOL    HW2 3183   5.094   0.409   6.422
  762SOL     OW 3184   2.522   4.634   4.894
  762SOL    HW1 3185   2.564   4.556   4.849
  762SOL    HW2 3186   2.549   4.718   4.848
  763SOL     OW 3187   0.661   4.596   1.001
  763SOL    HW1 3188   0.667   4.630   1.095
  763SOL    HW2 3189   0.609   4.511   0.999
  764SOL     OW 3190   6.144   1.121   2.642
  764SOL    HW1 3191   6.124   1.214   2.673
  764SOL    HW2 3192   6.241   1.101   2.656
  765SOL     OW 3193   1.080   6.349   3.060
  765SOL    HW1 3194   1.166   6.391   3.032
  765SOL    HW2 3195   1.068   6.262   3.011
  766SOL     OW 3196   0.476   5.689   0.181
  766SOL    HW1 3197   0.543   5.751   0.140
  766SOL    HW2 3198   0.416   5.740   0.243
  767SOL     OW 3199   5.908   6.036   1.480
  767SOL    HW1 3200   5.998   6.004   1.453
  767SOL    HW2 3201   5.906   6.049   1.579
  768SOL     OW 3202   2.564   6.251   4.115
  768SOL    HW1 3203   2.533   6.175   4.058
  768SOL    HW2 3204   2.619   6.216   4.191
  769SOL     OW 3205   3.595   0.622   0.356
  769SOL    HW1 3206   3.689   0.610   0.388
  769SOL    HW2 3207   3.541   0.666   0.426
  770SOL     OW 3208   3.814   5.764   4.956
  770SOL    HW1 3209   3.904   5.720   4.957
  770SOL    HW2 3210   3.742   5.695   4.958
  771SOL     OW 3211   0.379   6.926   4.610
  771SOL    HW1 3212   0.341   6.838   4.580
  771SOL    HW2 3213   0.473   6.912   4.641
  772SOL     OW 3214   0.672   3.048   6.561
  772SOL    HW1 3215   0.628   3.069   6.474
  772SOL    HW2 3216   0.679   3.131   6.616
  773SOL     OW 3217   6.582   3.271   1.569
  773SOL    HW1 3218   6.582   3.346   1.503
  773SOL    HW2 3219   6.548   3.303   1.658
  774SOL     OW 3220   1.156   1.234   1.791
  774SOL    HW1 3221   1.061   1.262   1.805
  774SOL    HW2 3222   1.165   1.191   1.701
  775SOL     OW 3223   1.788   2.704   4.239
  775SOL    HW1 3224   1.839   2.650   4.305
  775SOL    HW2 3225   1.691   2.683   4.247
  776SOL     OW 3226   2.496   1.181   5.500
  776SOL    HW1 3227   2.482   1.122   5.420
  776SOL    HW2 3228   2.592   1.210   5.504
  777SOL     OW 3229   4.222   0.445   0.043
  777SOL    HW1 3230   4.187   0.378   7.002
  777SOL    HW2 3231   4.236   0.533   7.022
  778SOL     OW 3232   4.730   6.081   5.168
  778SOL    HW1 3233   4.636   6.083   5.203
  778SOL    HW2 3234   4.730   6.098   5.070
  779SOL     OW 3235   0.435   0.433   2.251
  779SOL    HW1 3236   0.351   0.446   2.304
  779SOL    HW2 3237   0.470   0.341   2.267
  780SOL     OW 3238   5.482   2.257   5.108
  780SOL    HW1 3239   5.451   2.166   5.135
  780SOL    HW2 3240   5.463   2.272   5.011
  781SOL     OW 3241   1.605   3.945   0.314
  781SOL    HW1 3242   1.669   4.012   0.276
  781SOL    HW2 3243   1.518   3.951   0.266
  782SOL     OW 3244   0.214   5.512   0.685
  782SOL    HW1 3245   0.274   5.592   0.686
  782SOL    HW2 3246   0.268   5.429   0.681
  783SOL     OW 3247   1.585   5.519   0.775
  783SOL    HW1 3248   1.618   5.484   0.862
  783SOL    HW2 3249   1.577   5.444   0.709
  784SOL     OW 3250   5.082   5.339   3.104
  784SOL    HW1 3251   4.996   5.288   3.098
  784SOL    HW2 3252   5.106   5.352   3.200
  785SOL     OW 3253   6.239   3.064   3.361
  785SOL    HW1 3254   6.292   3.016   3.430
  785SOL    HW2 3255   6.249   3.018   3.273
  786SOL     OW 3256   6.337   6.666   1.489
  786SOL    HW1 3257   6.243   6.639   1.468
  786SOL    HW2 3258   6.363   6.629   1.578
  787SOL     OW 3259   4.111   1.402   6.224
  787SOL    HW1 3260   4.015   1.418   6.199
  787SOL    HW2 3261   4.131   1.304   6.216
  788SOL     OW 3262   6.969   4.529   3.732
  788SOL    HW1 3263   7.008   4.505   3.643
  788SOL    HW2 3264   6.948   4.626   3.733
  789SOL     OW 3265   6.126   3.190   0.527
  789SOL    HW1 3266   6.216   3.192   0.569
  789SOL    HW2 3267   6.122   3.116   0.460
  790SOL     OW 3268   2.667   0.470   4.203
  790SOL    HW1 3269   2.595   0.524   4.247
  790SOL    HW2 3270   2.641   0.452   4.108
  791SOL     OW 3271   3.560   0.882   4.021
  791SOL    HW1 3272   3.611   0.951   3.971
  791SOL    HW2 3273   3.463   0.888   3.997
  792SOL     OW 3274   5.375   0.776   4.048
  792SOL    HW1 3275   5.446   0.826   3.998
  792SOL    HW2 3276   5.318   0.726   3.982
  793SOL     OW 3277   0.338   6.759   6.656
  793SOL    HW1 3278   0.362   6.710   6.573
  793SOL    HW2 3279   0.270   6.829   6.635
  794SOL     OW 3280   3.848   5.300   4.995
  794SOL    HW1 3281   3.818   5.205   4.987
  794SOL    HW2 3282   3.906   5.310   5.076
  795SOL     OW 3283   5.048   5.405   6.814
  795SOL    HW1 3284   5.078   5.497   6.839
  795SOL    HW2 3285   4.987   5.369   6.885
  796SOL     OW 3286   0.949   1.620   6.164
  796SOL    HW1 3287   0.887   1.550   6.130
  796SOL    HW2 3288   0.938   1.630   6.262
  797SOL     OW 3289   6.027   2.955   5.799
  797SOL    HW1 3290   6.043   3.050   5.769
  797SOL    HW2 3291   5.933   2.930   5.777
  798SOL     OW 3292   6.082   0.440   4.277
  798SOL    HW1 3293   6.177   0.467   4.263
  798SOL    HW2 3294   6.025   0.483   4.207
  799SOL     OW 3295   6.623   3.602   3.792
  799SOL    HW1 3296   6.530   3.620   3.759
  799SOL    HW2 3297   6.673   3.688   3.798
  800SOL     OW 3298   0.644   2.457   2.646
  800SOL    HW1 3299   0.631   2.375   2.702
  800SOL    HW2 3300   0.719   2.441   2.581
  801SOL     OW 3301   0.141   3.846   3.548
  801SOL    HW1 3302   0.189   3.877   3.630
  801SOL    HW2 3303   0.043   3.863   3.558
  802SOL     OW 3304   6.677   1.166   0.712
  802SOL    HW1 3305   6.717   1.103   0.779
  802SOL    HW2 3306   6.578   1.168   0.723
  803SOL     OW 3307   2.340   6.778   4.420
  803SOL    HW1 3308   2.310   6.701   4.477
  803SOL    HW2 3309   2.373   6.851   4.479
  804SOL     OW 3310   5.750   5.764   0.590
  804SOL    HW1 3311   5.816   5.695   0.619
  804SOL    HW2 3312   5.723   5.748   0.495
  805SOL     OW 3313   2.307   2.708   6.049
  805SOL    HW1 3314   2.306   2.784   5.984
  805SOL    HW2 3315   2.214   2.693   6.084
  806SOL     OW 3316   4.232   6.398   0.190
  806SOL    HW1 3317   4.246   6.330   0.261
  806SOL    HW2 3318   4.194   6.482   0.230
  807SOL     OW 3319   0.147   0.928   3.583
  807SOL    HW1 3320   0.119   0.854   3.522
  807SOL    HW2 3321   0.170   1.009   3.529
  808SOL     OW 3322   5.580   3.626   4.950
  808SOL    HW1 3323   5.532   3.666   5.027
  808SOL    HW2 3324   5.570   3.685   4.870
  809SOL     OW 3325   6.889   5.734   5.612
  809SOL    HW1 3326   6.801   5.697   5.581
  809SOL    HW2 3327   6.959   5.663   5.606
  810SOL     OW 3328   6.006   5.024   6.055
  810SOL    HW1 3329   6.100   5.056   6.043
  810SOL    HW2 3330   5.961   5.021   5.967
  811SOL     OW 3331   2.916   5.014   2.774
  811SOL    HW1 3332   2.860   4.931   2.784
  811SOL    HW2 3333   2.934   5.030   2.678
  812SOL     OW 3334   6.905   0.526   2.997
  812SOL    HW1 3335   6.999   0.558   3.010
  812SOL    HW2 3336   6.907   0.435   2.956
  813SOL     OW 3337   4.926   4.866   1.812
  813SOL    HW1 3338   4.857   4.852   1.883
  813SOL    HW2 3339   4.971   4.779   1.792
  814SOL     OW 3340   5.140   5.146   1.485
  814SOL    HW1 3341   5.124   5.121   1.580
  814SOL    HW2 3342   5.117   5.069   1.425
  815SOL     OW 3343   0.895   1.175   1.158
  815SOL    HW1 3344   0.822   1.238   1.132
  815SOL    HW2 3345   0.877   1.085   1.118
  816SOL     OW 3346   5.823   0.692   1.718
  816SOL    HW1 3347   5.870   0.627   1.778
  816SOL    HW2 3348   5.853   0.785   1.741
  817SOL     OW 3349   0.475   2.179   1.799
  817SOL    HW1 3350   0.548   2.121   1.834
  817SOL    HW2 3351   0.469   2.262   1.855
  818SOL     OW 3352   5.642   1.490   2.963
  818SOL    HW1 3353   5.655   1.481   3.062
  818SOL    HW2 3354   5.697   1.422   2.916
  819SOL     OW 3355   0.162   4.943   2.647
  819SOL    HW1 3356   0.087   4.975   2.589
  819SOL    HW2 3357   0.247   4.944   2.595
  820SOL     OW 3358   2.505   3.331   5.900
  820SOL    HW1 3359   2.585   3.366   5.949
  820SOL    HW2 3360   2.460   3.261   5.956
  821SOL     OW 3361   1.148   4.350   0.636
  821SOL    HW1 3362   1.176   4.365   0.541
  821SOL    HW2 3363   1.228   4.335   0.693
  822SOL     OW 3364   0.589   3.297   5.176
  822SOL    HW1 3365   0.643   3.347   5.244
  822SOL    HW2 3366   0.543   3.220   5.221
  823SOL     OW 3367   4.204   4.266   1.427
  823SOL    HW1 3368   4.261   4.189   1.455
  823SOL    HW2 3369   4.244   4.309   1.346
  824SOL     OW 3370   6.466   3.553   6.555
  824SOL    HW1 3371   6.403   3.476   6.563
  824SOL    HW2 3372   6.524   3.541   6.475
  825SOL     OW 3373   2.163   2.894   1.244
  825SOL    HW1 3374   2.174   2.798   1.219
  825SOL    HW2 3375   2.080   2.930   1.201
  826SOL     OW 3376   1.160   1.615   6.889
  826SOL    HW1 3377   1.119   1.562   6.815
  826SOL    HW2 3378   1.235   1.671   6.852
  827SOL     OW 3379   3.740   4.550   1.021
  827SOL    HW1 3380   3.673   4.476   1.031
  827SOL    HW2 3381   3.703   4.619   0.958
  828SOL     OW 3382   5.757   1.100   5.384
  828SOL    HW1 3383   5.719   1.021   5.431
  828SOL    HW2 3384   5.771   1.174   5.449
  829SOL     OW 3385   4.307   4.575   5.676
  829SOL    HW1 3386   4.355   4.662   5.666
  829SOL    HW2 3387   4.287   4.559   5.773
  830SOL     OW 3388   4.154   3.467   6.462
  830SOL    HW1 3389   4.094   3.546   6.448
  830SOL    HW2 3390   4.100   3.390   6.497
  831SOL     OW 3391   5.237   1.824   5.352
  831SOL    HW1 3392   5.272   1.862   5.438
  831SOL    HW2 3393   5.303   1.758   5.315
  832SOL     OW 3394   3.015   1.582   5.666
  832SOL    HW1 3395   3.083   1.513   5.643
  832SOL    HW2 3396   3.060   1.670   5.682
  833SOL     OW 3397   1.171   0.403   5.230
  833SOL    HW1 3398   1.179   0.465   5.307
  833SOL    HW2 3399   1.219   0.441   5.151
  834SOL     OW 3400   2.882   4.680   5.571
  834SOL    HW1 3401   2.842   4.725   5.651
  834SOL    HW2 3402   2.935   4.601   5.601
  835SOL     OW 3403   4.012   1.800   2.774
  835SOL    HW1 3404   3.970   1.838   2.856
  835SOL    HW2 3405   4.073   1.868   2.732
  836SOL     OW 3406   2.298   1.352   5.525
  836SOL    HW1 3407   2.370   1.283   5.526
  836SOL    HW2 3408   2.216   1.316   5.569
  837SOL     OW 3409   3.973   1.609   4.220
  837SOL    HW1 3410   3.993   1.612   4.318
  837SOL    HW2 3411   3.876   1.625   4.205
  838SOL     OW 3412   0.367   6.830   2.230
  838SOL    HW1 3413   0.382   6.809   2.326
  838SOL    HW2 3414   0.273   6.863   2.217
  839SOL     OW 3415   2.035   1.690   2.224
  839SOL    HW1 3416   1.981   1.612   2.254
  839SOL    HW2 3417   2.119   1.696   2.277
  840SOL     OW 3418   2.086   1.014   5.231
  840SOL    HW1 3419   2.120   1.014   5.325
  840SOL    HW2 3420   1.986   1.012   5.232
  841SOL     OW 3421   0.670   3.625   0.761
  841SOL    HW1 3422   0.695   3.654   0.853
  841SOL    HW2 3423   0.662   3.525   0.759
  842SOL     OW 3424   3.903   4.877   4.018
  842SOL    HW1 3425   3.874   4.898   3.924
  842SOL    HW2 3426   3.827   4.894   4.081
  843SOL     OW 3427   6.714   2.661   1.329
  843SOL    HW1 3428   6.701   2.750   1.373
  843SOL    HW2 3429   6.782   2.608   1.380
  844SOL     OW 3430   5.490   4.912   6.238
  844SOL    HW1 3431   5.521   4.999   6.199
  844SOL    HW2 3432   5.423   4.870   6.177
  845SOL     OW 3433   2.081   5.213   5.579
  845SOL    HW1 3434   2.032   5.137   5.622
  845SOL    HW2 3435   2.078   5.294   5.637
  846SOL     OW 3436   4.915   1.715   0.235
  846SOL    HW1 3437   4.853   1.641   0.262
  846SOL    HW2 3438   4.976   1.682   0.163
  847SOL     OW 3439   5.052   4.350   1.817
  847SOL    HW1 3440   5.151   4.341   1.818
  847SOL    HW2 3441   5.015   4.330   1.908
  848SOL     OW 3442   5.734   0.253   5.744
  848SOL    HW1 3443   5.735   0.159   5.711
  848SOL    HW2 3444   5.791   0.310   5.684
  849SOL     OW 3445   1.010   6.814   3.737
  849SOL    HW1 3446   1.090   6.820   3.677
  849SOL    HW2 3447   1.023   6.874   3.816
  850SOL     OW 3448   2.714   0.873   3.170
  850SOL    HW1 3449   2.755   0.793   3.127
  850SOL    HW2 3450   2.617   0.877   3.146
  851SOL     OW 3451   6.687   1.299   6.089
  851SOL    HW1 3452   6.731   1.276   6.176
  851SOL    HW2 3453   6.711   1.393   6.063
  852SOL     OW 3454   3.546   5.267   4.531
  852SOL    HW1 3455   3.604   5.220   4.598
  852SOL    HW2 3456   3.476   5.320   4.578
  853SOL     OW 3457   0.813   4.047   0.746
  853SOL    HW1 3458   0.723   4.037   0.702
  853SOL    HW2 3459   0.881   4.070   0.676
  854SOL     OW 3460   6.538   5.057   1.030
  854SOL    HW1 3461   6.476   5.093   1.099
  854SOL    HW2 3462   6.512   4.964   1.006
  855SOL     OW 3463   4.927   0.464   0.389
  855SOL    HW1 3464   4.888   0.414   0.312
  855SOL    HW2 3465   4.987   0.404   0.442
  856SOL     OW 3466   1.487   0.653   5.199
  856SOL    HW1 3467   1.482   0.751   5.221
  856SOL    HW2 3468   1.488   0.600   5.283
  857SOL     OW 3469   6.272   4.426   2.251
  857SOL    HW1 3470   6.351   4.464   2.202
  857SOL    HW2 3471   6.288   4.329   2.271
  858SOL     OW 3472   3.490   3.971   1.740
  858SOL    HW1 3473   3.429   3.934   1.810
  858SOL    HW2 3474   3.463   4.065   1.719
  859SOL     OW 3475   6.552   4.307   1.108
  859SOL    HW1 3476   6.512   4.384   1.158
  859SOL    HW2 3477   6.594   4.340   1.023
  860SOL     OW 3478   1.461   4.285   5.821
  860SOL    HW1 3479   1.381   4.243   5.866
  860SOL    HW2 3480   1.524   4.318   5.891
  861SOL     OW 3481   4.513   4.484   6.313
  861SOL    HW1 3482   4.467   4.558   6.264
  861SOL    HW2 3483   4.476   4.478   6.406
  862SOL     OW 3484   4.430   4.604   3.698
  862SOL    HW1 3485   4.520   4.639   3.670
  862SOL    HW2 3486   4.377   4.580   3.618
  863SOL     OW 3487   6.478   3.118   1.383
  863SOL    HW1 3488   6.512   3.196   1.436
  863SOL    HW2 3489   6.379   3.114   1.389
  864SOL     OW 3490   1.105   6.225   1.970
  864SOL    HW1 3491   1.107   6.136   2.016
  864SOL    HW2 3492   1.121   6.297   2.037
  865SOL     OW 3493   1.468   1.392   3.633
  865SOL    HW1 3494   1.560   1.425   3.611
  865SOL    HW2 3495   1.441   1.429   3.722
  866SOL     OW 3496   4.084   1.229   1.790
  866SOL    HW1 3497   4.065   1.198   1.883
  866SOL    HW2 3498   4.166   1.182   1.755
  867SOL     OW 3499   2.991   1.411   6.170
  867SOL    HW1 3500   2.925   1.368   6.109
  867SOL    HW2 3501   3.083   1.399   6.133
  868SOL     OW 3502   4.938   2.028   3.134
  868SOL    HW1 3503   4.892   1.992   3.053
  868SOL    HW2 3504   4.871   2.043   3.207
  869SOL     OW 3505   6.755   3.711   0.609
  869SOL    HW1 3506   6.745   3.753   0.699
  869SOL    HW2 3507   6.743   3.612   0.617
  870SOL     OW 3508   6.090   1.632   0.674
  870SOL    HW1 3509   6.150   1.554   0.654
  870SOL    HW2 3510   6.063   1.629   0.770
  871SOL     OW 3511   6.811   4.464   0.519
  871SOL    HW1 3512   6.904   4.500   0.512
  871SOL    HW2 3513   6.800   4.412   0.604
  872SOL     OW 3514   0.018   1.593   2.165
  872SOL    HW1 3515   6.949   1.629   2.165
  872SOL    HW2 3516   0.055   1.596   2.073
  873SOL     OW 3517   3.936   0.179   4.409
  873SOL    HW1 3518   3.950   0.276   4.426
  873SOL    HW2 3519   4.001   0.126   4.464
  874SOL     OW 3520   1.088   3.424   6.632
  874SOL    HW1 3521   0.999   3.466   6.610
  874SOL    HW2 3522   1.073   3.334   6.672
  875SOL     OW 3523   5.902   6.224   6.310
  875SOL    HW1 3524   5.963   6.293   6.350
  875SOL    HW2 3525   5.891   6.241   6.212
  876SOL     OW 3526   2.904   2.232   1.676
  876SOL    HW1 3527   2.873   2.313   1.626
  876SOL    HW2 3528   2.911   2.254   1.774
  877SOL     OW 3529   6.471   6.082   6.203
  877SOL    HW1 3530   6.471   6.093   6.104
  877SOL    HW2 3531   6.476   5.985   6.226
  878SOL     OW 3532   4.328   3.473   0.865
  878SOL    HW1 3533   4.373   3.495   0.951
  878SOL    HW2 3534   4.373   3.395   0.823
  879SOL     OW 3535   5.198   3.202   3.050
  879SOL    HW1 3536   5.203   3.293   3.009
  879SOL    HW2 3537   5.157   3.209   3.141
  880SOL     OW 3538   4.428   0.099   1.437
  880SOL    HW1 3539   4.419   0.154   1.519
  880SOL    HW2 3540   4.501   0.136   1.379
  881SOL     OW 3541   4.910   5.440   3.444
  881SOL    HW1 3542   4.891   5.482   3.355
  881SOL    HW2 3543   4.923   5.512   3.512
  882SOL     OW 3544   0.828   2.200   5.124
  882SOL    HW1 3545   0.797   2.179   5.031
  882SOL    HW2 3546   0.748   2.215   5.182
  883SOL     OW 3547   3.400   5.007   6.952
  883SOL    HW1 3548   3.328   5.045   6.893
  883SOL    HW2 3549   3.358   4.953   7.024
  884SOL     OW 3550   4.390   4.654   1.183
  884SOL    HW1 3551   4.370   4.623   1.090
  884SOL    HW2 3552   4.467   4.717   1.182
  885SOL     OW 3553   3.700   5.554   6.267
  885SOL    HW1 3554   3.796   5.571   6.286
  885SOL    HW2 3555   3.672   5.469   6.311
  886SOL     OW 3556   4.087   2.714   6.331
  886SOL    HW1 3557   4.123   2.629   6.290
  886SOL    HW2 3558   3.990   2.722   6.310
  887SOL     OW 3559   6.191   6.588   5.137
  887SOL    HW1 3560   6.180   6.492   5.162
  887SOL    HW2 3561   6.205   6.643   5.220
  888SOL     OW 3562   6.363   1.249   3.625
  888SOL    HW1 3563   6.309   1.332   3.637
  888SOL    HW2 3564   6.460   1.271   3.635
  889SOL     OW 3565   0.736   0.694   4.775
  889SOL    HW1 3566   0.688   0.626   4.830
  889SOL    HW2 3567   0.792   0.648   4.706
  890SOL     OW 3568   2.769   3.218   0.638
  890SOL    HW1 3569   2.699   3.147   0.640
  890SOL    HW2 3570   2.733   3.299   0.593
  891SOL     OW 3571   6.244   3.158   5.618
  891SOL    HW1 3572   6.161   3.138   5.566
  891SOL    HW2 3573   6.221   3.216   5.697
  892SOL     OW 3574   2.191   4.807   2.095
  892SOL    HW1 3575   2.213   4.874   2.166
  892SOL    HW2 3576   2.260   4.734   2.096
  893SOL     OW 3577   1.910   0.423   2.053
  893SOL    HW1 3578   1.846   0.435   1.978
  893SOL    HW2 3579   1.981   0.358   2.026
  894SOL     OW 3580   1.240   5.079   4.188
  894SOL    HW1 3581   1.306   5.151   4.208
  894SOL    HW2 3582   1.241   5.060   4.090
  895SOL     OW 3583   2.815   1.183   4.447
  895SOL    HW1 3584   2.781   1.171   4.541
  895SOL    HW2 3585   2.764   1.125   4.385
  896SOL     OW 3586   4.819   0.305   3.747
  896SOL    HW1 3587   4.800   0.209   3.765
  896SOL    HW2 3588   4.834   0.318   3.649
  897SOL     OW 3589   6.319   1.422   6.832
  897SOL    HW1 3590   6.270   1.482   6.769
  897SOL    HW2 3591   6.306   1.327   6.804
  898SOL     OW 3592   5.087   6.019   3.692
  898SOL    HW1 3593   5.014   6.040   3.626
  898SOL    HW2 3594   5.058   6.048   3.783
  899SOL     OW 3595   1.560   4.752   0.190
  899SOL    HW1 3596   1.466   4.725   0.212
  899SOL    HW2 3597   1.623   4.703   0.251
  900SOL     OW 3598   0.222   5.835   3.539
  900SOL    HW1 3599   0.221   5.780   3.455
  900SOL    HW2 3600   0.249   5.929   3.517
  901SOL     OW 3601   6.572   2.008   3.572
  901SOL    HW1 3602   6.497   1.942   3.575
  901SOL    HW2 3603   6.538   2.099   3.594
  902SOL     OW 3604   1.509   5.857   0.050
  902SOL    HW1 3605   1.462   5.858   0.138
  902SOL    HW2 3606   1.607   5.872   0.064
  903SOL     OW 3607   1.354   4.782   6.897
  903SOL    HW1 3608   1.400   4.870   6.909
  903SOL    HW2 3609   1.410   4.722   6.840
  904SOL     OW 3610   1.502   2.568   4.532
  904SOL    HW1 3611   1.524   2.613   4.446
  904SOL    HW2 3612   1.422   2.612   4.574
  905SOL     OW 3613   6.339   3.257   3.691
  905SOL    HW1 3614   6.362   3.283   3.597
  905SOL    HW2 3615   6.421   3.259   3.747
  906SOL     OW 3616   6.908   3.178   5.575
  906SOL    HW1 3617   6.985   3.231   5.541
  906SOL    HW2 3618   6.941   3.105   5.634
  907SOL     OW 3619   6.945   4.415   3.118
  907SOL    HW1 3620   6.981   4.339   3.064
  907SOL    HW2 3621   7.018   4.481   3.136
  908SOL     OW 3622   2.676   1.208   3.514
  908SOL    HW1 3623   2.771   1.234   3.530
  908SOL    HW2 3624   2.625   1.212   3.600
  909SOL     OW 3625   3.268   6.895   2.464
  909SOL    HW1 3626   3.316   6.952   2.397
  909SOL    HW2 3627   3.304   6.914   2.555
  910SOL     OW 3628   1.415   0.640   2.497
  910SOL    HW1 3629   1.379   0.607   2.584
  910SOL    HW2 3630   1.514   0.629   2.495
  911SOL     OW 3631   1.213   2.728   1.137
  911SOL    HW1 3632   1.134   2.787   1.160
  911SOL    HW2 3633   1.192   2.675   1.055
  912SOL     OW 3634   2.349   1.012   1.031
  912SOL    HW1 3635   2.283   1.079   1.066
  912SOL    HW2 3636   2.429   1.009   1.090
  913SOL     OW 3637   2.235   0.510   1.700
  913SOL    HW1 3638   2.295   0.588   1.720
  913SOL    HW2 3639   2.272   0.428   1.742
  914SOL     OW 3640   3.071   5.014   2.159
  914SOL    HW1 3641   3.017   4.949   2.105
  914SOL    HW2 3642   3.009   5.077   2.205
  915SOL     OW 3643   3.526   2.510   1.253
  915SOL    HW1 3644   3.428   2.491   1.256
  915SOL    HW2 3645   3.576   2.432   1.292
  916SOL     OW 3646   0.180   3.961   2.633
  916SOL    HW1 3647   0.204   4.043   2.684
  916SOL    HW2 3648   0.263   3.910   2.610
  917SOL     OW 3649   3.951   0.908   5.079
  917SOL    HW1 3650   3.957   1.006   5.057
  917SOL    HW2 3651   4.020   0.885   5.148
  918SOL     OW 3652   6.803   2.516   5.134
  918SOL    HW1 3653   6.897   2.517   5.098
  918SOL    HW2 3654   6.779   2.422   5.159
  919SOL     OW 3655   0.884   0.243   0.896
  919SOL    HW1 3656   0.819   0.236   0.971
  919SOL    HW2 3657   0.950   0.316   0.915
  920SOL     OW 3658   1.347   1.981   2.551
  920SOL    HW1 3659   1.336   1.986   2.452
  920SOL    HW2 3660   1.432   2.025   2.578
  921SOL     OW 3661   4.304   4.243   0.134
  921SOL    HW1 3662   4.204   4.241   0.124
  921SOL    HW2 3663   4.345   4.284   0.053
  922SOL     OW 3664   2.256   5.962   6.483
  922SOL    HW1 3665   2.278   5.865   6.483
  922SOL    HW2 3666   2.339   6.015   6.505
  923SOL     OW 3667   3.489   1.196   7.004
  923SOL    HW1 3668   3.434   1.262   0.031
  923SOL    HW2 3669   3.576   1.180   0.027
  924SOL     OW 3670   5.422   5.099   1.479
  924SOL    HW1 3671   5.435   5.059   1.570
  924SOL    HW2 3672   5.332   5.142   1.473
  925SOL     OW 3673   5.856   1.898   1.613
  925SOL    HW1 3674   5.821   1.838   1.684
  925SOL    HW2 3675   5.793   1.899   1.536
  926SOL     OW 3676   4.052   5.918   1.689
  926SOL    HW1 3677   3.993   5.914   1.769
  926SOL    HW2 3678   4.118   5.993   1.699
  927SOL     OW 3679   5.478   5.222   5.570
  927SOL    HW1 3680   5.456   5.319   5.580
  927SOL    HW2 3681   5.418   5.181   5.502
  928SOL     OW 3682   6.956   1.267   1.735
  928SOL    HW1 3683   6.917   1.193   1.679
  928SOL    HW2 3684   6.945   1.244   1.832
  929SOL     OW 3685   6.692   1.809   2.427
  929SOL    HW1 3686   6.752   1.873   2.475
  929SOL    HW2 3687   6.677   1.841   2.333
  930SOL     OW 3688   5.920   4.543   2.629
  930SOL    HW1 3689   5.849   4.558   2.560
  930SOL    HW2 3690   5.982   4.472   2.597
  931SOL     OW 3691   0.281   2.846   1.169
  931SOL    HW1 3692   0.261   2.943   1.162
  931SOL    HW2 3693   0.201   2.793   1.142
  932SOL     OW 3694   4.489   6.415   0.328
  932SOL    HW1 3695   4.400   6.427   0.283
  932SOL    HW2 3696   4.541   6.500   0.323
  933SOL     OW 3697   0.468   6.401   3.116
  933SOL    HW1 3698   0.452   6.388   3.214
  933SOL    HW2 3699   0.540   6.469   3.102
  934SOL     OW 3700   4.286   2.013   4.991
  934SOL    HW1 3701   4.297   1.946   4.918
  934SOL    HW2 3702   4.273   2.104   4.951
  935SOL     OW 3703   1.001   4.322   4.241
  935SOL    HW1 3704   1.080   4.270   4.211
  935SOL    HW2 3705   0.932   4.323   4.169
  936SOL     OW 3706   0.823   1.050   1.536
  936SOL    HW1 3707   0.742   1.009   1.494
  936SOL    HW2 3708   0.816   1.149   1.532
  937SOL     OW 3709   4.702   2.005   2.687
  937SOL    HW1 3710   4.608   1.990   2.655
  937SOL    HW2 3711   4.726   2.101   2.674
  938SOL     OW 3712   0.359   0.860   6.447
  938SOL    HW1 3713   0.281   0.847   6.385
  938SOL    HW2 3714   0.339   0.935   6.510
  939SOL     OW 3715   0.402   0.819   4.619
  939SOL    HW1 3716   0.491   0.864   4.631
  939SOL    HW2 3717   0.401   0.733   4.669
  940SOL     OW 3718   5.925   0.091   3.687
  940SOL    HW1 3719   5.975   0.166   3.643
  940SOL    HW2 3720   5.896   0.025   3.617
  941SOL     OW 3721   5.645   2.753   4.747
  941SOL    HW1 3722   5.617   2.708   4.662
  941SOL    HW2 3723   5.633   2.691   4.824
  942SOL     OW 3724   4.101   6.288   6.405
  942SOL    HW1 3725   4.108   6.349   6.485
  942SOL    HW2 3726   4.008   6.252   6.399
  943SOL     OW 3727   5.004   1.635   6.975
  943SOL    HW1 3728   4.951   1.720   6.977
  943SOL    HW2 3729   5.037   1.618   6.882
  944SOL     OW 3730   5.338   4.542   4.374
  944SOL    HW1 3731   5.419   4.517   4.426
  944SOL    HW2 3732   5.280   4.602   4.430
  945SOL     OW 3733   5.966   2.988   6.113
  945SOL    HW1 3734   6.013   3.073   6.092
  945SOL    HW2 3735   5.873   2.991   6.078
  946SOL     OW 3736   6.261   3.028   6.323
  946SOL    HW1 3737   6.344   3.084   6.323
  946SOL    HW2 3738   6.235   3.007   6.229
  947SOL     OW 3739   1.431   1.787   6.227
  947SOL    HW1 3740   1.399   1.851   6.298
  947SOL    HW2 3741   1.355   1.762   6.168
  948SOL     OW 3742   3.491   1.967   1.189
  948SOL    HW1 3743   3.523   2.047   1.138
  948SOL    HW2 3744   3.509   1.980   1.287
  949SOL     OW 3745   5.304   5.064   5.889
  949SOL    HW1 3746   5.224   5.064   5.829
  949SOL    HW2 3747   5.297   5.139   5.955
  950SOL     OW 3748   3.798   5.236   0.882
  950SOL    HW1 3749   3.788   5.322   0.933
  950SOL    HW2 3750   3.852   5.253   0.800
  951SOL     OW 3751   0.299   3.379   3.291
  951SOL    HW1 3752   0.296   3.479   3.301
  951SOL    HW2 3753   0.293   3.337   3.381
  952SOL     OW 3754   4.672   1.332   1.029
  952SOL    HW1 3755   4.718   1.320   1.117
  952SOL    HW2 3756   4.740   1.345   0.957
  953SOL     OW 3757   4.311   6.697   5.989
  953SOL    HW1 3758   4.235   6.656   5.939
  953SOL    HW2 3759   4.375   6.625   6.016
  954SOL     OW 3760   6.521   6.277   1.471
  954SOL    HW1 3761   6.437   6.287   1.418
  954SOL    HW2 3762   6.595   6.325   1.425
  955SOL     OW 3763   1.424   6.252   3.578
  955SOL    HW1 3764   1.440   6.204   3.664
  955SOL    HW2 3765   1.402   6.185   3.507
  956SOL     OW 3766   1.843   2.975   0.712
  956SOL    HW1 3767   1.931   3.022   0.707
  956SOL    HW2 3768   1.796   3.002   0.797
  957SOL     OW 3769   2.608   6.019   4.302
  957SOL    HW1 3770   2.689   6.074   4.323
  957SOL    HW2 3771   2.595   5.951   4.374
  958SOL     OW 3772   4.365   2.592   6.768
  958SOL    HW1 3773   4.326   2.604   6.859
  958SOL    HW2 3774   4.295   2.611   6.699
  959SOL     OW 3775   1.748   4.270   0.302
  959SOL    HW1 3776   1.766   4.367   0.289
  959SOL    HW2 3777   1.651   4.252   0.288
  960SOL     OW 3778   1.719   3.872   5.772
  960SOL    HW1 3779   1.731   3.788   5.719
  960SOL    HW2 3780   1.808   3.910   5.795
  961SOL     OW 3781   3.818   6.654   6.666
  961SOL    HW1 3782   3.721   6.678   6.656
  961SOL    HW2 3783   3.874   6.734   6.649
  962SOL     OW 3784   0.401   0.008   3.634
  962SOL    HW1 3785   0.418   6.951   3.578
  962SOL    HW2 3786   0.305   0.035   3.625
  963SOL     OW 3787   5.801   6.890   3.257
  963SOL    HW1 3788   5.762   6.858   3.171
  963SOL    HW2 3789   5.901   6.884   3.252
  964SOL     OW 3790   6.099   4.328   1.498
  964SOL    HW1 3791   6.198   4.343   1.502
  964SOL    HW2 3792   6.061   4.335   1.590
  965SOL     OW 3793   1.875   2.162   0.021
  965SOL    HW1 3794   1.929   2.207   6.975
  965SOL    HW2 3795   1.834   2.231   0.080
  966SOL     OW 3796   5.485   1.742   1.823
  966SOL    HW1 3797   5.397   1.751   1.870
  966SOL    HW2 3798   5.473   1.763   1.726
  967SOL     OW 3799   0.367   5.643   3.054
  967SOL    HW1 3800   0.353   5.560   3.001
  967SOL    HW2 3801   0.453   5.686   3.026
  968SOL     OW 3802   0.217   4.355   0.603
  968SOL    HW1 3803   0.193   4.450   0.625
  968SOL    HW2 3804   0.200   4.339   0.506
  969SOL     OW 3805   3.877   0.059   6.762
  969SOL    HW1 3806   3.896   0.156   6.775
  969SOL    HW2 3807   3.782   0.040   6.787
  970SOL     OW 3808   5.339   4.247   6.641
  970SOL    HW1 3809   5.268   4.192   6.597
  970SOL    HW2 3810   5.424   4.195   6.645
  971SOL     OW 3811   0.284   1.844   0.204
  971SOL    HW1 3812   0.303   1.798   0.290
  971SOL    HW2 3813   0.368   1.850   0.149
  972SOL     OW 3814   3.979   6.966   6.312
  972SOL    HW1 3815   4.032   6.895   6.266
  972SOL    HW2 3816   3.882   6.954   6.290
  973SOL     OW 3817   6.180   3.261   5.865
  973SOL    HW1 3818   6.139   3.253   5.956
  973SOL    HW2 3819   6.275   3.292   5.874
  974SOL     OW 3820   2.081   0.378   3.915
  974SOL    HW1 3821   2.117   0.465   3.882
  974SOL    HW2 3822   2.147   0.336   3.976
  975SOL     OW 3823   2.960   6.660   4.243
  975SOL    HW1 3824   2.910   6.726   4.299
  975SOL    HW2 3825   2.922   6.660   4.150
  976SOL     OW 3826   0.425   5.064   4.365
  976SOL    HW1 3827   0.345   5.040   4.421
  976SOL    HW2 3828   0.507   5.026   4.407
  977SOL     OW 3829   0.817   2.410   1.852
  977SOL    HW1 3830   0.792   2.482   1.917
  977SOL    HW2 3831   0.756   2.414   1.773
  978SOL     OW 3832   6.099   2.800   3.694
  978SOL    HW1 3833   6.000   2.795   3.690
  978SOL    HW2 3834   6.128   2.794   3.790
  979SOL     OW 3835   5.737   1.299   2.783
  979SOL    HW1 3836   5.767   1.262   2.696
  979SOL    HW2 3837   5.662   1.243   2.819
  980SOL     OW 3838   6.117   5.760   5.122
  980SOL    HW1 3839   6.102   5.859   5.114
  980SOL    HW2 3840   6.119   5.734   5.219
  981SOL     OW 3841   6.234   3.187   0.037
  981SOL    HW1 3842   6.196   3.177   6.970
  981SOL    HW2 3843   6.200   3.271   0.079
  982SOL     OW 3844   1.735   4.922   7.002
  982SOL    HW1 3845   1.685   4.882   0.054
  982SOL    HW2 3846   1.676   4.986   6.953
  983SOL     OW 3847   5.747   1.276   3.475
  983SOL    HW1 3848   5.818   1.212   3.443
  983SOL    HW2 3849   5.775   1.369   3.452
  984SOL     OW 3850   4.912   3.353   5.142
  984SOL    HW1 3851   4.969   3.303   5.206
  984SOL    HW2 3852   4.851   3.414   5.192
  985SOL     OW 3853   2.153   4.501   0.111
  985SOL    HW1 3854   2.059   4.477   0.134
  985SOL    HW2 3855   2.188   4.436   0.043
  986SOL     OW 3856   5.211   4.403   5.199
  986SOL    HW1 3857   5.258   4.466   5.261
  986SOL    HW2 3858   5.165   4.333   5.253
  987SOL     OW 3859   2.586   1.307   3.069
  987SOL    HW1 3860   2.579   1.398   3.028
  987SOL    HW2 3861   2.682   1.283   3.079
  988SOL     OW 3862   3.949   3.431   1.368
  988SOL    HW1 3863   3.945   3.383   1.456
  988SOL    HW2 3864   4.035   3.481   1.361
  989SOL     OW 3865   1.155   1.157   5.028
  989SOL    HW1 3866   1.095   1.086   5.065
  989SOL    HW2 3867   1.103   1.242   5.020
  990SOL     OW 3868   4.479   5.995   2.030
  990SOL    HW1 3869   4.399   5.939   2.053
  990SOL    HW2 3870   4.514   6.040   2.112
  991SOL     OW 3871   5.969   1.285   6.071
  991SOL    HW1 3872   5.881   1.239   6.070
  991SOL    HW2 3873   6.039   1.226   6.031
  992SOL     OW 3874   0.080   2.686   0.671
  992SOL    HW1 3875   0.107   2.644   0.584
  992SOL    HW2 3876   7.017   2.733   0.659
  993SOL     OW 3877   4.123   6.613   4.110
  993SOL    HW1 3878   4.024   6.607   4.097
  993SOL    HW2 3879   4.169   6.568   4.034
  994SOL     OW 3880   2.980   3.836   3.796
  994SOL    HW1 3881   2.958   3.835   3.893
  994SOL    HW2 3882   2.976   3.743   3.759
  995SOL     OW 3883   1.320   1.522   4.904
  995SOL    HW1 3884   1.303   1.435   4.859
  995SOL    HW2 3885   1.401   1.565   4.864
  996SOL     OW 3886   2.280   3.299   0.372
  996SOL    HW1 3887   2.254   3.351   0.454
  996SOL    HW2 3888   2.266   3.357   0.291
  997SOL     OW 3889   6.960   1.069   0.566
  997SOL    HW1 3890   6.909   1.114   0.493
  997SOL    HW2 3891   6.942   1.116   0.653
  998SOL     OW 3892   4.810   6.661   3.494
  998SOL    HW1 3893   4.762   6.587   3.541
  998SOL    HW2 3894   4.743   6.726   3.457
  999SOL     OW 3895   6.924   4.634   6.408
  999SOL    HW1 3896   6.911   4.564   6.338
  999SOL    HW2 3897   6.972   4.595   6.487
 1000SOL     OW 3898   3.620   1.671   5.499
 1000SOL    HW1 3899   3.648   1.575   5.491
 1000SOL    HW2 3900   3.609   1.711   5.408
 1001SOL     OW 3901   4.835   1.105   4.722
 1001SOL    HW1 3902   4.823   1.204   4.707
 1001SOL    HW2 3903   4.760   1.056   4.677
 1002SOL     OW 3904   0.203   1.070   0.593
 1002SOL    HW1 3905   0.213   1.054   0.691
 1002SOL    HW2 3906   0.106   1.070   0.569
 1003SOL     OW 3907   4.412   5.313   2.394
 1003SOL    HW1 3908   4.490   5.287   2.337
 1003SOL    HW2 3909   4.327   5.290   2.347
 1004SOL     OW 3910   5.985   6.044   6.729
 1004SOL    HW1 3911   6.064   5.993   6.763
 1004SOL    HW2 3912   5.943   6.094   6.804
 1005SOL     OW 3913   5.094   6.782   2.479
 1005SOL    HW1 3914   4.996   6.785   2.498
 1005SOL    HW2 3915   5.111   6.726   2.398
 1006SOL     OW 3916   1.775   5.892   0.120
 1006SOL    HW1 3917   1.780   5.873   0.218
 1006SOL    HW2 3918   1.793   5.807   0.069
 1007SOL     OW 3919   6.037   2.130   2.616
 1007SOL    HW1 3920   5.950   2.085   2.594
 1007SOL    HW2 3921   6.023   2.229   2.619
 1008SOL     OW 3922   3.682   1.150   5.356
 1008SOL    HW1 3923   3.618   1.074   5.370
 1008SOL    HW2 3924   3.776   1.115   5.356
 1009SOL     OW 3925   3.424   6.293   5.520
 1009SOL    HW1 3926   3.380   6.378   5.549
 1009SOL    HW2 3927   3.362   6.241   5.461
 1010SOL     OW 3928   4.928   6.583   5.807
 1010SOL    HW1 3929   4.864   6.597   5.731
 1010SOL    HW2 3930   4.946   6.671   5.851
 1011SOL     OW 3931   2.547   5.014   4.538
 1011SOL    HW1 3932   2.622   4.976   4.593
 1011SOL    HW2 3933   2.496   4.939   4.496
 1012SOL     OW 3934   3.014   6.209   0.637
 1012SOL    HW1 3935   3.092   6.263   0.668
 1012SOL    HW2 3936   2.942   6.211   0.707
 1013SOL     OW 3937   0.744   0.192   0.216
 1013SOL    HW1 3938   0.728   0.112   0.273
 1013SOL    HW2 3939   0.656   0.228   0.183
 1014SOL     OW 3940   6.296   6.847   6.813
 1014SOL    HW1 3941   6.312   6.887   6.904
 1014SOL    HW2 3942   6.326   6.752   6.813
 1015SOL     OW 3943   2.552   0.135   4.665
 1015SOL    HW1 3944   2.454   0.158   4.672
 1015SOL    HW2 3945   2.606   0.213   4.697
 1016SOL     OW 3946   4.241   3.201   1.652
 1016SOL    HW1 3947   4.163   3.150   1.618
 1016SOL    HW2 3948   4.322   3.143   1.653
 1017SOL     OW 3949   4.884   6.815   6.297
 1017SOL    HW1 3950   4.893   6.874   6.216
 1017SOL    HW2 3951   4.802   6.840   6.347
 1018SOL     OW 3952   0.957   1.667   1.302
 1018SOL    HW1 3953   0.921   1.659   1.395
 1018SOL    HW2 3954   0.954   1.762   1.272
 1019SOL     OW 3955   5.821   0.518   0.562
 1019SOL    HW1 3956   5.905   0.570   0.544
 1019SOL    HW2 3957   5.742   0.577   0.549
 1020SOL     OW 3958   4.055   1.952   1.396
 1020SOL    HW1 3959   4.093   2.040   1.367
 1020SOL    HW2 3960   4.099   1.924   1.482
 1021SOL     OW 3961   5.449   1.163   1.512
 1021SOL    HW1 3962   5.390   1.093   1.553
 1021SOL    HW2 3963   5.491   1.218   1.584
 1022SOL     OW 3964   2.828   3.680   6.918
 1022SOL    HW1 3965   2.853   3.776   6.920
 1022SOL    HW2 3966   2.738   3.670   6.876
 1023SOL     OW 3967   6.854   1.222   4.143
 1023SOL    HW1 3968   6.934   1.260   4.190
 1023SOL    HW2 3969   6.800   1.297   4.105
 1024SOL     OW 3970   6.433   2.289   3.863
 1024SOL    HW1 3971   6.421   2.340   3.948
 1024SOL    HW2 3972   6.343   2.259   3.830
 1025SOL     OW 3973   2.528   4.283   1.413
 1025SOL    HW1 3974   2.471   4.200   1.412
 1025SOL    HW2 3975   2.504   4.338   1.493
 1026SOL     OW 3976   0.464   2.844   6.656
 1026SOL    HW1 3977   0.533   2.875   6.590
 1026SOL    HW2 3978   0.392   2.913   6.664
 1027SOL     OW 3979   1.599   5.133   0.957
 1027SOL    HW1 3980   1.574   5.073   1.033
 1027SOL    HW2 3981   1.534   5.119   0.882
 1028SOL     OW 3982   0.633   5.364   6.818
 1028SOL    HW1 3983   0.593   5.453   6.838
 1028SOL    HW2 3984   0.727   5.362   6.852
 1029SOL     OW 3985   3.967   1.016   4.385
 1029SOL    HW1 3986   3.891   0.963   4.347
 1029SOL    HW2 3987   3.992   0.978   4.474
 1030SOL     OW 3988   4.273   4.670   4.419
 1030SOL    HW1 3989   4.350   4.713   4.465
 1030SOL    HW2 3990   4.304   4.591   4.367
 1031SOL     OW 3991   2.572   5.857   1.236
 1031SOL    HW1 3992   2.545   5.936   1.180
 1031SOL    HW2 3993   2.583   5.777   1.177
 1032SOL     OW 3994   1.053   2.205   4.984
 1032SOL    HW1 3995   1.098   2.260   5.054
 1032SOL    HW2 3996   0.955   2.199   5.004
 1033SOL     OW 3997   2.819   0.277   2.362
 1033SOL    HW1 3998   2.812   0.228   2.274
 1033SOL    HW2 3999   2.915   0.294   2.383
 1034SOL     OW 4000   0.185   5.160   2.419
 1034SOL    HW1 4001   0.231   5.182   2.333
 1034SOL    HW2 4002   0.201   5.234   2.484
 1035SOL     OW 4003   3.389   2.057   3.668
 1035SOL    HW1 4004   3.429   2.073   3.578
 1035SOL    HW2 4005   3.402   1.962   3.695
 1036SOL     OW 4006   4.935   6.683   6.727
 1036SOL    HW1 4007   4.982   6.712   6.644
 1036SOL    HW2 4008   4.871   6.609   6.705
 1037SOL     OW 4009   3.623   1.085   6.111
 1037SOL    HW1 4010   3.689   1.110   6.041
 1037SOL    HW2 4011   3.624   1.153   6.185
 1038SOL     OW 4012   3.161   1.661   5.003
 1038SOL    HW1 4013   3.096   1.590   4.976
 1038SOL    HW2 4014   3.113   1.748   5.015
 1039SOL     OW 4015   5.277   1.759   2.039
 1039SOL    HW1 4016   5.295   1.719   2.129
 1039SOL    HW2 4017   5.208   1.831   2.048
 1040SOL     OW 4018   6.140   4.944   4.787
 1040SOL    HW1 4019   6.169   5.031   4.825
 1040SOL    HW2 4020   6.056   4.914   4.832
 1041SOL     OW 4021   1.544   6.684   5.045
 1041SOL    HW1 4022   1.483   6.763   5.035
 1041SOL    HW2 4023   1.546   6.655   5.140
 1042SOL     OW 4024   4.601   4.687   0.501
 1042SOL    HW1 4025   4.555   4.608   0.460
 1042SOL    HW2 4026   4.662   4.729   0.434
 1043SOL     OW 4027   4.738   0.182   6.392
 1043SOL    HW1 4028   4.742   0.085   6.370
 1043SOL    HW2 4029   4.686   0.195   6.476
 1044SOL     OW 4030   4.039   3.622   4.142
 1044SOL    HW1 4031   4.087   3.598   4.227
 1044SOL    HW2 4032   4.103   3.616   4.065
 1045SOL     OW 4033   2.164   1.615   2.567
 1045SOL    HW1 4034   2.100   1.691   2.557
 1045SOL    HW2 4035   2.254   1.650   2.592
 1046SOL     OW 4036   2.750   0.783   2.241
 1046SOL    HW1 4037   2.675   0.744   2.188
 1046SOL    HW2 4038   2.833   0.783   2.186
 1047SOL     OW 4039   0.694   6.576   2.312
 1047SOL    HW1 4040   0.640   6.576   2.397
 1047SOL    HW2 4041   0.634   6.599   2.235
 1048SOL     OW 4042   0.092   3.901   5.178
 1048SOL    HW1 4043   0.143   3.914   5.092
 1048SOL    HW2 4044   0.137   3.832   5.234
 1049SOL     OW 4045   0.473   3.762   5.604
 1049SOL    HW1 4046   0.404   3.695   5.580
 1049SOL    HW2 4047   0.561   3.717   5.617
 1050SOL     OW 4048   3.149   0.366   1.644
 1050SOL    HW1 4049   3.246   0.382   1.627
 1050SOL    HW2 4050   3.131   0.268   1.644
 1051SOL     OW 4051   5.266   3.423   2.335
 1051SOL    HW1 4052   5.185   3.391   2.286
 1051SOL    HW2 4053   5.345   3.369   2.308
 1052SOL     OW 4054   2.497   6.263   3.775
 1052SOL    HW1 4055   2.512   6.310   3.861
 1052SOL    HW2 4056   2.418   6.303   3.728
 1053SOL     OW 4057   3.037   5.574   3.152
 1053SOL    HW1 4058   2.998   5.508   3.215
 1053SOL    HW2 4059   3.136   5.575   3.161
 1054SOL     OW 4060   3.506   5.977   5.639
 1054SOL    HW1 4061   3.457   5.967   5.553
 1054SOL    HW2 4062   3.456   6.039   5.700
 1055SOL     OW 4063   3.854   4.909   4.519
 1055SOL    HW1 4064   3.836   4.817   4.553
 1055SOL    HW2 4065   3.948   4.913   4.485
 1056SOL     OW 4066   2.838   6.039   0.211
 1056SOL    HW1 4067   2.870   6.121   0.260
 1056SOL    HW2 4068   2.866   5.958   0.263
 1057SOL     OW 4069   3.906   3.772   1.331
 1057SOL    HW1 4070   3.983   3.771   1.267
 1057SOL    HW2 4071   3.930   3.718   1.412
 1058SOL     OW 4072   2.300   0.405   2.456
 1058SOL    HW1 4073   2.342   0.496   2.446
 1058SOL    HW2 4074   2.268   0.373   2.367
 1059SOL     OW 4075   4.183   6.871   0.555
 1059SOL    HW1 4076   4.187   6.795   0.620
 1059SOL    HW2 4077   4.273   6.913   0.546
 1060SOL     OW 4078   3.457   1.800   3.812
 1060SOL    HW1 4079   3.357   1.799   3.820
 1060SOL    HW2 4080   3.495   1.719   3.857
 1061SOL     OW 4081   2.693   5.152   1.084
 1061SOL    HW1 4082   2.778   5.171   1.035
 1061SOL    HW2 4083   2.615   5.173   1.024
 1062SOL     OW 4084   5.473   4.130   5.152
 1062SOL    HW1 4085   5.387   4.178   5.133
 1062SOL    HW2 4086   5.517   4.171   5.232
 1063SOL     OW 4087   3.905   2.217   6.122
 1063SOL    HW1 4088   3.925   2.135   6.175
 1063SOL    HW2 4089   3.977   2.231   6.054
 1064SOL     OW 4090   0.793   2.996   2.514
 1064SOL    HW1 4091   0.817   3.009   2.610
 1064SOL    HW2 4092   0.694   2.985   2.506
 1065SOL     OW 4093   3.985   5.767   0.482
 1065SOL    HW1 4094   3.965   5.671   0.462
 1065SOL    HW2 4095   4.079   5.775   0.515
 1066SOL     OW 4096   5.424   6.780   3.740
 1066SOL    HW1 4097   5.418   6.740   3.648
 1066SOL    HW2 4098   5.452   6.876   3.733
 1067SOL     OW 4099   3.343   4.442   0.861
 1067SOL    HW1 4100   3.250   4.419   0.832
 1067SOL    HW2 4101   3.345   4.453   0.960
 1068SOL     OW 4102   1.225   5.015   2.398
 1068SOL    HW1 4103   1.187   5.012   2.490
 1068SOL    HW2 4104   1.322   5.035   2.402
 1069SOL     OW 4105   3.854   4.058   2.997
 1069SOL    HW1 4106   3.940   4.106   2.980
 1069SOL    HW2 4107   3.784   4.090   2.933
 1070SOL     OW 4108   1.400   6.351   0.403
 1070SOL    HW1 4109   1.437   6.266   0.367
 1070SOL    HW2 4110   1.301   6.352   0.392
 1071SOL     OW 4111   4.216   5.382   3.649
 1071SOL    HW1 4112   4.118   5.399   3.641
 1071SOL    HW2 4113   4.254   5.436   3.724
 1072SOL     OW 4114   4.133   5.494   3.397
 1072SOL    HW1 4115   4.205   5.492   3.467
 1072SOL    HW2 4116   4.048   5.525   3.439
 1073SOL     OW 4117   2.712   5.703   3.847
 1073SOL    HW1 4118   2.731   5.658   3.760
 1073SOL    HW2 4119   2.773   5.780   3.859
 1074SOL     OW 4120   2.438   5.221   3.804
 1074SOL    HW1 4121   2.484   5.149   3.750
 1074SOL    HW2 4122   2.422   5.187   3.897
 1075SOL     OW 4123   0.835   4.399   2.910
 1075SOL    HW1 4124   0.898   4.415   2.986
 1075SOL    HW2 4125   0.821   4.301   2.898
 1076SOL     OW 4126   5.175   3.577   3.230
 1076SOL    HW1 4127   5.245   3.522   3.277
 1076SOL    HW2 4128   5.090   3.525   3.223
 1077SOL     OW 4129   3.712   0.792   2.118
 1077SOL    HW1 4130   3.706   0.868   2.054
 1077SOL    HW2 4131   3.683   0.823   2.209
 1078SOL     OW 4132   5.894   2.539   1.896
 1078SOL    HW1 4133   5.852   2.616   1.944
 1078SOL    HW2 4134   5.984   2.519   1.935
 1079SOL     OW 4135   1.677   4.950   2.941
 1079SOL    HW1 4136   1.617   4.902   3.005
 1079SOL    HW2 4137   1.629   4.965   2.855
 1080SOL     OW 4138   2.368   5.448   4.144
 1080SOL    HW1 4139   2.466   5.456   4.127
 1080SOL    HW2 4140   2.317   5.473   4.062
 1081SOL     OW 4141   1.458   0.575   0.403
 1081SOL    HW1 4142   1.387   0.569   0.473
 1081SOL    HW2 4143   1.443   0.504   0.334
 1082SOL     OW 4144   2.046   0.856   1.231
 1082SOL    HW1 4145   2.121   0.909   1.270
 1082SOL    HW2 4146   1.961   0.878   1.278
 1083SOL     OW 4147   3.441   3.648   1.618
 1083SOL    HW1 4148   3.534   3.660   1.652
 1083SOL    HW2 4149   3.427   3.704   1.537
 1084SOL     OW 4150   5.994   4.367   1.722
 1084SOL    HW1 4151   5.967   4.433   1.792
 1084SOL    HW2 4152   6.029   4.284   1.767
 1085SOL     OW 4153   1.759   5.883   3.545
 1085SOL    HW1 4154   1.779   5.971   3.589
 1085SOL    HW2 4155   1.835   5.820   3.561
 1086SOL     OW 4156   2.718   6.523   2.288
 1086SOL    HW1 4157   2.711   6.575   2.203
 1086SOL    HW2 4158   2.804   6.472   2.290
 1087SOL     OW 4159   3.695   3.147   5.352
 1087SOL    HW1 4160   3.632   3.087   5.301
 1087SOL    HW2 4161   3.743   3.093   5.421
 1088SOL     OW 4162   6.767   5.201   2.441
 1088SOL    HW1 4163   6.715   5.161   2.366
 1088SOL    HW2 4164   6.704   5.236   2.510
 1089SOL     OW 4165   6.903   0.545   3.594
 1089SOL    HW1 4166   6.921   0.599   3.512
 1089SOL    HW2 4167   6.823   0.487   3.578
 1090SOL     OW 4168   3.343   2.144   6.697
 1090SOL    HW1 4169   3.409   2.108   6.763
 1090SOL    HW2 4170   3.274   2.074   6.678
 1091SOL     OW 4171   1.362   1.777   5.776
 1091SOL    HW1 4172   1.306   1.748   5.854
 1091SOL    HW2 4173   1.340   1.871   5.752
 1092SOL     OW 4174   3.082   4.605   0.807
 1092SOL    HW1 4175   3.136   4.686   0.784
 1092SOL    HW2 4176   2.991   4.611   0.766
 1093SOL     OW 4177   0.285   1.943   1.518
 1093SOL    HW1 4178   0.218   1.984   1.457
 1093SOL    HW2 4179   0.239   1.892   1.590
 1094SOL     OW 4180   0.448   5.768   2.675
 1094SOL    HW1 4181   0.358   5.800   2.645
 1094SOL    HW2 4182   0.503   5.743   2.596
 1095SOL     OW 4183   1.721   3.129   5.288
 1095SOL    HW1 4184   1.785   3.146   5.214
 1095SOL    HW2 4185   1.738   3.194   5.363
 1096SOL     OW 4186   3.653   2.885   2.242
 1096SOL    HW1 4187   3.711   2.916   2.316
 1096SOL    HW2 4188   3.635   2.787   2.252
 1097SOL     OW 4189   2.903   5.386   5.535
 1097SOL    HW1 4190   2.932   5.481   5.552
 1097SOL    HW2 4191   2.845   5.355   5.610
 1098SOL     OW 4192   2.652   0.772   2.808
 1098SOL    HW1 4193   2.589   0.699   2.783
 1098SOL    HW2 4194   2.616   0.859   2.775
 1099SOL     OW 4195   3.370   0.518   2.392
 1099SOL    HW1 4196   3.410   0.561   2.312
 1099SOL    HW2 4197   3.275   0.493   2.373
 1100SOL     OW 4198   6.989   0.510   0.609
 1100SOL    HW1 4199   6.919   0.577   0.585
 1100SOL    HW2 4200   7.000   0.445   0.534
 1101SOL     OW 4201   5.909   4.366   1.108
 1101SOL    HW1 4202   5.984   4.411   1.156
 1101SOL    HW2 4203   5.941   4.334   1.018
 1102SOL     OW 4204   6.582   3.977   4.212
 1102SOL    HW1 4205   6.613   3.887   4.244
 1102SOL    HW2 4206   6.492   3.997   4.252
 1103SOL     OW 4207   0.672   2.333   6.626
 1103SOL    HW1 4208   0.727   2.263   6.671
 1103SOL    HW2 4209   0.707   2.350   6.534
 1104SOL     OW 4210   3.315   5.372   5.337
 1104SOL    HW1 4211   3.282   5.358   5.243
 1104SOL    HW2 4212   3.240   5.355   5.401
 1105SOL     OW 4213   4.089   5.940   0.931
 1105SOL    HW1 4214   4.121   5.862   0.878
 1105SOL    HW2 4215   4.057   6.012   0.869
 1106SOL     OW 4216   0.813   2.195   6.386
 1106SOL    HW1 4217   0.731   2.183   6.330
 1106SOL    HW2 4218   0.807   2.135   6.466
 1107SOL     OW 4219   6.621   6.435   1.684
 1107SOL    HW1 4220   6.578   6.400   1.601
 1107SOL    HW2 4221   6.557   6.495   1.732
 1108SOL     OW 4222   1.094   1.056   0.053
 1108SOL    HW1 4223   1.100   0.968   0.005
 1108SOL    HW2 4224   1.021   1.111   0.013
 1109SOL     OW 4225   4.256   1.756   3.020
 1109SOL    HW1 4226   4.226   1.709   3.103
 1109SOL    HW2 4227   4.356   1.765   3.021
 1110SOL     OW 4228   3.667   3.784   2.973
 1110SOL    HW1 4229   3.609   3.823   3.044
 1110SOL    HW2 4230   3.618   3.709   2.928
 1111SOL     OW 4231   4.114   0.230   6.926
 1111SOL    HW1 4232   4.125   0.148   6.983
 1111SOL    HW2 4233   4.018   0.259   6.928
 1112SOL     OW 4234   1.069   1.474   2.444
 1112SOL    HW1 4235   0.973   1.497   2.459
 1112SOL    HW2 4236   1.126   1.534   2.500
 1113SOL     OW 4237   0.482   4.837   1.834
 1113SOL    HW1 4238   0.537   4.756   1.856
 1113SOL    HW2 4239   0.445   4.875   1.919
 1114SOL     OW 4240   6.059   0.980   5.853
 1114SOL    HW1 4241   6.113   1.030   5.921
 1114SOL    HW2 4242   6.044   1.040   5.774
 1115SOL     OW 4243   1.850   4.949   0.422
 1115SOL    HW1 4244   1.867   4.866   0.475
 1115SOL    HW2 4245   1.931   4.971   0.367
 1116SOL     OW 4246   3.162   6.707   6.424
 1116SOL    HW1 4247   3.160   6.670   6.331
 1116SOL    HW2 4248   3.140   6.634   6.489
 1117SOL     OW 4249   3.017   2.846   0.600
 1117SOL    HW1 4250   3.034   2.944   0.598
 1117SOL    HW2 4251   3.047   2.805   0.513
 1118SOL     OW 4252   1.945   2.292   1.173
 1118SOL    HW1 4253   1.933   2.338   1.085
 1118SOL    HW2 4254   1.890   2.209   1.175
 1119SOL     OW 4255   3.310   3.270   3.511
 1119SOL    HW1 4256   3.362   3.260   3.595
 1119SOL    HW2 4257   3.257   3.187   3.494
 1120SOL     OW 4258   3.108   1.469   3.190
 1120SOL    HW1 4259   3.054   1.516   3.259
 1120SOL    HW2 4260   3.202   1.500   3.194
 1121SOL     OW 4261   4.794   4.152   2.747
 1121SOL    HW1 4262   4.866   4.219   2.763
 1121SOL    HW2 4263   4.718   4.194   2.698
 1122SOL     OW 4264   4.629   5.073   6.741
 1122SOL    HW1 4265   4.611   5.098   6.646
 1122SOL    HW2 4266   4.724   5.044   6.751
 1123SOL     OW 4267   4.227   0.648   2.105
 1123SOL    HW1 4268   4.147   0.691   2.062
 1123SOL    HW2 4269   4.278   0.717   2.156
 1124SOL     OW 4270   2.591   4.998   3.390
 1124SOL    HW1 4271   2.634   5.088   3.382
 1124SOL    HW2 4272   2.495   5.009   3.414
 1125SOL     OW 4273   3.176   4.631   5.514
 1125SOL    HW1 4274   3.125   4.562   5.566
 1125SOL    HW2 4275   3.204   4.705   5.575
 1126SOL     OW 4276   6.156   0.736   2.149
 1126SOL    HW1 4277   6.143   0.803   2.222
 1126SOL    HW2 4278   6.183   0.783   2.065
 1127SOL     OW 4279   2.809   5.455   5.929
 1127SOL    HW1 4280   2.771   5.548   5.922
 1127SOL    HW2 4281   2.810   5.413   5.839
 1128SOL     OW 4282   2.513   1.755   5.564
 1128SOL    HW1 4283   2.489   1.813   5.487
 1128SOL    HW2 4284   2.607   1.722   5.554
 1129SOL     OW 4285   3.934   5.763   6.477
 1129SOL    HW1 4286   3.962   5.701   6.403
 1129SOL    HW2 4287   3.908   5.709   6.558
 1130SOL     OW 4288   1.255   4.768   5.423
 1130SOL    HW1 4289   1.233   4.672   5.438
 1130SOL    HW2 4290   1.171   4.822   5.421
 1131SOL     OW 4291   1.171   3.912   5.785
 1131SOL    HW1 4292   1.182   3.817   5.757
 1131SOL    HW2 4293   1.232   3.970   5.732
 1132SOL     OW 4294   5.161   6.610   4.617
 1132SOL    HW1 4295   5.073   6.567   4.596
 1132SOL    HW2 4296   5.161   6.704   4.583
 1133SOL     OW 4297   0.091   2.091   0.316
 1133SOL    HW1 4298   0.110   2.169   0.256
 1133SOL    HW2 4299   0.082   2.008   0.261
 1134SOL     OW 4300   6.971   3.566   5.876
 1134SOL    HW1 4301   0.034   3.524   5.900
 1134SOL    HW2 4302   6.937   3.620   5.953
 1135SOL     OW 4303   6.700   1.813   3.828
 1135SOL    HW1 4304   6.761   1.868   3.772
 1135SOL    HW2 4305   6.635   1.764   3.768
 1136SOL     OW 4306   3.650   5.662   3.861
 1136SOL    HW1 4307   3.693   5.658   3.951
 1136SOL    HW2 4308   3.636   5.570   3.826
 1137SOL     OW 4309   0.555   0.513   6.890
 1137SOL    HW1 4310   0.541   0.414   6.900
 1137SOL    HW2 4311   0.611   0.546   6.967
 1138SOL     OW 4312   0.918   2.282   5.896
 1138SOL    HW1 4313   0.896   2.351   5.965
 1138SOL    HW2 4314   0.998   2.310   5.844
 1139SOL     OW 4315   6.840   0.033   3.023
 1139SOL    HW1 4316   6.908   7.006   2.971
 1139SOL    HW2 4317   6.751   7.012   3.016
 1140SOL     OW 4318   4.303   2.011   3.289
 1140SOL    HW1 4319   4.223   1.974   3.241
 1140SOL    HW2 4320   4.340   2.089   3.239
 1141SOL     OW 4321   0.305   0.055   6.184
 1141SOL    HW1 4322   0.278   0.132   6.242
 1141SOL    HW2 4323   0.402   0.064   6.160
 1142SOL     OW 4324   5.731   6.994   5.704
 1142SOL    HW1 4325   5.822   6.954   5.720
 1142SOL    HW2 4326   5.669   6.963   5.776
 1143SOL     OW 4327   5.634   2.625   1.304
 1143SOL    HW1 4328   5.636   2.612   1.205
 1143SOL    HW2 4329   5.584   2.550   1.347
 1144SOL     OW 4330   0.985   6.793   4.673
 1144SOL    HW1 4331   0.986   6.714   4.734
 1144SOL    HW2 4332   1.072   6.842   4.680
 1145SOL     OW 4333   3.235   5.269   5.093
 1145SOL    HW1 4334   3.154   5.274   5.035
 1145SOL    HW2 4335   3.228   5.189   5.152
 1146SOL     OW 4336   5.591   1.860   2.071
 1146SOL    HW1 4337   5.532   1.819   2.002
 1146SOL    HW2 4338   5.562   1.954   2.088
 1147SOL     OW 4339   6.612   3.962   2.406
 1147SOL    HW1 4340   6.540   3.943   2.473
 1147SOL    HW2 4341   6.656   3.877   2.379
 1148SOL     OW 4342   5.866   6.830   6.093
 1148SOL    HW1 4343   5.910   6.885   6.164
 1148SOL    HW2 4344   5.935   6.801   6.026
 1149SOL     OW 4345   4.897   3.418   2.479
 1149SOL    HW1 4346   4.947   3.504   2.491
 1149SOL    HW2 4347   4.884   3.401   2.381
 1150SOL     OW 4348   2.550   5.888   5.087
 1150SOL    HW1 4349   2.459   5.851   5.106
 1150SOL    HW2 4350   2.559   5.905   4.989
 1151SOL     OW 4351   2.043   5.456   0.624
 1151SOL    HW1 4352   2.067   5.519   0.550
 1151SOL    HW2 4353   2.050   5.503   0.712
 1152SOL     OW 4354   6.594   0.793   3.735
 1152SOL    HW1 4355   6.623   0.816   3.642
 1152SOL    HW2 4356   6.495   0.779   3.737
 1153SOL     OW 4357   1.435   4.408   2.195
 1153SOL    HW1 4358   1.362   4.469   2.225
 1153SOL    HW2 4359   1.493   4.384   2.272
 1154SOL     OW 4360   1.591   3.418   1.930
 1154SOL    HW1 4361   1.539   3.386   1.851
 1154SOL    HW2 4362   1.529   3.431   2.008
 1155SOL     OW 4363   5.012   0.927   2.339
 1155SOL    HW1 4364   4.989   0.932   2.436
 1155SOL    HW2 4365   4.988   1.014   2.295
 1156SOL     OW 4366   3.041   1.219   4.291
 1156SOL    HW1 4367   2.972   1.218   4.363
 1156SOL    HW2 4368   3.102   1.298   4.304
 1157SOL     OW 4369   2.131   3.440   3.556
 1157SOL    HW1 4370   2.089   3.475   3.639
 1157SOL    HW2 4371   2.146   3.514   3.491
 1158SOL     OW 4372   4.691   5.348   5.283
 1158SOL    HW1 4373   4.649   5.281   5.221
 1158SOL    HW2 4374   4.709   5.432   5.233
 1159SOL     OW 4375   6.338   3.923   3.078
 1159SOL    HW1 4376   6.323   3.934   2.979
 1159SOL    HW2 4377   6.348   4.014   3.120
 1160SOL     OW 4378   2.806   2.459   1.526
 1160SOL    HW1 4379   2.792   2.506   1.613
 1160SOL    HW2 4380   2.892   2.491   1.485
 1161SOL     OW 4381   3.934   1.381   2.902
 1161SOL    HW1 4382   4.029   1.352   2.888
 1161SOL    HW2 4383   3.877   1.300   2.918
 1162SOL     OW 4384   3.346   4.835   1.150
 1162SOL    HW1 4385   3.349   4.811   1.247
 1162SOL    HW2 4386   3.272   4.900   1.134
 1163SOL     OW 4387   4.712   6.430   3.610
 1163SOL    HW1 4388   4.766   6.354   3.573
 1163SOL    HW2 4389   4.721   6.432   3.709
 1164SOL     OW 4390   6.448   4.214   4.475
 1164SOL    HW1 4391   6.487   4.296   4.434
 1164SOL    HW2 4392   6.349   4.225   4.485
 1165SOL     OW 4393   0.070   5.055   1.968
 1165SOL    HW1 4394   0.088   4.985   1.899
 1165SOL    HW2 4395   7.003   5.092   1.954
 1166SOL     OW 4396   3.373   1.180   5.930
 1166SOL    HW1 4397   3.424   1.182   5.844
 1166SOL    HW2 4398   3.402   1.101   5.984
 1167SOL     OW 4399   4.240   1.680   5.498
 1167SOL    HW1 4400   4.217   1.583   5.505
 1167SOL    HW2 4401   4.310   1.702   5.565
 1168SOL     OW 4402   5.542   1.195   4.410
 1168SOL    HW1 4403   5.607   1.157   4.475
 1168SOL    HW2 4404   5.489   1.268   4.453
 1169SOL     OW 4405   2.332   2.463   1.047
 1169SOL    HW1 4406   2.271   2.444   0.971
 1169SOL    HW2 4407   2.427   2.446   1.020
 1170SOL     OW 4408   2.470   1.082   2.427
 1170SOL    HW1 4409   2.414   1.159   2.457
 1170SOL    HW2 4410   2.488   1.090   2.329
 1171SOL     OW 4411   4.574   0.798   0.968
 1171SOL    HW1 4412   4.481   0.836   0.957
 1171SOL    HW2 4413   4.601   0.751   0.884
 1172SOL     OW 4414   3.844   3.275   5.713
 1172SOL    HW1 4415   3.763   3.219   5.730
 1172SOL    HW2 4416   3.913   3.221   5.666
 1173SOL     OW 4417   5.639   5.918   6.658
 1173SOL    HW1 4418   5.584   5.843   6.622
 1173SOL    HW2 4419   5.706   5.947   6.590
 1174SOL     OW 4420   3.593   5.770   6.535
 1174SOL    HW1 4421   3.559   5.679   6.560
 1174SOL    HW2 4422   3.693   5.769   6.537
 1175SOL     OW 4423   0.173   5.154   5.094
 1175SOL    HW1 4424   0.207   5.068   5.132
 1175SOL    HW2 4425   0.208   5.166   5.001
 1176SOL     OW 4426   6.205   3.105   1.418
 1176SOL    HW1 4427   6.194   3.010   1.447
 1176SOL    HW2 4428   6.176   3.114   1.323
 1177SOL     OW 4429   6.945   2.948   5.325
 1177SOL    HW1 4430   6.923   3.006   5.404
 1177SOL    HW2 4431   6.878   2.875   5.318
 1178SOL     OW 4432   4.447   4.615   2.139
 1178SOL    HW1 4433   4.422   4.648   2.048
 1178SOL    HW2 4434   4.475   4.519   2.133
 1179SOL     OW 4435   1.547   5.341   6.280
 1179SOL    HW1 4436   1.454   5.321   6.309
 1179SOL    HW2 4437   1.588   5.259   6.240
 1180SOL     OW 4438   2.439   1.223   4.308
 1180SOL    HW1 4439   2.481   1.298   4.256
 1180SOL    HW2 4440   2.486   1.138   4.288
 1181SOL     OW 4441   1.044   4.103   1.844
 1181SOL    HW1 4442   0.954   4.065   1.823
 1181SOL    HW2 4443   1.041   4.202   1.838
 1182SOL     OW 4444   6.673   3.569   4.074
 1182SOL    HW1 4445   6.625   3.581   3.987
 1182SOL    HW2 4446   6.644   3.483   4.115
 1183SOL     OW 4447   4.413   6.086   0.756
 1183SOL    HW1 4448   4.391   6.126   0.667
 1183SOL    HW2 4449   4.501   6.122   0.788
 1184SOL     OW 4450   4.251   3.532   6.723
 1184SOL    HW1 4451   4.254   3.631   6.719
 1184SOL    HW2 4452   4.215   3.496   6.637
 1185SOL     OW 4453   3.444   1.390   6.314
 1185SOL    HW1 4454   3.425   1.456   6.386
 1185SOL    HW2 4455   3.522   1.422   6.260
 1186SOL     OW 4456   4.276   6.678   5.515
 1186SOL    HW1 4457   4.216   6.600   5.532
 1186SOL    HW2 4458   4.333   6.658   5.435
 1187SOL     OW 4459   0.532   2.552   5.051
 1187SOL    HW1 4460   0.526   2.472   5.110
 1187SOL    HW2 4461   0.454   2.554   4.988
 1188SOL     OW 4462   2.477   0.985   5.713
 1188SOL    HW1 4463   2.497   1.057   5.646
 1188SOL    HW2 4464   2.378   0.971   5.717
 1189SOL     OW 4465   0.640   1.378   1.379
 1189SOL    HW1 4466   0.600   1.467   1.402
 1189SOL    HW2 4467   0.730   1.392   1.338
 1190SOL     OW 4468   2.873   6.476   1.578
 1190SOL    HW1 4469   2.903   6.497   1.484
 1190SOL    HW2 4470   2.851   6.379   1.585
 1191SOL     OW 4471   1.696   3.948   1.842
 1191SOL    HW1 4472   1.630   3.890   1.890
 1191SOL    HW2 4473   1.703   4.036   1.889
 1192SOL     OW 4474   3.339   5.729   2.395
 1192SOL    HW1 4475   3.325   5.662   2.468
 1192SOL    HW2 4476   3.356   5.819   2.434
 1193SOL     OW 4477   2.844   2.294   3.932
 1193SOL    HW1 4478   2.776   2.362   3.906
 1193SOL    HW2 4479   2.876   2.245   3.850
 1194SOL     OW 4480   6.462   2.388   2.464
 1194SOL    HW1 4481   6.390   2.457   2.470
 1194SOL    HW2 4482   6.536   2.422   2.406
 1195SOL     OW 4483   4.260   0.694   6.942
 1195SOL    HW1 4484   4.206   0.777   6.954
 1195SOL    HW2 4485   4.323   0.706   6.865
 1196SOL     OW 4486   1.183   5.434   3.400
 1196SOL    HW1 4487   1.187   5.516   3.343
 1196SOL    HW2 4488   1.276   5.408   3.428
 1197SOL     OW 4489   3.811   4.878   0.015
 1197SOL    HW1 4490   3.889   4.894   6.978
 1197SOL    HW2 4491   3.739   4.945   7.020
 1198SOL     OW 4492   3.627   1.508   3.215
 1198SOL    HW1 4493   3.634   1.539   3.310
 1198SOL    HW2 4494   3.716   1.519   3.170
 1199SOL     OW 4495   3.311   3.885   3.874
 1199SOL    HW1 4496   3.376   3.887   3.799
 1199SOL    HW2 4497   3.252   3.804   3.865
 1200SOL     OW 4498   4.895   4.114   1.076
 1200SOL    HW1 4499   4.855   4.160   1.156
 1200SOL    HW2 4500   4.834   4.126   0.998
 1201SOL     OW 4501   1.956   1.504   5.584
 1201SOL    HW1 4502   1.895   1.435   5.546
 1201SOL    HW2 4503   1.986   1.565   5.510
 1202SOL     OW 4504   6.299   6.618   4.288
 1202SOL    HW1 4505   6.341   6.534   4.253
 1202SOL    HW2 4506   6.317   6.626   4.386
 1203SOL     OW 4507   5.652   0.249   1.843
 1203SOL    HW1 4508   5.557   0.229   1.819
 1203SOL    HW2 4509   5.669   0.347   1.834
 1204SOL     OW 4510   2.755   0.427   0.352
 1204SOL    HW1 4511   2.828   0.475   0.401
 1204SOL    HW2 4512   2.670   0.434   0.403
 1205SOL     OW 4513   1.121   2.823   6.326
 1205SOL    HW1 4514   1.164   2.903   6.369
 1205SOL    HW2 4515   1.178   2.790   6.252
 1206SOL     OW 4516   6.251   1.810   5.490
 1206SOL    HW1 4517   6.284   1.718   5.468
 1206SOL    HW2 4518   6.228   1.815   5.587
 1207SOL     OW 4519   6.463   6.096   5.933
 1207SOL    HW1 4520   6.534   6.077   5.866
 1207SOL    HW2 4521   6.377   6.052   5.906
 1208SOL     OW 4522   3.179   4.063   3.226
 1208SOL    HW1 4523   3.258   4.016   3.265
 1208SOL    HW2 4524   3.201   4.095   3.134
 1209SOL     OW 4525   6.793   3.404   4.918
 1209SOL    HW1 4526   6.750   3.494   4.918
 1209SOL    HW2 4527   6.860   3.399   4.844
 1210SOL     OW 4528   2.554   0.260   4.334
 1210SOL    HW1 4529   2.589   0.342   4.288
 1210SOL    HW2 4530   2.455   0.254   4.323
 1211SOL     OW 4531   6.794   3.605   3.427
 1211SOL    HW1 4532   6.704   3.645   3.418
 1211SOL    HW2 4533   6.854   3.668   3.477
 1212SOL     OW 4534   1.010   4.023   2.647
 1212SOL    HW1 4535   0.979   4.103   2.596
 1212SOL    HW2 4536   0.934   3.987   2.701
 1213SOL     OW 4537   6.507   3.570   5.064
 1213SOL    HW1 4538   6.533   3.485   5.110
 1213SOL    HW2 4539   6.582   3.603   5.007
 1214SOL     OW 4540   0.382   1.985   0.536
 1214SOL    HW1 4541   0.481   1.994   0.534
 1214SOL    HW2 4542   0.340   2.070   0.505
 1215SOL     OW 4543   0.611   0.351   1.689
 1215SOL    HW1 4544   0.586   0.372   1.784
 1215SOL    HW2 4545   0.586   0.256   1.669
 1216SOL     OW 4546   1.894   0.152   0.753
 1216SOL    HW1 4547   1.874   0.200   0.668
 1216SOL    HW2 4548   1.853   0.060   0.750
 1217SOL     OW 4549   1.559   2.763   3.289
 1217SOL    HW1 4550   1.547   2.769   3.190
 1217SOL    HW2 4551   1.472   2.781   3.334
 1218SOL     OW 4552   6.936   4.299   3.856
 1218SOL    HW1 4553   6.839   4.292   3.881
 1218SOL    HW2 4554   6.949   4.377   3.795
 1219SOL     OW 4555   1.313   5.908   2.718
 1219SOL    HW1 4556   1.260   5.847   2.658
 1219SOL    HW2 4557   1.309   5.874   2.812
 1220SOL     OW 4558   6.471   4.425   3.109
 1220SOL    HW1 4559   6.445   4.337   3.147
 1220SOL    HW2 4560   6.565   4.447   3.137
 1221SOL     OW 4561   4.675   5.015   0.090
 1221SOL    HW1 4562   4.753   5.039   0.031
 1221SOL    HW2 4563   4.600   5.078   0.072
 1222SOL     OW 4564   6.784   5.136   0.936
 1222SOL    HW1 4565   6.697   5.091   0.959
 1222SOL    HW2 4566   6.770   5.234   0.927
 1223SOL     OW 4567   0.835   4.231   5.138
 1223SOL    HW1 4568   0.877   4.260   5.225
 1223SOL    HW2 4569   0.766   4.298   5.110
 1224SOL     OW 4570   4.075   5.386   1.795
 1224SOL    HW1 4571   4.046   5.472   1.754
 1224SOL    HW2 4572   4.155   5.351   1.746
 1225SOL     OW 4573   4.954   1.701   6.684
 1225SOL    HW1 4574   4.860   1.700   6.717
 1225SOL    HW2 4575   4.980   1.794   6.660
 1226SOL     OW 4576   5.970   5.623   0.628
 1226SOL    HW1 4577   6.066   5.607   0.602
 1226SOL    HW2 4578   5.932   5.538   0.667
 1227SOL     OW 4579   6.290   4.500   0.535
 1227SOL    HW1 4580   6.228   4.506   0.457
 1227SOL    HW2 4581   6.330   4.590   0.553
 1228SOL     OW 4582   4.169   3.765   5.232
 1228SOL    HW1 4583   4.108   3.772   5.153
 1228SOL    HW2 4584   4.221   3.680   5.227
 1229SOL     OW 4585   1.760   5.568   1.922
 1229SOL    HW1 4586   1.828   5.565   1.995
 1229SOL    HW2 4587   1.786   5.506   1.848
 1230SOL     OW 4588   5.501   4.579   0.326
 1230SOL    HW1 4589   5.520   4.637   0.405
 1230SOL    HW2 4590   5.517   4.484   0.349
 1231SOL     OW 4591   2.181   0.765   0.883
 1231SOL    HW1 4592   2.181   0.840   0.950
 1231SOL    HW2 4593   2.200   0.801   0.792
 1232SOL     OW 4594   2.409   2.015   6.037
 1232SOL    HW1 4595   2.414   2.111   6.011
 1232SOL    HW2 4596   2.409   1.958   5.955
 1233SOL     OW 4597   0.229   5.110   4.829
 1233SOL    HW1 4598   0.288   5.030   4.824
 1233SOL    HW2 4599   0.148   5.095   4.772
 1234SOL     OW 4600   6.912   4.083   5.292
 1234SOL    HW1 4601   6.896   4.175   5.258
 1234SOL    HW2 4602   7.006   4.056   5.272
 1235SOL     OW 4603   6.862   5.029   6.952
 1235SOL    HW1 4604   6.793   5.101   6.950
 1235SOL    HW2 4605   6.877   4.999   0.022
 1236SOL     OW 4606   0.326   1.131   2.981
 1236SOL    HW1 4607   0.297   1.067   2.910
 1236SOL    HW2 4608   0.266   1.212   2.980
 1237SOL     OW 4609   0.539   0.522   5.413
 1237SOL    HW1 4610   0.533   0.440   5.470
 1237SOL    HW2 4611   0.451   0.537   5.368
 1238SOL     OW 4612   0.563   0.636   4.303
 1238SOL    HW1 4613   0.476   0.648   4.352
 1238SOL    HW2 4614   0.639   0.644   4.368
 1239SOL     OW 4615   4.776   4.988   3.510
 1239SOL    HW1 4616   4.773   4.890   3.488
 1239SOL    HW2 4617   4.784   4.999   3.609
 1240SOL     OW 4618   0.802   4.001   1.847
 1240SOL    HW1 4619   0.712   3.959   1.833
 1240SOL    HW2 4620   0.848   3.957   1.924
 1241SOL     OW 4621   3.243   5.832   6.050
 1241SOL    HW1 4622   3.167   5.897   6.039
 1241SOL    HW2 4623   3.228   5.778   6.133
 1242SOL     OW 4624   2.536   5.634   0.770
 1242SOL    HW1 4625   2.613   5.636   0.706
 1242SOL    HW2 4626   2.450   5.622   0.719
 1243SOL     OW 4627   0.666   4.494   4.075
 1243SOL    HW1 4628   0.731   4.499   4.000
 1243SOL    HW2 4629   0.574   4.515   4.042
 1244SOL     OW 4630   6.103   6.406   4.681
 1244SOL    HW1 4631   6.104   6.505   4.696
 1244SOL    HW2 4632   6.158   6.361   4.752
 1245SOL     OW 4633   4.352   6.939   1.647
 1245SOL    HW1 4634   4.261   6.972   1.670
 1245SOL    HW2 4635   4.409   7.017   1.618
 1246SOL     OW 4636   5.179   2.145   2.195
 1246SOL    HW1 4637   5.131   2.179   2.275
 1246SOL    HW2 4638   5.251   2.210   2.170
 1247SOL     OW 4639   4.443   6.145   3.009
 1247SOL    HW1 4640   4.519   6.196   3.049
 1247SOL    HW2 4641   4.399   6.090   3.079
 1248SOL     OW 4642   0.213   0.242   4.879
 1248SOL    HW1 4643   0.277   0.300   4.929
 1248SOL    HW2 4644   0.131   0.296   4.856
 1249SOL     OW 4645   6.365   6.992   0.408
 1249SOL    HW1 4646   6.395   0.026   0.483
 1249SOL    HW2 4647   6.430   6.918   0.394
 1250SOL     OW 4648   0.482   4.085   4.824
 1250SOL    HW1 4649   0.464   4.048   4.915
 1250SOL    HW2 4650   0.399   4.081   4.769
 1251SOL     OW 4651   2.081   0.405   3.214
 1251SOL    HW1 4652   2.047   0.374   3.125
 1251SOL    HW2 4653   2.044   0.347   3.286
 1252SOL     OW 4654   2.803   5.103   6.444
 1252SOL    HW1 4655   2.783   5.200   6.434
 1252SOL    HW2 4656   2.721   5.055   6.475
 1253SOL     OW 4657   3.300   4.764   0.542
 1253SOL    HW1 4658   3.343   4.839   0.493
 1253SOL    HW2 4659   3.335   4.761   0.636
 1254SOL     OW 4660   6.620   1.022   3.882
 1254SOL    HW1 4661   6.544   1.073   3.923
 1254SOL    HW2 4662   6.584   0.948   3.826
 1255SOL     OW 4663   5.527   1.976   6.530
 1255SOL    HW1 4664   5.521   2.030   6.614
 1255SOL    HW2 4665   5.461   1.902   6.532
 1256SOL     OW 4666   6.536   6.409   6.041
 1256SOL    HW1 4667   6.495   6.463   5.968
 1256SOL    HW2 4668   6.569   6.322   6.004
 1257SOL     OW 4669   0.040   6.262   2.166
 1257SOL    HW1 4670   0.074   6.345   2.122
 1257SOL    HW2 4671   0.117   6.202   2.188
 1258SOL     OW 4672   5.234   5.614   6.329
 1258SOL    HW1 4673   5.308   5.575   6.383
 1258SOL    HW2 4674   5.157   5.550   6.327
 1259SOL     OW 4675   6.085   6.729   4.921
 1259SOL    HW1 4676   6.107   6.659   4.989
 1259SOL    HW2 4677   6.003   6.779   4.950
 1260SOL     OW 4678   3.351   0.631   0.751
 1260SOL    HW1 4679   3.373   0.581   0.667
 1260SOL    HW2 4680   3.390   0.584   0.830
 1261SOL     OW 4681   0.732   3.991   5.083
 1261SOL    HW1 4682   0.746   3.985   4.984
 1261SOL    HW2 4683   0.759   4.081   5.116
 1262SOL     OW 4684   5.089   6.679   0.340
 1262SOL    HW1 4685   5.067   6.663   0.436
 1262SOL    HW2 4686   5.005   6.696   0.288
 1263SOL     OW 4687   6.998   1.524   1.102
 1263SOL    HW1 4688   6.983   1.436   1.147
 1263SOL    HW2 4689   6.910   1.571   1.091
 1264SOL     OW 4690   5.797   2.660   5.117
 1264SOL    HW1 4691   5.834   2.753   5.126
 1264SOL    HW2 4692   5.700   2.665   5.095
 1265SOL     OW 4693   5.623   5.777   3.902
 1265SOL    HW1 4694   5.658   5.814   3.988
 1265SOL    HW2 4695   5.684   5.704   3.870
 1266SOL     OW 4696   2.368   0.822   3.955
 1266SOL    HW1 4697   2.397   0.914   3.927
 1266SOL    HW2 4698   2.447   0.761   3.951
 1267SOL     OW 4699   0.100   4.486   2.214
 1267SOL    HW1 4700   0.016   4.516   2.169
 1267SOL    HW2 4701   0.168   4.462   2.146
 1268SOL     OW 4702   6.239   4.221   6.300
 1268SOL    HW1 4703   6.275   4.271   6.222
 1268SOL    HW2 4704   6.281   4.255   6.384
 1269SOL     OW 4705   1.206   3.637   5.724
 1269SOL    HW1 4706   1.303   3.615   5.711
 1269SOL    HW2 4707   1.154   3.608   5.643
 1270SOL     OW 4708   1.453   2.354   3.718
 1270SOL    HW1 4709   1.517   2.387   3.648
 1270SOL    HW2 4710   1.363   2.342   3.677
 1271SOL     OW 4711   5.078   3.998   3.028
 1271SOL    HW1 4712   5.088   4.093   2.998
 1271SOL    HW2 4713   4.982   3.979   3.048
 1272SOL     OW 4714   5.621   6.695   0.917
 1272SOL    HW1 4715   5.659   6.648   0.837
 1272SOL    HW2 4716   5.523   6.679   0.921
 1273SOL     OW 4717   2.721   6.481   4.191
 1273SOL    HW1 4718   2.745   6.489   4.287
 1273SOL    HW2 4719   2.626   6.448   4.182
 1274SOL     OW 4720   5.510   2.419   1.431
 1274SOL    HW1 4721   5.543   2.330   1.400
 1274SOL    HW2 4722   5.528   2.429   1.529
 1275SOL     OW 4723   3.544   1.182   3.449
 1275SOL    HW1 4724   3.500   1.174   3.360
 1275SOL    HW2 4725   3.502   1.118   3.513
 1276SOL     OW 4726   5.517   6.654   3.472
 1276SOL    HW1 4727   5.587   6.716   3.438
 1276SOL    HW2 4728   5.469   6.612   3.395
 1277SOL     OW 4729   0.674   1.885   4.801
 1277SOL    HW1 4730   0.742   1.921   4.737
 1277SOL    HW2 4731   0.676   1.938   4.885
 1278SOL     OW 4732   2.704   1.709   4.958
 1278SOL    HW1 4733   2.614   1.667   4.966
 1278SOL    HW2 4734   2.715   1.779   5.028
 1279SOL     OW 4735   2.149   5.200   0.604
 1279SOL    HW1 4736   2.111   5.123   0.655
 1279SOL    HW2 4737   2.095   5.282   0.623
 1280SOL     OW 4738   0.715   6.511   2.932
 1280SOL    HW1 4739   0.762   6.553   3.010
 1280SOL    HW2 4740   0.731   6.412   2.933
 1281SOL     OW 4741   1.133   6.565   4.022
 1281SOL    HW1 4742   1.080   6.610   4.094
 1281SOL    HW2 4743   1.180   6.634   3.967
 1282SOL     OW 4744   1.726   6.892   2.549
 1282SOL    HW1 4745   1.815   6.849   2.532
 1282SOL    HW2 4746   1.656   6.846   2.494
 1283SOL     OW 4747   5.377   4.654   5.292
 1283SOL    HW1 4748   5.358   4.723   5.223
 1283SOL    HW2 4749   5.471   4.622   5.283
 1284SOL     OW 4750   2.842   2.331   2.891
 1284SOL    HW1 4751   2.893   2.339   2.977
 1284SOL    HW2 4752   2.900   2.286   2.823
 1285SOL     OW 4753   5.967   2.207   5.792
 1285SOL    HW1 4754   5.992   2.300   5.821
 1285SOL    HW2 4755   5.868   2.197   5.795
 1286SOL     OW 4756   5.281   5.725   0.891
 1286SOL    HW1 4757   5.374   5.733   0.927
 1286SOL    HW2 4758   5.262   5.630   0.867
 1287SOL     OW 4759   6.070   3.252   6.109
 1287SOL    HW1 4760   6.146   3.303   6.148
 1287SOL    HW2 4761   5.983   3.289   6.144
 1288SOL     OW 4762   0.061   2.990   3.343
 1288SOL    HW1 4763   0.044   3.071   3.399
 1288SOL    HW2 4764   0.156   2.988   3.314
 1289SOL     OW 4765   0.314   4.973   2.953
 1289SOL    HW1 4766   0.272   5.040   3.015
 1289SOL    HW2 4767   0.395   5.013   2.911
 1290SOL     OW 4768   6.251   0.198   2.262
 1290SOL    HW1 4769   6.275   0.273   2.324
 1290SOL    HW2 4770   6.329   0.137   2.251
 1291SOL     OW 4771   1.957   5.596   1.328
 1291SOL    HW1 4772   2.050   5.623   1.305
 1291SOL    HW2 4773   1.957   5.501   1.360
 1292SOL     OW 4774   1.756   6.695   0.657
 1292SOL    HW1 4775   1.802   6.738   0.580
 1292SOL    HW2 4776   1.671   6.653   0.625
 1293SOL     OW 4777   6.907   1.453   6.848
 1293SOL    HW1 4778   6.990   1.489   6.892
 1293SOL    HW2 4779   6.893   1.500   6.761
 1294SOL     OW 4780   0.474   1.648   3.938
 1294SOL    HW1 4781   0.403   1.577   3.941
 1294SOL    HW2 4782   0.524   1.649   4.025
 1295SOL     OW 4783   5.104   4.261   0.491
 1295SOL    HW1 4784   5.097   4.282   0.394
 1295SOL    HW2 4785   5.012   4.244   0.528
 1296SOL     OW 4786   3.774   1.162   0.623
 1296SOL    HW1 4787   3.809   1.249   0.588
 1296SOL    HW2 4788   3.694   1.134   0.570
 1297SOL     OW 4789   5.388   0.731   5.990
 1297SOL    HW1 4790   5.342   0.668   6.052
 1297SOL    HW2 4791   5.429   0.806   6.042
 1298SOL     OW 4792   5.998   2.647   2.919
 1298SOL    HW1 4793   6.046   2.631   2.833
 1298SOL    HW2 4794   6.064   2.672   2.990
 1299SOL     OW 4795   1.307   4.520   4.432
 1299SOL    HW1 4796   1.221   4.492   4.474
 1299SOL    HW2 4797   1.295   4.523   4.332
 1300SOL     OW 4798   3.676   2.969   2.911
 1300SOL    HW1 4799   3.702   2.982   3.007
 1300SOL    HW2 4800   3.578   2.948   2.907
 1301SOL     OW 4801   0.513   0.667   1.481
 1301SOL    HW1 4802   0.589   0.607   1.505
 1301SOL    HW2 4803   0.486   0.650   1.386
 1302SOL     OW 4804   2.809   5.827   5.491
 1302SOL    HW1 4805   2.829   5.740   5.536
 1302SOL    HW2 4806   2.863   5.900   5.535
 1303SOL     OW 4807   3.048   7.019   1.849
 1303SOL    HW1 4808   3.144   7.024   1.820
 1303SOL    HW2 4809   2.989   0.029   1.776
 1304SOL     OW 4810   3.603   0.659   5.783
 1304SOL    HW1 4811   3.549   0.603   5.720
 1304SOL    HW2 4812   3.623   0.606   5.865
 1305SOL     OW 4813   5.767   6.679   4.284
 1305SOL    HW1 4814   5.683   6.628   4.264
 1305SOL    HW2 4815   5.846   6.631   4.245
 1306SOL     OW 4816   1.420   5.333   3.541
 1306SOL    HW1 4817   1.506   5.294   3.506
 1306SOL    HW2 4818   1.438   5.379   3.628
 1307SOL     OW 4819   1.235   0.838   5.165
 1307SOL    HW1 4820   1.138   0.852   5.144
 1307SOL    HW2 4821   1.244   0.780   5.246
 1308SOL     OW 4822   4.421   6.608   3.562
 1308SOL    HW1 4823   4.450   6.671   3.490
 1308SOL    HW2 4824   4.322   6.595   3.556
 1309SOL     OW 4825   6.633   2.853   4.182
 1309SOL    HW1 4826   6.629   2.944   4.223
 1309SOL    HW2 4827   6.729   2.825   4.173
 1310SOL     OW 4828   5.550   4.014   6.009
 1310SOL    HW1 4829   5.609   4.088   5.975
 1310SOL    HW2 4830   5.559   3.935   5.949
 1311SOL     OW 4831   5.193   4.552   0.251
 1311SOL    HW1 4832   5.258   4.579   0.180
 1311SOL    HW2 4833   5.153   4.463   0.228
 1312SOL     OW 4834   6.954   1.130   2.380
 1312SOL    HW1 4835   6.955   1.174   2.291
 1312SOL    HW2 4836   6.910   1.190   2.447
 1313SOL     OW 4837   4.126   5.027   5.081
 1313SOL    HW1 4838   4.197   4.968   5.119
 1313SOL    HW2 4839   4.077   4.978   5.009
 1314SOL     OW 4840   0.087   1.172   6.391
 1314SOL    HW1 4841   0.056   1.212   6.477
 1314SOL    HW2 4842   0.030   1.206   6.316
 1315SOL     OW 4843   1.319   6.515   3.685
 1315SOL    HW1 4844   1.348   6.420   3.680
 1315SOL    HW2 4845   1.227   6.524   3.646
 1316SOL     OW 4846   3.176   5.575   4.034
 1316SOL    HW1 4847   3.250   5.533   4.086
 1316SOL    HW2 4848   3.211   5.613   3.949
 1317SOL     OW 4849   0.008   3.173   3.603
 1317SOL    HW1 4850   6.972   3.248   3.576
 1317SOL    HW2 4851   6.981   3.109   3.660
 1318SOL     OW 4852   0.650   6.891   2.322
 1318SOL    HW1 4853   0.570   6.895   2.263
 1318SOL    HW2 4854   0.628   6.934   2.410
 1319SOL     OW 4855   0.572   6.804   1.125
 1319SOL    HW1 4856   0.667   6.818   1.095
 1319SOL    HW2 4857   0.572   6.771   1.220
 1320SOL     OW 4858   5.717   4.871   5.229
 1320SOL    HW1 4859   5.699   4.925   5.311
 1320SOL    HW2 4860   5.676   4.916   5.150
 1321SOL     OW 4861   3.684   1.259   0.877
 1321SOL    HW1 4862   3.762   1.258   0.815
 1321SOL    HW2 4863   3.634   1.173   0.870
 1322SOL     OW 4864   5.111   1.153   6.120
 1322SOL    HW1 4865   5.104   1.218   6.196
 1322SOL    HW2 4866   5.061   1.070   6.144
 1323SOL     OW 4867   6.443   0.421   4.351
 1323SOL    HW1 4868   6.524   0.473   4.379
 1323SOL    HW2 4869   6.426   0.436   4.254
 1324SOL     OW 4870   1.160   2.622   0.303
 1324SOL    HW1 4871   1.228   2.554   0.331
 1324SOL    HW2 4872   1.109   2.653   0.383
 1325SOL     OW 4873   4.403   5.178   3.631
 1325SOL    HW1 4874   4.390   5.087   3.591
 1325SOL    HW2 4875   4.325   5.236   3.609
 1326SOL     OW 4876   5.134   3.887   4.252
 1326SOL    HW1 4877   5.121   3.983   4.227
 1326SOL    HW2 4878   5.065   3.830   4.208
 1327SOL     OW 4879   3.258   6.440   3.369
 1327SOL    HW1 4880   3.292   6.392   3.288
 1327SOL    HW2 4881   3.212   6.524   3.339
 1328SOL     OW 4882   2.264   1.868   1.606
 1328SOL    HW1 4883   2.312   1.848   1.520
 1328SOL    HW2 4884   2.269   1.966   1.624
 1329SOL     OW 4885   0.907   5.873   1.518
 1329SOL    HW1 4886   0.993   5.904   1.479
 1329SOL    HW2 4887   0.908   5.774   1.530
 1330SOL     OW 4888   5.824   6.566   1.960
 1330SOL    HW1 4889   5.903   6.599   1.907
 1330SOL    HW2 4890   5.754   6.637   1.963
 1331SOL     OW 4891   0.717   2.423   1.415
 1331SOL    HW1 4892   0.709   2.336   1.366
 1331SOL    HW2 4893   0.787   2.479   1.372
 1332SOL     OW 4894   4.572   2.029   0.208
 1332SOL    HW1 4895   4.642   2.098   0.223
 1332SOL    HW2 4896   4.565   2.009   0.110
 1333SOL     OW 4897   4.310   3.538   5.240
 1333SOL    HW1 4898   4.393   3.542   5.296
 1333SOL    HW2 4899   4.288   3.443   5.220
 1334SOL     OW 4900   1.821   3.620   4.168
 1334SOL    HW1 4901   1.726   3.650   4.160
 1334SOL    HW2 4902   1.855   3.638   4.260
 1335SOL     OW 4903   1.975   5.160   3.492
 1335SOL    HW1 4904   2.069   5.172   3.524
 1335SOL    HW2 4905   1.959   5.218   3.412
 1336SOL     OW 4906   0.293   6.794   4.863
 1336SOL    HW1 4907   0.371   6.732   4.862
 1336SOL    HW2 4908   0.252   6.797   4.772
 1337SOL     OW 4909   3.250   0.302   0.012
 1337SOL    HW1 4910   3.245   0.345   6.947
 1337SOL    HW2 4911   3.292   0.364   0.078
 1338SOL     OW 4912   3.901   4.678   0.730
 1338SOL    HW1 4913   3.845   4.759   0.749
 1338SOL    HW2 4914   3.844   4.608   0.686
 1339SOL     OW 4915   0.153   4.313   6.440
 1339SOL    HW1 4916   0.227   4.355   6.387
 1339SOL    HW2 4917   0.180   4.221   6.468
 1340SOL     OW 4918   2.909   2.089   6.011
 1340SOL    HW1 4919   2.896   2.065   6.107
 1340SOL    HW2 4920   2.975   2.026   5.970
 1341SOL     OW 4921   5.280   1.607   3.983
 1341SOL    HW1 4922   5.229   1.660   3.916
 1341SOL    HW2 4923   5.328   1.669   4.045
 1342SOL     OW 4924   0.596   6.047   0.613
 1342SOL    HW1 4925   0.686   6.025   0.576
 1342SOL    HW2 4926   0.531   5.975   0.586
 1343SOL     OW 4927   2.924   6.195   3.077
 1343SOL    HW1 4928   3.010   6.164   3.117
 1343SOL    HW2 4929   2.931   6.291   3.050
 1344SOL     OW 4930   4.478   1.506   2.233
 1344SOL    HW1 4931   4.527   1.441   2.174
 1344SOL    HW2 4932   4.445   1.583   2.179
 1345SOL     OW 4933   6.193   5.509   2.152
 1345SOL    HW1 4934   6.184   5.466   2.062
 1345SOL    HW2 4935   6.255   5.455   2.209
 1346SOL     OW 4936   6.427   1.710   3.120
 1346SOL    HW1 4937   6.392   1.656   3.196
 1346SOL    HW2 4938   6.410   1.661   3.034
 1347SOL     OW 4939   4.219   0.918   3.967
 1347SOL    HW1 4940   4.162   0.895   4.046
 1347SOL    HW2 4941   4.169   0.980   3.907
 1348SOL     OW 4942   5.278   6.276   4.770
 1348SOL    HW1 4943   5.314   6.340   4.838
 1348SOL    HW2 4944   5.180   6.288   4.762
 1349SOL     OW 4945   5.378   1.488   6.543
 1349SOL    HW1 4946   5.452   1.495   6.611
 1349SOL    HW2 4947   5.404   1.422   6.473
 1350SOL     OW 4948   3.788   1.521   4.592
 1350SOL    HW1 4949   3.799   1.425   4.566
 1350SOL    HW2 4950   3.705   1.558   4.550
 1351SOL     OW 4951   0.988   1.453   4.256
 1351SOL    HW1 4952   1.026   1.538   4.217
 1351SOL    HW2 4953   0.914   1.420   4.198
 1352SOL     OW 4954   1.054   6.136   4.540
 1352SOL    HW1 4955   0.971   6.089   4.569
 1352SOL    HW2 4956   1.131   6.072   4.542
 1353SOL     OW 4957   2.724   3.377   6.076
 1353SOL    HW1 4958   2.817   3.346   6.090
 1353SOL    HW2 4959   2.672   3.367   6.161
 1354SOL     OW 4960   0.534   6.287   6.743
 1354SOL    HW1 4961   0.456   6.254   6.795
 1354SOL    HW2 4962   0.611   6.224   6.755
 1355SOL     OW 4963   5.203   3.240   0.219
 1355SOL    HW1 4964   5.140   3.173   0.259
 1355SOL    HW2 4965   5.156   3.328   0.210
 1356SOL     OW 4966   3.701   3.356   2.877
 1356SOL    HW1 4967   3.758   3.431   2.843
 1356SOL    HW2 4968   3.704   3.281   2.811
 1357SOL     OW 4969   3.773   2.359   5.662
 1357SOL    HW1 4970   3.729   2.401   5.741
 1357SOL    HW2 4971   3.727   2.273   5.640
 1358SOL     OW 4972   1.869   3.286   5.093
 1358SOL    HW1 4973   1.927   3.210   5.063
 1358SOL    HW2 4974   1.793   3.298   5.029
 1359SOL     OW 4975   0.724   1.577   6.648
 1359SOL    HW1 4976   0.738   1.596   6.746
 1359SOL    HW2 4977   0.633   1.540   6.634
 1360SOL     OW 4978   2.877   3.481   4.613
 1360SOL    HW1 4979   2.795   3.454   4.562
 1360SOL    HW2 4980   2.870   3.448   4.707
 1361SOL     OW 4981   1.536   6.376   1.112
 1361SOL    HW1 4982   1.445   6.398   1.077
 1361SOL    HW2 4983   1.570   6.294   1.066
 1362SOL     OW 4984   3.536   0.902   6.362
 1362SOL    HW1 4985   3.579   0.992   6.353
 1362SOL    HW2 4986   3.509   0.869   6.272
 1363SOL     OW 4987   6.634   6.165   1.182
 1363SOL    HW1 4988   6.612   6.163   1.280
 1363SOL    HW2 4989   6.549   6.161   1.129
 1364SOL     OW 4990   1.413   3.015   0.787
 1364SOL    HW1 4991   1.437   3.107   0.817
 1364SOL    HW2 4992   1.427   2.951   0.862
 1365SOL     OW 4993   1.643   2.765   6.290
 1365SOL    HW1 4994   1.740   2.788   6.286
 1365SOL    HW2 4995   1.590   2.847   6.312
 1366SOL     OW 4996   3.769   1.555   1.676
 1366SOL    HW1 4997   3.795   1.527   1.768
 1366SOL    HW2 4998   3.688   1.505   1.648
 1367SOL     OW 4999   1.552   0.216   4.414
 1367SOL    HW1 5000   1.527   0.311   4.437
 1367SOL    HW2 5001   1.469   0.162   4.403
 1368SOL     OW 5002   1.703   5.863   4.796
 1368SOL    HW1 5003   1.724   5.953   4.835
 1368SOL    HW2 5004   1.659   5.806   4.865
 1369SOL     OW 5005   2.344   5.701   3.415
 1369SOL    HW1 5006   2.357   5.638   3.339
 1369SOL    HW2 5007   2.299   5.784   3.381
 1370SOL     OW 5008   6.709   2.928   2.955
 1370SOL    HW1 5009   6.635   2.867   2.981
 1370SOL    HW2 5010   6.762   2.953   3.036
 1371SOL     OW 5011   6.358   1.662   6.487
 1371SOL    HW1 5012   6.441   1.705   6.522
 1371SOL    HW2 5013   6.368   1.644   6.390
 1372SOL     OW 5014   5.140   2.002   1.959
 1372SOL    HW1 5015   5.171   2.055   2.038
 1372SOL    HW2 5016   5.043   2.022   1.943
 1373SOL     OW 5017   4.523   2.529   1.362
 1373SOL    HW1 5018   4.491   2.593   1.431
 1373SOL    HW2 5019   4.622   2.524   1.364
 1374SOL     OW 5020   3.179   3.667   4.004
 1374SOL    HW1 5021   3.091   3.709   4.027
 1374SOL    HW2 5022   3.245   3.685   4.076
 1375SOL     OW 5023   5.934   4.147   5.191
 1375SOL    HW1 5024   5.962   4.051   5.185
 1375SOL    HW2 5025   5.871   4.168   5.117
 1376SOL     OW 5026   3.122   4.688   5.948
 1376SOL    HW1 5027   3.044   4.630   5.968
 1376SOL    HW2 5028   3.090   4.782   5.933
 1377SOL     OW 5029   1.218   2.276   3.587
 1377SOL    HW1 5030   1.188   2.180   3.587
 1377SOL    HW2 5031   1.192   2.318   3.500
 1378SOL     OW 5032   4.943   2.762   3.401
 1378SOL    HW1 5033   4.974   2.670   3.376
 1378SOL    HW2 5034   5.010   2.829   3.371
 1379SOL     OW 5035   4.762   5.916   6.428
 1379SOL    HW1 5036   4.852   5.887   6.462
 1379SOL    HW2 5037   4.691   5.855   6.465
 1380SOL     OW 5038   0.068   6.655   4.091
 1380SOL    HW1 5039   0.131   6.733   4.091
 1380SOL    HW2 5040   7.005   6.682   4.051
 1381SOL     OW 5041   6.853   2.536   6.193
 1381SOL    HW1 5042   6.872   2.568   6.286
 1381SOL    HW2 5043   6.780   2.467   6.196
 1382SOL     OW 5044   4.573   2.384   5.595
 1382SOL    HW1 5045   4.542   2.458   5.535
 1382SOL    HW2 5046   4.498   2.319   5.608
 1383SOL     OW 5047   5.434   0.422   0.673
 1383SOL    HW1 5048   5.401   0.460   0.587
 1383SOL    HW2 5049   5.358   0.418   0.738
 1384SOL     OW 5050   5.592   2.029   2.406
 1384SOL    HW1 5051   5.547   2.016   2.494
 1384SOL    HW2 5052   5.547   2.105   2.357
 1385SOL     OW 5053   6.913   6.491   1.659
 1385SOL    HW1 5054   6.939   6.516   1.565
 1385SOL    HW2 5055   6.818   6.460   1.660
 1386SOL     OW 5056   1.809   0.440   4.194
 1386SOL    HW1 5057   1.788   0.374   4.123
 1386SOL    HW2 5058   1.801   0.397   4.284
 1387SOL     OW 5059   0.878   5.912   1.783
 1387SOL    HW1 5060   0.977   5.924   1.783
 1387SOL    HW2 5061   0.847   5.890   1.691
 1388SOL     OW 5062   6.344   1.001   1.715
 1388SOL    HW1 5063   6.359   1.085   1.661
 1388SOL    HW2 5064   6.430   0.949   1.719
 1389SOL     OW 5065   6.487   1.022   1.117
 1389SOL    HW1 5066   6.496   0.995   1.021
 1389SOL    HW2 5067   6.391   1.042   1.137
 1390SOL     OW 5068   1.336   1.426   4.538
 1390SOL    HW1 5069   1.379   1.517   4.542
 1390SOL    HW2 5070   1.307   1.400   4.630
 1391SOL     OW 5071   0.551   3.537   3.672
 1391SOL    HW1 5072   0.542   3.443   3.705
 1391SOL    HW2 5073   0.595   3.593   3.742
 1392SOL     OW 5074   5.299   5.365   3.645
 1392SOL    HW1 5075   5.323   5.381   3.741
 1392SOL    HW2 5076   5.343   5.435   3.588
 1393SOL     OW 5077   3.300   4.729   6.724
 1393SOL    HW1 5078   3.204   4.756   6.735
 1393SOL    HW2 5079   3.359   4.801   6.761
 1394SOL     OW 5080   1.303   0.122   6.679
 1394SOL    HW1 5081   1.279   0.075   6.594
 1394SOL    HW2 5082   1.400   0.148   6.676
 1395SOL     OW 5083   4.078   4.658   6.497
 1395SOL    HW1 5084   4.010   4.728   6.522
 1395SOL    HW2 5085   4.155   4.662   6.561
 1396SOL     OW 5086   5.165   6.039   3.060
 1396SOL    HW1 5087   5.170   6.008   2.965
 1396SOL    HW2 5088   5.071   6.030   3.092
 1397SOL     OW 5089   5.938   5.904   4.814
 1397SOL    HW1 5090   5.901   5.828   4.761
 1397SOL    HW2 5091   5.959   5.873   4.907
 1398SOL     OW 5092   1.859   0.305   5.194
 1398SOL    HW1 5093   1.824   0.327   5.285
 1398SOL    HW2 5094   1.932   0.236   5.203
 1399SOL     OW 5095   2.843   5.264   2.404
 1399SOL    HW1 5096   2.923   5.323   2.406
 1399SOL    HW2 5097   2.789   5.283   2.321
 1400SOL     OW 5098   0.958   0.505   3.278
 1400SOL    HW1 5099   0.905   0.506   3.363
 1400SOL    HW2 5100   0.996   0.597   3.262
 1401SOL     OW 5101   6.767   2.005   4.088
 1401SOL    HW1 5102   6.833   2.058   4.036
 1401SOL    HW2 5103   6.807   1.918   4.114
 1402SOL     OW 5104   5.826   2.185   0.207
 1402SOL    HW1 5105   5.763   2.129   0.261
 1402SOL    HW2 5106   5.786   2.276   0.195
 1403SOL     OW 5107   4.036   1.139   2.032
 1403SOL    HW1 5108   3.996   1.113   2.120
 1403SOL    HW2 5109   4.127   1.098   2.023
 1404SOL     OW 5110   4.466   1.299   6.827
 1404SOL    HW1 5111   4.400   1.331   6.895
 1404SOL    HW2 5112   4.438   1.332   6.736
 1405SOL     OW 5113   3.938   2.639   0.710
 1405SOL    HW1 5114   4.034   2.637   0.680
 1405SOL    HW2 5115   3.907   2.733   0.713
 1406SOL     OW 5116   0.541   3.165   2.127
 1406SOL    HW1 5117   0.583   3.077   2.106
 1406SOL    HW2 5118   0.524   3.215   2.041
 1407SOL     OW 5119   6.754   2.357   2.805
 1407SOL    HW1 5120   6.673   2.386   2.856
 1407SOL    HW2 5121   6.827   2.423   2.818
 1408SOL     OW 5122   6.497   4.807   6.751
 1408SOL    HW1 5123   6.399   4.815   6.737
 1408SOL    HW2 5124   6.543   4.805   6.662
 1409SOL     OW 5125   0.404   1.112   3.868
 1409SOL    HW1 5126   0.328   1.066   3.914
 1409SOL    HW2 5127   0.463   1.043   3.825
 1410SOL     OW 5128   0.062   1.827   6.915
 1410SOL    HW1 5129   0.049   1.867   7.005
 1410SOL    HW2 5130   0.094   1.733   6.925
 1411SOL     OW 5131   1.673   1.612   1.487
 1411SOL    HW1 5132   1.589   1.558   1.486
 1411SOL    HW2 5133   1.680   1.664   1.402
 1412SOL     OW 5134   1.722   2.202   0.663
 1412SOL    HW1 5135   1.748   2.189   0.567
 1412SOL    HW2 5136   1.692   2.296   0.677
 1413SOL     OW 5137   3.199   6.979   3.553
 1413SOL    HW1 5138   3.284   6.936   3.522
 1413SOL    HW2 5139   3.221   0.037   3.605
 1414SOL     OW 5140   1.436   1.134   2.465
 1414SOL    HW1 5141   1.407   1.094   2.378
 1414SOL    HW2 5142   1.492   1.215   2.448
 1415SOL     OW 5143   5.765   6.710   4.796
 1415SOL    HW1 5144   5.841   6.655   4.763
 1415SOL    HW2 5145   5.700   6.726   4.722
 1416SOL     OW 5146   4.522   5.372   3.780
 1416SOL    HW1 5147   4.486   5.302   3.718
 1416SOL    HW2 5148   4.460   5.381   3.859
 1417SOL     OW 5149   3.787   2.976   5.540
 1417SOL    HW1 5150   3.784   2.883   5.505
 1417SOL    HW2 5151   3.728   2.983   5.621
 1418SOL     OW 5152   3.302   4.172   3.970
 1418SOL    HW1 5153   3.290   4.073   3.964
 1418SOL    HW2 5154   3.305   4.211   3.878
 1419SOL     OW 5155   3.260   6.241   3.678
 1419SOL    HW1 5156   3.316   6.236   3.596
 1419SOL    HW2 5157   3.190   6.170   3.676
 1420SOL     OW 5158   0.287   6.395   2.917
 1420SOL    HW1 5159   0.329   6.361   3.001
 1420SOL    HW2 5160   0.346   6.464   2.876
 1421SOL     OW 5161   3.520   1.291   3.083
 1421SOL    HW1 5162   3.471   1.337   3.009
 1421SOL    HW2 5163   3.555   1.360   3.147
 1422SOL     OW 5164   2.756   6.179   0.744
 1422SOL    HW1 5165   2.751   6.156   0.647
 1422SOL    HW2 5166   2.719   6.103   0.798
 1423SOL     OW 5167   4.708   0.693   2.722
 1423SOL    HW1 5168   4.724   0.645   2.636
 1423SOL    HW2 5169   4.625   0.748   2.715
 1424SOL     OW 5170   6.321   5.334   2.335
 1424SOL    HW1 5171   6.290   5.354   2.428
 1424SOL    HW2 5172   6.343   5.237   2.328
 1425SOL     OW 5173   2.061   0.540   4.267
 1425SOL    HW1 5174   1.979   0.488   4.241
 1425SOL    HW2 5175   2.035   0.635   4.285
 1426SOL     OW 5176   1.489   1.314   5.865
 1426SOL    HW1 5177   1.482   1.377   5.788
 1426SOL    HW2 5178   1.482   1.364   5.951
 1427SOL     OW 5179   5.447   1.940   6.142
 1427SOL    HW1 5180   5.449   1.858   6.199
 1427SOL    HW2 5181   5.480   2.018   6.195
 1428SOL     OW 5182   5.865   0.662   0.994
 1428SOL    HW1 5183   5.828   0.749   0.960
 1428SOL    HW2 5184   5.798   0.620   1.056
 1429SOL     OW 5185   5.514   5.918   0.312
 1429SOL    HW1 5186   5.584   5.864   0.266
 1429SOL    HW2 5187   5.438   5.858   0.340
 1430SOL     OW 5188   3.101   4.861   2.390
 1430SOL    HW1 5189   3.028   4.794   2.381
 1430SOL    HW2 5190   3.105   4.917   2.307
 1431SOL     OW 5191   2.178   0.804   0.450
 1431SOL    HW1 5192   2.092   0.840   0.486
 1431SOL    HW2 5193   2.254   0.856   0.487
 1432SOL     OW 5194   3.406   0.010   1.528
 1432SOL    HW1 5195   3.483   6.987   1.485
 1432SOL    HW2 5196   3.422   0.109   1.526
 1433SOL     OW 5197   5.175   0.009   3.432
 1433SOL    HW1 5198   5.117   0.046   3.505
 1433SOL    HW2 5199   5.182   6.934   3.443
 1434SOL     OW 5200   0.767   1.182   5.095
 1434SOL    HW1 5201   0.776   1.125   5.013
 1434SOL    HW2 5202   0.802   1.274   5.075
 1435SOL     OW 5203   6.906   2.128   3.854
 1435SOL    HW1 5204   6.834   2.197   3.850
 1435SOL    HW2 5205   6.904   2.074   3.769
 1436SOL     OW 5206   5.205   2.993   1.361
 1436SOL    HW1 5207   5.177   2.929   1.432
 1436SOL    HW2 5208   5.301   3.019   1.374
 1437SOL     OW 5209   4.739   0.769   2.992
 1437SOL    HW1 5210   4.664   0.707   3.016
 1437SOL    HW2 5211   4.773   0.746   2.901
 1438SOL     OW 5212   2.746   0.114   2.161
 1438SOL    HW1 5213   2.714   0.025   2.193
 1438SOL    HW2 5214   2.777   0.107   2.066
 1439SOL     OW 5215   0.773   6.011   2.231
 1439SOL    HW1 5216   0.807   5.919   2.212
 1439SOL    HW2 5217   0.741   6.054   2.147
 1440SOL     OW 5218   2.565   3.098   1.335
 1440SOL    HW1 5219   2.504   3.066   1.262
 1440SOL    HW2 5220   2.550   3.044   1.417
 1441SOL     OW 5221   4.794   6.478   6.566
 1441SOL    HW1 5222   4.737   6.407   6.526
 1441SOL    HW2 5223   4.736   6.543   6.616
 1442SOL     OW 5224   5.178   5.450   1.736
 1442SOL    HW1 5225   5.197   5.458   1.834
 1442SOL    HW2 5226   5.080   5.462   1.720
 1443SOL     OW 5227   6.676   2.550   2.310
 1443SOL    HW1 5228   6.765   2.515   2.279
 1443SOL    HW2 5229   6.630   2.596   2.235
 1444SOL     OW 5230   0.597   6.484   5.121
 1444SOL    HW1 5231   0.566   6.578   5.134
 1444SOL    HW2 5232   0.696   6.484   5.103
 1445SOL     OW 5233   0.944   2.511   1.269
 1445SOL    HW1 5234   1.040   2.485   1.258
 1445SOL    HW2 5235   0.890   2.470   1.196
 1446SOL     OW 5236   6.385   5.157   1.613
 1446SOL    HW1 5237   6.376   5.069   1.660
 1446SOL    HW2 5238   6.478   5.167   1.578
 1447SOL     OW 5239   0.373   6.573   3.902
 1447SOL    HW1 5240   0.383   6.594   3.999
 1447SOL    HW2 5241   0.300   6.630   3.863
 1448SOL     OW 5242   1.785   1.282   5.488
 1448SOL    HW1 5243   1.694   1.242   5.497
 1448SOL    HW2 5244   1.802   1.307   5.393
 1449SOL     OW 5245   1.640   2.998   2.799
 1449SOL    HW1 5246   1.620   2.945   2.717
 1449SOL    HW2 5247   1.732   2.975   2.831
 1450SOL     OW 5248   3.195   2.147   2.523
 1450SOL    HW1 5249   3.156   2.168   2.433
 1450SOL    HW2 5250   3.294   2.157   2.519
 1451SOL     OW 5251   4.433   1.967   2.680
 1451SOL    HW1 5252   4.394   1.893   2.735
 1451SOL    HW2 5253   4.392   1.967   2.589
 1452SOL     OW 5254   4.376   3.022   5.370
 1452SOL    HW1 5255   4.376   2.928   5.335
 1452SOL    HW2 5256   4.285   3.046   5.403
 1453SOL     OW 5257   1.403   3.409   5.188
 1453SOL    HW1 5258   1.420   3.336   5.121
 1453SOL    HW2 5259   1.428   3.376   5.279
 1454SOL     OW 5260   3.036   2.200   2.290
 1454SOL    HW1 5261   3.010   2.267   2.220
 1454SOL    HW2 5262   2.956   2.174   2.344
 1455SOL     OW 5263   0.336   5.622   2.370
 1455SOL    HW1 5264   0.430   5.650   2.388
 1455SOL    HW2 5265   0.329   5.523   2.373
 1456SOL     OW 5266   6.422   5.602   3.819
 1456SOL    HW1 5267   6.395   5.675   3.882
 1456SOL    HW2 5268   6.349   5.588   3.751
 1457SOL     OW 5269   0.965   5.379   5.680
 1457SOL    HW1 5270   0.960   5.460   5.738
 1457SOL    HW2 5271   0.873   5.341   5.667
 1458SOL     OW 5272   6.721   5.544   4.942
 1458SOL    HW1 5273   6.819   5.564   4.943
 1458SOL    HW2 5274   6.707   5.445   4.938
 1459SOL     OW 5275   0.238   6.375   5.496
 1459SOL    HW1 5276   0.219   6.277   5.492
 1459SOL    HW2 5277   0.200   6.419   5.415
 1460SOL     OW 5278   1.458   6.068   5.030
 1460SOL    HW1 5279   1.429   6.163   5.021
 1460SOL    HW2 5280   1.557   6.062   5.015
 1461SOL     OW 5281   5.924   3.859   3.483
 1461SOL    HW1 5282   5.983   3.779   3.481
 1461SOL    HW2 5283   5.956   3.926   3.415
 1462SOL     OW 5284   1.076   2.010   1.923
 1462SOL    HW1 5285   1.079   2.065   2.007
 1462SOL    HW2 5286   0.997   2.037   1.869
 1463SOL     OW 5287   1.916   4.855   6.729
 1463SOL    HW1 5288   1.875   4.802   6.803
 1463SOL    HW2 5289   1.847   4.916   6.690
 1464SOL     OW 5290   0.880   4.331   5.666
 1464SOL    HW1 5291   0.882   4.279   5.751
 1464SOL    HW2 5292   0.816   4.408   5.675
 1465SOL     OW 5293   1.133   2.958   5.709
 1465SOL    HW1 5294   1.211   2.992   5.656
 1465SOL    HW2 5295   1.109   2.866   5.678
 1466SOL     OW 5296   5.754   0.931   2.714
 1466SOL    HW1 5297   5.662   0.917   2.751
 1466SOL    HW2 5298   5.764   1.027   2.687
 1467SOL     OW 5299   0.066   0.267   3.897
 1467SOL    HW1 5300   0.096   0.320   3.976
 1467SOL    HW2 5301   0.093   0.313   3.813
 1468SOL     OW 5302   3.455   6.742   3.738
 1468SOL    HW1 5303   3.414   6.666   3.688
 1468SOL    HW2 5304   3.530   6.781   3.684
 1469SOL     OW 5305   5.501   4.382   3.154
 1469SOL    HW1 5306   5.540   4.295   3.185
 1469SOL    HW2 5307   5.531   4.456   3.214
 1470SOL     OW 5308   6.007   1.785   1.995
 1470SOL    HW1 5309   6.055   1.868   1.967
 1470SOL    HW2 5310   5.938   1.761   1.926
 1471SOL     OW 5311   5.189   6.834   0.127
 1471SOL    HW1 5312   5.156   6.792   0.212
 1471SOL    HW2 5313   5.204   6.763   0.059
 1472SOL     OW 5314   2.708   0.792   6.828
 1472SOL    HW1 5315   2.627   0.847   6.809
 1472SOL    HW2 5316   2.779   0.851   6.867
 1473SOL     OW 5317   1.598   5.522   3.328
 1473SOL    HW1 5318   1.636   5.431   3.349
 1473SOL    HW2 5319   1.536   5.514   3.250
 1474SOL     OW 5320   1.796   4.252   1.616
 1474SOL    HW1 5321   1.769   4.275   1.710
 1474SOL    HW2 5322   1.778   4.155   1.600
 1475SOL     OW 5323   6.600   7.016   6.528
 1475SOL    HW1 5324   6.524   6.954   6.511
 1475SOL    HW2 5325   6.684   6.977   6.490
 1476SOL     OW 5326   5.929   0.284   6.799
 1476SOL    HW1 5327   5.920   0.196   6.754
 1476SOL    HW2 5328   5.927   0.272   6.898
 1477SOL     OW 5329   3.345   4.232   1.665
 1477SOL    HW1 5330   3.406   4.298   1.709
 1477SOL    HW2 5331   3.251   4.248   1.696
 1478SOL     OW 5332   4.644   4.049   6.374
 1478SOL    HW1 5333   4.561   4.104   6.374
 1478SOL    HW2 5334   4.674   4.033   6.280
 1479SOL     OW 5335   4.706   4.672   0.859
 1479SOL    HW1 5336   4.673   4.579   0.877
 1479SOL    HW2 5337   4.666   4.735   0.926
 1480SOL     OW 5338   3.171   1.772   3.570
 1480SOL    HW1 5339   3.096   1.827   3.606
 1480SOL    HW2 5340   3.181   1.689   3.626
 1481SOL     OW 5341   4.148   1.732   5.246
 1481SOL    HW1 5342   4.165   1.720   5.344
 1481SOL    HW2 5343   4.234   1.719   5.196
 1482SOL     OW 5344   6.344   1.495   1.590
 1482SOL    HW1 5345   6.329   1.562   1.517
 1482SOL    HW2 5346   6.269   1.500   1.656
 1483SOL     OW 5347   6.177   6.316   0.557
 1483SOL    HW1 5348   6.248   6.247   0.543
 1483SOL    HW2 5349   6.135   6.339   0.469
 1484SOL     OW 5350   2.953   6.339   5.305
 1484SOL    HW1 5351   2.952   6.251   5.352
 1484SOL    HW2 5352   2.860   6.375   5.300
 1485SOL     OW 5353   5.144   3.712   3.718
 1485SOL    HW1 5354   5.086   3.651   3.663
 1485SOL    HW2 5355   5.139   3.685   3.814
 1486SOL     OW 5356   6.110   6.303   4.154
 1486SOL    HW1 5357   6.078   6.212   4.179
 1486SOL    HW2 5358   6.089   6.320   4.058
 1487SOL     OW 5359   5.862   0.679   0.050
 1487SOL    HW1 5360   5.949   0.630   0.056
 1487SOL    HW2 5361   5.787   0.618   0.075
 1488SOL     OW 5362   6.452   2.794   2.539
 1488SOL    HW1 5363   6.378   2.824   2.599
 1488SOL    HW2 5364   6.535   2.777   2.593
 1489SOL     OW 5365   3.160   5.401   6.968
 1489SOL    HW1 5366   3.232   5.360   6.911
 1489SOL    HW2 5367   3.201   5.443   0.024
 1490SOL     OW 5368   5.820   2.689   2.124
 1490SOL    HW1 5369   5.752   2.756   2.152
 1490SOL    HW2 5370   5.887   2.732   2.064
 1491SOL     OW 5371   5.414   3.055   4.463
 1491SOL    HW1 5372   5.481   3.112   4.511
 1491SOL    HW2 5373   5.354   3.113   4.408
 1492SOL     OW 5374   1.078   3.072   1.933
 1492SOL    HW1 5375   1.176   3.054   1.945
 1492SOL    HW2 5376   1.043   3.120   2.013
 1493SOL     OW 5377   6.145   1.977   6.282
 1493SOL    HW1 5378   6.234   2.016   6.259
 1493SOL    HW2 5379   6.127   1.897   6.224
 1494SOL     OW 5380   1.524   3.264   6.777
 1494SOL    HW1 5381   1.488   3.342   6.828
 1494SOL    HW2 5382   1.528   3.184   6.837
 1495SOL     OW 5383   5.945   4.165   3.908
 1495SOL    HW1 5384   5.893   4.104   3.968
 1495SOL    HW2 5385   5.986   4.238   3.963
 1496SOL     OW 5386   6.741   6.283   5.600
 1496SOL    HW1 5387   6.837   6.269   5.622
 1496SOL    HW2 5388   6.686   6.212   5.645
 1497SOL     OW 5389   4.489   2.397   2.622
 1497SOL    HW1 5390   4.517   2.459   2.549
 1497SOL    HW2 5391   4.401   2.356   2.599
 1498SOL     OW 5392   3.698   4.157   1.010
 1498SOL    HW1 5393   3.608   4.113   1.020
 1498SOL    HW2 5394   3.752   4.109   0.941
 1499SOL     OW 5395   1.080   4.685   4.274
 1499SOL    HW1 5396   1.151   4.738   4.319
 1499SOL    HW2 5397   1.117   4.595   4.248
 1500SOL     OW 5398   2.419   5.552   1.616
 1500SOL    HW1 5399   2.369   5.539   1.530
 1500SOL    HW2 5400   2.438   5.650   1.628
 1501SOL     OW 5401   5.556   1.097   1.277
 1501SOL    HW1 5402   5.517   1.126   1.364
 1501SOL    HW2 5403   5.560   1.175   1.215
 1502SOL     OW 5404   0.904   6.326   6.093
 1502SOL    HW1 5405   0.812   6.330   6.132
 1502SOL    HW2 5406   0.936   6.231   6.094
 1503SOL     OW 5407   6.285   5.770   2.206
 1503SOL    HW1 5408   6.244   5.681   2.184
 1503SOL    HW2 5409   6.214   5.835   2.230
 1504SOL     OW 5410   1.597   6.666   3.584
 1504SOL    HW1 5411   1.564   6.573   3.566
 1504SOL    HW2 5412   1.525   6.719   3.628
 1505SOL     OW 5413   6.816   4.222   5.048
 1505SOL    HW1 5414   6.849   4.287   5.116
 1505SOL    HW2 5415   6.716   4.220   5.050
 1506SOL     OW 5416   0.947   0.962   0.742
 1506SOL    HW1 5417   0.994   0.978   0.656
 1506SOL    HW2 5418   1.014   0.958   0.817
 1507SOL     OW 5419   2.058   2.265   3.729
 1507SOL    HW1 5420   2.075   2.211   3.647
 1507SOL    HW2 5421   1.969   2.241   3.767
 1508SOL     OW 5422   1.174   0.648   1.674
 1508SOL    HW1 5423   1.241   0.722   1.678
 1508SOL    HW2 5424   1.092   0.678   1.625
 1509SOL     OW 5425   4.311   0.956   4.626
 1509SOL    HW1 5426   4.269   0.880   4.676
 1509SOL    HW2 5427   4.256   1.039   4.640
 1510SOL     OW 5428   2.674   6.947   5.303
 1510SOL    HW1 5429   2.764   6.938   5.261
 1510SOL    HW2 5430   2.684   6.954   5.402
 1511SOL     OW 5431   4.045   4.166   5.238
 1511SOL    HW1 5432   4.087   4.246   5.196
 1511SOL    HW2 5433   4.063   4.085   5.182
 1512SOL     OW 5434   5.681   6.886   1.100
 1512SOL    HW1 5435   5.723   6.958   1.045
 1512SOL    HW2 5436   5.661   6.807   1.042
 1513SOL     OW 5437   3.386   6.434   5.143
 1513SOL    HW1 5438   3.446   6.353   5.149
 1513SOL    HW2 5439   3.442   6.516   5.135
 1514SOL     OW 5440   3.021   2.037   0.182
 1514SOL    HW1 5441   3.013   1.937   0.185
 1514SOL    HW2 5442   2.936   2.077   0.150
 1515SOL     OW 5443   3.685   0.819   1.607
 1515SOL    HW1 5444   3.646   0.821   1.515
 1515SOL    HW2 5445   3.612   0.837   1.673
 1516SOL     OW 5446   0.010   6.734   6.473
 1516SOL    HW1 5447   0.030   6.770   6.564
 1516SOL    HW2 5448   7.017   6.636   6.479
 1517SOL     OW 5449   2.102   6.419   2.693
 1517SOL    HW1 5450   2.015   6.374   2.671
 1517SOL    HW2 5451   2.139   6.380   2.777
 1518SOL     OW 5452   1.629   2.369   6.477
 1518SOL    HW1 5453   1.635   2.463   6.510
 1518SOL    HW2 5454   1.658   2.364   6.382
 1519SOL     OW 5455   0.646   4.184   6.989
 1519SOL    HW1 5456   0.709   4.161   6.915
 1519SOL    HW2 5457   0.620   4.281   6.981
 1520SOL     OW 5458   6.972   6.670   3.436
 1520SOL    HW1 5459   7.009   6.739   3.373
 1520SOL    HW2 5460   6.941   6.591   3.384
 1521SOL     OW 5461   2.697   4.936   6.913
 1521SOL    HW1 5462   2.617   4.894   6.956
 1521SOL    HW2 5463   2.751   4.865   6.867
 1522SOL     OW 5464   5.984   6.315   3.905
 1522SOL    HW1 5465   6.044   6.354   3.835
 1522SOL    HW2 5466   5.891   6.310   3.870
 1523SOL     OW 5467   2.720   6.614   0.486
 1523SOL    HW1 5468   2.771   6.573   0.410
 1523SOL    HW2 5469   2.644   6.669   0.449
 1524SOL     OW 5470   1.938   2.587   4.433
 1524SOL    HW1 5471   2.017   2.530   4.410
 1524SOL    HW2 5472   1.871   2.531   4.482
 1525SOL     OW 5473   6.464   3.920   0.238
 1525SOL    HW1 5474   6.534   3.855   0.267
 1525SOL    HW2 5475   6.376   3.874   0.233
 1526SOL     OW 5476   0.901   1.339   1.657
 1526SOL    HW1 5477   0.844   1.407   1.702
 1526SOL    HW2 5478   0.970   1.384   1.601
 1527SOL     OW 5479   5.138   1.018   4.402
 1527SOL    HW1 5480   5.053   0.966   4.407
 1527SOL    HW2 5481   5.148   1.072   4.486
 1528SOL     OW 5482   3.028   3.591   2.162
 1528SOL    HW1 5483   3.003   3.525   2.090
 1528SOL    HW2 5484   3.088   3.546   2.228
 1529SOL     OW 5485   4.052   0.871   5.662
 1529SOL    HW1 5486   4.007   0.872   5.573
 1529SOL    HW2 5487   3.982   0.868   5.734
 1530SOL     OW 5488   3.161   6.917   2.089
 1530SOL    HW1 5489   3.123   6.949   2.003
 1530SOL    HW2 5490   3.087   6.902   2.155
 1531SOL     OW 5491   5.564   6.108   4.462
 1531SOL    HW1 5492   5.464   6.102   4.457
 1531SOL    HW2 5493   5.593   6.122   4.556
 1532SOL     OW 5494   2.680   5.326   2.176
 1532SOL    HW1 5495   2.595   5.378   2.177
 1532SOL    HW2 5496   2.694   5.288   2.085
 1533SOL     OW 5497   5.604   6.057   1.437
 1533SOL    HW1 5498   5.699   6.049   1.467
 1533SOL    HW2 5499   5.584   6.153   1.414
 1534SOL     OW 5500   2.454   5.175   6.555
 1534SOL    HW1 5501   2.460   5.105   6.627
 1534SOL    HW2 5502   2.536   5.232   6.557
 1535SOL     OW 5503   4.870   4.671   3.578
 1535SOL    HW1 5504   4.873   4.571   3.588
 1535SOL    HW2 5505   4.843   4.693   3.484
 1536SOL     OW 5506   4.395   4.446   6.546
 1536SOL    HW1 5507   4.351   4.527   6.583
 1536SOL    HW2 5508   4.325   4.376   6.526
 1537SOL     OW 5509   3.118   6.027   2.012
 1537SOL    HW1 5510   3.100   6.050   2.108
 1537SOL    HW2 5511   3.088   6.102   1.953
 1538SOL     OW 5512   2.303   1.595   0.724
 1538SOL    HW1 5513   2.393   1.635   0.740
 1538SOL    HW2 5514   2.310   1.495   0.725
 1539SOL     OW 5515   0.444   2.944   0.913
 1539SOL    HW1 5516   0.461   2.877   0.986
 1539SOL    HW2 5517   0.351   2.979   0.921
 1540SOL     OW 5518   3.408   5.496   3.179
 1540SOL    HW1 5519   3.506   5.498   3.160
 1540SOL    HW2 5520   3.378   5.401   3.190
 1541SOL     OW 5521   4.837   2.454   5.399
 1541SOL    HW1 5522   4.846   2.524   5.329
 1541SOL    HW2 5523   4.807   2.497   5.485
 1542SOL     OW 5524   0.968   4.503   2.651
 1542SOL    HW1 5525   1.023   4.430   2.691
 1542SOL    HW2 5526   0.922   4.554   2.724
 1543SOL     OW 5527   4.186   4.839   1.173
 1543SOL    HW1 5528   4.267   4.792   1.211
 1543SOL    HW2 5529   4.133   4.774   1.119
 1544SOL     OW 5530   3.933   3.217   3.875
 1544SOL    HW1 5531   3.849   3.272   3.872
 1544SOL    HW2 5532   3.964   3.210   3.970
 1545SOL     OW 5533   6.503   4.778   0.927
 1545SOL    HW1 5534   6.424   4.745   0.877
 1545SOL    HW2 5535   6.586   4.761   0.875
 1546SOL     OW 5536   6.149   6.346   5.429
 1546SOL    HW1 5537   6.081   6.276   5.406
 1546SOL    HW2 5538   6.215   6.308   5.493
 1547SOL     OW 5539   1.710   2.943   6.680
 1547SOL    HW1 5540   1.644   2.960   6.607
 1547SOL    HW2 5541   1.749   3.030   6.711
 1548SOL     OW 5542   0.255   2.603   0.420
 1548SOL    HW1 5543   0.331   2.556   0.376
 1548SOL    HW2 5544   0.178   2.541   0.429
 1549SOL     OW 5545   5.151   0.520   4.327
 1549SOL    HW1 5546   5.159   0.619   4.324
 1549SOL    HW2 5547   5.065   0.495   4.373
 1550SOL     OW 5548   3.131   3.884   4.563
 1550SOL    HW1 5549   3.037   3.850   4.552
 1550SOL    HW2 5550   3.142   3.920   4.656
 1551SOL     OW 5551   0.025   5.123   5.801
 1551SOL    HW1 5552   0.063   5.179   5.874
 1551SOL    HW2 5553   6.978   5.063   5.838
 1552SOL     OW 5554   2.321   4.188   1.155
 1552SOL    HW1 5555   2.292   4.283   1.143
 1552SOL    HW2 5556   2.337   4.170   1.252
 1553SOL     OW 5557   1.308   2.017   5.681
 1553SOL    HW1 5558   1.341   1.974   5.597
 1553SOL    HW2 5559   1.305   2.116   5.669
 1554SOL     OW 5560   4.531   1.846   3.336
 1554SOL    HW1 5561   4.628   1.869   3.331
 1554SOL    HW2 5562   4.477   1.930   3.336
 1555SOL     OW 5563   6.233   4.718   4.852
 1555SOL    HW1 5564   6.195   4.802   4.814
 1555SOL    HW2 5565   6.255   4.654   4.778
 1556SOL     OW 5566   2.035   1.120   5.517
 1556SOL    HW1 5567   2.033   1.026   5.553
 1556SOL    HW2 5568   1.941   1.153   5.507
 1557SOL     OW 5569   1.368   1.458   6.080
 1557SOL    HW1 5570   1.379   1.552   6.050
 1557SOL    HW2 5571   1.361   1.454   6.180
 1558SOL     OW 5572   6.652   6.917   4.206
 1558SOL    HW1 5573   6.679   6.933   4.301
 1558SOL    HW2 5574   6.642   7.004   4.159
 1559SOL     OW 5575   1.901   1.059   6.273
 1559SOL    HW1 5576   1.806   1.028   6.274
 1559SOL    HW2 5577   1.959   0.990   6.231
 1560SOL     OW 5578   6.794   0.669   1.299
 1560SOL    HW1 5579   6.806   0.572   1.323
 1560SOL    HW2 5580   6.700   0.697   1.320
 1561SOL     OW 5581   6.268   6.354   1.847
 1561SOL    HW1 5582   6.322   6.284   1.893
 1561SOL    HW2 5583   6.178   6.361   1.890
 1562SOL     OW 5584   5.354   6.914   4.708
 1562SOL    HW1 5585   5.289   6.933   4.635
 1562SOL    HW2 5586   5.440   6.961   4.690
 1563SOL     OW 5587   2.979   6.897   6.230
 1563SOL    HW1 5588   3.005   6.909   6.326
 1563SOL    HW2 5589   3.002   6.804   6.201
 1564SOL     OW 5590   1.974   2.920   3.256
 1564SOL    HW1 5591   2.045   2.986   3.278
 1564SOL    HW2 5592   1.888   2.968   3.239
 1565SOL     OW 5593   6.370   4.700   1.144
 1565SOL    HW1 5594   6.322   4.773   1.192
 1565SOL    HW2 5595   6.419   4.738   1.066
 1566SOL     OW 5596   5.608   4.278   2.184
 1566SOL    HW1 5597   5.538   4.234   2.128
 1566SOL    HW2 5598   5.586   4.375   2.195
 1567SOL     OW 5599   6.720   5.400   5.498
 1567SOL    HW1 5600   6.752   5.380   5.405
 1567SOL    HW2 5601   6.792   5.376   5.563
 1568SOL     OW 5602   0.561   6.620   0.895
 1568SOL    HW1 5603   0.518   6.534   0.922
 1568SOL    HW2 5604   0.535   6.692   0.960
 1569SOL     OW 5605   4.048   5.623   5.017
 1569SOL    HW1 5606   4.076   5.604   5.111
 1569SOL    HW2 5607   4.129   5.638   4.961
 1570SOL     OW 5608   2.615   1.956   1.722
 1570SOL    HW1 5609   2.715   1.950   1.729
 1570SOL    HW2 5610   2.590   2.034   1.665
 1571SOL     OW 5611   0.385   2.609   6.475
 1571SOL    HW1 5612   0.345   2.647   6.391
 1571SOL    HW2 5613   0.408   2.683   6.538
 1572SOL     OW 5614   0.782   5.506   3.976
 1572SOL    HW1 5615   0.744   5.419   4.008
 1572SOL    HW2 5616   0.859   5.532   4.033
 1573SOL     OW 5617   4.256   0.325   0.275
 1573SOL    HW1 5618   4.260   0.344   0.177
 1573SOL    HW2 5619   4.272   0.410   0.326
 1574SOL     OW 5620   5.105   3.645   2.112
 1574SOL    HW1 5621   5.032   3.690   2.060
 1574SOL    HW2 5622   5.189   3.644   2.058
 1575SOL     OW 5623   3.330   2.707   0.147
 1575SOL    HW1 5624   3.339   2.804   0.126
 1575SOL    HW2 5625   3.408   2.676   0.202
 1576SOL     OW 5626   6.245   5.274   3.373
 1576SOL    HW1 5627   6.152   5.305   3.354
 1576SOL    HW2 5628   6.274   5.209   3.303
 1577SOL     OW 5629   1.775   0.568   1.000
 1577SOL    HW1 5630   1.744   0.484   0.957
 1577SOL    HW2 5631   1.828   0.622   0.934
 1578SOL     OW 5632   5.757   6.086   4.908
 1578SOL    HW1 5633   5.742   6.148   4.831
 1578SOL    HW2 5634   5.837   6.028   4.889
 1579SOL     OW 5635   6.814   1.128   3.448
 1579SOL    HW1 5636   6.787   1.045   3.496
 1579SOL    HW2 5637   6.789   1.120   3.351
 1580SOL     OW 5638   3.802   3.746   5.541
 1580SOL    HW1 5639   3.783   3.648   5.529
 1580SOL    HW2 5640   3.817   3.765   5.638
 1581SOL     OW 5641   6.153   3.380   4.464
 1581SOL    HW1 5642   6.220   3.404   4.534
 1581SOL    HW2 5643   6.182   3.420   4.376
 1582SOL     OW 5644   6.433   6.501   3.992
 1582SOL    HW1 5645   6.337   6.509   3.965
 1582SOL    HW2 5646   6.462   6.586   4.036
 1583SOL     OW 5647   2.579   3.021   0.691
 1583SOL    HW1 5648   2.520   3.037   0.771
 1583SOL    HW2 5649   2.633   2.939   0.706
 1584SOL     OW 5650   1.885   0.100   6.539
 1584SOL    HW1 5651   1.907   0.006   6.515
 1584SOL    HW2 5652   1.804   0.101   6.598
 1585SOL     OW 5653   5.575   1.064   5.757
 1585SOL    HW1 5654   5.507   1.053   5.686
 1585SOL    HW2 5655   5.584   0.978   5.809
 1586SOL     OW 5656   4.020   3.792   2.884
 1586SOL    HW1 5657   3.953   3.807   2.812
 1586SOL    HW2 5658   4.082   3.718   2.857
 1587SOL     OW 5659   1.790   0.177   5.752
 1587SOL    HW1 5660   1.701   0.155   5.713
 1587SOL    HW2 5661   1.856   0.105   5.728
 1588SOL     OW 5662   6.790   3.979   0.455
 1588SOL    HW1 5663   6.832   3.889   0.467
 1588SOL    HW2 5664   6.735   4.001   0.535
 1589SOL     OW 5665   5.227   4.913   2.890
 1589SOL    HW1 5666   5.157   4.892   2.823
 1589SOL    HW2 5667   5.318   4.896   2.851
 1590SOL     OW 5668   2.121   6.154   4.428
 1590SOL    HW1 5669   2.129   6.118   4.521
 1590SOL    HW2 5670   2.192   6.114   4.370
 1591SOL     OW 5671   2.548   3.647   0.494
 1591SOL    HW1 5672   2.549   3.711   0.418
 1591SOL    HW2 5673   2.454   3.622   0.516
 1592SOL     OW 5674   3.552   3.812   4.102
 1592SOL    HW1 5675   3.458   3.801   4.135
 1592SOL    HW2 5676   3.559   3.774   4.010
 1593SOL     OW 5677   0.933   4.819   3.622
 1593SOL    HW1 5678   0.944   4.865   3.710
 1593SOL    HW2 5679   0.839   4.785   3.613
 1594SOL     OW 5680   0.607   5.656   2.440
 1594SOL    HW1 5681   0.660   5.630   2.521
 1594SOL    HW2 5682   0.662   5.643   2.358
 1595SOL     OW 5683   6.132   3.322   4.769
 1595SOL    HW1 5684   6.083   3.239   4.795
 1595SOL    HW2 5685   6.083   3.402   4.801
 1596SOL     OW 5686   3.503   4.679   6.422
 1596SOL    HW1 5687   3.561   4.749   6.381
 1596SOL    HW2 5688   3.449   4.718   6.496
 1597SOL     OW 5689   2.558   6.546   1.085
 1597SOL    HW1 5690   2.483   6.569   1.023
 1597SOL    HW2 5691   2.620   6.482   1.040
 1598SOL     OW 5692   6.738   5.417   1.827
 1598SOL    HW1 5693   6.658   5.461   1.868
 1598SOL    HW2 5694   6.749   5.450   1.733
 1599SOL     OW 5695   3.076   5.017   0.413
 1599SOL    HW1 5696   3.078   4.981   0.507
 1599SOL    HW2 5697   2.988   4.995   0.372
 1600SOL     OW 5698   3.479   1.438   4.712
 1600SOL    HW1 5699   3.418   1.517   4.701
 1600SOL    HW2 5700   3.574   1.469   4.716
 1601SOL     OW 5701   1.543   5.217   5.001
 1601SOL    HW1 5702   1.445   5.240   4.996
 1601SOL    HW2 5703   1.567   5.161   4.922
 1602SOL     OW 5704   6.797   3.068   1.696
 1602SOL    HW1 5705   6.745   3.141   1.652
 1602SOL    HW2 5706   6.784   3.071   1.795
 1603SOL     OW 5707   6.041   6.972   1.060
 1603SOL    HW1 5708   5.966   0.013   1.066
 1603SOL    HW2 5709   6.027   6.913   0.980
 1604SOL     OW 5710   1.225   5.112   3.855
 1604SOL    HW1 5711   1.239   5.204   3.891
 1604SOL    HW2 5712   1.312   5.076   3.822
 1605SOL     OW 5713   5.143   5.052   2.015
 1605SOL    HW1 5714   5.175   5.106   2.093
 1605SOL    HW2 5715   5.136   4.956   2.041
 1606SOL     OW 5716   6.320   5.181   4.779
 1606SOL    HW1 5717   6.329   5.229   4.692
 1606SOL    HW2 5718   6.263   5.234   4.841
 1607SOL     OW 5719   5.793   3.911   1.639
 1607SOL    HW1 5720   5.811   3.934   1.734
 1607SOL    HW2 5721   5.720   3.970   1.603
 1608SOL     OW 5722   2.179   6.812   0.809
 1608SOL    HW1 5723   2.089   6.781   0.840
 1608SOL    HW2 5724   2.188   6.910   0.827
 1609SOL     OW 5725   5.849   2.305   5.404
 1609SOL    HW1 5726   5.937   2.258   5.402
 1609SOL    HW2 5727   5.858   2.389   5.458
 1610SOL     OW 5728   4.459   7.010   3.700
 1610SOL    HW1 5729   4.443   7.004   3.799
 1610SOL    HW2 5730   4.431   0.076   3.667
 1611SOL     OW 5731   4.512   3.478   1.640
 1611SOL    HW1 5732   4.568   3.551   1.600
 1611SOL    HW2 5733   4.422   3.515   1.664
 1612SOL     OW 5734   3.010   0.163   4.641
 1612SOL    HW1 5735   3.033   0.071   4.608
 1612SOL    HW2 5736   2.997   0.223   4.562
 1613SOL     OW 5737   2.338   6.978   1.893
 1613SOL    HW1 5738   2.254   6.924   1.901
 1613SOL    HW2 5739   2.338   0.001   1.804
 1614SOL     OW 5740   6.871   2.001   5.371
 1614SOL    HW1 5741   6.967   1.972   5.372
 1614SOL    HW2 5742   6.814   1.926   5.339
 1615SOL     OW 5743   6.444   5.484   5.514
 1615SOL    HW1 5744   6.401   5.453   5.599
 1615SOL    HW2 5745   6.538   5.451   5.511
 1616SOL     OW 5746   2.405   2.166   5.718
 1616SOL    HW1 5747   2.370   2.072   5.725
 1616SOL    HW2 5748   2.486   2.175   5.777
 1617SOL     OW 5749   3.074   1.202   3.127
 1617SOL    HW1 5750   2.980   1.186   3.157
 1617SOL    HW2 5751   3.099   1.297   3.145
 1618SOL     OW 5752   5.273   2.746   1.934
 1618SOL    HW1 5753   5.365   2.759   1.969
 1618SOL    HW2 5754   5.210   2.807   1.982
 1619SOL     OW 5755   1.657   3.194   4.900
 1619SOL    HW1 5756   1.573   3.182   4.953
 1619SOL    HW2 5757   1.635   3.223   4.807
 1620SOL     OW 5758   3.584   5.925   1.316
 1620SOL    HW1 5759   3.660   5.868   1.347
 1620SOL    HW2 5760   3.550   5.980   1.393
 1621SOL     OW 5761   2.754   2.267   1.317
 1621SOL    HW1 5762   2.744   2.335   1.391
 1621SOL    HW2 5763   2.792   2.312   1.236
 1622SOL     OW 5764   2.164   2.721   5.463
 1622SOL    HW1 5765   2.249   2.772   5.446
 1622SOL    HW2 5766   2.128   2.687   5.376
 1623SOL     OW 5767   2.228   2.233   4.576
 1623SOL    HW1 5768   2.230   2.225   4.676
 1623SOL    HW2 5769   2.195   2.324   4.551
 1624SOL     OW 5770   1.992   0.495   0.138
 1624SOL    HW1 5771   1.936   0.429   0.088
 1624SOL    HW2 5772   1.936   0.538   0.209
 1625SOL     OW 5773   1.697   6.970   0.754
 1625SOL    HW1 5774   1.655   6.891   0.711
 1625SOL    HW2 5775   1.683   6.967   0.853
 1626SOL     OW 5776   2.239   3.588   6.276
 1626SOL    HW1 5777   2.296   3.647   6.332
 1626SOL    HW2 5778   2.199   3.641   6.201
 1627SOL     OW 5779   4.589   4.341   3.076
 1627SOL    HW1 5780   4.572   4.356   3.173
 1627SOL    HW2 5781   4.625   4.248   3.063
 1628SOL     OW 5782   4.055   3.118   0.181
 1628SOL    HW1 5783   4.003   3.068   0.112
 1628SOL    HW2 5784   4.035   3.216   0.173
 1629SOL     OW 5785   2.110   2.528   3.100
 1629SOL    HW1 5786   2.179   2.456   3.108
 1629SOL    HW2 5787   2.078   2.554   3.191
 1630SOL     OW 5788   5.862   4.870   4.304
 1630SOL    HW1 5789   5.910   4.877   4.217
 1630SOL    HW2 5790   5.915   4.916   4.375
 1631SOL     OW 5791   1.181   0.622   5.439
 1631SOL    HW1 5792   1.089   0.655   5.418
 1631SOL    HW2 5793   1.222   0.680   5.509
 1632SOL     OW 5794   4.134   6.731   6.898
 1632SOL    HW1 5795   4.206   6.663   6.896
 1632SOL    HW2 5796   4.112   6.759   6.804
 1633SOL     OW 5797   6.375   4.062   2.807
 1633SOL    HW1 5798   6.326   4.132   2.754
 1633SOL    HW2 5799   6.471   4.087   2.815
 1634SOL     OW 5800   3.852   0.723   1.077
 1634SOL    HW1 5801   3.813   0.800   1.127
 1634SOL    HW2 5802   3.786   0.648   1.074
 1635SOL     OW 5803   2.010   3.787   3.632
 1635SOL    HW1 5804   2.055   3.871   3.661
 1635SOL    HW2 5805   1.984   3.795   3.535
 1636SOL     OW 5806   2.430   6.241   0.687
 1636SOL    HW1 5807   2.339   6.214   0.718
 1636SOL    HW2 5808   2.448   6.335   0.715
 1637SOL     OW 5809   1.229   3.060   2.281
 1637SOL    HW1 5810   1.143   3.094   2.320
 1637SOL    HW2 5811   1.228   2.960   2.281
 1638SOL     OW 5812   0.691   2.509   5.720
 1638SOL    HW1 5813   0.673   2.535   5.625
 1638SOL    HW2 5814   0.674   2.588   5.779
 1639SOL     OW 5815   3.490   5.170   2.860
 1639SOL    HW1 5816   3.460   5.254   2.816
 1639SOL    HW2 5817   3.440   5.092   2.822
 1640SOL     OW 5818   5.525   6.968   0.692
 1640SOL    HW1 5819   5.577   0.028   0.695
 1640SOL    HW2 5820   5.587   6.890   0.681
 1641SOL     OW 5821   6.400   2.572   4.498
 1641SOL    HW1 5822   6.302   2.586   4.510
 1641SOL    HW2 5823   6.449   2.659   4.514
 1642SOL     OW 5824   0.330   2.464   1.183
 1642SOL    HW1 5825   0.237   2.434   1.165
 1642SOL    HW2 5826   0.351   2.453   1.280
 1643SOL     OW 5827   4.201   0.589   5.282
 1643SOL    HW1 5828   4.149   0.537   5.349
 1643SOL    HW2 5829   4.299   0.577   5.299
 1644SOL     OW 5830   3.712   1.717   1.113
 1644SOL    HW1 5831   3.742   1.751   1.203
 1644SOL    HW2 5832   3.622   1.675   1.122
 1645SOL     OW 5833   2.256   5.679   5.640
 1645SOL    HW1 5834   2.319   5.637   5.574
 1645SOL    HW2 5835   2.309   5.732   5.706
 1646SOL     OW 5836   2.949   3.550   0.433
 1646SOL    HW1 5837   3.015   3.485   0.472
 1646SOL    HW2 5838   2.913   3.513   0.347
 1647SOL     OW 5839   6.056   3.206   2.125
 1647SOL    HW1 5840   6.020   3.252   2.043
 1647SOL    HW2 5841   6.145   3.167   2.104
 1648SOL     OW 5842   2.808   0.562   3.667
 1648SOL    HW1 5843   2.862   0.513   3.735
 1648SOL    HW2 5844   2.861   0.571   3.583
 1649SOL     OW 5845   2.785   0.761   4.555
 1649SOL    HW1 5846   2.803   0.719   4.466
 1649SOL    HW2 5847   2.863   0.816   4.583
 1650SOL     OW 5848   2.847   6.900   4.349
 1650SOL    HW1 5849   2.922   6.964   4.332
 1650SOL    HW2 5850   2.762   6.952   4.363
 1651SOL     OW 5851   1.420   6.772   2.583
 1651SOL    HW1 5852   1.471   6.798   2.665
 1651SOL    HW2 5853   1.477   6.713   2.525
 1652SOL     OW 5854   3.884   3.370   1.127
 1652SOL    HW1 5855   3.865   3.449   1.069
 1652SOL    HW2 5856   3.893   3.400   1.222
 1653SOL     OW 5857   1.138   4.473   0.936
 1653SOL    HW1 5858   1.040   4.455   0.950
 1653SOL    HW2 5859   1.163   4.452   0.842
 1654SOL     OW 5860   0.843   2.523   3.743
 1654SOL    HW1 5861   0.804   2.613   3.765
 1654SOL    HW2 5862   0.811   2.493   3.653
 1655SOL     OW 5863   4.367   4.248   5.270
 1655SOL    HW1 5864   4.394   4.260   5.366
 1655SOL    HW2 5865   4.368   4.337   5.224
 1656SOL     OW 5866   0.070   3.364   2.016
 1656SOL    HW1 5867   0.001   3.366   1.944
 1656SOL    HW2 5868   0.025   3.358   2.105
 1657SOL     OW 5869   0.995   0.717   5.794
 1657SOL    HW1 5870   0.959   0.714   5.701
 1657SOL    HW2 5871   0.921   0.705   5.859
 1658SOL     OW 5872   6.073   6.493   3.463
 1658SOL    HW1 5873   6.149   6.540   3.418
 1658SOL    HW2 5874   5.993   6.495   3.403
 1659SOL     OW 5875   5.883   2.528   6.369
 1659SOL    HW1 5876   5.803   2.571   6.327
 1659SOL    HW2 5877   5.960   2.592   6.367
 1660SOL     OW 5878   2.359   5.652   3.783
 1660SOL    HW1 5879   2.413   5.584   3.734
 1660SOL    HW2 5880   2.284   5.607   3.832
 1661SOL     OW 5881   2.566   0.946   3.433
 1661SOL    HW1 5882   2.575   1.044   3.454
 1661SOL    HW2 5883   2.655   0.909   3.411
 1662SOL     OW 5884   0.407   1.236   3.609
 1662SOL    HW1 5885   0.503   1.248   3.587
 1662SOL    HW2 5886   0.398   1.199   3.702
 1663SOL     OW 5887   1.158   0.327   3.238
 1663SOL    HW1 5888   1.229   0.345   3.306
 1663SOL    HW2 5889   1.074   0.374   3.264
 1664SOL     OW 5890   1.793   5.882   4.230
 1664SOL    HW1 5891   1.843   5.850   4.311
 1664SOL    HW2 5892   1.831   5.839   4.149
 1665SOL     OW 5893   0.109   0.997   4.275
 1665SOL    HW1 5894   0.188   1.017   4.218
 1665SOL    HW2 5895   0.045   1.074   4.271
 1666SOL     OW 5896   6.411   2.055   7.023
 1666SOL    HW1 5897   6.358   1.981   6.980
 1666SOL    HW2 5898   6.351   2.109   0.057
 1667SOL     OW 5899   6.647   7.003   0.903
 1667SOL    HW1 5900   6.685   6.989   0.995
 1667SOL    HW2 5901   6.609   6.917   0.870
 1668SOL     OW 5902   2.276   0.196   4.657
 1668SOL    HW1 5903   2.267   0.266   4.728
 1668SOL    HW2 5904   2.257   0.237   4.568
 1669SOL     OW 5905   5.064   5.831   6.396
 1669SOL    HW1 5906   5.105   5.890   6.465
 1669SOL    HW2 5907   5.129   5.759   6.371
 1670SOL     OW 5908   6.757   3.705   6.060
 1670SOL    HW1 5909   6.716   3.616   6.043
 1670SOL    HW2 5910   6.719   3.744   6.145
 1671SOL     OW 5911   6.431   4.427   0.826
 1671SOL    HW1 5912   6.435   4.350   0.762
 1671SOL    HW2 5913   6.337   4.437   0.859
 1672SOL     OW 5914   2.405   4.292   3.006
 1672SOL    HW1 5915   2.338   4.253   3.070
 1672SOL    HW2 5916   2.433   4.221   2.941
 1673SOL     OW 5917   6.179   3.392   3.287
 1673SOL    HW1 5918   6.251   3.396   3.218
 1673SOL    HW2 5919   6.211   3.337   3.365
 1674SOL     OW 5920   2.542   5.765   0.452
 1674SOL    HW1 5921   2.518   5.855   0.488
 1674SOL    HW2 5922   2.574   5.774   0.358
 1675SOL     OW 5923   5.149   2.218   6.451
 1675SOL    HW1 5924   5.059   2.255   6.475
 1675SOL    HW2 5925   5.194   2.280   6.386
 1676SOL     OW 5926   3.125   1.912   3.063
 1676SOL    HW1 5927   3.185   1.841   3.026
 1676SOL    HW2 5928   3.127   1.992   3.004
 1677SOL     OW 5929   5.208   0.096   6.273
 1677SOL    HW1 5930   5.221   0.028   6.201
 1677SOL    HW2 5931   5.233   0.057   6.361
 1678SOL     OW 5932   4.537   6.529   2.207
 1678SOL    HW1 5933   4.487   6.493   2.286
 1678SOL    HW2 5934   4.623   6.569   2.237
 1679SOL     OW 5935   6.456   4.517   0.218
 1679SOL    HW1 5936   6.552   4.495   0.238
 1679SOL    HW2 5937   6.407   4.432   0.197
 1680SOL     OW 5938   0.180   2.276   5.782
 1680SOL    HW1 5939   0.232   2.193   5.801
 1680SOL    HW2 5940   0.084   2.262   5.806
 1681SOL     OW 5941   4.907   5.369   0.829
 1681SOL    HW1 5942   4.944   5.454   0.790
 1681SOL    HW2 5943   4.983   5.308   0.852
 1682SOL     OW 5944   0.163   3.855   5.842
 1682SOL    HW1 5945   0.238   3.797   5.812
 1682SOL    HW2 5946   0.106   3.880   5.764
 1683SOL     OW 5947   6.002   5.359   5.416
 1683SOL    HW1 5948   6.067   5.348   5.341
 1683SOL    HW2 5949   6.046   5.409   5.491
 1684SOL     OW 5950   0.593   6.837   4.266
 1684SOL    HW1 5951   0.662   6.796   4.326
 1684SOL    HW2 5952   0.556   6.919   4.309
 1685SOL     OW 5953   1.123   2.032   6.987
 1685SOL    HW1 5954   1.204   1.994   0.006
 1685SOL    HW2 5955   1.050   1.963   6.986
 1686SOL     OW 5956   1.638   0.287   6.004
 1686SOL    HW1 5957   1.703   0.257   5.934
 1686SOL    HW2 5958   1.663   0.247   6.092
 1687SOL     OW 5959   2.686   6.724   2.479
 1687SOL    HW1 5960   2.677   6.643   2.420
 1687SOL    HW2 5961   2.781   6.735   2.506
 1688SOL     OW 5962   0.704   1.934   3.656
 1688SOL    HW1 5963   0.769   2.006   3.679
 1688SOL    HW2 5964   0.722   1.854   3.713
 1689SOL     OW 5965   2.018   1.868   1.757
 1689SOL    HW1 5966   1.952   1.861   1.683
 1689SOL    HW2 5967   2.108   1.837   1.726
 1690SOL     OW 5968   1.523   1.479   0.420
 1690SOL    HW1 5969   1.589   1.436   0.358
 1690SOL    HW2 5970   1.543   1.451   0.514
 1691SOL     OW 5971   4.897   4.016   3.544
 1691SOL    HW1 5972   4.857   4.030   3.634
 1691SOL    HW2 5973   4.996   4.028   3.549
 1692SOL     OW 5974   0.446   6.304   3.912
 1692SOL    HW1 5975   0.426   6.398   3.881
 1692SOL    HW2 5976   0.361   6.256   3.929
 1693SOL     OW 5977   3.742   2.056   4.085
 1693SOL    HW1 5978   3.829   2.099   4.059
 1693SOL    HW2 5979   3.669   2.091   4.027
 1694SOL     OW 5980   5.944   6.123   5.411
 1694SOL    HW1 5981   5.975   6.100   5.503
 1694SOL    HW2 5982   5.862   6.179   5.415
 1695SOL     OW 5983   3.663   1.711   6.422
 1695SOL    HW1 5984   3.687   1.675   6.512
 1695SOL    HW2 5985   3.591   1.780   6.431
 1696SOL     OW 5986   3.278   5.811   1.999
 1696SOL    HW1 5987   3.224   5.894   2.011
 1696SOL    HW2 5988   3.361   5.816   2.054
 1697SOL     OW 5989   1.745   1.666   1.977
 1697SOL    HW1 5990   1.730   1.732   2.051
 1697SOL    HW2 5991   1.811   1.598   2.007
 1698SOL     OW 5992   4.986   1.158   6.740
 1698SOL    HW1 5993   5.058   1.104   6.698
 1698SOL    HW2 5994   4.997   1.157   6.840
 1699SOL     OW 5995   2.627   4.934   1.527
 1699SOL    HW1 5996   2.576   5.014   1.559
 1699SOL    HW2 5997   2.628   4.864   1.599
 1700SOL     OW 5998   5.667   2.901   4.405
 1700SOL    HW1 5999   5.590   2.958   4.433
 1700SOL    HW2 6000   5.634   2.809   4.383
 1701SOL     OW 6001   5.530   2.969   4.846
 1701SOL    HW1 6002   5.434   2.977   4.820
 1701SOL    HW2 6003   5.567   2.885   4.809
 1702SOL     OW 6004   5.144   2.721   1.553
 1702SOL    HW1 6005   5.228   2.748   1.600
 1702SOL    HW2 6006   5.156   2.631   1.511
 1703SOL     OW 6007   2.135   3.883   1.664
 1703SOL    HW1 6008   2.211   3.847   1.610
 1703SOL    HW2 6009   2.154   3.979   1.688
 1704SOL     OW 6010   6.804   1.556   2.544
 1704SOL    HW1 6011   6.760   1.632   2.496
 1704SOL    HW2 6012   6.821   1.581   2.639
 1705SOL     OW 6013   4.104   3.285   2.386
 1705SOL    HW1 6014   4.082   3.188   2.380
 1705SOL    HW2 6015   4.109   3.325   2.295
 1706SOL     OW 6016   2.619   0.597   6.225
 1706SOL    HW1 6017   2.657   0.506   6.206
 1706SOL    HW2 6018   2.681   0.667   6.190
 1707SOL     OW 6019   4.908   1.450   2.317
 1707SOL    HW1 6020   4.908   1.479   2.222
 1707SOL    HW2 6021   4.989   1.485   2.363
 1708SOL     OW 6022   0.219   4.136   1.191
 1708SOL    HW1 6023   0.222   4.105   1.095
 1708SOL    HW2 6024   0.220   4.056   1.251
 1709SOL     OW 6025   3.186   5.370   3.777
 1709SOL    HW1 6026   3.195   5.355   3.876
 1709SOL    HW2 6027   3.199   5.283   3.729
 1710SOL     OW 6028   6.558   4.214   5.096
 1710SOL    HW1 6029   6.459   4.224   5.093
 1710SOL    HW2 6030   6.581   4.129   5.144
 1711SOL     OW 6031   0.867   4.409   6.114
 1711SOL    HW1 6032   0.931   4.366   6.178
 1711SOL    HW2 6033   0.903   4.498   6.086
 1712SOL     OW 6034   1.653   4.254   1.874
 1712SOL    HW1 6035   1.679   4.311   1.952
 1712SOL    HW2 6036   1.560   4.220   1.887
 1713SOL     OW 6037   2.392   3.789   1.141
 1713SOL    HW1 6038   2.465   3.846   1.177
 1713SOL    HW2 6039   2.314   3.846   1.116
 1714SOL     OW 6040   4.586   0.992   0.671
 1714SOL    HW1 6041   4.616   1.017   0.763
 1714SOL    HW2 6042   4.546   1.073   0.626
 1715SOL     OW 6043   1.427   3.945   3.314
 1715SOL    HW1 6044   1.480   3.957   3.398
 1715SOL    HW2 6045   1.352   3.881   3.330
 1716SOL     OW 6046   0.032   6.771   0.423
 1716SOL    HW1 6047   0.074   6.681   0.436
 1716SOL    HW2 6048   0.098   6.842   0.448
 1717SOL     OW 6049   3.144   0.867   0.364
 1717SOL    HW1 6050   3.046   0.857   0.342
 1717SOL    HW2 6051   3.173   0.961   0.347
 1718SOL     OW 6052   1.787   4.436   5.645
 1718SOL    HW1 6053   1.695   4.475   5.642
 1718SOL    HW2 6054   1.788   4.349   5.595
 1719SOL     OW 6055   2.359   2.850   0.548
 1719SOL    HW1 6056   2.397   2.809   0.631
 1719SOL    HW2 6057   2.422   2.920   0.515
 1720SOL     OW 6058   0.418   2.308   2.431
 1720SOL    HW1 6059   0.385   2.215   2.423
 1720SOL    HW2 6060   0.369   2.355   2.504
 1721SOL     OW 6061   0.975   5.730   4.048
 1721SOL    HW1 6062   1.012   5.728   4.141
 1721SOL    HW2 6063   0.950   5.824   4.024
 1722SOL     OW 6064   5.218   0.104   1.905
 1722SOL    HW1 6065   5.142   0.039   1.904
 1722SOL    HW2 6066   5.206   0.170   1.830
 1723SOL     OW 6067   5.999   0.731   3.263
 1723SOL    HW1 6068   5.959   0.795   3.198
 1723SOL    HW2 6069   5.944   0.647   3.267
 1724SOL     OW 6070   5.225   0.231   0.115
 1724SOL    HW1 6071   5.242   0.327   0.140
 1724SOL    HW2 6072   5.253   0.172   0.191
 1725SOL     OW 6073   3.821   5.880   2.212
 1725SOL    HW1 6074   3.908   5.929   2.214
 1725SOL    HW2 6075   3.748   5.941   2.242
 1726SOL     OW 6076   6.108   4.420   4.879
 1726SOL    HW1 6077   6.118   4.391   4.974
 1726SOL    HW2 6078   6.055   4.504   4.875
 1727SOL     OW 6079   2.623   4.760   5.992
 1727SOL    HW1 6080   2.588   4.799   6.077
 1727SOL    HW2 6081   2.585   4.668   5.980
 1728SOL     OW 6082   4.901   5.692   3.560
 1728SOL    HW1 6083   4.860   5.744   3.485
 1728SOL    HW2 6084   4.951   5.755   3.620
 1729SOL     OW 6085   6.874   3.034   2.715
 1729SOL    HW1 6086   6.815   2.964   2.754
 1729SOL    HW2 6087   6.960   3.037   2.766
 1730SOL     OW 6088   4.477   2.596   4.361
 1730SOL    HW1 6089   4.484   2.605   4.461
 1730SOL    HW2 6090   4.381   2.595   4.335
 1731SOL     OW 6091   0.201   6.838   6.276
 1731SOL    HW1 6092   0.187   6.937   6.265
 1731SOL    HW2 6093   0.122   6.798   6.324
 1732SOL     OW 6094   1.276   4.433   6.724
 1732SOL    HW1 6095   1.285   4.471   6.816
 1732SOL    HW2 6096   1.290   4.506   6.657
 1733SOL     OW 6097   1.899   3.956   6.570
 1733SOL    HW1 6098   1.806   3.994   6.575
 1733SOL    HW2 6099   1.948   3.998   6.495
 1734SOL     OW 6100   5.379   3.999   0.849
 1734SOL    HW1 6101   5.343   3.917   0.805
 1734SOL    HW2 6102   5.303   4.057   0.880
 1735SOL     OW 6103   4.868   5.408   6.584
 1735SOL    HW1 6104   4.938   5.412   6.513
 1735SOL    HW2 6105   4.913   5.396   6.673
 1736SOL     OW 6106   3.903   3.225   0.498
 1736SOL    HW1 6107   3.913   3.215   0.597
 1736SOL    HW2 6108   3.916   3.136   0.454
 1737SOL     OW 6109   0.623   6.144   3.176
 1737SOL    HW1 6110   0.695   6.127   3.243
 1737SOL    HW2 6111   0.615   6.243   3.160
 1738SOL     OW 6112   0.639   1.086   2.017
 1738SOL    HW1 6113   0.674   1.016   2.079
 1738SOL    HW2 6114   0.642   1.052   1.923
 1739SOL     OW 6115   4.240   1.563   6.841
 1739SOL    HW1 6116   4.313   1.629   6.863
 1739SOL    HW2 6117   4.264   1.515   6.757
 1740SOL     OW 6118   0.961   1.805   6.975
 1740SOL    HW1 6119   0.881   1.753   6.947
 1740SOL    HW2 6120   1.044   1.751   6.959
 1741SOL     OW 6121   0.764   0.341   2.673
 1741SOL    HW1 6122   0.838   0.331   2.606
 1741SOL    HW2 6123   0.763   0.434   2.709
 1742SOL     OW 6124   6.418   6.082   3.740
 1742SOL    HW1 6125   6.365   6.094   3.824
 1742SOL    HW2 6126   6.447   6.172   3.706
 1743SOL     OW 6127   4.400   1.291   0.263
 1743SOL    HW1 6128   4.488   1.245   0.248
 1743SOL    HW2 6129   4.358   1.258   0.348
 1744SOL     OW 6130   4.226   6.491   1.715
 1744SOL    HW1 6131   4.222   6.419   1.646
 1744SOL    HW2 6132   4.193   6.457   1.803
 1745SOL     OW 6133   0.614   2.158   5.295
 1745SOL    HW1 6134   0.598   2.227   5.366
 1745SOL    HW2 6135   0.623   2.068   5.337
 1746SOL     OW 6136   2.939   1.443   0.226
 1746SOL    HW1 6137   2.940   1.409   0.132
 1746SOL    HW2 6138   2.984   1.376   0.286
 1747SOL     OW 6139   3.873   6.871   4.753
 1747SOL    HW1 6140   3.882   6.968   4.727
 1747SOL    HW2 6141   3.828   6.864   4.842
 1748SOL     OW 6142   5.527   1.022   1.882
 1748SOL    HW1 6143   5.573   0.962   1.947
 1748SOL    HW2 6144   5.441   0.980   1.853
 1749SOL     OW 6145   5.489   6.677   6.143
 1749SOL    HW1 6146   5.399   6.648   6.110
 1749SOL    HW2 6147   5.550   6.598   6.150
 1750SOL     OW 6148   3.666   1.090   3.144
 1750SOL    HW1 6149   3.733   1.120   3.213
 1750SOL    HW2 6150   3.607   1.166   3.119
 1751SOL     OW 6151   2.230   5.726   4.629
 1751SOL    HW1 6152   2.165   5.662   4.671
 1751SOL    HW2 6153   2.322   5.688   4.633
 1752SOL     OW 6154   6.746   1.580   6.059
 1752SOL    HW1 6155   6.825   1.642   6.061
 1752SOL    HW2 6156   6.695   1.595   5.975
 1753SOL     OW 6157   1.810   7.011   2.246
 1753SOL    HW1 6158   1.723   6.989   2.289
 1753SOL    HW2 6159   1.794   0.019   2.153
 1754SOL     OW 6160   3.034   3.062   3.014
 1754SOL    HW1 6161   2.967   3.136   3.008
 1754SOL    HW2 6162   3.057   3.031   2.922
 1755SOL     OW 6163   0.307   4.097   6.754
 1755SOL    HW1 6164   0.337   4.043   6.833
 1755SOL    HW2 6165   0.376   4.167   6.734
 1756SOL     OW 6166   5.844   5.198   5.592
 1756SOL    HW1 6167   5.898   5.255   5.530
 1756SOL    HW2 6168   5.757   5.243   5.611
 1757SOL     OW 6169   3.752   0.424   4.998
 1757SOL    HW1 6170   3.685   0.466   4.937
 1757SOL    HW2 6171   3.811   0.494   5.037
 1758SOL     OW 6172   2.029   1.339   3.346
 1758SOL    HW1 6173   1.945   1.324   3.295
 1758SOL    HW2 6174   2.106   1.341   3.282
 1759SOL     OW 6175   6.886   6.029   5.905
 1759SOL    HW1 6176   6.930   5.940   5.892
 1759SOL    HW2 6177   6.878   6.048   6.002
 1760SOL     OW 6178   4.381   6.298   3.704
 1760SOL    HW1 6179   4.282   6.315   3.709
 1760SOL    HW2 6180   4.430   6.381   3.731
 1761SOL     OW 6181   6.128   3.344   1.026
 1761SOL    HW1 6182   6.036   3.308   1.013
 1761SOL    HW2 6183   6.191   3.269   1.047
 1762SOL     OW 6184   6.037   2.645   0.115
 1762SOL    HW1 6185   6.130   2.610   0.130
 1762SOL    HW2 6186   6.025   2.730   0.166
 1763SOL     OW 6187   2.025   2.314   4.273
 1763SOL    HW1 6188   1.930   2.319   4.243
 1763SOL    HW2 6189   2.051   2.218   4.284
 1764SOL     OW 6190   6.599   3.970   3.173
 1764SOL    HW1 6191   6.583   4.059   3.215
 1764SOL    HW2 6192   6.512   3.928   3.148
 1765SOL     OW 6193   1.756   3.192   6.356
 1765SOL    HW1 6194   1.677   3.245   6.387
 1765SOL    HW2 6195   1.805   3.156   6.435
 1766SOL     OW 6196   6.036   4.326   5.603
 1766SOL    HW1 6197   6.003   4.373   5.685
 1766SOL    HW2 6198   6.074   4.393   5.539
 1767SOL     OW 6199   6.817   5.073   1.204
 1767SOL    HW1 6200   6.761   5.142   1.249
 1767SOL    HW2 6201   6.799   5.075   1.105
 1768SOL     OW 6202   6.173   0.432   3.346
 1768SOL    HW1 6203   6.217   0.496   3.283
 1768SOL    HW2 6204   6.237   0.408   3.419
 1769SOL     OW 6205   4.528   0.543   4.074
 1769SOL    HW1 6206   4.521   0.587   4.164
 1769SOL    HW2 6207   4.601   0.475   4.077
 1770SOL     OW 6208   3.443   5.623   5.535
 1770SOL    HW1 6209   3.454   5.653   5.629
 1770SOL    HW2 6210   3.450   5.524   5.530
 1771SOL     OW 6211   5.160   5.639   6.911
 1771SOL    HW1 6212   5.208   5.724   6.893
 1771SOL    HW2 6213   5.164   5.619   7.009
 1772SOL     OW 6214   2.160   6.131   2.278
 1772SOL    HW1 6215   2.182   6.206   2.341
 1772SOL    HW2 6216   2.068   6.097   2.300
 1773SOL     OW 6217   1.939   6.849   7.007
 1773SOL    HW1 6218   1.954   6.945   0.008
 1773SOL    HW2 6219   1.954   6.791   0.062
 1774SOL     OW 6220   2.561   5.433   1.168
 1774SOL    HW1 6221   2.634   5.428   1.237
 1774SOL    HW2 6222   2.585   5.375   1.090
 1775SOL     OW 6223   0.695   5.084   0.419
 1775SOL    HW1 6224   0.711   5.181   0.439
 1775SOL    HW2 6225   0.704   5.031   0.502
 1776SOL     OW 6226   3.048   6.030   4.900
 1776SOL    HW1 6227   3.028   5.952   4.960
 1776SOL    HW2 6228   3.053   6.113   4.955
 1777SOL     OW 6229   4.386   6.258   6.636
 1777SOL    HW1 6230   4.366   6.190   6.565
 1777SOL    HW2 6231   4.319   6.332   6.632
 1778SOL     OW 6232   0.877   3.616   6.088
 1778SOL    HW1 6233   0.787   3.651   6.062
 1778SOL    HW2 6234   0.937   3.619   6.008
 1779SOL     OW 6235   4.019   6.674   5.008
 1779SOL    HW1 6236   4.106   6.723   5.019
 1779SOL    HW2 6237   3.963   6.689   5.089
 1780SOL     OW 6238   4.020   2.420   6.503
 1780SOL    HW1 6239   4.014   2.377   6.592
 1780SOL    HW2 6240   4.114   2.412   6.468
 1781SOL     OW 6241   1.776   6.311   3.265
 1781SOL    HW1 6242   1.781   6.219   3.228
 1781SOL    HW2 6243   1.808   6.311   3.360
 1782SOL     OW 6244   3.190   1.176   4.857
 1782SOL    HW1 6245   3.264   1.205   4.919
 1782SOL    HW2 6246   3.158   1.086   4.884
 1783SOL     OW 6247   2.277   5.890   0.100
 1783SOL    HW1 6248   2.184   5.924   0.086
 1783SOL    HW2 6249   2.342   5.965   0.087
 1784SOL     OW 6250   1.556   6.905   6.275
 1784SOL    HW1 6251   1.501   6.835   6.320
 1784SOL    HW2 6252   1.653   6.884   6.287
 1785SOL     OW 6253   0.013   5.146   2.845
 1785SOL    HW1 6254   0.059   5.071   2.798
 1785SOL    HW2 6255   6.999   5.209   2.778
 1786SOL     OW 6256   4.053   2.223   1.202
 1786SOL    HW1 6257   4.097   2.226   1.291
 1786SOL    HW2 6258   4.033   2.316   1.171
 1787SOL     OW 6259   3.747   0.192   5.163
 1787SOL    HW1 6260   3.843   0.210   5.187
 1787SOL    HW2 6261   3.719   0.253   5.089
 1788SOL     OW 6262   1.572   4.880   5.053
 1788SOL    HW1 6263   1.659   4.920   5.084
 1788SOL    HW2 6264   1.589   4.788   5.018
 1789SOL     OW 6265   5.511   6.423   0.618
 1789SOL    HW1 6266   5.445   6.485   0.578
 1789SOL    HW2 6267   5.471   6.331   0.626
 1790SOL     OW 6268   1.960   6.811   2.827
 1790SOL    HW1 6269   2.000   6.748   2.893
 1790SOL    HW2 6270   1.878   6.769   2.787
 1791SOL     OW 6271   0.831   6.824   3.176
 1791SOL    HW1 6272   0.889   6.887   3.229
 1791SOL    HW2 6273   0.876   6.804   3.089
 1792SOL     OW 6274   0.457   3.836   4.234
 1792SOL    HW1 6275   0.384   3.871   4.293
 1792SOL    HW2 6276   0.419   3.768   4.171
 1793SOL     OW 6277   6.932   0.387   4.308
 1793SOL    HW1 6278   6.974   0.296   4.303
 1793SOL    HW2 6279   6.900   0.404   4.401
 1794SOL     OW 6280   4.385   6.183   6.365
 1794SOL    HW1 6281   4.303   6.239   6.376
 1794SOL    HW2 6282   4.359   6.091   6.334
 1795SOL     OW 6283   0.968   3.574   0.154
 1795SOL    HW1 6284   0.896   3.529   0.207
 1795SOL    HW2 6285   0.960   3.546   0.058
 1796SOL     OW 6286   3.754   0.190   5.578
 1796SOL    HW1 6287   3.719   0.237   5.496
 1796SOL    HW2 6288   3.740   0.092   5.568
 1797SOL     OW 6289   0.149   0.971   2.196
 1797SOL    HW1 6290   0.134   0.877   2.226
 1797SOL    HW2 6291   0.167   1.029   2.275
 1798SOL     OW 6292   6.022   1.615   3.026
 1798SOL    HW1 6293   6.032   1.520   2.999
 1798SOL    HW2 6294   6.056   1.674   2.953
 1799SOL     OW 6295   3.001   0.131   0.719
 1799SOL    HW1 6296   3.008   0.032   0.730
 1799SOL    HW2 6297   2.918   0.154   0.668
 1800SOL     OW 6298   2.661   4.675   2.234
 1800SOL    HW1 6299   2.736   4.655   2.297
 1800SOL    HW2 6300   2.689   4.651   2.141
 1801SOL     OW 6301   5.244   6.359   1.144
 1801SOL    HW1 6302   5.269   6.454   1.166
 1801SOL    HW2 6303   5.299   6.329   1.066
 1802SOL     OW 6304   5.578   5.458   4.488
 1802SOL    HW1 6305   5.544   5.492   4.401
 1802SOL    HW2 6306   5.565   5.527   4.559
 1803SOL     OW 6307   6.127   4.872   0.234
 1803SOL    HW1 6308   6.163   4.796   0.179
 1803SOL    HW2 6309   6.087   4.940   0.173
 1804SOL     OW 6310   2.766   3.817   5.871
 1804SOL    HW1 6311   2.814   3.889   5.920
 1804SOL    HW2 6312   2.667   3.836   5.871
 1805SOL     OW 6313   0.026   2.612   6.977
 1805SOL    HW1 6314   0.111   2.568   6.948
 1805SOL    HW2 6315   7.007   2.654   6.898
 1806SOL     OW 6316   6.560   6.296   0.320
 1806SOL    HW1 6317   6.569   6.206   0.278
 1806SOL    HW2 6318   6.630   6.358   0.283
 1807SOL     OW 6319   6.842   2.026   5.647
 1807SOL    HW1 6320   6.860   1.976   5.562
 1807SOL    HW2 6321   6.814   2.120   5.625
 1808SOL     OW 6322   2.233   5.105   4.095
 1808SOL    HW1 6323   2.177   5.109   4.178
 1808SOL    HW2 6324   2.324   5.140   4.115
 1809SOL     OW 6325   3.890   0.458   6.213
 1809SOL    HW1 6326   3.956   0.462   6.288
 1809SOL    HW2 6327   3.798   0.459   6.250
 1810SOL     OW 6328   3.349   6.298   3.164
 1810SOL    HW1 6329   3.303   6.266   3.082
 1810SOL    HW2 6330   3.427   6.355   3.138
 1811SOL     OW 6331   5.286   5.481   3.006
 1811SOL    HW1 6332   5.218   5.421   3.048
 1811SOL    HW2 6333   5.297   5.564   3.061
 1812SOL     OW 6334   4.504   4.968   4.902
 1812SOL    HW1 6335   4.559   5.052   4.896
 1812SOL    HW2 6336   4.560   4.889   4.879
 1813SOL     OW 6337   0.110   6.577   4.969
 1813SOL    HW1 6338   0.106   6.530   4.880
 1813SOL    HW2 6339   0.191   6.635   4.971
 1814SOL     OW 6340   4.607   0.464   2.836
 1814SOL    HW1 6341   4.580   0.501   2.925
 1814SOL    HW2 6342   4.650   0.537   2.781
 1815SOL     OW 6343   0.076   1.300   3.196
 1815SOL    HW1 6344   0.111   1.313   3.103
 1815SOL    HW2 6345   0.034   1.209   3.203
 1816SOL     OW 6346   1.396   5.472   0.327
 1816SOL    HW1 6347   1.478   5.512   0.286
 1816SOL    HW2 6348   1.361   5.533   0.399
 1817SOL     OW 6349   1.265   4.003   1.718
 1817SOL    HW1 6350   1.206   4.040   1.789
 1817SOL    HW2 6351   1.267   4.066   1.640
 1818SOL     OW 6352   0.278   1.914   3.216
 1818SOL    HW1 6353   0.292   1.906   3.117
 1818SOL    HW2 6354   0.358   1.879   3.264
 1819SOL     OW 6355   1.268   3.849   2.351
 1819SOL    HW1 6356   1.317   3.936   2.342
 1819SOL    HW2 6357   1.180   3.854   2.304
 1820SOL     OW 6358   5.431   6.624   2.257
 1820SOL    HW1 6359   5.527   6.614   2.232
 1820SOL    HW2 6360   5.415   6.717   2.292
 1821SOL     OW 6361   1.458   1.969   2.909
 1821SOL    HW1 6362   1.453   2.052   2.965
 1821SOL    HW2 6363   1.496   1.991   2.820
 1822SOL     OW 6364   3.382   3.793   1.951
 1822SOL    HW1 6365   3.316   3.758   1.884
 1822SOL    HW2 6366   3.407   3.721   2.015
 1823SOL     OW 6367   4.327   6.838   2.351
 1823SOL    HW1 6368   4.265   6.913   2.333
 1823SOL    HW2 6369   4.320   6.810   2.447
 1824SOL     OW 6370   4.910   1.512   2.060
 1824SOL    HW1 6371   4.993   1.484   2.012
 1824SOL    HW2 6372   4.890   1.608   2.039
 1825SOL     OW 6373   0.101   0.395   1.272
 1825SOL    HW1 6374   0.148   0.476   1.308
 1825SOL    HW2 6375   0.103   0.397   1.172
 1826SOL     OW 6376   2.613   5.422   6.163
 1826SOL    HW1 6377   2.679   5.426   6.088
 1826SOL    HW2 6378   2.547   5.496   6.152
 1827SOL     OW 6379   5.695   0.542   1.153
 1827SOL    HW1 6380   5.668   0.462   1.207
 1827SOL    HW2 6381   5.618   0.571   1.097
 1828SOL     OW 6382   3.103   2.746   0.313
 1828SOL    HW1 6383   3.019   2.704   0.278
 1828SOL    HW2 6384   3.182   2.701   0.272
 1829SOL     OW 6385   5.249   5.389   2.524
 1829SOL    HW1 6386   5.306   5.410   2.604
 1829SOL    HW2 6387   5.186   5.315   2.547
 1830SOL     OW 6388   4.427   0.508   4.866
 1830SOL    HW1 6389   4.476   0.447   4.802
 1830SOL    HW2 6390   4.392   0.454   4.942
 1831SOL     OW 6391   5.353   1.360   3.132
 1831SOL    HW1 6392   5.395   1.372   3.042
 1831SOL    HW2 6393   5.410   1.301   3.188
 1832SOL     OW 6394   5.730   2.686   6.615
 1832SOL    HW1 6395   5.796   2.623   6.656
 1832SOL    HW2 6396   5.739   2.683   6.515
 1833SOL     OW 6397   5.672   1.600   6.008
 1833SOL    HW1 6398   5.604   1.552   5.952
 1833SOL    HW2 6399   5.764   1.577   5.976
 1834SOL     OW 6400   2.292   4.392   6.898
 1834SOL    HW1 6401   2.386   4.375   6.868
 1834SOL    HW2 6402   2.264   4.484   6.871
 1835SOL     OW 6403   1.947   5.251   6.877
 1835SOL    HW1 6404   2.025   5.299   6.836
 1835SOL    HW2 6405   1.978   5.164   6.915
 1836SOL     OW 6406   0.721   6.586   0.654
 1836SOL    HW1 6407   0.723   6.491   0.624
 1836SOL    HW2 6408   0.686   6.591   0.747
 1837SOL     OW 6409   6.963   2.453   4.417
 1837SOL    HW1 6410   6.868   2.434   4.441
 1837SOL    HW2 6411   7.022   2.433   4.494
 1838SOL     OW 6412   0.815   2.867   4.509
 1838SOL    HW1 6413   0.802   2.819   4.596
 1838SOL    HW2 6414   0.745   2.836   4.444
 1839SOL     OW 6415   1.630   1.200   0.169
 1839SOL    HW1 6416   1.549   1.256   0.149
 1839SOL    HW2 6417   1.601   1.110   0.199
 1840SOL     OW 6418   1.230   5.508   1.593
 1840SOL    HW1 6419   1.211   5.455   1.676
 1840SOL    HW2 6420   1.325   5.538   1.594
 1841SOL     OW 6421   1.592   2.980   4.374
 1841SOL    HW1 6422   1.682   3.010   4.405
 1841SOL    HW2 6423   1.544   2.934   4.449
 1842SOL     OW 6424   1.670   5.696   6.494
 1842SOL    HW1 6425   1.648   5.636   6.572
 1842SOL    HW2 6426   1.634   5.788   6.512
 1843SOL     OW 6427   4.300   2.123   5.728
 1843SOL    HW1 6428   4.301   2.202   5.789
 1843SOL    HW2 6429   4.325   2.153   5.636
 1844SOL     OW 6430   5.480   4.975   3.367
 1844SOL    HW1 6431   5.508   5.016   3.453
 1844SOL    HW2 6432   5.469   5.046   3.297
 1845SOL     OW 6433   5.135   6.471   0.825
 1845SOL    HW1 6434   5.153   6.373   0.836
 1845SOL    HW2 6435   5.052   6.496   0.875
 1846SOL     OW 6436   3.834   1.297   5.741
 1846SOL    HW1 6437   3.781   1.217   5.768
 1846SOL    HW2 6438   3.796   1.379   5.785
 1847SOL     OW 6439   1.487   5.872   6.207
 1847SOL    HW1 6440   1.573   5.886   6.256
 1847SOL    HW2 6441   1.502   5.813   6.128
 1848SOL     OW 6442   2.349   1.695   4.431
 1848SOL    HW1 6443   2.314   1.602   4.418
 1848SOL    HW2 6444   2.411   1.718   4.356
 1849SOL     OW 6445   3.019   0.826   5.744
 1849SOL    HW1 6446   2.960   0.874   5.679
 1849SOL    HW2 6447   3.008   0.866   5.835
 1850SOL     OW 6448   5.224   1.878   1.097
 1850SOL    HW1 6449   5.150   1.945   1.103
 1850SOL    HW2 6450   5.217   1.828   1.011
 1851SOL     OW 6451   6.301   4.465   2.919
 1851SOL    HW1 6452   6.243   4.383   2.914
 1851SOL    HW2 6453   6.362   4.457   2.997
 1852SOL     OW 6454   5.546   1.520   5.630
 1852SOL    HW1 6455   5.508   1.531   5.722
 1852SOL    HW2 6456   5.628   1.577   5.621
 1853SOL     OW 6457   1.478   4.891   0.539
 1853SOL    HW1 6458   1.396   4.937   0.506
 1853SOL    HW2 6459   1.558   4.950   0.523
 1854SOL     OW 6460   2.187   5.304   4.541
 1854SOL    HW1 6461   2.118   5.375   4.530
 1854SOL    HW2 6462   2.276   5.337   4.509
 1855SOL     OW 6463   6.644   4.656   1.472
 1855SOL    HW1 6464   6.712   4.716   1.514
 1855SOL    HW2 6465   6.588   4.614   1.543
 1856SOL     OW 6466   5.529   2.981   0.220
 1856SOL    HW1 6467   5.512   3.063   0.165
 1856SOL    HW2 6468   5.443   2.933   0.237
 1857SOL     OW 6469   5.564   0.995   3.619
 1857SOL    HW1 6470   5.661   1.018   3.626
 1857SOL    HW2 6471   5.555   0.897   3.604
 1858SOL     OW 6472   5.317   4.281   2.639
 1858SOL    HW1 6473   5.346   4.201   2.691
 1858SOL    HW2 6474   5.313   4.361   2.698
 1859SOL     OW 6475   5.779   2.325   3.784
 1859SOL    HW1 6476   5.679   2.323   3.780
 1859SOL    HW2 6477   5.809   2.416   3.814
 1860SOL     OW 6478   3.461   1.791   5.022
 1860SOL    HW1 6479   3.518   1.754   4.949
 1860SOL    HW2 6480   3.367   1.798   4.990
 1861SOL     OW 6481   4.752   6.566   2.389
 1861SOL    HW1 6482   4.740   6.531   2.482
 1861SOL    HW2 6483   4.845   6.544   2.357
 1862SOL     OW 6484   3.227   2.485   0.868
 1862SOL    HW1 6485   3.318   2.518   0.893
 1862SOL    HW2 6486   3.224   2.462   0.771
 1863SOL     OW 6487   2.116   1.664   1.414
 1863SOL    HW1 6488   2.131   1.737   1.480
 1863SOL    HW2 6489   2.132   1.576   1.458
 1864SOL     OW 6490   0.238   6.626   3.151
 1864SOL    HW1 6491   0.278   6.618   3.242
 1864SOL    HW2 6492   0.296   6.685   3.094
 1865SOL     OW 6493   5.509   3.300   6.858
 1865SOL    HW1 6494   5.588   3.241   6.843
 1865SOL    HW2 6495   5.523   3.354   6.942
 1866SOL     OW 6496   5.987   5.166   1.686
 1866SOL    HW1 6497   5.987   5.265   1.703
 1866SOL    HW2 6498   5.953   5.118   1.767
 1867SOL     OW 6499   1.538   4.180   6.611
 1867SOL    HW1 6500   1.589   4.136   6.537
 1867SOL    HW2 6501   1.560   4.278   6.613
 1868SOL     OW 6502   6.115   3.792   4.990
 1868SOL    HW1 6503   6.027   3.753   5.019
 1868SOL    HW2 6504   6.145   3.860   5.056
 1869SOL     OW 6505   5.631   0.741   5.114
 1869SOL    HW1 6506   5.669   0.827   5.081
 1869SOL    HW2 6507   5.589   0.691   5.038
 1870SOL     OW 6508   2.088   3.889   4.931
 1870SOL    HW1 6509   2.158   3.954   4.961
 1870SOL    HW2 6510   2.022   3.875   5.005
 1871SOL     OW 6511   1.918   1.190   0.909
 1871SOL    HW1 6512   1.872   1.105   0.884
 1871SOL    HW2 6513   1.855   1.267   0.898
 1872SOL     OW 6514   1.700   5.591   6.237
 1872SOL    HW1 6515   1.720   5.651   6.314
 1872SOL    HW2 6516   1.612   5.545   6.252
 1873SOL     OW 6517   5.797   6.699   6.842
 1873SOL    HW1 6518   5.803   6.649   6.928
 1873SOL    HW2 6519   5.706   6.687   6.803
 1874SOL     OW 6520   0.488   3.977   3.109
 1874SOL    HW1 6521   0.457   3.883   3.115
 1874SOL    HW2 6522   0.584   3.983   3.137
 1875SOL     OW 6523   0.243   0.021   1.945
 1875SOL    HW1 6524   0.164   7.011   1.895
 1875SOL    HW2 6525   0.214   0.060   2.032
 1876SOL     OW 6526   1.824   6.151   4.003
 1876SOL    HW1 6527   1.824   6.119   4.097
 1876SOL    HW2 6528   1.919   6.160   3.971
 1877SOL     OW 6529   6.983   0.115   4.314
 1877SOL    HW1 6530   6.988   0.070   4.403
 1877SOL    HW2 6531   6.964   0.047   4.243
 1878SOL     OW 6532   6.462   3.371   5.856
 1878SOL    HW1 6533   6.532   3.320   5.807
 1878SOL    HW2 6534   6.493   3.392   5.948
 1879SOL     OW 6535   1.760   6.246   5.646
 1879SOL    HW1 6536   1.673   6.289   5.670
 1879SOL    HW2 6537   1.756   6.213   5.552
 1880SOL     OW 6538   6.679   0.172   4.171
 1880SOL    HW1 6539   6.759   0.196   4.226
 1880SOL    HW2 6540   6.670   0.236   4.095
 1881SOL     OW 6541   0.834   2.183   6.770
 1881SOL    HW1 6542   0.834   2.166   6.869
 1881SOL    HW2 6543   0.913   2.240   6.746
 1882SOL     OW 6544   0.822   6.839   0.636
 1882SOL    HW1 6545   0.743   6.896   0.662
 1882SOL    HW2 6546   0.793   6.743   0.630
 1883SOL     OW 6547   0.053   1.873   4.172
 1883SOL    HW1 6548   0.086   1.806   4.107
 1883SOL    HW2 6549   0.069   1.965   4.136
 1884SOL     OW 6550   5.987   1.891   1.263
 1884SOL    HW1 6551   5.892   1.901   1.235
 1884SOL    HW2 6552   6.046   1.944   1.201
 1885SOL     OW 6553   3.269   1.057   4.602
 1885SOL    HW1 6554   3.331   0.980   4.617
 1885SOL    HW2 6555   3.258   1.108   4.687
 1886SOL     OW 6556   0.496   6.210   3.677
 1886SOL    HW1 6557   0.578   6.154   3.689
 1886SOL    HW2 6558   0.480   6.265   3.760
 1887SOL     OW 6559   2.399   5.584   6.181
 1887SOL    HW1 6560   2.350   5.508   6.225
 1887SOL    HW2 6561   2.339   5.665   6.178
 1888SOL     OW 6562   2.256   0.155   3.411
 1888SOL    HW1 6563   2.285   0.249   3.395
 1888SOL    HW2 6564   2.195   0.126   3.338
 1889SOL     OW 6565   0.219   3.631   2.575
 1889SOL    HW1 6566   0.295   3.695   2.590
 1889SOL    HW2 6567   0.225   3.558   2.643
 1890SOL     OW 6568   1.798   6.143   4.527
 1890SOL    HW1 6569   1.860   6.073   4.564
 1890SOL    HW2 6570   1.834   6.177   4.440
 1891SOL     OW 6571   4.027   3.794   3.788
 1891SOL    HW1 6572   4.062   3.706   3.756
 1891SOL    HW2 6573   3.932   3.805   3.759
 1892SOL     OW 6574   0.134   0.517   2.734
 1892SOL    HW1 6575   0.054   0.576   2.722
 1892SOL    HW2 6576   0.188   0.548   2.812
 1893SOL     OW 6577   3.650   2.963   4.012
 1893SOL    HW1 6578   3.561   2.954   4.056
 1893SOL    HW2 6579   3.650   3.044   3.953
 1894SOL     OW 6580   3.155   3.256   4.801
 1894SOL    HW1 6581   3.139   3.298   4.890
 1894SOL    HW2 6582   3.082   3.190   4.782
 1895SOL     OW 6583   0.882   6.152   1.293
 1895SOL    HW1 6584   0.838   6.078   1.344
 1895SOL    HW2 6585   0.982   6.143   1.301
 1896SOL     OW 6586   6.278   3.096   1.061
 1896SOL    HW1 6587   6.223   3.019   1.028
 1896SOL    HW2 6588   6.374   3.069   1.066
 1897SOL     OW 6589   2.222   4.821   3.257
 1897SOL    HW1 6590   2.195   4.894   3.194
 1897SOL    HW2 6591   2.302   4.773   3.220
 1898SOL     OW 6592   1.856   6.017   2.277
 1898SOL    HW1 6593   1.792   6.086   2.244
 1898SOL    HW2 6594   1.813   5.964   2.350
 1899SOL     OW 6595   6.854   0.865   2.430
 1899SOL    HW1 6596   6.885   0.956   2.405
 1899SOL    HW2 6597   6.756   0.857   2.415
 1900SOL     OW 6598   2.922   6.438   6.191
 1900SOL    HW1 6599   2.907   6.450   6.289
 1900SOL    HW2 6600   2.861   6.366   6.157
 1901SOL     OW 6601   4.055   3.325   2.671
 1901SOL    HW1 6602   3.984   3.258   2.694
 1901SOL    HW2 6603   4.100   3.297   2.586
 1902SOL     OW 6604   1.550   6.934   5.374
 1902SOL    HW1 6605   1.456   6.959   5.400
 1902SOL    HW2 6606   1.591   7.009   5.323
 1903SOL     OW 6607   1.066   2.364   4.174
 1903SOL    HW1 6608   1.048   2.441   4.234
 1903SOL    HW2 6609   1.165   2.349   4.168
 1904SOL     OW 6610   5.977   5.270   2.023
 1904SOL    HW1 6611   5.987   5.260   2.122
 1904SOL    HW2 6612   5.880   5.264   1.999
 1905SOL     OW 6613   0.404   3.125   3.959
 1905SOL    HW1 6614   0.374   3.091   3.870
 1905SOL    HW2 6615   0.338   3.097   4.030
 1906SOL     OW 6616   0.062   6.401   4.056
 1906SOL    HW1 6617   0.038   6.392   3.959
 1906SOL    HW2 6618   0.071   6.498   4.079
 1907SOL     OW 6619   6.826   2.883   0.663
 1907SOL    HW1 6620   6.776   2.811   0.614
 1907SOL    HW2 6621   6.851   2.956   0.600
 1908SOL     OW 6622   4.720   0.549   1.725
 1908SOL    HW1 6623   4.722   0.649   1.729
 1908SOL    HW2 6624   4.700   0.520   1.631
 1909SOL     OW 6625   6.704   5.239   5.214
 1909SOL    HW1 6626   6.632   5.213   5.278
 1909SOL    HW2 6627   6.760   5.159   5.192
 1910SOL     OW 6628   0.437   6.269   5.014
 1910SOL    HW1 6629   0.401   6.217   5.092
 1910SOL    HW2 6630   0.478   6.354   5.048
 1911SOL     OW 6631   5.620   6.501   4.153
 1911SOL    HW1 6632   5.622   6.523   4.055
 1911SOL    HW2 6633   5.592   6.406   4.165
 1912SOL     OW 6634   3.351   5.035   1.916
 1912SOL    HW1 6635   3.336   5.062   2.011
 1912SOL    HW2 6636   3.285   4.964   1.890
 1913SOL     OW 6637   2.917   3.926   6.269
 1913SOL    HW1 6638   2.970   3.946   6.351
 1913SOL    HW2 6639   2.936   3.832   6.239
 1914SOL     OW 6640   4.439   4.334   0.530
 1914SOL    HW1 6641   4.346   4.346   0.496
 1914SOL    HW2 6642   4.443   4.357   0.628
 1915SOL     OW 6643   4.172   2.186   0.103
 1915SOL    HW1 6644   4.125   2.158   0.020
 1915SOL    HW2 6645   4.119   2.258   0.149
 1916SOL     OW 6646   3.551   1.843   2.851
 1916SOL    HW1 6647   3.471   1.841   2.912
 1916SOL    HW2 6648   3.559   1.755   2.804
 1917SOL     OW 6649   2.600   3.950   1.205
 1917SOL    HW1 6650   2.678   3.953   1.142
 1917SOL    HW2 6651   2.633   3.927   1.297
 1918SOL     OW 6652   5.044   3.107   4.480
 1918SOL    HW1 6653   5.116   3.130   4.415
 1918SOL    HW2 6654   5.041   3.008   4.493
 1919SOL     OW 6655   6.710   1.000   6.446
 1919SOL    HW1 6656   6.698   0.934   6.372
 1919SOL    HW2 6657   6.746   1.085   6.409
 1920SOL     OW 6658   4.995   3.498   0.431
 1920SOL    HW1 6659   5.048   3.500   0.346
 1920SOL    HW2 6660   4.925   3.570   0.428
 1921SOL     OW 6661   3.273   2.371   6.876
 1921SOL    HW1 6662   3.241   2.309   6.804
 1921SOL    HW2 6663   3.198   2.431   6.904
 1922SOL     OW 6664   3.824   3.709   4.339
 1922SOL    HW1 6665   3.757   3.782   4.324
 1922SOL    HW2 6666   3.802   3.631   4.280
 1923SOL     OW 6667   2.913   0.320   4.139
 1923SOL    HW1 6668   3.003   0.314   4.183
 1923SOL    HW2 6669   2.857   0.386   4.189
 1924SOL     OW 6670   5.419   0.811   1.529
 1924SOL    HW1 6671   5.406   0.828   1.432
 1924SOL    HW2 6672   5.485   0.737   1.542
 1925SOL     OW 6673   1.246   4.737   0.947
 1925SOL    HW1 6674   1.342   4.715   0.956
 1925SOL    HW2 6675   1.192   4.653   0.939
 1926SOL     OW 6676   2.695   6.675   2.055
 1926SOL    HW1 6677   2.610   6.719   2.028
 1926SOL    HW2 6678   2.772   6.728   2.020
 1927SOL     OW 6679   1.696   5.380   0.983
 1927SOL    HW1 6680   1.792   5.367   1.007
 1927SOL    HW2 6681   1.652   5.290   0.972
 1928SOL     OW 6682   1.278   4.169   2.924
 1928SOL    HW1 6683   1.308   4.080   2.888
 1928SOL    HW2 6684   1.289   4.171   3.023
 1929SOL     OW 6685   3.240   0.835   3.290
 1929SOL    HW1 6686   3.215   0.873   3.201
 1929SOL    HW2 6687   3.185   0.879   3.361
 1930SOL     OW 6688   3.311   3.474   0.089
 1930SOL    HW1 6689   3.244   3.537   0.051
 1930SOL    HW2 6690   3.293   3.461   0.187
 1931SOL     OW 6691   5.497   3.463   3.760
 1931SOL    HW1 6692   5.484   3.509   3.848
 1931SOL    HW2 6693   5.578   3.500   3.714
 1932SOL     OW 6694   4.751   0.979   1.923
 1932SOL    HW1 6695   4.753   0.937   2.014
 1932SOL    HW2 6696   4.818   1.053   1.919
 1933SOL     OW 6697   1.587   1.292   1.218
 1933SOL    HW1 6698   1.677   1.253   1.202
 1933SOL    HW2 6699   1.587   1.388   1.190
 1934SOL     OW 6700   6.743   0.752   6.943
 1934SOL    HW1 6701   6.730   0.799   6.855
 1934SOL    HW2 6702   6.677   0.786   7.009
 1935SOL     OW 6703   5.852   5.262   3.668
 1935SOL    HW1 6704   5.796   5.180   3.660
 1935SOL    HW2 6705   5.910   5.255   3.749
 1936SOL     OW 6706   5.950   2.984   6.662
 1936SOL    HW1 6707   5.872   2.968   6.722
 1936SOL    HW2 6708   5.929   2.952   6.569
 1937SOL     OW 6709   0.965   5.097   6.651
 1937SOL    HW1 6710   0.915   5.080   6.566
 1937SOL    HW2 6711   0.927   5.040   6.724
 1938SOL     OW 6712   6.820   1.629   6.622
 1938SOL    HW1 6713   6.803   1.709   6.680
 1938SOL    HW2 6714   6.734   1.579   6.608
 1939SOL     OW 6715   0.576   0.883   3.789
 1939SOL    HW1 6716   0.605   0.834   3.871
 1939SOL    HW2 6717   0.525   0.822   3.730
 1940SOL     OW 6718   0.959   5.150   2.097
 1940SOL    HW1 6719   0.885   5.190   2.043
 1940SOL    HW2 6720   0.964   5.052   2.078
 1941SOL     OW 6721   5.916   0.076   4.162
 1941SOL    HW1 6722   5.942   0.125   4.246
 1941SOL    HW2 6723   5.996   0.067   4.103
 1942SOL     OW 6724   0.745   6.405   1.639
 1942SOL    HW1 6725   0.842   6.425   1.634
 1942SOL    HW2 6726   0.714   6.414   1.734
 1943SOL     OW 6727   0.833   4.263   4.034
 1943SOL    HW1 6728   0.773   4.204   4.089
 1943SOL    HW2 6729   0.786   4.289   3.949
 1944SOL     OW 6730   6.925   3.545   3.725
 1944SOL    HW1 6731   6.954   3.631   3.767
 1944SOL    HW2 6732   6.825   3.542   3.720
 1945SOL     OW 6733   4.570   1.810   2.034
 1945SOL    HW1 6734   4.475   1.840   2.025
 1945SOL    HW2 6735   4.607   1.842   2.121
 1946SOL     OW 6736   5.863   4.837   0.007
 1946SOL    HW1 6737   5.797   4.856   6.960
 1946SOL    HW2 6738   5.927   4.766   7.000
 1947SOL     OW 6739   5.517   6.160   2.679
 1947SOL    HW1 6740   5.509   6.147   2.778
 1947SOL    HW2 6741   5.466   6.241   2.652
 1948SOL     OW 6742   5.167   2.948   2.951
 1948SOL    HW1 6743   5.189   2.866   3.004
 1948SOL    HW2 6744   5.171   3.028   3.010
 1949SOL     OW 6745   3.179   3.960   6.482
 1949SOL    HW1 6746   3.223   4.014   6.554
 1949SOL    HW2 6747   3.232   3.966   6.398
 1950SOL     OW 6748   3.792   3.488   4.147
 1950SOL    HW1 6749   3.762   3.458   4.057
 1950SOL    HW2 6750   3.877   3.540   4.139
 1951SOL     OW 6751   0.801   5.211   6.181
 1951SOL    HW1 6752   0.881   5.225   6.240
 1951SOL    HW2 6753   0.775   5.115   6.183
 1952SOL     OW 6754   5.677   3.951   0.148
 1952SOL    HW1 6755   5.682   4.020   0.076
 1952SOL    HW2 6756   5.588   3.906   0.145
 1953SOL     OW 6757   0.577   1.160   6.324
 1953SOL    HW1 6758   0.501   1.166   6.389
 1953SOL    HW2 6759   0.663   1.184   6.370
 1954SOL     OW 6760   4.015   6.686   3.075
 1954SOL    HW1 6761   3.929   6.685   3.126
 1954SOL    HW2 6762   3.996   6.711   2.980
 1955SOL     OW 6763   6.674   3.428   4.318
 1955SOL    HW1 6764   6.740   3.361   4.282
 1955SOL    HW2 6765   6.713   3.473   4.398
 1956SOL     OW 6766   4.682   1.491   1.368
 1956SOL    HW1 6767   4.738   1.409   1.370
 1956SOL    HW2 6768   4.709   1.552   1.442
 1957SOL     OW 6769   0.080   3.253   4.919
 1957SOL    HW1 6770   0.164   3.202   4.899
 1957SOL    HW2 6771   0.030   3.270   4.834
 1958SOL     OW 6772   5.383   2.009   0.302
 1958SOL    HW1 6773   5.380   1.986   0.205
 1958SOL    HW2 6774   5.303   1.970   0.348
 1959SOL     OW 6775   1.885   1.520   6.047
 1959SOL    HW1 6776   1.834   1.597   6.084
 1959SOL    HW2 6777   1.872   1.440   6.106
 1960SOL     OW 6778   4.675   4.505   1.912
 1960SOL    HW1 6779   4.623   4.422   1.934
 1960SOL    HW2 6780   4.715   4.542   1.996
 1961SOL     OW 6781   6.420   3.731   4.359
 1961SOL    HW1 6782   6.391   3.646   4.315
 1961SOL    HW2 6783   6.520   3.734   4.364
 1962SOL     OW 6784   0.105   6.926   2.208
 1962SOL    HW1 6785   0.041   6.907   2.283
 1962SOL    HW2 6786   0.120   0.000   2.202
 1963SOL     OW 6787   0.614   1.329   6.910
 1963SOL    HW1 6788   0.661   1.413   6.936
 1963SOL    HW2 6789   0.515   1.343   6.917
 1964SOL     OW 6790   5.468   3.349   0.757
 1964SOL    HW1 6791   5.430   3.380   0.670
 1964SOL    HW2 6792   5.485   3.427   0.816
 1965SOL     OW 6793   5.285   5.119   4.923
 1965SOL    HW1 6794   5.260   5.093   4.830
 1965SOL    HW2 6795   5.259   5.214   4.939
 1966SOL     OW 6796   1.785   5.295   6.630
 1966SOL    HW1 6797   1.728   5.374   6.651
 1966SOL    HW2 6798   1.836   5.268   6.712
 1967SOL     OW 6799   6.475   2.490   4.068
 1967SOL    HW1 6800   6.569   2.463   4.084
 1967SOL    HW2 6801   6.471   2.586   4.040
 1968SOL     OW 6802   2.375   1.494   5.874
 1968SOL    HW1 6803   2.461   1.460   5.836
 1968SOL    HW2 6804   2.329   1.551   5.805
 1969SOL     OW 6805   0.418   6.502   1.886
 1969SOL    HW1 6806   0.462   6.537   1.803
 1969SOL    HW2 6807   0.476   6.519   1.965
 1970SOL     OW 6808   5.015   4.291   2.878
 1970SOL    HW1 6809   4.983   4.385   2.877
 1970SOL    HW2 6810   5.113   4.290   2.898
 1971SOL     OW 6811   1.345   5.565   4.380
 1971SOL    HW1 6812   1.280   5.640   4.366
 1971SOL    HW2 6813   1.368   5.560   4.477
 1972SOL     OW 6814   5.464   2.087   3.409
 1972SOL    HW1 6815   5.494   2.035   3.489
 1972SOL    HW2 6816   5.520   2.168   3.399
 1973SOL     OW 6817   4.266   2.526   7.019
 1973SOL    HW1 6818   4.295   2.572   0.079
 1973SOL    HW2 6819   4.320   2.443   7.007
 1974SOL     OW 6820   2.023   6.496   4.276
 1974SOL    HW1 6821   2.057   6.526   4.364
 1974SOL    HW2 6822   2.099   6.491   4.210
 1975SOL     OW 6823   2.184   2.204   2.857
 1975SOL    HW1 6824   2.240   2.258   2.919
 1975SOL    HW2 6825   2.203   2.231   2.762
 1976SOL     OW 6826   2.646   0.476   4.619
 1976SOL    HW1 6827   2.651   0.576   4.624
 1976SOL    HW2 6828   2.601   0.449   4.534
 1977SOL     OW 6829   1.105   4.351   0.071
 1977SOL    HW1 6830   1.181   4.401   0.028
 1977SOL    HW2 6831   1.026   4.412   0.080
 1978SOL     OW 6832   2.501   0.607   2.419
 1978SOL    HW1 6833   2.523   0.702   2.441
 1978SOL    HW2 6834   2.487   0.598   2.321
 1979SOL     OW 6835   5.350   3.085   0.005
 1979SOL    HW1 6836   5.290   3.086   6.949
 1979SOL    HW2 6837   5.346   3.174   0.050
 1980SOL     OW 6838   4.096   7.006   1.381
 1980SOL    HW1 6839   4.066   6.988   1.474
 1980SOL    HW2 6840   4.190   6.974   1.369
 1981SOL     OW 6841   4.531   2.650   1.623
 1981SOL    HW1 6842   4.594   2.719   1.659
 1981SOL    HW2 6843   4.503   2.589   1.697
 1982SOL     OW 6844   2.393   2.199   6.335
 1982SOL    HW1 6845   2.351   2.108   6.334
 1982SOL    HW2 6846   2.491   2.191   6.349
 1983SOL     OW 6847   6.936   2.356   1.331
 1983SOL    HW1 6848   6.965   2.308   1.248
 1983SOL    HW2 6849   6.978   2.447   1.333
 1984SOL     OW 6850   4.830   3.245   6.237
 1984SOL    HW1 6851   4.757   3.290   6.186
 1984SOL    HW2 6852   4.854   3.302   6.316
 1985SOL     OW 6853   5.215   5.681   5.223
 1985SOL    HW1 6854   5.156   5.737   5.166
 1985SOL    HW2 6855   5.292   5.735   5.256
 1986SOL     OW 6856   3.411   3.291   3.208
 1986SOL    HW1 6857   3.358   3.358   3.259
 1986SOL    HW2 6858   3.350   3.235   3.152
 1987SOL     OW 6859   1.679   2.024   2.016
 1987SOL    HW1 6860   1.775   2.001   2.031
 1987SOL    HW2 6861   1.643   2.071   2.096
 1988SOL     OW 6862   1.394   1.733   2.650
 1988SOL    HW1 6863   1.394   1.826   2.614
 1988SOL    HW2 6864   1.487   1.696   2.649
 1989SOL     OW 6865   3.256   5.200   3.399
 1989SOL    HW1 6866   3.160   5.172   3.389
 1989SOL    HW2 6867   3.260   5.298   3.420
 1990SOL     OW 6868   4.620   6.883   0.796
 1990SOL    HW1 6869   4.616   6.974   0.836
 1990SOL    HW2 6870   4.715   6.854   0.789
 1991SOL     OW 6871   3.017   5.112   2.538
 1991SOL    HW1 6872   3.051   5.041   2.477
 1991SOL    HW2 6873   2.965   5.179   2.485
 1992SOL     OW 6874   0.468   0.021   2.970
 1992SOL    HW1 6875   0.485   0.076   3.052
 1992SOL    HW2 6876   0.527   0.054   2.896
 1993SOL     OW 6877   1.104   1.083   1.549
 1993SOL    HW1 6878   1.115   1.155   1.481
 1993SOL    HW2 6879   1.007   1.066   1.564
 1994SOL     OW 6880   3.006   3.542   1.585
 1994SOL    HW1 6881   3.033   3.527   1.490
 1994SOL    HW2 6882   2.908   3.562   1.589
 1995SOL     OW 6883   6.214   0.690   4.039
 1995SOL    HW1 6884   6.135   0.630   4.042
 1995SOL    HW2 6885   6.187   0.781   4.007
 1996SOL     OW 6886   4.648   0.214   1.188
 1996SOL    HW1 6887   4.602   0.302   1.173
 1996SOL    HW2 6888   4.735   0.230   1.234
 1997SOL     OW 6889   2.640   1.824   3.126
 1997SOL    HW1 6890   2.606   1.800   3.217
 1997SOL    HW2 6891   2.612   1.754   3.061
 1998SOL     OW 6892   2.152   3.617   1.302
 1998SOL    HW1 6893   2.210   3.594   1.224
 1998SOL    HW2 6894   2.119   3.533   1.345
 1999SOL     OW 6895   0.396   0.308   5.530
 1999SOL    HW1 6896   0.433   0.232   5.584
 1999SOL    HW2 6897   0.408   0.288   5.433
 2000SOL     OW 6898   4.310   3.832   6.436
 2000SOL    HW1 6899   4.261   3.903   6.386
 2000SOL    HW2 6900   4.402   3.821   6.399
 2001SOL     OW 6901   1.676   1.628   7.011
 2001SOL    HW1 6902   1.749   1.657   0.048
 2001SOL    HW2 6903   1.638   1.708   6.965
 2002SOL     OW 6904   5.772   4.720   6.559
 2002SOL    HW1 6905   5.812   4.688   6.472
 2002SOL    HW2 6906   5.741   4.641   6.612
 2003SOL     OW 6907   6.927   5.602   1.337
 2003SOL    HW1 6908   7.021   5.592   1.307
 2003SOL    HW2 6909   6.923   5.660   1.418
 2004SOL     OW 6910   3.347   1.044   2.682
 2004SOL    HW1 6911   3.345   0.979   2.758
 2004SOL    HW2 6912   3.422   1.109   2.696
 2005SOL     OW 6913   1.586   6.223   0.086
 2005SOL    HW1 6914   1.546   6.179   0.167
 2005SOL    HW2 6915   1.668   6.274   0.113
 2006SOL     OW 6916   5.921   0.400   2.183
 2006SOL    HW1 6917   5.927   0.385   2.282
 2006SOL    HW2 6918   5.921   0.312   2.136
 2007SOL     OW 6919   5.559   4.995   5.835
 2007SOL    HW1 6920   5.472   5.028   5.873
 2007SOL    HW2 6921   5.545   4.964   5.741
 2008SOL     OW 6922   2.155   2.971   2.831
 2008SOL    HW1 6923   2.235   3.024   2.858
 2008SOL    HW2 6924   2.172   2.874   2.849
 2009SOL     OW 6925   5.800   0.144   3.938
 2009SOL    HW1 6926   5.840   0.085   4.007
 2009SOL    HW2 6927   5.834   0.118   3.848
 2010SOL     OW 6928   6.695   1.304   1.952
 2010SOL    HW1 6929   6.690   1.400   1.923
 2010SOL    HW2 6930   6.691   1.245   1.871
 2011SOL     OW 6931   0.692   0.401   5.194
 2011SOL    HW1 6932   0.650   0.467   5.257
 2011SOL    HW2 6933   0.787   0.384   5.222
 2012SOL     OW 6934   0.299   2.240   0.472
 2012SOL    HW1 6935   0.201   2.259   0.468
 2012SOL    HW2 6936   0.330   2.207   0.383
 2013SOL     OW 6937   0.572   2.482   2.201
 2013SOL    HW1 6938   0.511   2.444   2.271
 2013SOL    HW2 6939   0.523   2.487   2.114
 2014SOL     OW 6940   4.051   2.270   3.228
 2014SOL    HW1 6941   4.065   2.345   3.293
 2014SOL    HW2 6942   4.135   2.256   3.175
 2015SOL     OW 6943   3.303   6.345   1.441
 2015SOL    HW1 6944   3.268   6.255   1.469
 2015SOL    HW2 6945   3.340   6.393   1.520
 2016SOL     OW 6946   2.203   0.382   4.416
 2016SOL    HW1 6947   2.162   0.425   4.336
 2016SOL    HW2 6948   2.176   0.433   4.498
 2017SOL     OW 6949   1.052   6.767   4.245
 2017SOL    HW1 6950   1.002   6.839   4.197
 2017SOL    HW2 6951   0.986   6.705   4.288
 2018SOL     OW 6952   0.564   1.182   4.608
 2018SOL    HW1 6953   0.467   1.197   4.587
 2018SOL    HW2 6954   0.576   1.090   4.647
 2019SOL     OW 6955   0.776   4.904   6.807
 2019SOL    HW1 6956   0.735   4.980   6.858
 2019SOL    HW2 6957   0.709   4.831   6.798
 2020SOL     OW 6958   1.976   6.956   1.339
 2020SOL    HW1 6959   1.983   6.858   1.357
 2020SOL    HW2 6960   1.953   6.971   1.242
 2021SOL     OW 6961   0.314   5.421   3.721
 2021SOL    HW1 6962   0.281   5.484   3.792
 2021SOL    HW2 6963   0.402   5.383   3.749
 2022SOL     OW 6964   2.099   3.197   4.298
 2022SOL    HW1 6965   2.097   3.296   4.285
 2022SOL    HW2 6966   2.064   3.151   4.217
 2023SOL     OW 6967   0.715   5.935   6.441
 2023SOL    HW1 6968   0.665   5.937   6.354
 2023SOL    HW2 6969   0.804   5.979   6.430
 2024SOL     OW 6970   6.438   5.700   3.376
 2024SOL    HW1 6971   6.360   5.645   3.406
 2024SOL    HW2 6972   6.467   5.760   3.450
 2025SOL     OW 6973   1.916   0.717   4.560
 2025SOL    HW1 6974   1.905   0.735   4.462
 2025SOL    HW2 6975   1.937   0.620   4.574
 2026SOL     OW 6976   1.517   6.574   5.869
 2026SOL    HW1 6977   1.608   6.610   5.846
 2026SOL    HW2 6978   1.514   6.550   5.966
 2027SOL     OW 6979   6.506   6.397   3.391
 2027SOL    HW1 6980   6.504   6.479   3.448
 2027SOL    HW2 6981   6.599   6.362   3.387
 2028SOL     OW 6982   1.892   5.895   4.607
 2028SOL    HW1 6983   1.814   5.869   4.663
 2028SOL    HW2 6984   1.964   5.932   4.665
 2029SOL     OW 6985   0.193   2.313   0.128
 2029SOL    HW1 6986   0.208   2.394   0.072
 2029SOL    HW2 6987   0.276   2.258   0.130
 2030SOL     OW 6988   1.493   6.054   2.616
 2030SOL    HW1 6989   1.419   5.996   2.651
 2030SOL    HW2 6990   1.511   6.128   2.680
 2031SOL     OW 6991   6.671   0.559   4.470
 2031SOL    HW1 6992   6.739   0.538   4.540
 2031SOL    HW2 6993   6.682   0.653   4.438
 2032SOL     OW 6994   2.899   2.836   6.090
 2032SOL    HW1 6995   2.901   2.755   6.031
 2032SOL    HW2 6996   2.845   2.816   6.172
 2033SOL     OW 6997   2.814   6.746   1.409
 2033SOL    HW1 6998   2.795   6.715   1.503
 2033SOL    HW2 6999   2.913   6.748   1.395
 2034SOL     OW 7000   0.864   3.519   4.747
 2034SOL    HW1 7001   0.954   3.556   4.771
 2034SOL    HW2 7002   0.866   3.420   4.755
 2035SOL     OW 7003   4.896   6.220   3.481
 2035SOL    HW1 7004   4.940   6.287   3.541
 2035SOL    HW2 7005   4.920   6.239   3.386
 2036SOL     OW 7006   6.911   3.585   5.610
 2036SOL    HW1 7007   6.924   3.579   5.709
 2036SOL    HW2 7008   6.816   3.561   5.587
 2037SOL     OW 7009   0.795   2.513   6.424
 2037SOL    HW1 7010   0.802   2.607   6.456
 2037SOL    HW2 7011   0.886   2.474   6.413
 2038SOL     OW 7012   2.156   0.808   5.891
 2038SOL    HW1 7013   2.247   0.767   5.900
 2038SOL    HW2 7014   2.162   0.893   5.840
 2039SOL     OW 7015   5.356   5.825   4.510
 2039SOL    HW1 7016   5.407   5.826   4.423
 2039SOL    HW2 7017   5.288   5.898   4.509
 2040SOL     OW 7018   2.778   1.350   0.698
 2040SOL    HW1 7019   2.718   1.365   0.619
 2040SOL    HW2 7020   2.773   1.429   0.759
 2041SOL     OW 7021   2.993   0.279   6.733
 2041SOL    HW1 7022   2.959   0.373   6.738
 2041SOL    HW2 7023   2.918   0.217   6.713
 2042SOL     OW 7024   0.461   0.212   5.268
 2042SOL    HW1 7025   0.433   0.160   5.187
 2042SOL    HW2 7026   0.537   0.272   5.244
 2043SOL     OW 7027   1.495   3.563   0.103
 2043SOL    HW1 7028   1.528   3.471   0.082
 2043SOL    HW2 7029   1.409   3.557   0.153
 2044SOL     OW 7030   2.776   1.229   2.398
 2044SOL    HW1 7031   2.858   1.284   2.385
 2044SOL    HW2 7032   2.713   1.244   2.322
 2045SOL     OW 7033   1.991   5.836   3.342
 2045SOL    HW1 7034   1.972   5.805   3.435
 2045SOL    HW2 7035   2.083   5.876   3.338
 2046SOL     OW 7036   0.616   2.579   5.433
 2046SOL    HW1 7037   0.610   2.666   5.482
 2046SOL    HW2 7038   0.679   2.589   5.356
 2047SOL     OW 7039   6.953   0.291   1.954
 2047SOL    HW1 7040   6.873   0.339   1.991
 2047SOL    HW2 7041   6.923   0.222   1.888
 2048SOL     OW 7042   2.355   1.443   3.519
 2048SOL    HW1 7043   2.384   1.395   3.437
 2048SOL    HW2 7044   2.271   1.402   3.554
 2049SOL     OW 7045   4.358   2.373   5.275
 2049SOL    HW1 7046   4.287   2.388   5.206
 2049SOL    HW2 7047   4.434   2.436   5.259
 2050SOL     OW 7048   0.110   0.954   2.657
 2050SOL    HW1 7049   0.079   1.033   2.708
 2050SOL    HW2 7050   0.037   0.886   2.652
 2051SOL     OW 7051   3.396   6.799   6.497
 2051SOL    HW1 7052   3.313   6.751   6.466
 2051SOL    HW2 7053   3.371   6.867   6.566
 2052SOL     OW 7054   0.669   4.302   0.529
 2052SOL    HW1 7055   0.642   4.397   0.522
 2052SOL    HW2 7056   0.759   4.296   0.574
 2053SOL     OW 7057   4.574   5.146   1.594
 2053SOL    HW1 7058   4.621   5.161   1.680
 2053SOL    HW2 7059   4.636   5.167   1.518
 2054SOL     OW 7060   2.977   3.848   4.068
 2054SOL    HW1 7061   2.905   3.793   4.111
 2054SOL    HW2 7062   3.022   3.904   4.138
 2055SOL     OW 7063   3.062   2.955   5.578
 2055SOL    HW1 7064   3.115   2.959   5.663
 2055SOL    HW2 7065   2.965   2.967   5.599
 2056SOL     OW 7066   2.622   5.552   1.974
 2056SOL    HW1 7067   2.625   5.454   1.952
 2056SOL    HW2 7068   2.533   5.575   2.013
 2057SOL     OW 7069   6.121   2.864   4.471
 2057SOL    HW1 7070   6.037   2.904   4.507
 2057SOL    HW2 7071   6.190   2.936   4.462
 2058SOL     OW 7072   5.521   0.405   3.975
 2058SOL    HW1 7073   5.599   0.410   3.913
 2058SOL    HW2 7074   5.441   0.447   3.931
 2059SOL     OW 7075   2.839   1.119   5.816
 2059SOL    HW1 7076   2.808   1.203   5.859
 2059SOL    HW2 7077   2.921   1.138   5.761
 2060SOL     OW 7078   1.461   2.122   6.321
 2060SOL    HW1 7079   1.472   2.078   6.232
 2060SOL    HW2 7080   1.551   2.134   6.363
 2061SOL     OW 7081   2.432   2.700   3.909
 2061SOL    HW1 7082   2.438   2.791   3.949
 2061SOL    HW2 7083   2.437   2.631   3.981
 2062SOL     OW 7084   4.622   5.086   4.140
 2062SOL    HW1 7085   4.579   5.066   4.227
 2062SOL    HW2 7086   4.720   5.103   4.154
 2063SOL     OW 7087   1.416   1.509   3.975
 2063SOL    HW1 7088   1.322   1.489   3.948
 2063SOL    HW2 7089   1.431   1.608   3.975
 2064SOL     OW 7090   0.230   3.891   4.358
 2064SOL    HW1 7091   0.147   3.889   4.302
 2064SOL    HW2 7092   0.219   3.829   4.436
 2065SOL     OW 7093   3.513   3.331   5.415
 2065SOL    HW1 7094   3.572   3.265   5.370
 2065SOL    HW2 7095   3.453   3.282   5.479
 2066SOL     OW 7096   2.237   2.533   4.536
 2066SOL    HW1 7097   2.250   2.554   4.440
 2066SOL    HW2 7098   2.280   2.604   4.592
 2067SOL     OW 7099   5.900   4.383   3.082
 2067SOL    HW1 7100   5.883   4.459   3.019
 2067SOL    HW2 7101   5.974   4.326   3.046
 2068SOL     OW 7102   3.295   6.407   4.280
 2068SOL    HW1 7103   3.213   6.443   4.325
 2068SOL    HW2 7104   3.354   6.484   4.253
 2069SOL     OW 7105   5.529   1.652   2.780
 2069SOL    HW1 7106   5.569   1.598   2.854
 2069SOL    HW2 7107   5.514   1.592   2.701
 2070SOL     OW 7108   0.465   6.004   1.805
 2070SOL    HW1 7109   0.519   5.994   1.721
 2070SOL    HW2 7110   0.387   6.064   1.788
 2071SOL     OW 7111   0.067   2.458   4.176
 2071SOL    HW1 7112   0.078   2.512   4.093
 2071SOL    HW2 7113   0.029   2.515   4.249
 2072SOL     OW 7114   5.303   2.899   5.979
 2072SOL    HW1 7115   5.254   2.840   5.915
 2072SOL    HW2 7116   5.298   2.860   6.071
 2073SOL     OW 7117   3.157   5.783   0.118
 2073SOL    HW1 7118   3.256   5.785   0.101
 2073SOL    HW2 7119   3.133   5.697   0.163
 2074SOL     OW 7120   3.546   4.366   5.309
 2074SOL    HW1 7121   3.609   4.390   5.382
 2074SOL    HW2 7122   3.489   4.445   5.287
 2075SOL     OW 7123   5.164   0.886   1.274
 2075SOL    HW1 7124   5.106   0.855   1.349
 2075SOL    HW2 7125   5.107   0.902   1.193
 2076SOL     OW 7126   6.852   7.000   3.714
 2076SOL    HW1 7127   6.809   0.054   3.759
 2076SOL    HW2 7128   6.783   6.949   3.663
 2077SOL     OW 7129   0.752   4.358   1.142
 2077SOL    HW1 7130   0.657   4.342   1.117
 2077SOL    HW2 7131   0.810   4.345   1.062
 2078SOL     OW 7132   0.963   2.392   0.343
 2078SOL    HW1 7133   1.045   2.405   0.287
 2078SOL    HW2 7134   0.987   2.338   0.425
 2079SOL     OW 7135   5.586   1.968   3.673
 2079SOL    HW1 7136   5.676   1.945   3.637
 2079SOL    HW2 7137   5.525   1.890   3.663
 2080SOL     OW 7138   1.903   2.862   4.551
 2080SOL    HW1 7139   1.895   2.783   4.489
 2080SOL    HW2 7140   1.861   2.942   4.509
 2081SOL     OW 7141   0.359   6.004   2.878
 2081SOL    HW1 7142   0.432   5.936   2.879
 2081SOL    HW2 7143   0.280   5.968   2.827
 2082SOL     OW 7144   6.655   6.158   4.396
 2082SOL    HW1 7145   6.637   6.237   4.338
 2082SOL    HW2 7146   6.682   6.189   4.488
 2083SOL     OW 7147   1.123   5.877   3.026
 2083SOL    HW1 7148   1.209   5.827   3.012
 2083SOL    HW2 7149   1.103   5.880   3.124
 2084SOL     OW 7150   5.948   2.654   1.068
 2084SOL    HW1 7151   5.881   2.581   1.056
 2084SOL    HW2 7152   5.978   2.686   0.978
 2085SOL     OW 7153   6.110   4.935   6.501
 2085SOL    HW1 7154   6.201   4.977   6.501
 2085SOL    HW2 7155   6.100   4.877   6.420
 2086SOL     OW 7156   5.416   1.393   5.397
 2086SOL    HW1 7157   5.470   1.348   5.325
 2086SOL    HW2 7158   5.476   1.421   5.471
 2087SOL     OW 7159   4.786   1.178   6.238
 2087SOL    HW1 7160   4.813   1.087   6.269
 2087SOL    HW2 7161   4.699   1.173   6.190
 2088SOL     OW 7162   0.617   3.301   5.675
 2088SOL    HW1 7163   0.539   3.256   5.633
 2088SOL    HW2 7164   0.702   3.263   5.637
 2089SOL     OW 7165   3.160   5.148   4.624
 2089SOL    HW1 7166   3.214   5.083   4.571
 2089SOL    HW2 7167   3.087   5.099   4.672
 2090SOL     OW 7168   5.312   2.292   6.220
 2090SOL    HW1 7169   5.402   2.248   6.223
 2090SOL    HW2 7170   5.289   2.313   6.124
 2091SOL     OW 7171   5.457   0.226   1.111
 2091SOL    HW1 7172   5.553   0.251   1.117
 2091SOL    HW2 7173   5.443   0.165   1.034
 2092SOL     OW 7174   3.816   3.025   2.401
 2092SOL    HW1 7175   3.803   3.119   2.432
 2092SOL    HW2 7176   3.892   3.022   2.336
 2093SOL     OW 7177   4.937   0.366   6.862
 2093SOL    HW1 7178   4.852   0.405   6.898
 2093SOL    HW2 7179   4.920   0.326   6.772
 2094SOL     OW 7180   4.722   2.821   1.403
 2094SOL    HW1 7181   4.751   2.873   1.484
 2094SOL    HW2 7182   4.633   2.855   1.373
 2095SOL     OW 7183   4.109   5.807   4.135
 2095SOL    HW1 7184   4.163   5.876   4.088
 2095SOL    HW2 7185   4.144   5.794   4.228
 2096SOL     OW 7186   4.039   0.514   2.846
 2096SOL    HW1 7187   4.111   0.450   2.821
 2096SOL    HW2 7188   4.031   0.585   2.777
 2097SOL     OW 7189   2.986   5.825   5.142
 2097SOL    HW1 7190   2.998   5.891   5.217
 2097SOL    HW2 7191   2.895   5.784   5.149
 2098SOL     OW 7192   1.447   6.698   4.079
 2098SOL    HW1 7193   1.375   6.711   4.010
 2098SOL    HW2 7194   1.529   6.746   4.050
 2099SOL     OW 7195   4.558   1.900   6.967
 2099SOL    HW1 7196   4.519   1.809   6.980
 2099SOL    HW2 7197   4.524   1.939   6.882
 2100SOL     OW 7198   4.685   0.322   0.681
 2100SOL    HW1 7199   4.680   0.405   0.737
 2100SOL    HW2 7200   4.683   0.347   0.584
 2101SOL     OW 7201   0.903   0.070   2.979
 2101SOL    HW1 7202   0.863   0.093   3.068
 2101SOL    HW2 7203   0.970   7.022   2.990
 2102SOL     OW 7204   3.829   3.094   2.729
 2102SOL    HW1 7205   3.777   3.064   2.809
 2102SOL    HW2 7206   3.790   3.053   2.646
 2103SOL     OW 7207   1.567   0.067   1.659
 2103SOL    HW1 7208   1.626   0.126   1.604
 2103SOL    HW2 7209   1.576   6.997   1.628
 2104SOL     OW 7210   0.847   4.666   2.313
 2104SOL    HW1 7211   0.802   4.684   2.400
 2104SOL    HW2 7212   0.938   4.708   2.313
 2105SOL     OW 7213   5.184   6.262   5.470
 2105SOL    HW1 7214   5.233   6.244   5.555
 2105SOL    HW2 7215   5.165   6.175   5.424
 2106SOL     OW 7216   3.566   3.751   0.553
 2106SOL    HW1 7217   3.579   3.735   0.455
 2106SOL    HW2 7218   3.485   3.807   0.568
 2107SOL     OW 7219   5.976   4.952   4.536
 2107SOL    HW1 7220   6.018   4.923   4.621
 2107SOL    HW2 7221   5.987   5.051   4.525
 2108SOL     OW 7222   4.423   6.399   5.811
 2108SOL    HW1 7223   4.347   6.374   5.751
 2108SOL    HW2 7224   4.389   6.404   5.905
 2109SOL     OW 7225   2.757   6.197   2.395
 2109SOL    HW1 7226   2.758   6.263   2.470
 2109SOL    HW2 7227   2.712   6.114   2.424
 2110SOL     OW 7228   3.922   6.060   0.740
 2110SOL    HW1 7229   3.840   6.009   0.713
 2110SOL    HW2 7230   3.903   6.108   0.826
 2111SOL     OW 7231   0.773   2.653   0.396
 2111SOL    HW1 7232   0.680   2.641   0.430
 2111SOL    HW2 7233   0.827   2.571   0.417
 2112SOL     OW 7234   0.748   0.528   6.545
 2112SOL    HW1 7235   0.751   0.439   6.500
 2112SOL    HW2 7236   0.837   0.573   6.537
 2113SOL     OW 7237   6.598   1.657   4.529
 2113SOL    HW1 7238   6.640   1.726   4.470
 2113SOL    HW2 7239   6.558   1.585   4.473
 2114SOL     OW 7240   2.954   0.561   5.738
 2114SOL    HW1 7241   2.962   0.660   5.750
 2114SOL    HW2 7242   2.923   0.519   5.823
 2115SOL     OW 7243   0.236   6.890   4.078
 2115SOL    HW1 7244   0.155   6.944   4.053
 2115SOL    HW2 7245   0.263   6.913   4.171
 2116SOL     OW 7246   2.585   6.831   6.532
 2116SOL    HW1 7247   2.520   6.864   6.464
 2116SOL    HW2 7248   2.554   6.856   6.624
 2117SOL     OW 7249   6.340   2.674   0.920
 2117SOL    HW1 7250   6.256   2.640   0.878
 2117SOL    HW2 7251   6.325   2.688   1.018
 2118SOL     OW 7252   6.968   3.041   2.466
 2118SOL    HW1 7253   0.013   2.969   2.472
 2118SOL    HW2 7254   6.923   3.050   2.555
 2119SOL     OW 7255   2.098   2.663   6.748
 2119SOL    HW1 7256   2.146   2.617   6.823
 2119SOL    HW2 7257   2.131   2.626   6.661
 2120SOL     OW 7258   6.262   1.547   0.908
 2120SOL    HW1 7259   6.343   1.606   0.906
 2120SOL    HW2 7260   6.205   1.572   0.985
 2121SOL     OW 7261   2.703   5.958   1.974
 2121SOL    HW1 7262   2.661   5.907   1.899
 2121SOL    HW2 7263   2.795   5.921   1.990
 2122SOL     OW 7264   0.474   1.309   5.502
 2122SOL    HW1 7265   0.523   1.372   5.562
 2122SOL    HW2 7266   0.499   1.214   5.525
 2123SOL     OW 7267   0.597   4.534   3.099
 2123SOL    HW1 7268   0.539   4.526   3.181
 2123SOL    HW2 7269   0.640   4.446   3.080
 2124SOL     OW 7270   5.701   3.507   6.423
 2124SOL    HW1 7271   5.602   3.499   6.420
 2124SOL    HW2 7272   5.730   3.535   6.514
 2125SOL     OW 7273   2.242   5.399   5.931
 2125SOL    HW1 7274   2.175   5.390   5.858
 2125SOL    HW2 7275   2.308   5.471   5.908
 2126SOL     OW 7276   2.437   6.121   2.272
 2126SOL    HW1 7277   2.488   6.059   2.331
 2126SOL    HW2 7278   2.341   6.126   2.302
 2127SOL     OW 7279   1.721   3.995   4.150
 2127SOL    HW1 7280   1.798   3.990   4.086
 2127SOL    HW2 7281   1.743   3.943   4.233
 2128SOL     OW 7282   5.382   3.101   0.846
 2128SOL    HW1 7283   5.423   3.192   0.841
 2128SOL    HW2 7284   5.313   3.092   0.775
 2129SOL     OW 7285   5.548   4.849   3.832
 2129SOL    HW1 7286   5.615   4.820   3.900
 2129SOL    HW2 7287   5.458   4.816   3.858
 2130SOL     OW 7288   2.275   0.110   3.101
 2130SOL    HW1 7289   2.277   0.188   3.038
 2130SOL    HW2 7290   2.362   0.061   3.094
 2131SOL     OW 7291   5.911   0.069   6.657
 2131SOL    HW1 7292   5.935   7.006   6.699
 2131SOL    HW2 7293   5.812   0.072   6.640
 2132SOL     OW 7294   3.055   1.679   0.536
 2132SOL    HW1 7295   3.118   1.750   0.504
 2132SOL    HW2 7296   3.102   1.620   0.602
 2133SOL     OW 7297   3.333   3.529   2.113
 2133SOL    HW1 7298   3.407   3.465   2.090
 2133SOL    HW2 7299   3.314   3.524   2.211
 2134SOL     OW 7300   2.331   7.000   4.804
 2134SOL    HW1 7301   2.284   6.982   4.891
 2134SOL    HW2 7302   2.275   0.037   4.748
 2135SOL     OW 7303   0.228   5.624   3.908
 2135SOL    HW1 7304   0.204   5.716   3.938
 2135SOL    HW2 7305   0.326   5.608   3.925
 2136SOL     OW 7306   0.424   4.844   3.493
 2136SOL    HW1 7307   0.444   4.825   3.397
 2136SOL    HW2 7308   0.510   4.857   3.543
 2137SOL     OW 7309   0.292   0.158   4.639
 2137SOL    HW1 7310   0.322   0.063   4.654
 2137SOL    HW2 7311   0.242   0.189   4.720
 2138SOL     OW 7312   1.357   1.941   0.140
 2138SOL    HW1 7313   1.391   1.850   0.167
 2138SOL    HW2 7314   1.426   1.986   0.082
 2139SOL     OW 7315   3.945   6.410   4.420
 2139SOL    HW1 7316   3.953   6.317   4.385
 2139SOL    HW2 7317   3.848   6.437   4.419
 2140SOL     OW 7318   0.967   5.621   3.378
 2140SOL    HW1 7319   1.061   5.636   3.346
 2140SOL    HW2 7320   0.968   5.562   3.458
 2141SOL     OW 7321   6.837   0.465   6.798
 2141SOL    HW1 7322   6.745   0.480   6.834
 2141SOL    HW2 7323   6.899   0.533   6.837
 2142SOL     OW 7324   3.967   1.511   3.360
 2142SOL    HW1 7325   3.924   1.571   3.427
 2142SOL    HW2 7326   3.925   1.525   3.270
 2143SOL     OW 7327   3.428   5.466   0.307
 2143SOL    HW1 7328   3.435   5.379   0.258
 2143SOL    HW2 7329   3.408   5.448   0.403
 2144SOL     OW 7330   1.014   1.093   2.045
 2144SOL    HW1 7331   1.022   1.052   2.135
 2144SOL    HW2 7332   0.970   1.182   2.053
 2145SOL     OW 7333   2.493   6.117   3.327
 2145SOL    HW1 7334   2.538   6.112   3.416
 2145SOL    HW2 7335   2.558   6.091   3.255
 2146SOL     OW 7336   2.995   2.012   1.318
 2146SOL    HW1 7337   2.932   1.982   1.390
 2146SOL    HW2 7338   2.945   2.019   1.231
 2147SOL     OW 7339   6.839   0.553   4.087
 2147SOL    HW1 7340   6.902   0.513   4.154
 2147SOL    HW2 7341   6.886   0.624   4.035
 2148SOL     OW 7342   6.585   3.967   3.950
 2148SOL    HW1 7343   6.582   3.984   4.049
 2148SOL    HW2 7344   6.667   3.914   3.928
 2149SOL     OW 7345   2.020   1.008   2.086
 2149SOL    HW1 7346   2.061   1.047   2.168
 2149SOL    HW2 7347   1.923   0.990   2.102
 2150SOL     OW 7348   5.637   0.514   3.094
 2150SOL    HW1 7349   5.708   0.523   3.024
 2150SOL    HW2 7350   5.548   0.502   3.050
 2151SOL     OW 7351   4.913   4.688   5.331
 2151SOL    HW1 7352   4.828   4.738   5.347
 2151SOL    HW2 7353   4.956   4.721   5.247
 2152SOL     OW 7354   6.825   6.395   2.574
 2152SOL    HW1 7355   6.747   6.361   2.522
 2152SOL    HW2 7356   6.907   6.341   2.551
 2153SOL     OW 7357   4.448   2.223   3.428
 2153SOL    HW1 7358   4.547   2.234   3.430
 2153SOL    HW2 7359   4.414   2.238   3.335
 2154SOL     OW 7360   4.466   0.191   4.139
 2154SOL    HW1 7361   4.393   0.244   4.182
 2154SOL    HW2 7362   4.547   0.248   4.127
 2155SOL     OW 7363   5.684   3.790   0.901
 2155SOL    HW1 7364   5.648   3.763   0.812
 2155SOL    HW2 7365   5.679   3.712   0.964
 2156SOL     OW 7366   5.886   5.479   2.686
 2156SOL    HW1 7367   5.947   5.499   2.763
 2156SOL    HW2 7368   5.911   5.537   2.608
 2157SOL     OW 7369   5.017   1.552   4.152
 2157SOL    HW1 7370   4.952   1.481   4.123
 2157SOL    HW2 7371   4.991   1.639   4.112
 2158SOL     OW 7372   4.500   1.030   3.594
 2158SOL    HW1 7373   4.550   1.080   3.665
 2158SOL    HW2 7374   4.419   1.082   3.568
 2159SOL     OW 7375   2.116   1.743   4.770
 2159SOL    HW1 7376   2.066   1.742   4.683
 2159SOL    HW2 7377   2.084   1.666   4.826
 2160SOL     OW 7378   2.274   3.932   0.773
 2160SOL    HW1 7379   2.293   4.006   0.709
 2160SOL    HW2 7380   2.328   3.851   0.749
 2161SOL     OW 7381   4.424   2.345   2.150
 2161SOL    HW1 7382   4.376   2.324   2.064
 2161SOL    HW2 7383   4.363   2.326   2.227
 2162SOL     OW 7384   1.774   1.793   2.764
 2162SOL    HW1 7385   1.872   1.808   2.754
 2162SOL    HW2 7386   1.757   1.733   2.842
 2163SOL     OW 7387   4.367   1.825   0.791
 2163SOL    HW1 7388   4.388   1.850   0.886
 2163SOL    HW2 7389   4.370   1.907   0.733
 2164SOL     OW 7390   6.183   0.279   1.868
 2164SOL    HW1 7391   6.176   0.343   1.944
 2164SOL    HW2 7392   6.193   0.331   1.782
 2165SOL     OW 7393   1.988   6.815   2.211
 2165SOL    HW1 7394   1.952   6.908   2.205
 2165SOL    HW2 7395   1.982   6.771   2.122
 2166SOL     OW 7396   5.549   2.584   4.922
 2166SOL    HW1 7397   5.512   2.553   5.010
 2166SOL    HW2 7398   5.583   2.505   4.871
 2167SOL     OW 7399   3.383   1.571   1.227
 2167SOL    HW1 7400   3.406   1.551   1.132
 2167SOL    HW2 7401   3.294   1.616   1.231
 2168SOL     OW 7402   5.637   6.716   4.536
 2168SOL    HW1 7403   5.657   6.749   4.444
 2168SOL    HW2 7404   5.600   6.623   4.531
 2169SOL     OW 7405   4.963   2.187   5.374
 2169SOL    HW1 7406   4.923   2.279   5.374
 2169SOL    HW2 7407   4.954   2.147   5.465
 2170SOL     OW 7408   4.785   5.702   4.601
 2170SOL    HW1 7409   4.751   5.773   4.663
 2170SOL    HW2 7410   4.719   5.687   4.528
 2171SOL     OW 7411   0.392   2.848   0.357
 2171SOL    HW1 7412   0.354   2.770   0.408
 2171SOL    HW2 7413   0.445   2.814   0.279
 2172SOL     OW 7414   2.747   0.316   3.354
 2172SOL    HW1 7415   2.722   0.292   3.448
 2172SOL    HW2 7416   2.802   0.242   3.315
 2173SOL     OW 7417   4.444   1.905   4.210
 2173SOL    HW1 7418   4.413   1.998   4.230
 2173SOL    HW2 7419   4.528   1.886   4.262
 2174SOL     OW 7420   1.047   6.279   5.554
 2174SOL    HW1 7421   0.998   6.201   5.593
 2174SOL    HW2 7422   1.135   6.248   5.518
 2175SOL     OW 7423   0.990   0.366   6.898
 2175SOL    HW1 7424   1.064   0.352   6.831
 2175SOL    HW2 7425   0.970   0.464   6.904
 2176SOL     OW 7426   2.302   2.580   2.092
 2176SOL    HW1 7427   2.265   2.626   2.011
 2176SOL    HW2 7428   2.304   2.645   2.168
 2177SOL     OW 7429   0.837   2.124   1.819
 2177SOL    HW1 7430   0.850   2.223   1.822
 2177SOL    HW2 7431   0.742   2.103   1.840
 2178SOL     OW 7432   6.589   5.774   0.155
 2178SOL    HW1 7433   6.530   5.701   0.189
 2178SOL    HW2 7434   6.553   5.806   0.067
 2179SOL     OW 7435   2.162   3.711   3.937
 2179SOL    HW1 7436   2.089   3.651   3.904
 2179SOL    HW2 7437   2.249   3.662   3.931
 2180SOL     OW 7438   3.271   3.009   3.117
 2180SOL    HW1 7439   3.176   3.002   3.087
 2180SOL    HW2 7440   3.329   2.950   3.060
 2181SOL     OW 7441   3.612   6.961   1.372
 2181SOL    HW1 7442   3.664   0.021   1.386
 2181SOL    HW2 7443   3.676   6.884   1.368
 2182SOL     OW 7444   4.803   4.122   0.194
 2182SOL    HW1 7445   4.822   4.156   0.102
 2182SOL    HW2 7446   4.715   4.157   0.226
 2183SOL     OW 7447   4.793   2.742   1.969
 2183SOL    HW1 7448   4.770   2.836   1.993
 2183SOL    HW2 7449   4.710   2.687   1.965
 2184SOL     OW 7450   4.663   2.449   6.133
 2184SOL    HW1 7451   4.601   2.418   6.206
 2184SOL    HW2 7452   4.659   2.548   6.126
 2185SOL     OW 7453   6.881   6.595   1.913
 2185SOL    HW1 7454   6.917   6.579   1.821
 2185SOL    HW2 7455   6.955   6.625   1.973
 2186SOL     OW 7456   6.729   4.515   3.232
 2186SOL    HW1 7457   6.704   4.609   3.258
 2186SOL    HW2 7458   6.811   4.517   3.175
 2187SOL     OW 7459   6.510   0.084   6.777
 2187SOL    HW1 7460   6.414   0.077   6.750
 2187SOL    HW2 7461   6.566   0.034   6.712
 2188SOL     OW 7462   4.760   2.874   3.578
 2188SOL    HW1 7463   4.699   2.809   3.623
 2188SOL    HW2 7464   4.826   2.825   3.521
 2189SOL     OW 7465   3.259   6.975   6.132
 2189SOL    HW1 7466   3.248   6.934   6.041
 2189SOL    HW2 7467   3.178   6.957   6.187
 2190SOL     OW 7468   5.890   3.416   1.231
 2190SOL    HW1 7469   5.969   3.469   1.262
 2190SOL    HW2 7470   5.903   3.320   1.257
 2191SOL     OW 7471   3.833   0.288   0.631
 2191SOL    HW1 7472   3.742   0.299   0.590
 2191SOL    HW2 7473   3.881   0.212   0.585
 2192SOL     OW 7474   4.456   6.534   1.955
 2192SOL    HW1 7475   4.494   6.529   2.047
 2192SOL    HW2 7476   4.473   6.447   1.908
 2193SOL     OW 7477   0.449   5.995   4.430
 2193SOL    HW1 7478   0.356   6.000   4.467
 2193SOL    HW2 7479   0.506   5.938   4.489
 2194SOL     OW 7480   2.516   7.014   3.059
 2194SOL    HW1 7481   2.504   6.924   3.102
 2194SOL    HW2 7482   2.517   7.003   2.959
 2195SOL     OW 7483   0.221   4.643   2.655
 2195SOL    HW1 7484   0.123   4.638   2.637
 2195SOL    HW2 7485   0.271   4.601   2.579
 2196SOL     OW 7486   4.487   4.048   6.833
 2196SOL    HW1 7487   4.539   3.990   6.770
 2196SOL    HW2 7488   4.546   4.118   6.871
 2197SOL     OW 7489   4.759   3.650   0.354
 2197SOL    HW1 7490   4.714   3.632   0.442
 2197SOL    HW2 7491   4.807   3.737   0.358
 2198SOL     OW 7492   0.947   4.737   6.545
 2198SOL    HW1 7493   0.976   4.755   6.639
 2198SOL    HW2 7494   0.942   4.638   6.530
 2199SOL     OW 7495   3.705   1.857   3.727
 2199SOL    HW1 7496   3.637   1.828   3.794
 2199SOL    HW2 7497   3.663   1.860   3.636
 2200SOL     OW 7498   3.833   0.382   3.781
 2200SOL    HW1 7499   3.747   0.429   3.760
 2200SOL    HW2 7500   3.904   0.415   3.719
 2201SOL     OW 7501   5.288   4.612   4.124
 2201SOL    HW1 7502   5.359   4.552   4.086
 2201SOL    HW2 7503   5.290   4.604   4.224
 2202SOL     OW 7504   4.516   5.840   4.529
 2202SOL    HW1 7505   4.444   5.839   4.599
 2202SOL    HW2 7506   4.483   5.792   4.448
 2203SOL     OW 7507   2.045   1.720   2.828
 2203SOL    HW1 7508   2.084   1.656   2.762
 2203SOL    HW2 7509   2.106   1.798   2.840
 2204SOL     OW 7510   3.933   2.418   0.904
 2204SOL    HW1 7511   3.903   2.497   0.850
 2204SOL    HW2 7512   3.885   2.336   0.872
 2205SOL     OW 7513   3.073   0.378   2.368
 2205SOL    HW1 7514   3.077   0.464   2.419
 2205SOL    HW2 7515   3.102   0.394   2.273
 2206SOL     OW 7516   1.607   5.019   0.325
 2206SOL    HW1 7517   1.698   5.002   0.361
 2206SOL    HW2 7518   1.593   4.964   0.242
 2207SOL     OW 7519   6.472   4.199   5.428
 2207SOL    HW1 7520   6.437   4.110   5.457
 2207SOL    HW2 7521   6.410   4.238   5.359
 2208SOL     OW 7522   6.638   4.773   2.353
 2208SOL    HW1 7523   6.630   4.843   2.282
 2208SOL    HW2 7524   6.726   4.727   2.345
 2209SOL     OW 7525   6.567   0.094   2.276
 2209SOL    HW1 7526   6.662   0.126   2.273
 2209SOL    HW2 7527   6.543   0.053   2.188
 2210SOL     OW 7528   2.655   4.609   3.576
 2210SOL    HW1 7529   2.682   4.591   3.670
 2210SOL    HW2 7530   2.711   4.683   3.538
 2211SOL     OW 7531   5.419   0.950   5.336
 2211SOL    HW1 7532   5.331   0.926   5.377
 2211SOL    HW2 7533   5.411   0.950   5.237
 2212SOL     OW 7534   2.453   6.015   6.175
 2212SOL    HW1 7535   2.476   6.078   6.101
 2212SOL    HW2 7536   2.390   5.945   6.141
 2213SOL     OW 7537   4.659   1.163   3.372
 2213SOL    HW1 7538   4.617   1.113   3.448
 2213SOL    HW2 7539   4.614   1.251   3.361
 2214SOL     OW 7540   4.308   0.479   4.497
 2214SOL    HW1 7541   4.311   0.397   4.441
 2214SOL    HW2 7542   4.267   0.458   4.586
 2215SOL     OW 7543   5.943   1.977   6.630
 2215SOL    HW1 7544   6.035   1.939   6.621
 2215SOL    HW2 7545   5.880   1.929   6.569
 2216SOL     OW 7546   3.059   1.337   2.376
 2216SOL    HW1 7547   3.071   1.276   2.454
 2216SOL    HW2 7548   3.148   1.359   2.336
 2217SOL     OW 7549   3.011   6.912   0.897
 2217SOL    HW1 7550   3.015   6.812   0.894
 2217SOL    HW2 7551   2.958   6.941   0.977
 2218SOL     OW 7552   6.615   0.899   2.355
 2218SOL    HW1 7553   6.598   0.809   2.315
 2218SOL    HW2 7554   6.528   0.947   2.368
 2219SOL     OW 7555   2.372   2.284   3.043
 2219SOL    HW1 7556   2.431   2.203   3.030
 2219SOL    HW2 7557   2.321   2.274   3.128
 2220SOL     OW 7558   1.790   6.023   3.227
 2220SOL    HW1 7559   1.848   5.972   3.290
 2220SOL    HW2 7560   1.695   5.996   3.239
 2221SOL     OW 7561   0.110   6.898   5.063
 2221SOL    HW1 7562   0.094   6.985   5.109
 2221SOL    HW2 7563   0.208   6.883   5.052
 2222SOL     OW 7564   5.387   5.554   3.448
 2222SOL    HW1 7565   5.328   5.624   3.407
 2222SOL    HW2 7566   5.412   5.487   3.378
 2223SOL     OW 7567   6.093   6.732   2.362
 2223SOL    HW1 7568   6.165   6.712   2.428
 2223SOL    HW2 7569   6.009   6.756   2.411
 2224SOL     OW 7570   0.729   5.560   1.334
 2224SOL    HW1 7571   0.818   5.580   1.375
 2224SOL    HW2 7572   0.700   5.638   1.278
 2225SOL     OW 7573   0.474   4.516   0.628
 2225SOL    HW1 7574   0.430   4.427   0.619
 2225SOL    HW2 7575   0.461   4.550   0.722
 2226SOL     OW 7576   3.223   4.097   2.834
 2226SOL    HW1 7577   3.156   4.046   2.888
 2226SOL    HW2 7578   3.188   4.189   2.817
 2227SOL     OW 7579   1.806   1.853   5.106
 2227SOL    HW1 7580   1.881   1.786   5.105
 2227SOL    HW2 7581   1.845   1.946   5.107
 2228SOL     OW 7582   1.311   4.843   4.304
 2228SOL    HW1 7583   1.314   4.848   4.404
 2228SOL    HW2 7584   1.258   4.920   4.268
 2229SOL     OW 7585   5.394   5.458   2.740
 2229SOL    HW1 7586   5.486   5.497   2.749
 2229SOL    HW2 7587   5.340   5.482   2.820
 2230SOL     OW 7588   1.593   5.451   3.010
 2230SOL    HW1 7589   1.610   5.354   3.029
 2230SOL    HW2 7590   1.681   5.499   3.008
 2231SOL     OW 7591   2.213   5.795   0.436
 2231SOL    HW1 7592   2.276   5.827   0.366
 2231SOL    HW2 7593   2.167   5.873   0.479
 2232SOL     OW 7594   6.192   2.627   3.515
 2232SOL    HW1 7595   6.161   2.703   3.573
 2232SOL    HW2 7596   6.239   2.559   3.572
 2233SOL     OW 7597   3.783   1.428   0.598
 2233SOL    HW1 7598   3.729   1.506   0.567
 2233SOL    HW2 7599   3.820   1.446   0.689
 2234SOL     OW 7600   4.422   2.660   1.154
 2234SOL    HW1 7601   4.456   2.621   1.239
 2234SOL    HW2 7602   4.495   2.711   1.109
 2235SOL     OW 7603   2.075   2.912   1.763
 2235SOL    HW1 7604   2.072   3.010   1.787
 2235SOL    HW2 7605   2.073   2.902   1.664
 2236SOL     OW 7606   1.191   3.814   5.326
 2236SOL    HW1 7607   1.269   3.793   5.385
 2236SOL    HW2 7608   1.189   3.912   5.306
 2237SOL     OW 7609   5.903   2.521   3.143
 2237SOL    HW1 7610   5.804   2.508   3.140
 2237SOL    HW2 7611   5.935   2.553   3.054
 2238SOL     OW 7612   4.987   6.354   6.968
 2238SOL    HW1 7613   5.015   6.278   6.909
 2238SOL    HW2 7614   4.889   6.349   6.983
 2239SOL     OW 7615   6.634   5.894   1.857
 2239SOL    HW1 7616   6.653   5.928   1.949
 2239SOL    HW2 7617   6.580   5.963   1.807
 2240SOL     OW 7618   0.541   3.862   1.820
 2240SOL    HW1 7619   0.479   3.827   1.749
 2240SOL    HW2 7620   0.540   3.800   1.898
 2241SOL     OW 7621   0.692   0.121   3.581
 2241SOL    HW1 7622   0.721   0.032   3.616
 2241SOL    HW2 7623   0.592   0.122   3.575
 2242SOL     OW 7624   2.012   1.758   3.361
 2242SOL    HW1 7625   1.977   1.743   3.268
 2242SOL    HW2 7626   2.053   1.849   3.367
 2243SOL     OW 7627   0.881   0.593   4.538
 2243SOL    HW1 7628   0.856   0.681   4.496
 2243SOL    HW2 7629   0.974   0.569   4.510
 2244SOL     OW 7630   3.343   6.981   4.492
 2244SOL    HW1 7631   3.333   7.015   4.586
 2244SOL    HW2 7632   3.360   0.033   4.430
 2245SOL     OW 7633   0.623   2.417   1.661
 2245SOL    HW1 7634   0.654   2.431   1.567
 2245SOL    HW2 7635   0.559   2.340   1.665
 2246SOL     OW 7636   0.597   4.566   4.611
 2246SOL    HW1 7637   0.579   4.505   4.534
 2246SOL    HW2 7638   0.557   4.527   4.694
 2247SOL     OW 7639   2.227   2.239   3.948
 2247SOL    HW1 7640   2.168   2.259   3.870
 2247SOL    HW2 7641   2.284   2.319   3.968
 2248SOL     OW 7642   5.175   3.808   5.976
 2248SOL    HW1 7643   5.154   3.904   5.954
 2248SOL    HW2 7644   5.230   3.805   6.059
 2249SOL     OW 7645   5.459   6.106   4.930
 2249SOL    HW1 7646   5.428   6.171   4.861
 2249SOL    HW2 7647   5.555   6.122   4.951
 2250SOL     OW 7648   4.314   4.732   2.632
 2250SOL    HW1 7649   4.346   4.740   2.538
 2250SOL    HW2 7650   4.347   4.645   2.670
 2251SOL     OW 7651   0.543   1.616   5.849
 2251SOL    HW1 7652   0.611   1.558   5.804
 2251SOL    HW2 7653   0.469   1.559   5.884
 2252SOL     OW 7654   3.927   1.465   6.483
 2252SOL    HW1 7655   3.861   1.411   6.536
 2252SOL    HW2 7656   3.975   1.404   6.419
 2253SOL     OW 7657   0.619   4.015   1.198
 2253SOL    HW1 7658   0.583   3.960   1.274
 2253SOL    HW2 7659   0.705   4.058   1.226
 2254SOL     OW 7660   1.496   5.281   5.851
 2254SOL    HW1 7661   1.513   5.202   5.910
 2254SOL    HW2 7662   1.508   5.365   5.904
 2255SOL     OW 7663   6.952   4.028   6.628
 2255SOL    HW1 7664   0.011   4.026   6.572
 2255SOL    HW2 7665   6.920   3.935   6.644
 2256SOL     OW 7666   2.670   5.493   2.529
 2256SOL    HW1 7667   2.745   5.435   2.495
 2256SOL    HW2 7668   2.703   5.549   2.605
 2257SOL     OW 7669   1.068   4.986   6.005
 2257SOL    HW1 7670   0.985   5.021   5.963
 2257SOL    HW2 7671   1.099   4.904   5.957
 2258SOL     OW 7672   2.271   6.518   5.964
 2258SOL    HW1 7673   2.320   6.439   5.926
 2258SOL    HW2 7674   2.173   6.502   5.959
 2259SOL     OW 7675   5.866   1.639   6.321
 2259SOL    HW1 7676   5.948   1.581   6.319
 2259SOL    HW2 7677   5.795   1.597   6.264
 2260SOL     OW 7678   4.889   3.206   1.509
 2260SOL    HW1 7679   4.901   3.107   1.510
 2260SOL    HW2 7680   4.792   3.228   1.520
 2261SOL     OW 7681   2.103   6.762   5.288
 2261SOL    HW1 7682   2.128   6.681   5.235
 2261SOL    HW2 7683   2.006   6.780   5.276
 2262SOL     OW 7684   2.597   1.763   4.269
 2262SOL    HW1 7685   2.644   1.844   4.304
 2262SOL    HW2 7686   2.574   1.776   4.172
 2263SOL     OW 7687   0.367   4.452   5.761
 2263SOL    HW1 7688   0.346   4.514   5.686
 2263SOL    HW2 7689   0.297   4.381   5.766
 2264SOL     OW 7690   3.173   3.050   4.311
 2264SOL    HW1 7691   3.194   2.967   4.364
 2264SOL    HW2 7692   3.227   3.126   4.345
 2265SOL     OW 7693   0.192   6.198   3.963
 2265SOL    HW1 7694   0.122   6.166   3.899
 2265SOL    HW2 7695   0.159   6.278   4.013
 2266SOL     OW 7696   6.897   0.912   5.486
 2266SOL    HW1 7697   6.953   0.839   5.447
 2266SOL    HW2 7698   6.947   0.957   5.560
 2267SOL     OW 7699   6.127   1.779   4.866
 2267SOL    HW1 7700   6.047   1.772   4.807
 2267SOL    HW2 7701   6.191   1.706   4.844
 2268SOL     OW 7702   0.360   6.858   0.276
 2268SOL    HW1 7703   0.302   6.884   0.353
 2268SOL    HW2 7704   0.369   6.758   0.273
 2269SOL     OW 7705   6.884   6.048   2.582
 2269SOL    HW1 7706   6.840   5.980   2.523
 2269SOL    HW2 7707   6.934   6.114   2.526
 2270SOL     OW 7708   3.376   2.914   3.365
 2270SOL    HW1 7709   3.369   2.979   3.289
 2270SOL    HW2 7710   3.473   2.893   3.381
 2271SOL     OW 7711   1.299   3.830   2.628
 2271SOL    HW1 7712   1.256   3.781   2.551
 2271SOL    HW2 7713   1.365   3.896   2.592
 2272SOL     OW 7714   4.616   0.763   6.317
 2272SOL    HW1 7715   4.653   0.767   6.224
 2272SOL    HW2 7716   4.552   0.686   6.325
 2273SOL     OW 7717   0.013   0.959   1.733
 2273SOL    HW1 7718   6.939   0.939   1.728
 2273SOL    HW2 7719   0.058   0.891   1.790
 2274SOL     OW 7720   6.649   4.880   3.623
 2274SOL    HW1 7721   6.618   4.868   3.717
 2274SOL    HW2 7722   6.574   4.856   3.560
 2275SOL     OW 7723   4.489   5.873   4.007
 2275SOL    HW1 7724   4.563   5.819   3.966
 2275SOL    HW2 7725   4.449   5.932   3.937
 2276SOL     OW 7726   3.334   5.707   3.017
 2276SOL    HW1 7727   3.379   5.695   2.929
 2276SOL    HW2 7728   3.365   5.635   3.080
 2277SOL     OW 7729   3.403   2.896   2.878
 2277SOL    HW1 7730   3.379   2.833   2.804
 2277SOL    HW2 7731   3.416   2.988   2.841
 2278SOL     OW 7732   4.437   4.781   1.613
 2278SOL    HW1 7733   4.424   4.848   1.540
 2278SOL    HW2 7734   4.447   4.690   1.573
 2279SOL     OW 7735   5.858   4.150   5.453
 2279SOL    HW1 7736   5.926   4.211   5.495
 2279SOL    HW2 7737   5.862   4.160   5.353
 2280SOL     OW 7738   5.364   1.082   5.586
 2280SOL    HW1 7739   5.287   1.142   5.566
 2280SOL    HW2 7740   5.395   1.037   5.502
 2281SOL     OW 7741   2.466   0.481   0.386
 2281SOL    HW1 7742   2.451   0.567   0.337
 2281SOL    HW2 7743   2.387   0.421   0.371
 2282SOL     OW 7744   3.537   0.427   2.596
 2282SOL    HW1 7745   3.507   0.474   2.679
 2282SOL    HW2 7746   3.484   0.459   2.518
 2283SOL     OW 7747   1.127   3.062   0.909
 2283SOL    HW1 7748   1.056   3.132   0.920
 2283SOL    HW2 7749   1.187   3.063   0.989
 2284SOL     OW 7750   1.733   2.766   0.557
 2284SOL    HW1 7751   1.754   2.851   0.605
 2284SOL    HW2 7752   1.730   2.783   0.459
 2285SOL     OW 7753   2.775   2.943   0.376
 2285SOL    HW1 7754   2.685   2.921   0.338
 2285SOL    HW2 7755   2.805   2.867   0.435
 2286SOL     OW 7756   6.522   5.490   4.199
 2286SOL    HW1 7757   6.447   5.555   4.192
 2286SOL    HW2 7758   6.599   5.533   4.246
 2287SOL     OW 7759   2.677   1.745   0.900
 2287SOL    HW1 7760   2.728   1.666   0.936
 2287SOL    HW2 7761   2.617   1.781   0.972
 2288SOL     OW 7762   3.312   5.851   4.509
 2288SOL    HW1 7763   3.348   5.877   4.598
 2288SOL    HW2 7764   3.285   5.933   4.459
 2289SOL     OW 7765   4.019   0.163   5.692
 2289SOL    HW1 7766   3.945   0.131   5.632
 2289SOL    HW2 7767   3.980   0.217   5.766
 2290SOL     OW 7768   2.126   3.675   6.057
 2290SOL    HW1 7769   2.181   3.612   6.003
 2290SOL    HW2 7770   2.149   3.769   6.033
 2291SOL     OW 7771   3.294   2.327   0.641
 2291SOL    HW1 7772   3.372   2.387   0.627
 2291SOL    HW2 7773   3.304   2.278   0.728
 2292SOL     OW 7774   5.201   2.324   2.777
 2292SOL    HW1 7775   5.215   2.277   2.864
 2292SOL    HW2 7776   5.103   2.327   2.758
 2293SOL     OW 7777   0.390   0.865   0.058
 2293SOL    HW1 7778   0.304   0.909   0.035
 2293SOL    HW2 7779   0.396   0.777   0.012
 2294SOL     OW 7780   6.826   2.289   5.550
 2294SOL    HW1 7781   6.751   2.321   5.493
 2294SOL    HW2 7782   6.906   2.347   5.535
 2295SOL     OW 7783   5.843   5.558   0.355
 2295SOL    HW1 7784   5.765   5.500   0.379
 2295SOL    HW2 7785   5.916   5.546   0.423
 2296SOL     OW 7786   4.209   6.208   4.817
 2296SOL    HW1 7787   4.146   6.218   4.740
 2296SOL    HW2 7788   4.263   6.292   4.826
 2297SOL     OW 7789   6.312   2.669   0.189
 2297SOL    HW1 7790   6.307   2.768   0.176
 2297SOL    HW2 7791   6.405   2.638   0.170
 2298SOL     OW 7792   1.888   3.896   5.118
 2298SOL    HW1 7793   1.795   3.887   5.080
 2298SOL    HW2 7794   1.882   3.930   5.211
 2299SOL     OW 7795   5.894   3.330   4.562
 2299SOL    HW1 7796   5.976   3.356   4.512
 2299SOL    HW2 7797   5.890   3.379   4.649
 2300SOL     OW 7798   4.046   1.120   2.768
 2300SOL    HW1 7799   4.097   1.142   2.851
 2300SOL    HW2 7800   3.950   1.103   2.791
 2301SOL     OW 7801   4.577   3.138   5.976
 2301SOL    HW1 7802   4.510   3.073   6.012
 2301SOL    HW2 7803   4.582   3.218   6.036
 2302SOL     OW 7804   0.176   3.546   4.947
 2302SOL    HW1 7805   0.234   3.466   4.933
 2302SOL    HW2 7806   0.082   3.523   4.924
 2303SOL     OW 7807   2.352   2.312   6.729
 2303SOL    HW1 7808   2.407   2.396   6.728
 2303SOL    HW2 7809   2.287   2.314   6.653
 2304SOL     OW 7810   3.479   0.254   3.330
 2304SOL    HW1 7811   3.452   0.331   3.272
 2304SOL    HW2 7812   3.563   0.213   3.294
 2305SOL     OW 7813   2.405   6.174   4.734
 2305SOL    HW1 7814   2.429   6.076   4.739
 2305SOL    HW2 7815   2.397   6.210   4.827
 2306SOL     OW 7816   0.878   4.780   5.696
 2306SOL    HW1 7817   0.865   4.760   5.599
 2306SOL    HW2 7818   0.793   4.763   5.745
 2307SOL     OW 7819   6.014   3.780   5.624
 2307SOL    HW1 7820   5.960   3.836   5.687
 2307SOL    HW2 7821   5.954   3.737   5.557
 2308SOL     OW 7822   1.050   6.275   3.319
 2308SOL    HW1 7823   0.987   6.198   3.332
 2308SOL    HW2 7824   1.070   6.286   3.222
 2309SOL     OW 7825   1.820   1.152   4.661
 2309SOL    HW1 7826   1.739   1.098   4.638
 2309SOL    HW2 7827   1.791   1.244   4.689
 2310SOL     OW 7828   5.205   6.147   0.081
 2310SOL    HW1 7829   5.116   6.121   0.119
 2310SOL    HW2 7830   5.253   6.066   0.049
 2311SOL     OW 7831   2.782   5.726   0.580
 2311SOL    HW1 7832   2.690   5.749   0.549
 2311SOL    HW2 7833   2.848   5.755   0.511
 2312SOL     OW 7834   2.780   4.990   2.003
 2312SOL    HW1 7835   2.843   4.917   1.978
 2312SOL    HW2 7836   2.686   4.954   2.002
 2313SOL     OW 7837   5.166   5.172   1.138
 2313SOL    HW1 7838   5.123   5.096   1.186
 2313SOL    HW2 7839   5.265   5.157   1.134
 2314SOL     OW 7840   2.146   4.595   2.541
 2314SOL    HW1 7841   2.115   4.684   2.508
 2314SOL    HW2 7842   2.188   4.544   2.466
 2315SOL     OW 7843   3.608   2.070   6.574
 2315SOL    HW1 7844   3.540   2.100   6.507
 2315SOL    HW2 7845   3.595   2.119   6.660
 2316SOL     OW 7846   5.866   4.192   1.365
 2316SOL    HW1 7847   5.847   4.229   1.274
 2316SOL    HW2 7848   5.943   4.241   1.405
 2317SOL     OW 7849   0.336   6.557   3.392
 2317SOL    HW1 7850   0.256   6.531   3.446
 2317SOL    HW2 7851   0.392   6.476   3.374
 2318SOL     OW 7852   6.632   1.584   3.615
 2318SOL    HW1 7853   6.636   1.486   3.631
 2318SOL    HW2 7854   6.724   1.618   3.595
 2319SOL     OW 7855   0.662   5.679   3.105
 2319SOL    HW1 7856   0.652   5.735   3.022
 2319SOL    HW2 7857   0.626   5.730   3.184
 2320SOL     OW 7858   6.652   4.569   3.606
 2320SOL    HW1 7859   6.663   4.667   3.592
 2320SOL    HW2 7860   6.741   4.524   3.601
 2321SOL     OW 7861   2.989   4.852   3.581
 2321SOL    HW1 7862   2.948   4.801   3.505
 2321SOL    HW2 7863   3.088   4.856   3.568
 2322SOL     OW 7864   1.777   1.803   4.586
 2322SOL    HW1 7865   1.838   1.882   4.582
 2322SOL    HW2 7866   1.831   1.718   4.583
 2323SOL     OW 7867   5.227   3.543   1.426
 2323SOL    HW1 7868   5.283   3.607   1.479
 2323SOL    HW2 7869   5.226   3.454   1.472
 2324SOL     OW 7870   0.182   5.194   4.152
 2324SOL    HW1 7871   0.158   5.286   4.120
 2324SOL    HW2 7872   0.269   5.197   4.201
 2325SOL     OW 7873   6.402   1.954   1.002
 2325SOL    HW1 7874   6.369   1.976   1.094
 2325SOL    HW2 7875   6.435   1.859   1.001
 2326SOL     OW 7876   0.375   5.467   0.085
 2326SOL    HW1 7877   0.434   5.402   0.133
 2326SOL    HW2 7878   0.404   5.560   0.105
 2327SOL     OW 7879   4.690   1.559   3.164
 2327SOL    HW1 7880   4.711   1.651   3.131
 2327SOL    HW2 7881   4.649   1.505   3.091
 2328SOL     OW 7882   5.869   5.503   3.912
 2328SOL    HW1 7883   5.935   5.428   3.911
 2328SOL    HW2 7884   5.914   5.587   3.941
 2329SOL     OW 7885   1.168   6.509   3.411
 2329SOL    HW1 7886   1.257   6.550   3.389
 2329SOL    HW2 7887   1.156   6.425   3.359
 2330SOL     OW 7888   1.838   4.272   6.951
 2330SOL    HW1 7889   1.744   4.291   6.976
 2330SOL    HW2 7890   1.895   4.269   0.009
 2331SOL     OW 7891   1.320   4.517   5.139
 2331SOL    HW1 7892   1.303   4.616   5.138
 2331SOL    HW2 7893   1.353   4.488   5.049
 2332SOL     OW 7894   7.009   3.329   6.746
 2332SOL    HW1 7895   6.973   3.242   6.779
 2332SOL    HW2 7896   6.970   3.404   6.799
 2333SOL     OW 7897   2.264   4.803   4.046
 2333SOL    HW1 7898   2.273   4.898   4.016
 2333SOL    HW2 7899   2.181   4.763   4.007
 2334SOL     OW 7900   1.943   0.105   6.048
 2334SOL    HW1 7901   1.914   0.131   6.140
 2334SOL    HW2 7902   1.980   0.012   6.050
 2335SOL     OW 7903   4.703   4.157   4.441
 2335SOL    HW1 7904   4.763   4.087   4.480
 2335SOL    HW2 7905   4.671   4.127   4.351
 2336SOL     OW 7906   4.213   1.409   5.510
 2336SOL    HW1 7907   4.159   1.342   5.560
 2336SOL    HW2 7908   4.260   1.363   5.434
 2337SOL     OW 7909   6.144   0.603   4.935
 2337SOL    HW1 7910   6.109   0.696   4.943
 2337SOL    HW2 7911   6.087   0.541   4.988
 2338SOL     OW 7912   1.546   6.744   0.106
 2338SOL    HW1 7913   1.549   6.673   0.176
 2338SOL    HW2 7914   1.520   6.704   0.018
 2339SOL     OW 7915   3.171   4.194   6.030
 2339SOL    HW1 7916   3.198   4.257   5.957
 2339SOL    HW2 7917   3.132   4.246   6.106
 2340SOL     OW 7918   4.115   5.061   4.011
 2340SOL    HW1 7919   4.191   5.056   3.946
 2340SOL    HW2 7920   4.050   4.987   3.992
 2341SOL     OW 7921   0.991   4.003   6.060
 2341SOL    HW1 7922   1.055   3.963   6.125
 2341SOL    HW2 7923   0.904   4.022   6.106
 2342SOL     OW 7924   4.751   1.224   5.264
 2342SOL    HW1 7925   4.788   1.304   5.312
 2342SOL    HW2 7926   4.660   1.247   5.227
 2343SOL     OW 7927   0.845   5.670   1.964
 2343SOL    HW1 7928   0.847   5.740   1.893
 2343SOL    HW2 7929   0.938   5.638   1.983
 2344SOL     OW 7930   1.978   0.636   2.891
 2344SOL    HW1 7931   1.909   0.649   2.962
 2344SOL    HW2 7932   2.067   0.670   2.924
 2345SOL     OW 7933   1.320   2.828   1.766
 2345SOL    HW1 7934   1.324   2.906   1.703
 2345SOL    HW2 7935   1.405   2.824   1.819
 2346SOL     OW 7936   5.537   2.827   5.129
 2346SOL    HW1 7937   5.565   2.826   5.033
 2346SOL    HW2 7938   5.438   2.845   5.135
 2347SOL     OW 7939   2.028   4.237   1.175
 2347SOL    HW1 7940   1.940   4.226   1.130
 2347SOL    HW2 7941   2.021   4.209   1.271
 2348SOL     OW 7942   3.331   0.222   1.976
 2348SOL    HW1 7943   3.428   0.240   1.959
 2348SOL    HW2 7944   3.303   0.139   1.928
 2349SOL     OW 7945   5.921   2.511   6.704
 2349SOL    HW1 7946   5.943   2.473   6.794
 2349SOL    HW2 7947   5.884   2.439   6.645
 2350SOL     OW 7948   2.305   5.788   5.003
 2350SOL    HW1 7949   2.222   5.817   4.956
 2350SOL    HW2 7950   2.361   5.733   4.941
 2351SOL     OW 7951   1.678   5.266   3.461
 2351SOL    HW1 7952   1.751   5.276   3.529
 2351SOL    HW2 7953   1.695   5.183   3.406
 2352SOL     OW 7954   6.155   5.993   6.351
 2352SOL    HW1 7955   6.117   5.961   6.264
 2352SOL    HW2 7956   6.101   6.069   6.386
 2353SOL     OW 7957   3.105   2.927   6.384
 2353SOL    HW1 7958   3.106   2.831   6.357
 2353SOL    HW2 7959   3.013   2.953   6.413
 2354SOL     OW 7960   3.437   1.689   2.122
 2354SOL    HW1 7961   3.390   1.744   2.190
 2354SOL    HW2 7962   3.528   1.726   2.105
 2355SOL     OW 7963   0.357   1.361   2.407
 2355SOL    HW1 7964   0.310   1.276   2.383
 2355SOL    HW2 7965   0.417   1.388   2.332
 2356SOL     OW 7966   3.480   5.014   3.934
 2356SOL    HW1 7967   3.533   5.086   3.979
 2356SOL    HW2 7968   3.442   4.952   4.003
 2357SOL     OW 7969   0.880   5.591   1.052
 2357SOL    HW1 7970   0.936   5.647   0.990
 2357SOL    HW2 7971   0.831   5.650   1.115
 2358SOL     OW 7972   2.454   0.697   5.273
 2358SOL    HW1 7973   2.386   0.625   5.264
 2358SOL    HW2 7974   2.509   0.702   5.190
 2359SOL     OW 7975   3.626   2.660   5.637
 2359SOL    HW1 7976   3.623   2.630   5.542
 2359SOL    HW2 7977   3.559   2.733   5.652
 2360SOL     OW 7978   3.566   5.178   1.707
 2360SOL    HW1 7979   3.552   5.277   1.705
 2360SOL    HW2 7980   3.526   5.137   1.625
 2361SOL     OW 7981   3.769   5.008   1.020
 2361SOL    HW1 7982   3.851   4.978   1.069
 2361SOL    HW2 7983   3.783   5.100   0.985
 2362SOL     OW 7984   2.796   4.869   4.323
 2362SOL    HW1 7985   2.753   4.862   4.234
 2362SOL    HW2 7986   2.778   4.786   4.376
 2363SOL     OW 7987   2.670   3.803   1.470
 2363SOL    HW1 7988   2.725   3.834   1.548
 2363SOL    HW2 7989   2.611   3.728   1.499
 2364SOL     OW 7990   4.479   0.819   2.692
 2364SOL    HW1 7991   4.517   0.906   2.724
 2364SOL    HW2 7992   4.410   0.787   2.756
 2365SOL     OW 7993   5.849   3.613   2.626
 2365SOL    HW1 7994   5.762   3.603   2.577
 2365SOL    HW2 7995   5.836   3.676   2.703
 2366SOL     OW 7996   4.284   5.308   4.818
 2366SOL    HW1 7997   4.335   5.374   4.763
 2366SOL    HW2 7998   4.202   5.280   4.768
 2367SOL     OW 7999   5.720   4.735   5.615
 2367SOL    HW1 8000   5.708   4.636   5.617
 2367SOL    HW2 8001   5.631   4.780   5.624
 2368SOL     OW 8002   5.032   1.628   5.405
 2368SOL    HW1 8003   5.027   1.599   5.501
 2368SOL    HW2 8004   5.108   1.693   5.394
 2369SOL     OW 8005   3.995   2.095   3.996
 2369SOL    HW1 8006   4.032   2.002   3.995
 2369SOL    HW2 8007   4.003   2.135   3.905
 2370SOL     OW 8008   4.058   2.292   0.491
 2370SOL    HW1 8009   4.073   2.194   0.510
 2370SOL    HW2 8010   4.069   2.344   0.576
 2371SOL     OW 8011   2.303   6.469   3.066
 2371SOL    HW1 8012   2.286   6.426   3.155
 2371SOL    HW2 8013   2.401   6.467   3.046
 2372SOL     OW 8014   5.719   6.852   6.476
 2372SOL    HW1 8015   5.806   6.869   6.429
 2372SOL    HW2 8016   5.674   6.939   6.495
 2373SOL     OW 8017   6.562   4.376   5.753
 2373SOL    HW1 8018   6.504   4.317   5.809
 2373SOL    HW2 8019   6.653   4.335   5.745
 2374SOL     OW 8020   0.367   5.372   2.597
 2374SOL    HW1 8021   0.378   5.430   2.677
 2374SOL    HW2 8022   0.420   5.288   2.609
 2375SOL     OW 8023   2.138   0.501   4.657
 2375SOL    HW1 8024   2.182   0.475   4.743
 2375SOL    HW2 8025   2.039   0.495   4.666
 2376SOL     OW 8026   5.818   2.896   4.166
 2376SOL    HW1 8027   5.785   2.909   4.260
 2376SOL    HW2 8028   5.789   2.807   4.132
 2377SOL     OW 8029   3.798   4.461   5.923
 2377SOL    HW1 8030   3.802   4.398   6.001
 2377SOL    HW2 8031   3.707   4.501   5.917
 2378SOL     OW 8032   0.574   0.189   0.595
 2378SOL    HW1 8033   0.671   0.209   0.580
 2378SOL    HW2 8034   0.543   0.236   0.677
 2379SOL     OW 8035   0.618   4.521   2.742
 2379SOL    HW1 8036   0.564   4.438   2.728
 2379SOL    HW2 8037   0.674   4.510   2.824
 2380SOL     OW 8038   4.722   5.632   6.527
 2380SOL    HW1 8039   4.720   5.664   6.622
 2380SOL    HW2 8040   4.789   5.558   6.519
 2381SOL     OW 8041   2.298   4.353   3.816
 2381SOL    HW1 8042   2.226   4.421   3.830
 2381SOL    HW2 8043   2.357   4.382   3.740
 2382SOL     OW 8044   6.435   5.774   2.440
 2382SOL    HW1 8045   6.420   5.872   2.455
 2382SOL    HW2 8046   6.388   5.746   2.356
 2383SOL     OW 8047   4.830   3.857   5.748
 2383SOL    HW1 8048   4.804   3.837   5.654
 2383SOL    HW2 8049   4.895   3.789   5.780
 2384SOL     OW 8050   0.893   2.034   3.362
 2384SOL    HW1 8051   0.948   2.025   3.445
 2384SOL    HW2 8052   0.946   2.086   3.293
 2385SOL     OW 8053   0.897   0.923   1.059
 2385SOL    HW1 8054   0.850   0.859   1.120
 2385SOL    HW2 8055   0.979   0.880   1.022
 2386SOL     OW 8056   6.848   4.869   6.171
 2386SOL    HW1 8057   6.937   4.824   6.175
 2386SOL    HW2 8058   6.843   4.940   6.242
 2387SOL     OW 8059   6.593   6.948   3.182
 2387SOL    HW1 8060   6.610   6.867   3.126
 2387SOL    HW2 8061   6.539   6.924   3.262
 2388SOL     OW 8062   2.110   4.589   3.750
 2388SOL    HW1 8063   2.146   4.644   3.674
 2388SOL    HW2 8064   2.037   4.529   3.716
 2389SOL     OW 8065   3.384   0.363   3.120
 2389SOL    HW1 8066   3.310   0.424   3.147
 2389SOL    HW2 8067   3.366   0.328   3.028
 2390SOL     OW 8068   5.328   3.240   5.017
 2390SOL    HW1 8069   5.427   3.235   5.014
 2390SOL    HW2 8070   5.289   3.191   4.939
 2391SOL     OW 8071   2.257   4.247   6.606
 2391SOL    HW1 8072   2.244   4.148   6.612
 2391SOL    HW2 8073   2.187   4.293   6.661
 2392SOL     OW 8074   3.926   5.060   5.621
 2392SOL    HW1 8075   3.927   4.960   5.621
 2392SOL    HW2 8076   3.927   5.093   5.526
 2393SOL     OW 8077   4.929   5.212   0.154
 2393SOL    HW1 8078   5.019   5.173   0.134
 2393SOL    HW2 8079   4.903   5.188   0.248
 2394SOL     OW 8080   6.934   2.444   3.028
 2394SOL    HW1 8081   6.915   2.346   3.026
 2394SOL    HW2 8082   6.853   2.492   3.062
 2395SOL     OW 8083   0.592   2.869   3.232
 2395SOL    HW1 8084   0.622   2.787   3.282
 2395SOL    HW2 8085   0.614   2.950   3.286
 2396SOL     OW 8086   0.327   0.743   5.778
 2396SOL    HW1 8087   0.313   0.656   5.732
 2396SOL    HW2 8088   0.384   0.729   5.860
 2397SOL     OW 8089   2.783   4.835   5.768
 2397SOL    HW1 8090   2.732   4.819   5.853
 2397SOL    HW2 8091   2.748   4.918   5.724
 2398SOL     OW 8092   4.030   6.257   5.262
 2398SOL    HW1 8093   3.936   6.269   5.294
 2398SOL    HW2 8094   4.029   6.214   5.171
 2399SOL     OW 8095   3.057   1.748   2.284
 2399SOL    HW1 8096   3.057   1.667   2.342
 2399SOL    HW2 8097   3.019   1.725   2.194
 2400SOL     OW 8098   1.029   1.424   6.370
 2400SOL    HW1 8099   0.999   1.502   6.426
 2400SOL    HW2 8100   1.033   1.452   6.274
 2401SOL     OW 8101   1.422   6.922   0.596
 2401SOL    HW1 8102   1.469   6.834   0.601
 2401SOL    HW2 8103   1.461   6.975   0.521
 2402SOL     OW 8104   0.639   3.119   1.370
 2402SOL    HW1 8105   0.623   3.021   1.362
 2402SOL    HW2 8106   0.700   3.137   1.448
 2403SOL     OW 8107   3.058   4.166   5.227
 2403SOL    HW1 8108   2.997   4.118   5.291
 2403SOL    HW2 8109   3.088   4.252   5.268
 2404SOL     OW 8110   6.393   1.910   1.941
 2404SOL    HW1 8111   6.366   1.842   1.873
 2404SOL    HW2 8112   6.312   1.954   1.979
 2405SOL     OW 8113   2.608   3.388   0.500
 2405SOL    HW1 8114   2.613   3.349   0.408
 2405SOL    HW2 8115   2.584   3.485   0.495
 2406SOL     OW 8116   4.759   6.358   5.331
 2406SOL    HW1 8117   4.825   6.427   5.363
 2406SOL    HW2 8118   4.806   6.292   5.273
 2407SOL     OW 8119   2.343   1.928   3.834
 2407SOL    HW1 8120   2.326   1.969   3.744
 2407SOL    HW2 8121   2.415   1.979   3.881
 2408SOL     OW 8122   4.700   6.743   5.599
 2408SOL    HW1 8123   4.609   6.779   5.583
 2408SOL    HW2 8124   4.732   6.694   5.518
 2409SOL     OW 8125   1.650   2.758   7.011
 2409SOL    HW1 8126   1.720   2.733   6.944
 2409SOL    HW2 8127   1.679   2.729   0.078
 2410SOL     OW 8128   6.339   3.131   4.725
 2410SOL    HW1 8129   6.249   3.158   4.690
 2410SOL    HW2 8130   6.380   3.207   4.775
 2411SOL     OW 8131   3.209   1.080   0.838
 2411SOL    HW1 8132   3.193   1.046   0.931
 2411SOL    HW2 8133   3.122   1.091   0.791
 2412SOL     OW 8134   3.689   2.501   7.022
 2412SOL    HW1 8135   3.645   2.420   0.037
 2412SOL    HW2 8136   3.707   2.485   6.925
 2413SOL     OW 8137   6.980   3.740   6.207
 2413SOL    HW1 8138   6.979   3.680   6.287
 2413SOL    HW2 8139   6.891   3.737   6.162
 2414SOL     OW 8140   6.399   1.905   5.132
 2414SOL    HW1 8141   6.403   1.856   5.045
 2414SOL    HW2 8142   6.312   1.953   5.140
 2415SOL     OW 8143   3.290   3.758   5.399
 2415SOL    HW1 8144   3.342   3.813   5.333
 2415SOL    HW2 8145   3.350   3.729   5.473
 2416SOL     OW 8146   6.532   3.183   3.252
 2416SOL    HW1 8147   6.569   3.206   3.162
 2416SOL    HW2 8148   6.448   3.129   3.241
 2417SOL     OW 8149   3.693   2.783   1.902
 2417SOL    HW1 8150   3.618   2.829   1.950
 2417SOL    HW2 8151   3.758   2.851   1.868
 2418SOL     OW 8152   6.045   3.465   6.676
 2418SOL    HW1 8153   6.124   3.408   6.656
 2418SOL    HW2 8154   6.015   3.511   6.592
 2419SOL     OW 8155   3.055   1.475   2.863
 2419SOL    HW1 8156   2.971   1.503   2.818
 2419SOL    HW2 8157   3.047   1.489   2.962
 2420SOL     OW 8158   0.459   2.971   1.570
 2420SOL    HW1 8159   0.388   2.972   1.640
 2420SOL    HW2 8160   0.437   2.901   1.502
 2421SOL     OW 8161   2.755   0.260   3.620
 2421SOL    HW1 8162   2.828   0.192   3.613
 2421SOL    HW2 8163   2.770   0.317   3.701
 2422SOL     OW 8164   4.023   6.883   0.313
 2422SOL    HW1 8165   3.927   6.910   0.323
 2422SOL    HW2 8166   4.078   6.928   0.384
 2423SOL     OW 8167   3.748   5.045   4.883
 2423SOL    HW1 8168   3.733   5.001   4.972
 2423SOL    HW2 8169   3.822   4.997   4.835
 2424SOL     OW 8170   4.558   0.271   6.576
 2424SOL    HW1 8171   4.462   0.245   6.562
 2424SOL    HW2 8172   4.563   0.358   6.624
 2425SOL     OW 8173   4.965   5.196   4.548
 2425SOL    HW1 8174   4.970   5.172   4.451
 2425SOL    HW2 8175   4.955   5.113   4.602
 2426SOL     OW 8176   3.007   2.239   5.309
 2426SOL    HW1 8177   3.054   2.291   5.237
 2426SOL    HW2 8178   3.015   2.288   5.395
 2427SOL     OW 8179   4.750   2.448   6.856
 2427SOL    HW1 8180   4.760   2.541   6.820
 2427SOL    HW2 8181   4.711   2.453   6.948
 2428SOL     OW 8182   1.808   1.885   2.449
 2428SOL    HW1 8183   1.781   1.831   2.369
 2428SOL    HW2 8184   1.769   1.976   2.442
 2429SOL     OW 8185   5.096   5.081   1.742
 2429SOL    HW1 8186   5.118   5.106   1.837
 2429SOL    HW2 8187   5.025   5.011   1.742
 2430SOL     OW 8188   0.073   6.116   6.612
 2430SOL    HW1 8189   7.004   6.079   6.611
 2430SOL    HW2 8190   0.117   6.093   6.699
 2431SOL     OW 8191   2.167   2.670   1.105
 2431SOL    HW1 8192   2.241   2.605   1.091
 2431SOL    HW2 8193   2.140   2.709   1.017
 2432SOL     OW 8194   2.856   5.941   2.711
 2432SOL    HW1 8195   2.800   6.001   2.768
 2432SOL    HW2 8196   2.945   5.927   2.754
 2433SOL     OW 8197   0.306   4.201   4.153
 2433SOL    HW1 8198   0.366   4.149   4.092
 2433SOL    HW2 8199   0.260   4.273   4.101
 2434SOL     OW 8200   3.954   2.166   2.964
 2434SOL    HW1 8201   3.971   2.227   3.041
 2434SOL    HW2 8202   4.029   2.100   2.957
 2435SOL     OW 8203   5.746   6.572   5.911
 2435SOL    HW1 8204   5.652   6.548   5.887
 2435SOL    HW2 8205   5.748   6.660   5.958
 2436SOL     OW 8206   0.295   2.994   0.023
 2436SOL    HW1 8207   0.254   3.085   0.031
 2436SOL    HW2 8208   0.232   2.926   0.061
 2437SOL     OW 8209   0.851   4.865   1.266
 2437SOL    HW1 8210   0.759   4.866   1.305
 2437SOL    HW2 8211   0.896   4.952   1.285
 2438SOL     OW 8212   4.027   1.922   4.322
 2438SOL    HW1 8213   4.096   1.919   4.251
 2438SOL    HW2 8214   4.069   1.949   4.409
 2439SOL     OW 8215   0.646   5.982   6.733
 2439SOL    HW1 8216   0.669   5.960   6.638
 2439SOL    HW2 8217   0.713   6.046   6.770
 2440SOL     OW 8218   0.136   2.760   5.013
 2440SOL    HW1 8219   0.114   2.684   5.075
 2440SOL    HW2 8220   0.214   2.810   5.048
 2441SOL     OW 8221   6.556   0.026   0.030
 2441SOL    HW1 8222   6.476   0.067   0.075
 2441SOL    HW2 8223   6.549   0.039   6.956
 2442SOL     OW 8224   5.462   3.050   3.171
 2442SOL    HW1 8225   5.549   3.081   3.209
 2442SOL    HW2 8226   5.428   3.118   3.106
 2443SOL     OW 8227   0.887   3.177   1.082
 2443SOL    HW1 8228   0.809   3.238   1.094
 2443SOL    HW2 8229   0.878   3.099   1.145
 2444SOL     OW 8230   3.228   5.166   2.683
 2444SOL    HW1 8231   3.291   5.139   2.611
 2444SOL    HW2 8232   3.135   5.174   2.646
 2445SOL     OW 8233   0.734   1.935   1.401
 2445SOL    HW1 8234   0.638   1.932   1.373
 2445SOL    HW2 8235   0.740   1.931   1.501
 2446SOL     OW 8236   6.499   5.698   0.972
 2446SOL    HW1 8237   6.553   5.703   1.057
 2446SOL    HW2 8238   6.510   5.608   0.931
 2447SOL     OW 8239   2.098   0.217   6.718
 2447SOL    HW1 8240   2.158   0.288   6.682
 2447SOL    HW2 8241   2.032   0.190   6.647
 2448SOL     OW 8242   5.266   0.729   4.575
 2448SOL    HW1 8243   5.274   0.761   4.481
 2448SOL    HW2 8244   5.172   0.702   4.594
 2449SOL     OW 8245   1.977   3.830   1.332
 2449SOL    HW1 8246   1.998   3.851   1.428
 2449SOL    HW2 8247   2.040   3.760   1.299
 2450SOL     OW 8248   6.638   6.529   5.697
 2450SOL    HW1 8249   6.685   6.441   5.690
 2450SOL    HW2 8250   6.705   6.600   5.719
 2451SOL     OW 8251   1.637   6.989   0.187
 2451SOL    HW1 8252   1.597   6.900   0.165
 2451SOL    HW2 8253   1.646   6.997   0.286
 2452SOL     OW 8254   1.795   2.235   3.778
 2452SOL    HW1 8255   1.764   2.312   3.833
 2452SOL    HW2 8256   1.803   2.263   3.682
 2453SOL     OW 8257   0.991   1.897   6.472
 2453SOL    HW1 8258   1.063   1.966   6.482
 2453SOL    HW2 8259   0.905   1.933   6.508
 2454SOL     OW 8260   2.371   6.548   0.307
 2454SOL    HW1 8261   2.424   6.544   0.222
 2454SOL    HW2 8262   2.421   6.600   0.376
 2455SOL     OW 8263   4.855   1.905   6.943
 2455SOL    HW1 8264   4.770   1.931   6.990
 2455SOL    HW2 8265   4.848   1.930   6.847
 2456SOL     OW 8266   0.990   3.287   6.000
 2456SOL    HW1 8267   0.921   3.307   6.069
 2456SOL    HW2 8268   1.075   3.334   6.023
 2457SOL     OW 8269   5.460   1.491   5.864
 2457SOL    HW1 8270   5.449   1.394   5.844
 2457SOL    HW2 8271   5.374   1.539   5.845
 2458SOL     OW 8272   0.821   0.156   1.933
 2458SOL    HW1 8273   0.903   0.105   1.905
 2458SOL    HW2 8274   0.829   0.251   1.903
 2459SOL     OW 8275   1.536   6.680   1.028
 2459SOL    HW1 8276   1.452   6.722   1.060
 2459SOL    HW2 8277   1.532   6.581   1.043
 2460SOL     OW 8278   0.642   0.745   4.039
 2460SOL    HW1 8279   0.639   0.725   4.137
 2460SOL    HW2 8280   0.594   0.673   3.989
 2461SOL     OW 8281   2.384   2.004   3.571
 2461SOL    HW1 8282   2.406   1.912   3.539
 2461SOL    HW2 8283   2.469   2.051   3.596
 2462SOL     OW 8284   0.386   5.822   0.569
 2462SOL    HW1 8285   0.461   5.758   0.562
 2462SOL    HW2 8286   0.342   5.833   0.479
 2463SOL     OW 8287   6.963   6.199   0.400
 2463SOL    HW1 8288   6.871   6.175   0.431
 2463SOL    HW2 8289   0.006   6.149   0.455
 2464SOL     OW 8290   0.769   2.744   4.766
 2464SOL    HW1 8291   0.854   2.777   4.809
 2464SOL    HW2 8292   0.694   2.751   4.832
 2465SOL     OW 8293   6.870   1.682   0.236
 2465SOL    HW1 8294   6.885   1.585   0.256
 2465SOL    HW2 8295   6.829   1.691   0.145
 2466SOL     OW 8296   1.206   1.886   1.090
 2466SOL    HW1 8297   1.198   1.786   1.092
 2466SOL    HW2 8298   1.133   1.926   1.145
 2467SOL     OW 8299   5.238   2.508   4.806
 2467SOL    HW1 8300   5.159   2.474   4.755
 2467SOL    HW2 8301   5.228   2.484   4.903
 2468SOL     OW 8302   3.063   6.912   4.568
 2468SOL    HW1 8303   3.126   6.971   4.517
 2468SOL    HW2 8304   3.070   6.818   4.532
 2469SOL     OW 8305   2.953   1.685   6.005
 2469SOL    HW1 8306   3.046   1.724   6.010
 2469SOL    HW2 8307   2.920   1.666   6.097
 2470SOL     OW 8308   2.037   5.128   6.283
 2470SOL    HW1 8309   2.077   5.195   6.346
 2470SOL    HW2 8310   1.998   5.176   6.204
 2471SOL     OW 8311   2.460   5.786   2.820
 2471SOL    HW1 8312   2.540   5.747   2.775
 2471SOL    HW2 8313   2.392   5.812   2.751
 2472SOL     OW 8314   4.972   0.552   3.078
 2472SOL    HW1 8315   5.027   0.577   3.157
 2472SOL    HW2 8316   4.886   0.604   3.079
 2473SOL     OW 8317   0.824   4.361   4.670
 2473SOL    HW1 8318   0.755   4.338   4.739
 2473SOL    HW2 8319   0.787   4.345   4.579
 2474SOL     OW 8320   2.101   0.337   1.219
 2474SOL    HW1 8321   2.083   0.359   1.315
 2474SOL    HW2 8322   2.124   0.420   1.169
 2475SOL     OW 8323   5.783   1.806   0.457
 2475SOL    HW1 8324   5.814   1.822   0.550
 2475SOL    HW2 8325   5.698   1.754   0.458
 2476SOL     OW 8326   4.829   6.829   6.981
 2476SOL    HW1 8327   4.885   6.909   7.005
 2476SOL    HW2 8328   4.884   6.763   6.930
 2477SOL     OW 8329   3.625   1.401   3.801
 2477SOL    HW1 8330   3.698   1.460   3.836
 2477SOL    HW2 8331   3.570   1.452   3.734
 2478SOL     OW 8332   3.236   0.304   4.121
 2478SOL    HW1 8333   3.331   0.320   4.093
 2478SOL    HW2 8334   3.201   0.223   4.074
 2479SOL     OW 8335   6.654   4.356   1.786
 2479SOL    HW1 8336   6.575   4.381   1.731
 2479SOL    HW2 8337   6.629   4.358   1.883
 2480SOL     OW 8338   2.877   1.968   1.664
 2480SOL    HW1 8339   2.935   1.916   1.727
 2480SOL    HW2 8340   2.887   2.066   1.683
 2481SOL     OW 8341   3.066   0.111   2.519
 2481SOL    HW1 8342   3.124   0.187   2.491
 2481SOL    HW2 8343   2.995   0.144   2.581
 2482SOL     OW 8344   0.306   3.322   0.152
 2482SOL    HW1 8345   0.355   3.386   0.093
 2482SOL    HW2 8346   0.234   3.276   0.100
 2483SOL     OW 8347   2.646   1.846   1.366
 2483SOL    HW1 8348   2.647   1.912   1.291
 2483SOL    HW2 8349   2.585   1.879   1.438
 2484SOL     OW 8350   4.447   0.930   6.485
 2484SOL    HW1 8351   4.496   0.909   6.400
 2484SOL    HW2 8352   4.353   0.958   6.464
 2485SOL     OW 8353   0.523   1.609   0.122
 2485SOL    HW1 8354   0.468   1.529   0.146
 2485SOL    HW2 8355   0.558   1.651   0.206
 2486SOL     OW 8356   6.494   5.956   2.760
 2486SOL    HW1 8357   6.585   5.983   2.790
 2486SOL    HW2 8358   6.468   5.870   2.804
 2487SOL     OW 8359   4.310   6.268   6.914
 2487SOL    HW1 8360   4.344   6.277   6.820
 2487SOL    HW2 8361   4.218   6.229   6.911
 2488SOL     OW 8362   0.671   3.789   0.436
 2488SOL    HW1 8363   0.638   3.874   0.476
 2488SOL    HW2 8364   0.615   3.713   0.470
 2489SOL     OW 8365   6.370   5.575   4.698
 2489SOL    HW1 8366   6.301   5.570   4.626
 2489SOL    HW2 8367   6.336   5.632   4.773
 2490SOL     OW 8368   3.035   6.125   2.250
 2490SOL    HW1 8369   3.050   6.066   2.330
 2490SOL    HW2 8370   2.938   6.147   2.243
 2491SOL     OW 8371   4.021   4.619   1.757
 2491SOL    HW1 8372   4.103   4.568   1.730
 2491SOL    HW2 8373   4.045   4.716   1.767
 2492SOL     OW 8374   6.787   4.906   2.087
 2492SOL    HW1 8375   6.875   4.885   2.129
 2492SOL    HW2 8376   6.789   4.998   2.049
 2493SOL     OW 8377   6.076   6.116   0.729
 2493SOL    HW1 8378   6.003   6.070   0.679
 2493SOL    HW2 8379   6.113   6.190   0.672
 2494SOL     OW 8380   6.663   3.830   1.188
 2494SOL    HW1 8381   6.568   3.799   1.183
 2494SOL    HW2 8382   6.665   3.928   1.206
 2495SOL     OW 8383   6.854   2.975   2.228
 2495SOL    HW1 8384   6.884   3.019   2.313
 2495SOL    HW2 8385   6.779   2.911   2.249
 2496SOL     OW 8386   5.126   3.715   5.726
 2496SOL    HW1 8387   5.192   3.774   5.680
 2496SOL    HW2 8388   5.117   3.743   5.822
 2497SOL     OW 8389   0.445   7.011   3.890
 2497SOL    HW1 8390   0.384   6.951   3.941
 2497SOL    HW2 8391   0.426   7.003   3.792
 2498SOL     OW 8392   2.005   3.328   4.756
 2498SOL    HW1 8393   1.906   3.310   4.754
 2498SOL    HW2 8394   2.052   3.261   4.699
 2499SOL     OW 8395   5.617   3.314   1.350
 2499SOL    HW1 8396   5.689   3.372   1.312
 2499SOL    HW2 8397   5.640   3.218   1.333
 2500SOL     OW 8398   3.724   3.865   2.116
 2500SOL    HW1 8399   3.818   3.857   2.149
 2500SOL    HW2 8400   3.720   3.841   2.019
 2501SOL     OW 8401   6.321   4.966   4.528
 2501SOL    HW1 8402   6.310   5.064   4.544
 2501SOL    HW2 8403   6.387   4.928   4.592
 2502SOL     OW 8404   2.628   6.042   3.559
 2502SOL    HW1 8405   2.612   6.074   3.652
 2502SOL    HW2 8406   2.710   6.085   3.522
 2503SOL     OW 8407   2.325   0.207   5.118
 2503SOL    HW1 8408   2.365   0.122   5.152
 2503SOL    HW2 8409   2.382   0.285   5.145
 2504SOL     OW 8410   3.972   0.894   3.397
 2504SOL    HW1 8411   4.028   0.856   3.471
 2504SOL    HW2 8412   4.005   0.986   3.375
 2505SOL     OW 8413   5.627   4.764   4.401
 2505SOL    HW1 8414   5.718   4.798   4.375
 2505SOL    HW2 8415   5.626   4.664   4.392
 2506SOL     OW 8416   6.294   4.655   6.211
 2506SOL    HW1 8417   6.309   4.568   6.165
 2506SOL    HW2 8418   6.283   4.639   6.309
 2507SOL     OW 8419   5.881   3.712   3.807
 2507SOL    HW1 8420   5.934   3.794   3.825
 2507SOL    HW2 8421   5.941   3.632   3.807
 2508SOL     OW 8422   5.576   0.882   3.907
 2508SOL    HW1 8423   5.603   0.971   3.871
 2508SOL    HW2 8424   5.649   0.816   3.890
 2509SOL     OW 8425   0.213   3.406   5.976
 2509SOL    HW1 8426   0.283   3.442   5.914
 2509SOL    HW2 8427   0.208   3.307   5.968
 2510SOL     OW 8428   3.045   3.703   2.501
 2510SOL    HW1 8429   2.979   3.641   2.459
 2510SOL    HW2 8430   3.053   3.786   2.446
 2511SOL     OW 8431   2.267   0.980   4.358
 2511SOL    HW1 8432   2.288   1.078   4.358
 2511SOL    HW2 8433   2.338   0.932   4.410
 2512SOL     OW 8434   3.264   4.887   3.569
 2512SOL    HW1 8435   3.261   4.958   3.639
 2512SOL    HW2 8436   3.350   4.837   3.576
 2513SOL     OW 8437   1.964   5.742   6.534
 2513SOL    HW1 8438   2.003   5.779   6.618
 2513SOL    HW2 8439   1.865   5.750   6.537
 2514SOL     OW 8440   0.934   2.305   2.704
 2514SOL    HW1 8441   1.021   2.312   2.753
 2514SOL    HW2 8442   0.932   2.371   2.629
 2515SOL     OW 8443   0.109   1.912   1.055
 2515SOL    HW1 8444   0.156   1.849   1.117
 2515SOL    HW2 8445   0.168   1.992   1.039
 2516SOL     OW 8446   6.806   2.669   4.824
 2516SOL    HW1 8447   6.743   2.746   4.818
 2516SOL    HW2 8448   6.804   2.630   4.916
 2517SOL     OW 8449   0.296   1.204   4.590
 2517SOL    HW1 8450   0.286   1.274   4.519
 2517SOL    HW2 8451   0.218   1.209   4.652
 2518SOL     OW 8452   3.289   3.546   1.159
 2518SOL    HW1 8453   3.269   3.638   1.190
 2518SOL    HW2 8454   3.375   3.546   1.109
 2519SOL     OW 8455   1.294   1.112   0.214
 2519SOL    HW1 8456   1.208   1.096   0.166
 2519SOL    HW2 8457   1.277   1.120   0.312
 2520SOL     OW 8458   2.856   2.912   1.384
 2520SOL    HW1 8459   2.807   2.913   1.471
 2520SOL    HW2 8460   2.867   3.005   1.350
 2521SOL     OW 8461   5.430   1.140   4.955
 2521SOL    HW1 8462   5.502   1.162   4.890
 2521SOL    HW2 8463   5.341   1.167   4.918
 2522SOL     OW 8464   2.085   2.042   0.163
 2522SOL    HW1 8465   2.004   2.081   0.119
 2522SOL    HW2 8466   2.166   2.061   0.108
 2523SOL     OW 8467   0.969   6.005   5.630
 2523SOL    HW1 8468   0.935   5.918   5.594
 2523SOL    HW2 8469   1.035   5.988   5.703
 2524SOL     OW 8470   0.765   2.179   4.831
 2524SOL    HW1 8471   0.674   2.139   4.818
 2524SOL    HW2 8472   0.805   2.201   4.743
 2525SOL     OW 8473   6.682   2.775   6.563
 2525SOL    HW1 8474   6.652   2.761   6.469
 2525SOL    HW2 8475   6.606   2.810   6.618
 2526SOL     OW 8476   2.124   1.162   1.099
 2526SOL    HW1 8477   2.063   1.207   1.164
 2526SOL    HW2 8478   2.079   1.155   1.011
 2527SOL     OW 8479   3.824   5.482   0.318
 2527SOL    HW1 8480   3.909   5.468   0.268
 2527SOL    HW2 8481   3.771   5.397   0.317
 2528SOL     OW 8482   4.332   5.680   6.273
 2528SOL    HW1 8483   4.254   5.618   6.282
 2528SOL    HW2 8484   4.300   5.775   6.274
 2529SOL     OW 8485   0.142   6.069   5.408
 2529SOL    HW1 8486   0.050   6.080   5.370
 2529SOL    HW2 8487   0.170   5.973   5.402
 2530SOL     OW 8488   2.040   5.928   6.756
 2530SOL    HW1 8489   2.032   5.945   6.854
 2530SOL    HW2 8490   2.137   5.924   6.730
 2531SOL     OW 8491   0.299   4.042   6.243
 2531SOL    HW1 8492   0.296   3.991   6.157
 2531SOL    HW2 8493   0.334   4.135   6.225
 2532SOL     OW 8494   5.491   6.145   2.963
 2532SOL    HW1 8495   5.414   6.087   2.987
 2532SOL    HW2 8496   5.572   6.114   3.013
 2533SOL     OW 8497   4.437   0.525   3.821
 2533SOL    HW1 8498   4.360   0.589   3.821
 2533SOL    HW2 8499   4.479   0.523   3.911
 2534SOL     OW 8500   4.711   1.622   2.381
 2534SOL    HW1 8501   4.779   1.557   2.348
 2534SOL    HW2 8502   4.623   1.604   2.338
 2535SOL     OW 8503   3.429   2.906   6.141
 2535SOL    HW1 8504   3.346   2.895   6.086
 2535SOL    HW2 8505   3.404   2.906   6.238
 2536SOL     OW 8506   1.069   0.476   0.968
 2536SOL    HW1 8507   1.119   0.561   0.985
 2536SOL    HW2 8508   1.122   0.399   1.003
 2537SOL     OW 8509   4.364   6.796   4.856
 2537SOL    HW1 8510   4.349   6.893   4.877
 2537SOL    HW2 8511   4.355   6.781   4.758
 2538SOL     OW 8512   5.651   3.925   3.692
 2538SOL    HW1 8513   5.577   3.860   3.671
 2538SOL    HW2 8514   5.737   3.890   3.655
 2539SOL     OW 8515   5.059   2.043   4.800
 2539SOL    HW1 8516   5.080   1.997   4.885
 2539SOL    HW2 8517   4.969   2.085   4.806
 2540SOL     OW 8518   2.506   2.211   1.655
 2540SOL    HW1 8519   2.480   2.251   1.567
 2540SOL    HW2 8520   2.427   2.165   1.695
 2541SOL     OW 8521   3.053   0.084   4.330
 2541SOL    HW1 8522   3.093   0.060   4.242
 2541SOL    HW2 8523   3.037   0.183   4.333
 2542SOL     OW 8524   1.870   5.609   6.003
 2542SOL    HW1 8525   1.834   5.537   5.943
 2542SOL    HW2 8526   1.819   5.608   6.089
 2543SOL     OW 8527   1.113   0.657   3.787
 2543SOL    HW1 8528   1.067   0.720   3.725
 2543SOL    HW2 8529   1.075   0.667   3.879
 2544SOL     OW 8530   0.690   5.897   5.910
 2544SOL    HW1 8531   0.718   5.979   5.862
 2544SOL    HW2 8532   0.738   5.818   5.872
 2545SOL     OW 8533   2.510   6.255   2.979
 2545SOL    HW1 8534   2.503   6.191   3.055
 2545SOL    HW2 8535   2.435   6.239   2.915
 2546SOL     OW 8536   6.785   0.890   1.777
 2546SOL    HW1 8537   6.753   0.829   1.705
 2546SOL    HW2 8538   6.749   0.860   1.865
 2547SOL     OW 8539   0.343   3.704   5.093
 2547SOL    HW1 8540   0.280   3.639   5.051
 2547SOL    HW2 8541   0.404   3.655   5.156
 2548SOL     OW 8542   0.083   0.748   6.166
 2548SOL    HW1 8543   0.005   0.693   6.136
 2548SOL    HW2 8544   0.056   0.804   6.245
 2549SOL     OW 8545   5.498   2.165   2.819
 2549SOL    HW1 8546   5.407   2.203   2.800
 2549SOL    HW2 8547   5.498   2.068   2.795
 2550SOL     OW 8548   5.355   5.408   0.289
 2550SOL    HW1 8549   5.360   5.328   0.348
 2550SOL    HW2 8550   5.264   5.449   0.297
 2551SOL     OW 8551   1.232   4.543   6.244
 2551SOL    HW1 8552   1.231   4.618   6.310
 2551SOL    HW2 8553   1.188   4.463   6.285
 2552SOL     OW 8554   1.559   5.787   3.410
 2552SOL    HW1 8555   1.628   5.818   3.475
 2552SOL    HW2 8556   1.578   5.692   3.383
 2553SOL     OW 8557   4.656   3.286   0.437
 2553SOL    HW1 8558   4.556   3.277   0.439
 2553SOL    HW2 8559   4.689   3.307   0.529
 2554SOL     OW 8560   1.064   1.902   0.649
 2554SOL    HW1 8561   1.125   1.919   0.726
 2554SOL    HW2 8562   0.969   1.916   0.678
 2555SOL     OW 8563   6.845   0.247   6.138
 2555SOL    HW1 8564   6.844   0.186   6.218
 2555SOL    HW2 8565   6.936   0.285   6.127
 2556SOL     OW 8566   4.224   4.906   0.114
 2556SOL    HW1 8567   4.153   4.838   0.098
 2556SOL    HW2 8568   4.284   4.876   0.187
 2557SOL     OW 8569   2.350   5.052   6.821
 2557SOL    HW1 8570   2.312   5.125   6.765
 2557SOL    HW2 8571   2.424   5.088   6.879
 2558SOL     OW 8572   4.080   0.845   5.322
 2558SOL    HW1 8573   4.151   0.911   5.348
 2558SOL    HW2 8574   4.122   0.755   5.312
 2559SOL     OW 8575   0.562   4.980   5.079
 2559SOL    HW1 8576   0.573   4.993   4.980
 2559SOL    HW2 8577   0.555   5.069   5.124
 2560SOL     OW 8578   6.166   0.455   0.357
 2560SOL    HW1 8579   6.259   0.461   0.321
 2560SOL    HW2 8580   6.154   0.366   0.402
 2561SOL     OW 8581   3.327   5.985   4.089
 2561SOL    HW1 8582   3.417   5.959   4.125
 2561SOL    HW2 8583   3.324   5.966   3.991
 2562SOL     OW 8584   2.287   4.023   0.343
 2562SOL    HW1 8585   2.240   3.944   0.383
 2562SOL    HW2 8586   2.223   4.100   0.339
 2563SOL     OW 8587   1.648   0.473   1.724
 2563SOL    HW1 8588   1.714   0.423   1.668
 2563SOL    HW2 8589   1.642   0.568   1.692
 2564SOL     OW 8590   1.584   6.344   2.486
 2564SOL    HW1 8591   1.592   6.439   2.456
 2564SOL    HW2 8592   1.496   6.332   2.532
 2565SOL     OW 8593   0.819   0.694   1.169
 2565SOL    HW1 8594   0.749   0.635   1.211
 2565SOL    HW2 8595   0.901   0.693   1.225
 2566SOL     OW 8596   2.451   6.531   5.026
 2566SOL    HW1 8597   2.461   6.503   5.122
 2566SOL    HW2 8598   2.481   6.626   5.015
 2567SOL     OW 8599   1.218   0.623   0.609
 2567SOL    HW1 8600   1.156   0.645   0.684
 2567SOL    HW2 8601   1.166   0.589   0.531
 2568SOL     OW 8602   5.604   3.688   0.653
 2568SOL    HW1 8603   5.611   3.781   0.615
 2568SOL    HW2 8604   5.662   3.627   0.599
 2569SOL     OW 8605   2.225   0.909   2.258
 2569SOL    HW1 8606   2.192   0.896   2.164
 2569SOL    HW2 8607   2.301   0.974   2.258
 2570SOL     OW 8608   5.874   2.117   6.305
 2570SOL    HW1 8609   5.839   2.056   6.377
 2570SOL    HW2 8610   5.964   2.084   6.275
 2571SOL     OW 8611   1.150   4.477   3.892
 2571SOL    HW1 8612   1.227   4.484   3.829
 2571SOL    HW2 8613   1.117   4.383   3.894
 2572SOL     OW 8614   1.369   5.128   3.380
 2572SOL    HW1 8615   1.329   5.044   3.416
 2572SOL    HW2 8616   1.382   5.194   3.454
 2573SOL     OW 8617   1.153   0.241   0.075
 2573SOL    HW1 8618   1.215   0.165   0.057
 2573SOL    HW2 8619   1.086   0.248   0.001
 2574SOL     OW 8620   6.784   3.574   0.984
 2574SOL    HW1 8621   6.867   3.528   1.015
 2574SOL    HW2 8622   6.704   3.529   1.023
 2575SOL     OW 8623   0.884   6.952   5.545
 2575SOL    HW1 8624   0.825   7.011   5.489
 2575SOL    HW2 8625   0.922   7.006   5.621
 2576SOL     OW 8626   4.290   6.390   6.053
 2576SOL    HW1 8627   4.243   6.446   6.122
 2576SOL    HW2 8628   4.234   6.310   6.032
 2577SOL     OW 8629   1.715   3.381   2.664
 2577SOL    HW1 8630   1.634   3.399   2.719
 2577SOL    HW2 8631   1.785   3.450   2.685
 2578SOL     OW 8632   4.180   1.758   2.013
 2578SOL    HW1 8633   4.129   1.755   1.927
 2578SOL    HW2 8634   4.170   1.670   2.061
 2579SOL     OW 8635   0.458   6.197   2.689
 2579SOL    HW1 8636   0.412   6.126   2.743
 2579SOL    HW2 8637   0.429   6.287   2.720
 2580SOL     OW 8638   3.164   2.053   5.564
 2580SOL    HW1 8639   3.087   2.116   5.567
 2580SOL    HW2 8640   3.147   1.983   5.494
 2581SOL     OW 8641   3.046   0.210   5.763
 2581SOL    HW1 8642   3.056   0.180   5.858
 2581SOL    HW2 8643   2.949   0.222   5.742
 2582SOL     OW 8644   0.205   3.820   0.733
 2582SOL    HW1 8645   0.162   3.846   0.820
 2582SOL    HW2 8646   0.302   3.842   0.736
 2583SOL     OW 8647   5.571   0.956   0.986
 2583SOL    HW1 8648   5.557   0.860   1.014
 2583SOL    HW2 8649   5.618   0.958   0.898
 2584SOL     OW 8650   3.228   4.479   6.629
 2584SOL    HW1 8651   3.301   4.413   6.614
 2584SOL    HW2 8652   3.267   4.567   6.656
 2585SOL     OW 8653   2.268   5.442   0.020
 2585SOL    HW1 8654   2.316   5.366   0.066
 2585SOL    HW2 8655   2.290   5.528   0.066
 2586SOL     OW 8656   2.003   1.396   3.008
 2586SOL    HW1 8657   1.997   1.299   3.031
 2586SOL    HW2 8658   1.911   1.432   2.990
 2587SOL     OW 8659   5.947   1.208   4.160
 2587SOL    HW1 8660   5.998   1.124   4.181
 2587SOL    HW2 8661   5.852   1.197   4.191
 2588SOL     OW 8662   4.746   1.574   6.501
 2588SOL    HW1 8663   4.806   1.604   6.427
 2588SOL    HW2 8664   4.784   1.490   6.542
 2589SOL     OW 8665   1.640   6.001   0.568
 2589SOL    HW1 8666   1.632   5.902   0.579
 2589SOL    HW2 8667   1.734   6.024   0.542
 2590SOL     OW 8668   2.688   5.210   0.717
 2590SOL    HW1 8669   2.599   5.219   0.672
 2590SOL    HW2 8670   2.682   5.243   0.811
 2591SOL     OW 8671   5.188   6.510   3.359
 2591SOL    HW1 8672   5.184   6.473   3.451
 2591SOL    HW2 8673   5.282   6.513   3.327
 2592SOL     OW 8674   3.679   3.526   0.697
 2592SOL    HW1 8675   3.636   3.615   0.681
 2592SOL    HW2 8676   3.759   3.537   0.756
 2593SOL     OW 8677   2.743   4.736   6.456
 2593SOL    HW1 8678   2.821   4.781   6.412
 2593SOL    HW2 8679   2.758   4.637   6.458
 2594SOL     OW 8680   2.272   2.818   3.439
 2594SOL    HW1 8681   2.321   2.815   3.352
 2594SOL    HW2 8682   2.310   2.750   3.501
 2595SOL     OW 8683   1.653   1.116   2.727
 2595SOL    HW1 8684   1.593   1.120   2.647
 2595SOL    HW2 8685   1.650   1.204   2.775
 2596SOL     OW 8686   6.949   1.125   0.852
 2596SOL    HW1 8687   0.023   1.139   0.865
 2596SOL    HW2 8688   6.899   1.181   0.918
 2597SOL     OW 8689   6.408   6.129   0.520
 2597SOL    HW1 8690   6.431   6.197   0.451
 2597SOL    HW2 8691   6.421   6.037   0.482
 2598SOL     OW 8692   4.813   2.944   2.287
 2598SOL    HW1 8693   4.854   3.026   2.327
 2598SOL    HW2 8694   4.791   2.961   2.191
 2599SOL     OW 8695   2.151   5.689   1.830
 2599SOL    HW1 8696   2.102   5.635   1.899
 2599SOL    HW2 8697   2.228   5.736   1.874
 2600SOL     OW 8698   5.215   5.625   4.276
 2600SOL    HW1 8699   5.295   5.565   4.268
 2600SOL    HW2 8700   5.173   5.636   4.186
 2601SOL     OW 8701   6.961   0.803   3.981
 2601SOL    HW1 8702   6.885   0.849   4.028
 2601SOL    HW2 8703   6.940   0.797   3.883
 2602SOL     OW 8704   1.599   4.525   3.060
 2602SOL    HW1 8705   1.571   4.474   3.141
 2602SOL    HW2 8706   1.649   4.465   2.998
 2603SOL     OW 8707   1.335   5.838   1.508
 2603SOL    HW1 8708   1.421   5.846   1.558
 2603SOL    HW2 8709   1.345   5.771   1.434
 2604SOL     OW 8710   4.928   3.427   2.757
 2604SOL    HW1 8711   4.898   3.368   2.832
 2604SOL    HW2 8712   4.905   3.385   2.670
 2605SOL     OW 8713   1.845   2.600   0.982
 2605SOL    HW1 8714   1.837   2.690   1.024
 2605SOL    HW2 8715   1.874   2.609   0.887
 2606SOL     OW 8716   5.097   4.119   0.804
 2606SOL    HW1 8717   5.019   4.181   0.815
 2606SOL    HW2 8718   5.132   4.127   0.710
 2607SOL     OW 8719   2.550   2.987   1.620
 2607SOL    HW1 8720   2.513   3.073   1.656
 2607SOL    HW2 8721   2.514   2.911   1.675
 2608SOL     OW 8722   3.513   5.125   4.800
 2608SOL    HW1 8723   3.457   5.097   4.878
 2608SOL    HW2 8724   3.609   5.110   4.822
 2609SOL     OW 8725   0.499   1.613   1.430
 2609SOL    HW1 8726   0.407   1.575   1.422
 2609SOL    HW2 8727   0.513   1.679   1.355
 2610SOL     OW 8728   1.445   4.625   4.818
 2610SOL    HW1 8729   1.401   4.714   4.812
 2610SOL    HW2 8730   1.534   4.634   4.864
 2611SOL     OW 8731   5.330   1.960   5.572
 2611SOL    HW1 8732   5.384   1.882   5.603
 2611SOL    HW2 8733   5.360   2.043   5.620
 2612SOL     OW 8734   6.856   6.416   0.010
 2612SOL    HW1 8735   6.944   6.426   6.989
 2612SOL    HW2 8736   6.786   6.468   6.985
 2613SOL     OW 8737   2.161   0.145   0.650
 2613SOL    HW1 8738   2.223   0.212   0.690
 2613SOL    HW2 8739   2.073   0.147   0.699
 2614SOL     OW 8740   6.163   1.921   0.810
 2614SOL    HW1 8741   6.169   1.836   0.758
 2614SOL    HW2 8742   6.250   1.938   0.857
 2615SOL     OW 8743   1.193   3.330   6.954
 2615SOL    HW1 8744   1.229   3.261   7.017
 2615SOL    HW2 8745   1.165   3.286   6.869
 2616SOL     OW 8746   0.985   1.357   4.990
 2616SOL    HW1 8747   0.967   1.383   4.895
 2616SOL    HW2 8748   0.990   1.440   5.046
 2617SOL     OW 8749   5.897   0.269   0.048
 2617SOL    HW1 8750   5.935   0.355   0.082
 2617SOL    HW2 8751   5.799   0.280   0.033
 2618SOL     OW 8752   1.697   0.401   0.130
 2618SOL    HW1 8753   1.678   0.324   0.069
 2618SOL    HW2 8754   1.699   0.485   0.077
 2619SOL     OW 8755   4.550   1.052   2.818
 2619SOL    HW1 8756   4.571   1.086   2.909
 2619SOL    HW2 8757   4.554   1.127   2.753
 2620SOL     OW 8758   5.620   2.409   1.675
 2620SOL    HW1 8759   5.707   2.392   1.628
 2620SOL    HW2 8760   5.617   2.505   1.705
 2621SOL     OW 8761   2.666   6.360   0.950
 2621SOL    HW1 8762   2.765   6.368   0.963
 2621SOL    HW2 8763   2.648   6.295   0.876
 2622SOL     OW 8764   2.311   3.417   6.715
 2622SOL    HW1 8765   2.314   3.517   6.716
 2622SOL    HW2 8766   2.220   3.386   6.742
 2623SOL     OW 8767   0.527   1.569   3.656
 2623SOL    HW1 8768   0.543   1.617   3.743
 2623SOL    HW2 8769   0.510   1.473   3.674
 2624SOL     OW 8770   1.390   1.448   5.378
 2624SOL    HW1 8771   1.312   1.472   5.435
 2624SOL    HW2 8772   1.361   1.385   5.307
 2625SOL     OW 8773   2.782   5.125   6.000
 2625SOL    HW1 8774   2.684   5.124   6.022
 2625SOL    HW2 8775   2.817   5.218   6.012
 2626SOL     OW 8776   6.816   6.660   0.499
 2626SOL    HW1 8777   6.906   6.694   0.472
 2626SOL    HW2 8778   6.825   6.570   0.540
 2627SOL     OW 8779   2.429   0.236   6.130
 2627SOL    HW1 8780   2.507   0.270   6.182
 2627SOL    HW2 8781   2.345   0.251   6.182
 2628SOL     OW 8782   6.777   5.489   1.554
 2628SOL    HW1 8783   6.728   5.575   1.563
 2628SOL    HW2 8784   6.797   5.472   1.457
 2629SOL     OW 8785   3.513   3.551   2.896
 2629SOL    HW1 8786   3.426   3.599   2.914
 2629SOL    HW2 8787   3.494   3.455   2.877
 2630SOL     OW 8788   2.925   1.211   4.867
 2630SOL    HW1 8789   2.895   1.181   4.958
 2630SOL    HW2 8790   3.025   1.217   4.866
 2631SOL     OW 8791   5.119   5.835   0.646
 2631SOL    HW1 8792   5.099   5.897   0.571
 2631SOL    HW2 8793   5.196   5.870   0.699
 2632SOL     OW 8794   4.724   5.143   1.853
 2632SOL    HW1 8795   4.745   5.062   1.799
 2632SOL    HW2 8796   4.651   5.122   1.918
 2633SOL     OW 8797   6.606   3.097   5.970
 2633SOL    HW1 8798   6.576   3.001   5.961
 2633SOL    HW2 8799   6.696   3.107   5.928
 2634SOL     OW 8800   2.038   2.029   6.297
 2634SOL    HW1 8801   2.039   1.958   6.368
 2634SOL    HW2 8802   2.015   2.117   6.338
 2635SOL     OW 8803   3.803   5.630   2.921
 2635SOL    HW1 8804   3.830   5.560   2.854
 2635SOL    HW2 8805   3.874   5.636   2.991
 2636SOL     OW 8806   3.238   6.846   5.888
 2636SOL    HW1 8807   3.294   6.764   5.871
 2636SOL    HW2 8808   3.227   6.896   5.803
 2637SOL     OW 8809   6.809   0.980   2.963
 2637SOL    HW1 8810   6.777   1.031   2.883
 2637SOL    HW2 8811   6.761   0.892   2.968
 2638SOL     OW 8812   0.869   6.232   5.057
 2638SOL    HW1 8813   0.859   6.301   5.129
 2638SOL    HW2 8814   0.912   6.150   5.094
 2639SOL     OW 8815   4.994   5.369   4.791
 2639SOL    HW1 8816   5.039   5.458   4.781
 2639SOL    HW2 8817   4.986   5.325   4.702
 2640SOL     OW 8818   2.182   0.974   3.117
 2640SOL    HW1 8819   2.090   1.012   3.104
 2640SOL    HW2 8820   2.195   0.897   3.055
 2641SOL     OW 8821   5.576   2.284   0.567
 2641SOL    HW1 8822   5.606   2.189   0.555
 2641SOL    HW2 8823   5.477   2.286   0.575
 2642SOL     OW 8824   0.117   0.653   3.029
 2642SOL    HW1 8825   0.091   0.750   3.030
 2642SOL    HW2 8826   0.184   0.636   3.101
 2643SOL     OW 8827   1.935   4.414   4.322
 2643SOL    HW1 8828   1.947   4.423   4.421
 2643SOL    HW2 8829   1.856   4.468   4.293
 2644SOL     OW 8830   5.468   5.359   3.295
 2644SOL    HW1 8831   5.516   5.306   3.365
 2644SOL    HW2 8832   5.388   5.309   3.264
 2645SOL     OW 8833   4.622   5.144   2.628
 2645SOL    HW1 8834   4.536   5.196   2.627
 2645SOL    HW2 8835   4.666   5.154   2.717
 2646SOL     OW 8836   1.100   1.481   6.669
 2646SOL    HW1 8837   1.144   1.500   6.582
 2646SOL    HW2 8838   1.012   1.436   6.653
 2647SOL     OW 8839   4.453   0.184   3.313
 2647SOL    HW1 8840   4.492   0.213   3.400
 2647SOL    HW2 8841   4.354   0.202   3.313
 2648SOL     OW 8842   2.332   0.547   5.879
 2648SOL    HW1 8843   2.385   0.616   5.928
 2648SOL    HW2 8844   2.282   0.490   5.944
 2649SOL     OW 8845   5.850   1.891   3.693
 2649SOL    HW1 8846   5.814   1.946   3.768
 2649SOL    HW2 8847   5.946   1.916   3.677
 2650SOL     OW 8848   1.620   6.769   4.319
 2650SOL    HW1 8849   1.697   6.738   4.263
 2650SOL    HW2 8850   1.537   6.722   4.289
 2651SOL     OW 8851   3.406   2.115   2.781
 2651SOL    HW1 8852   3.419   2.096   2.683
 2651SOL    HW2 8853   3.493   2.104   2.828
 2652SOL     OW 8854   4.566   3.369   6.146
 2652SOL    HW1 8855   4.612   3.440   6.201
 2652SOL    HW2 8856   4.476   3.350   6.185
 2653SOL     OW 8857   2.286   6.892   0.252
 2653SOL    HW1 8858   2.259   6.874   0.347
 2653SOL    HW2 8859   2.341   6.975   0.248
 2654SOL     OW 8860   6.610   0.287   1.089
 2654SOL    HW1 8861   6.624   0.385   1.103
 2654SOL    HW2 8862   6.670   0.255   1.015
 2655SOL     OW 8863   5.098   6.868   3.849
 2655SOL    HW1 8864   5.092   6.964   3.874
 2655SOL    HW2 8865   5.193   6.837   3.854
 2656SOL     OW 8866   4.612   0.048   4.990
 2656SOL    HW1 8867   4.686   0.092   5.041
 2656SOL    HW2 8868   4.630   0.057   4.892
 2657SOL     OW 8869   1.668   3.444   5.540
 2657SOL    HW1 8870   1.680   3.486   5.450
 2657SOL    HW2 8871   1.733   3.369   5.551
 2658SOL     OW 8872   3.612   4.337   0.818
 2658SOL    HW1 8873   3.643   4.278   0.893
 2658SOL    HW2 8874   3.514   4.354   0.828
 2659SOL     OW 8875   0.545   2.121   5.723
 2659SOL    HW1 8876   0.612   2.054   5.755
 2659SOL    HW2 8877   0.580   2.167   5.642
 2660SOL     OW 8878   1.145   1.622   0.602
 2660SOL    HW1 8879   1.113   1.716   0.593
 2660SOL    HW2 8880   1.188   1.593   0.516
 2661SOL     OW 8881   1.994   1.116   1.576
 2661SOL    HW1 8882   1.956   1.057   1.648
 2661SOL    HW2 8883   1.934   1.114   1.496
 2662SOL     OW 8884   2.568   1.309   1.678
 2662SOL    HW1 8885   2.508   1.235   1.647
 2662SOL    HW2 8886   2.648   1.314   1.619
 2663SOL     OW 8887   3.934   0.352   0.997
 2663SOL    HW1 8888   4.000   0.281   1.022
 2663SOL    HW2 8889   3.848   0.309   0.971
 2664SOL     OW 8890   5.047   3.251   5.877
 2664SOL    HW1 8891   4.947   3.244   5.884
 2664SOL    HW2 8892   5.074   3.233   5.782
 2665SOL     OW 8893   0.952   3.757   4.458
 2665SOL    HW1 8894   0.880   3.789   4.397
 2665SOL    HW2 8895   0.995   3.676   4.419
 2666SOL     OW 8896   1.880   3.788   1.718
 2666SOL    HW1 8897   1.826   3.857   1.768
 2666SOL    HW2 8898   1.967   3.828   1.690
 2667SOL     OW 8899   6.359   2.396   4.789
 2667SOL    HW1 8900   6.346   2.445   4.703
 2667SOL    HW2 8901   6.318   2.449   4.864
 2668SOL     OW 8902   5.941   0.615   4.088
 2668SOL    HW1 8903   5.906   0.523   4.072
 2668SOL    HW2 8904   5.865   0.680   4.092
 2669SOL     OW 8905   2.592   1.707   1.800
 2669SOL    HW1 8906   2.553   1.656   1.723
 2669SOL    HW2 8907   2.587   1.805   1.781
 2670SOL     OW 8908   0.320   6.955   1.079
 2670SOL    HW1 8909   0.397   6.892   1.085
 2670SOL    HW2 8910   0.327   7.023   1.153
 2671SOL     OW 8911   5.210   4.006   6.513
 2671SOL    HW1 8912   5.111   3.988   6.513
 2671SOL    HW2 8913   5.257   3.935   6.564
 2672SOL     OW 8914   1.666   1.295   2.088
 2672SOL    HW1 8915   1.681   1.198   2.067
 2672SOL    HW2 8916   1.643   1.344   2.004
 2673SOL     OW 8917   3.147   0.958   3.067
 2673SOL    HW1 8918   3.217   0.953   2.995
 2673SOL    HW2 8919   3.108   1.050   3.069
 2674SOL     OW 8920   5.687   5.778   3.188
 2674SOL    HW1 8921   5.630   5.811   3.113
 2674SOL    HW2 8922   5.634   5.778   3.273
 2675SOL     OW 8923   4.740   0.986   4.175
 2675SOL    HW1 8924   4.679   1.053   4.216
 2675SOL    HW2 8925   4.693   0.940   4.100
 2676SOL     OW 8926   4.105   3.759   5.479
 2676SOL    HW1 8927   4.019   3.809   5.490
 2676SOL    HW2 8928   4.127   3.753   5.382
 2677SOL     OW 8929   1.594   5.738   1.429
 2677SOL    HW1 8930   1.539   5.732   1.346
 2677SOL    HW2 8931   1.691   5.737   1.405
 2678SOL     OW 8932   3.522   2.012   1.909
 2678SOL    HW1 8933   3.566   2.085   1.961
 2678SOL    HW2 8934   3.570   1.926   1.923
 2679SOL     OW 8935   2.183   3.986   2.765
 2679SOL    HW1 8936   2.158   3.915   2.699
 2679SOL    HW2 8937   2.203   4.071   2.717
 2680SOL     OW 8938   6.185   1.901   6.552
 2680SOL    HW1 8939   6.154   1.949   6.470
 2680SOL    HW2 8940   6.214   1.809   6.528
 2681SOL     OW 8941   2.370   2.737   3.171
 2681SOL    HW1 8942   2.410   2.661   3.222
 2681SOL    HW2 8943   2.330   2.703   3.086
 2682SOL     OW 8944   3.419   4.124   2.320
 2682SOL    HW1 8945   3.379   4.100   2.409
 2682SOL    HW2 8946   3.446   4.220   2.321
 2683SOL     OW 8947   1.713   3.005   0.957
 2683SOL    HW1 8948   1.643   2.955   1.006
 2683SOL    HW2 8949   1.692   3.103   0.959
 2684SOL     OW 8950   5.497   0.007   3.967
 2684SOL    HW1 8951   5.515   0.004   3.869
 2684SOL    HW2 8952   5.576   6.995   4.016
 2685SOL     OW 8953   1.838   6.887   6.342
 2685SOL    HW1 8954   1.867   6.810   6.284
 2685SOL    HW2 8955   1.851   6.863   6.438
 2686SOL     OW 8956   2.668   2.231   5.768
 2686SOL    HW1 8957   2.673   2.263   5.673
 2686SOL    HW2 8958   2.696   2.305   5.829
 2687SOL     OW 8959   3.611   2.563   1.774
 2687SOL    HW1 8960   3.634   2.635   1.839
 2687SOL    HW2 8961   3.641   2.474   1.809
 2688SOL     OW 8962   4.668   2.264   0.368
 2688SOL    HW1 8963   4.746   2.326   0.360
 2688SOL    HW2 8964   4.587   2.305   0.326
 2689SOL     OW 8965   0.258   4.221   1.989
 2689SOL    HW1 8966   0.262   4.148   2.057
 2689SOL    HW2 8967   0.343   4.221   1.935
 2690SOL     OW 8968   5.310   1.169   4.259
 2690SOL    HW1 8969   5.395   1.184   4.309
 2690SOL    HW2 8970   5.263   1.089   4.297
 2691SOL     OW 8971   5.190   3.591   3.974
 2691SOL    HW1 8972   5.286   3.612   3.995
 2691SOL    HW2 8973   5.150   3.540   4.050
 2692SOL     OW 8974   1.348   5.613   0.895
 2692SOL    HW1 8975   1.377   5.697   0.940
 2692SOL    HW2 8976   1.419   5.583   0.832
 2693SOL     OW 8977   0.950   6.041   2.726
 2693SOL    HW1 8978   0.900   6.118   2.687
 2693SOL    HW2 8979   0.971   5.975   2.654
 2694SOL     OW 8980   2.248   0.754   2.978
 2694SOL    HW1 8981   2.304   0.681   3.018
 2694SOL    HW2 8982   2.270   0.764   2.881
 2695SOL     OW 8983   6.757   6.110   3.198
 2695SOL    HW1 8984   6.750   6.043   3.273
 2695SOL    HW2 8985   6.787   6.063   3.115
 2696SOL     OW 8986   3.469   4.544   6.092
 2696SOL    HW1 8987   3.428   4.633   6.112
 2696SOL    HW2 8988   3.423   4.504   6.012
 2697SOL     OW 8989   4.770   2.756   0.457
 2697SOL    HW1 8990   4.870   2.764   0.464
 2697SOL    HW2 8991   4.727   2.833   0.503
 2698SOL     OW 8992   2.092   5.579   0.303
 2698SOL    HW1 8993   2.126   5.668   0.334
 2698SOL    HW2 8994   2.164   5.510   0.313
 2699SOL     OW 8995   3.160   0.004   2.831
 2699SOL    HW1 8996   3.166   6.942   2.880
 2699SOL    HW2 8997   3.090   7.021   2.759
 2700SOL     OW 8998   4.907   2.179   0.906
 2700SOL    HW1 8999   4.910   2.278   0.919
 2700SOL    HW2 9000   4.824   2.142   0.948
 2701SOL     OW 9001   5.093   4.227   5.352
 2701SOL    HW1 9002   5.021   4.219   5.421
 2701SOL    HW2 9003   5.062   4.184   5.267
 2702SOL     OW 9004   1.368   1.939   5.428
 2702SOL    HW1 9005   1.421   1.993   5.363
 2702SOL    HW2 9006   1.321   1.866   5.380
 2703SOL     OW 9007   2.325   6.033   1.798
 2703SOL    HW1 9008   2.364   5.948   1.762
 2703SOL    HW2 9009   2.392   6.076   1.859
 2704SOL     OW 9010   4.474   0.760   3.577
 2704SOL    HW1 9011   4.471   0.859   3.574
 2704SOL    HW2 9012   4.490   0.730   3.672
 2705SOL     OW 9013   1.229   0.342   5.806
 2705SOL    HW1 9014   1.134   0.365   5.782
 2705SOL    HW2 9015   1.259   0.401   5.881
 2706SOL     OW 9016   0.825   4.718   4.557
 2706SOL    HW1 9017   0.859   4.680   4.471
 2706SOL    HW2 9018   0.737   4.676   4.579
 2707SOL     OW 9019   4.189   0.935   3.059
 2707SOL    HW1 9020   4.109   0.877   3.052
 2707SOL    HW2 9021   4.226   0.931   3.152
 2708SOL     OW 9022   5.473   3.183   5.503
 2708SOL    HW1 9023   5.446   3.279   5.511
 2708SOL    HW2 9024   5.420   3.140   5.430
 2709SOL     OW 9025   4.835   1.445   5.399
 2709SOL    HW1 9026   4.763   1.487   5.455
 2709SOL    HW2 9027   4.902   1.515   5.373
 2710SOL     OW 9028   1.047   3.173   3.924
 2710SOL    HW1 9029   1.037   3.088   3.975
 2710SOL    HW2 9030   1.143   3.187   3.901
 2711SOL     OW 9031   4.612   1.074   1.422
 2711SOL    HW1 9032   4.576   1.089   1.329
 2711SOL    HW2 9033   4.569   0.992   1.460
 2712SOL     OW 9034   5.018   6.153   1.556
 2712SOL    HW1 9035   5.043   6.164   1.460
 2712SOL    HW2 9036   4.919   6.166   1.566
 2713SOL     OW 9037   3.782   4.650   5.562
 2713SOL    HW1 9038   3.824   4.692   5.481
 2713SOL    HW2 9039   3.816   4.695   5.644
 2714SOL     OW 9040   2.963   4.014   5.995
 2714SOL    HW1 9041   2.922   3.999   6.085
 2714SOL    HW2 9042   3.044   4.071   6.005
 2715SOL     OW 9043   4.549   6.639   0.180
 2715SOL    HW1 9044   4.635   6.646   0.230
 2715SOL    HW2 9045   4.520   6.730   0.150
 2716SOL     OW 9046   4.591   1.077   2.312
 2716SOL    HW1 9047   4.670   1.134   2.335
 2716SOL    HW2 9048   4.607   0.984   2.346
 2717SOL     OW 9049   0.508   1.363   2.183
 2717SOL    HW1 9050   0.469   1.294   2.121
 2717SOL    HW2 9051   0.601   1.337   2.207
 2718SOL     OW 9052   6.198   1.112   6.030
 2718SOL    HW1 9053   6.291   1.108   5.993
 2718SOL    HW2 9054   6.199   1.075   6.124
 2719SOL     OW 9055   0.894   4.561   3.848
 2719SOL    HW1 9056   0.852   4.650   3.869
 2719SOL    HW2 9057   0.986   4.559   3.886
 2720SOL     OW 9058   2.299   5.327   6.193
 2720SOL    HW1 9059   2.301   5.363   6.100
 2720SOL    HW2 9060   2.375   5.263   6.205
 2721SOL     OW 9061   2.607   5.787   3.533
 2721SOL    HW1 9062   2.620   5.885   3.522
 2721SOL    HW2 9063   2.509   5.765   3.528
 2722SOL     OW 9064   3.278   4.217   6.929
 2722SOL    HW1 9065   3.247   4.132   6.971
 2722SOL    HW2 9066   3.231   4.295   6.972
 2723SOL     OW 9067   4.714   4.901   0.326
 2723SOL    HW1 9068   4.763   4.972   0.377
 2723SOL    HW2 9069   4.718   4.921   0.228
 2724SOL     OW 9070   0.062   5.984   1.147
 2724SOL    HW1 9071   0.023   6.064   1.192
 2724SOL    HW2 9072   0.006   5.960   1.067
 2725SOL     OW 9073   5.779   4.028   2.821
 2725SOL    HW1 9074   5.714   4.058   2.751
 2725SOL    HW2 9075   5.774   4.089   2.900
 2726SOL     OW 9076   6.424   2.583   2.102
 2726SOL    HW1 9077   6.387   2.622   2.187
 2726SOL    HW2 9078   6.405   2.485   2.099
 2727SOL     OW 9079   1.560   4.599   3.870
 2727SOL    HW1 9080   1.606   4.665   3.809
 2727SOL    HW2 9081   1.525   4.648   3.950
 2728SOL     OW 9082   4.648   4.778   6.455
 2728SOL    HW1 9083   4.596   4.779   6.541
 2728SOL    HW2 9084   4.589   4.746   6.381
 2729SOL     OW 9085   0.357   0.073   0.787
 2729SOL    HW1 9086   0.322   0.165   0.804
 2729SOL    HW2 9087   0.314   0.008   0.850
 2730SOL     OW 9088   1.302   5.052   2.824
 2730SOL    HW1 9089   1.267   5.094   2.907
 2730SOL    HW2 9090   1.265   5.100   2.744
 2731SOL     OW 9091   4.213   3.494   5.559
 2731SOL    HW1 9092   4.181   3.586   5.540
 2731SOL    HW2 9093   4.193   3.435   5.481
 2732SOL     OW 9094   4.322   1.086   2.436
 2732SOL    HW1 9095   4.266   1.167   2.418
 2732SOL    HW2 9096   4.413   1.099   2.398
 2733SOL     OW 9097   0.846   0.234   0.619
 2733SOL    HW1 9098   0.830   0.220   0.717
 2733SOL    HW2 9099   0.863   0.145   0.576
 2734SOL     OW 9100   3.611   0.290   1.933
 2734SOL    HW1 9101   3.697   0.248   1.961
 2734SOL    HW2 9102   3.616   0.389   1.949
 2735SOL     OW 9103   0.831   2.574   2.895
 2735SOL    HW1 9104   0.772   2.519   2.836
 2735SOL    HW2 9105   0.777   2.644   2.941
 2736SOL     OW 9106   5.327   4.472   2.839
 2736SOL    HW1 9107   5.328   4.387   2.892
 2736SOL    HW2 9108   5.399   4.532   2.872
 2737SOL     OW 9109   2.831   0.459   6.483
 2737SOL    HW1 9110   2.743   0.490   6.446
 2737SOL    HW2 9111   2.832   0.476   6.582
 2738SOL     OW 9112   5.376   5.898   1.302
 2738SOL    HW1 9113   5.408   5.915   1.209
 2738SOL    HW2 9114   5.433   5.948   1.367
 2739SOL     OW 9115   0.455   5.231   1.758
 2739SOL    HW1 9116   0.410   5.219   1.846
 2739SOL    HW2 9117   0.395   5.282   1.696
 2740SOL     OW 9118   6.682   5.940   5.152
 2740SOL    HW1 9119   6.600   5.994   5.174
 2740SOL    HW2 9120   6.655   5.854   5.108
 2741SOL     OW 9121   0.099   6.869   6.986
 2741SOL    HW1 9122   0.021   6.843   0.018
 2741SOL    HW2 9123   0.162   6.792   6.978
 2742SOL     OW 9124   2.900   5.031   1.640
 2742SOL    HW1 9125   2.870   4.963   1.707
 2742SOL    HW2 9126   2.841   5.028   1.560
 2743SOL     OW 9127   5.771   2.052   3.185
 2743SOL    HW1 9128   5.796   2.065   3.281
 2743SOL    HW2 9129   5.786   1.957   3.159
 2744SOL     OW 9130   3.236   3.296   2.972
 2744SOL    HW1 9131   3.209   3.390   2.990
 2744SOL    HW2 9132   3.154   3.240   2.959
 2745SOL     OW 9133   0.848   6.170   6.796
 2745SOL    HW1 9134   0.868   6.268   6.799
 2745SOL    HW2 9135   0.931   6.118   6.814
 2746SOL     OW 9136   1.561   0.855   4.310
 2746SOL    HW1 9137   1.629   0.817   4.247
 2746SOL    HW2 9138   1.522   0.938   4.270
 2747SOL     OW 9139   5.252   4.923   0.316
 2747SOL    HW1 9140   5.242   4.943   0.218
 2747SOL    HW2 9141   5.162   4.921   0.359
 2748SOL     OW 9142   4.428   0.120   0.390
 2748SOL    HW1 9143   4.353   0.174   0.353
 2748SOL    HW2 9144   4.416   0.108   0.488
 2749SOL     OW 9145   4.270   0.593   0.355
 2749SOL    HW1 9146   4.243   0.623   0.446
 2749SOL    HW2 9147   4.221   0.647   0.286
 2750SOL     OW 9148   1.874   6.245   1.791
 2750SOL    HW1 9149   1.836   6.273   1.879
 2750SOL    HW2 9150   1.949   6.180   1.806
 2751SOL     OW 9151   6.201   5.355   1.929
 2751SOL    HW1 9152   6.203   5.357   1.829
 2751SOL    HW2 9153   6.117   5.311   1.960
 2752SOL     OW 9154   4.142   5.338   6.470
 2752SOL    HW1 9155   4.205   5.407   6.506
 2752SOL    HW2 9156   4.131   5.265   6.538
 2753SOL     OW 9157   4.230   4.981   5.790
 2753SOL    HW1 9158   4.319   5.015   5.760
 2753SOL    HW2 9159   4.244   4.909   5.858
 2754SOL     OW 9160   0.781   0.814   4.407
 2754SOL    HW1 9161   0.765   0.891   4.345
 2754SOL    HW2 9162   0.827   0.846   4.489
 2755SOL     OW 9163   3.885   0.176   2.451
 2755SOL    HW1 9164   3.857   0.270   2.472
 2755SOL    HW2 9165   3.818   0.113   2.490
 2756SOL     OW 9166   4.592   5.593   6.237
 2756SOL    HW1 9167   4.616   5.498   6.255
 2756SOL    HW2 9168   4.497   5.609   6.264
 2757SOL     OW 9169   1.100   4.434   0.367
 2757SOL    HW1 9170   1.072   4.347   0.327
 2757SOL    HW2 9171   1.022   4.497   0.368
 2758SOL     OW 9172   5.209   0.275   5.842
 2758SOL    HW1 9173   5.130   0.284   5.781
 2758SOL    HW2 9174   5.273   0.350   5.825
 2759SOL     OW 9175   4.667   4.931   3.124
 2759SOL    HW1 9176   4.718   5.016   3.110
 2759SOL    HW2 9177   4.603   4.918   3.048
 2760SOL     OW 9178   0.517   6.375   3.401
 2760SOL    HW1 9179   0.530   6.290   3.453
 2760SOL    HW2 9180   0.588   6.440   3.426
 2761SOL     OW 9181   2.674   4.859   5.072
 2761SOL    HW1 9182   2.735   4.781   5.058
 2761SOL    HW2 9183   2.625   4.848   5.158
 2762SOL     OW 9184   1.800   2.113   5.719
 2762SOL    HW1 9185   1.726   2.180   5.732
 2762SOL    HW2 9186   1.826   2.075   5.808
 2763SOL     OW 9187   5.571   0.328   2.159
 2763SOL    HW1 9188   5.625   0.343   2.241
 2763SOL    HW2 9189   5.623   0.359   2.079
 2764SOL     OW 9190   6.354   0.537   1.802
 2764SOL    HW1 9191   6.270   0.573   1.761
 2764SOL    HW2 9192   6.350   0.545   1.901
 2765SOL     OW 9193   5.399   1.776   3.598
 2765SOL    HW1 9194   5.409   1.764   3.499
 2765SOL    HW2 9195   5.365   1.692   3.639
 2766SOL     OW 9196   5.376   6.373   2.592
 2766SOL    HW1 9197   5.338   6.335   2.508
 2766SOL    HW2 9198   5.430   6.455   2.569
 2767SOL     OW 9199   6.723   3.993   5.485
 2767SOL    HW1 9200   6.797   4.047   5.445
 2767SOL    HW2 9201   6.638   4.047   5.484
 2768SOL     OW 9202   5.234   0.553   6.160
 2768SOL    HW1 9203   5.283   0.466   6.170
 2768SOL    HW2 9204   5.142   0.537   6.126
 2769SOL     OW 9205   1.422   3.977   1.448
 2769SOL    HW1 9206   1.322   3.970   1.446
 2769SOL    HW2 9207   1.452   4.046   1.381
 2770SOL     OW 9208   4.551   6.103   2.309
 2770SOL    HW1 9209   4.563   6.021   2.364
 2770SOL    HW2 9210   4.641   6.143   2.288
 2771SOL     OW 9211   4.483   0.870   1.541
 2771SOL    HW1 9212   4.529   0.782   1.531
 2771SOL    HW2 9213   4.386   0.854   1.560
 2772SOL     OW 9214   3.618   1.046   0.399
 2772SOL    HW1 9215   3.615   1.113   0.324
 2772SOL    HW2 9216   3.546   0.978   0.386
 2773SOL     OW 9217   3.426   5.099   1.478
 2773SOL    HW1 9218   3.473   5.138   1.399
 2773SOL    HW2 9219   3.379   5.015   1.451
 2774SOL     OW 9220   5.093   2.875   2.065
 2774SOL    HW1 9221   5.004   2.835   2.042
 2774SOL    HW2 9222   5.083   2.936   2.143
 2775SOL     OW 9223   0.582   0.188   2.312
 2775SOL    HW1 9224   0.596   0.134   2.395
 2775SOL    HW2 9225   0.606   0.133   2.232
 2776SOL     OW 9226   2.926   5.876   7.024
 2776SOL    HW1 9227   3.007   5.827   0.030
 2776SOL    HW2 9228   2.904   5.949   0.064
 2777SOL     OW 9229   1.310   2.602   4.030
 2777SOL    HW1 9230   1.363   2.517   4.029
 2777SOL    HW2 9231   1.289   2.629   3.936
 2778SOL     OW 9232   3.292   2.186   5.315
 2778SOL    HW1 9233   3.269   2.266   5.260
 2778SOL    HW2 9234   3.216   2.121   5.313
 2779SOL     OW 9235   6.442   0.599   0.338
 2779SOL    HW1 9236   6.426   0.660   0.416
 2779SOL    HW2 9237   6.378   0.621   0.265
 2780SOL     OW 9238   3.393   6.269   6.366
 2780SOL    HW1 9239   3.486   6.297   6.388
 2780SOL    HW2 9240   3.391   6.170   6.353
 2781SOL     OW 9241   5.412   3.860   6.766
 2781SOL    HW1 9242   5.403   3.918   6.846
 2781SOL    HW2 9243   5.429   3.766   6.795
 2782SOL     OW 9244   3.218   0.527   5.866
 2782SOL    HW1 9245   3.169   0.515   5.779
 2782SOL    HW2 9246   3.162   0.492   5.941
 2783SOL     OW 9247   0.441   3.959   5.076
 2783SOL    HW1 9248   0.412   3.863   5.075
 2783SOL    HW2 9249   0.540   3.964   5.085
 2784SOL     OW 9250   2.850   1.742   1.512
 2784SOL    HW1 9251   2.864   1.813   1.580
 2784SOL    HW2 9252   2.795   1.778   1.437
 2785SOL     OW 9253   5.551   2.549   2.290
 2785SOL    HW1 9254   5.515   2.594   2.372
 2785SOL    HW2 9255   5.650   2.557   2.288
 2786SOL     OW 9256   3.720   0.530   1.366
 2786SOL    HW1 9257   3.812   0.553   1.397
 2786SOL    HW2 9258   3.717   0.528   1.266
 2787SOL     OW 9259   1.693   4.387   5.987
 2787SOL    HW1 9260   1.692   4.487   5.977
 2787SOL    HW2 9261   1.777   4.351   5.947
 2788SOL     OW 9262   1.581   2.510   0.580
 2788SOL    HW1 9263   1.507   2.488   0.644
 2788SOL    HW2 9264   1.625   2.595   0.609
 2789SOL     OW 9265   6.853   3.239   3.239
 2789SOL    HW1 9266   6.889   3.262   3.149
 2789SOL    HW2 9267   6.827   3.143   3.241
 2790SOL     OW 9268   3.146   6.121   4.640
 2790SOL    HW1 9269   3.155   6.086   4.734
 2790SOL    HW2 9270   3.050   6.116   4.613
 2791SOL     OW 9271   2.127   3.375   2.404
 2791SOL    HW1 9272   2.093   3.452   2.350
 2791SOL    HW2 9273   2.225   3.362   2.385
 2792SOL     OW 9274   0.195   1.759   6.125
 2792SOL    HW1 9275   0.278   1.757   6.069
 2792SOL    HW2 9276   0.218   1.796   6.216
 2793SOL     OW 9277   5.067   0.587   4.840
 2793SOL    HW1 9278   4.985   0.617   4.790
 2793SOL    HW2 9279   5.109   0.510   4.792
 2794SOL     OW 9280   1.167   1.424   2.182
 2794SOL    HW1 9281   1.139   1.419   2.278
 2794SOL    HW2 9282   1.267   1.428   2.176
 2795SOL     OW 9283   0.955   3.655   0.755
 2795SOL    HW1 9284   1.022   3.634   0.684
 2795SOL    HW2 9285   0.865   3.663   0.714
 2796SOL     OW 9286   4.112   5.080   2.074
 2796SOL    HW1 9287   4.018   5.114   2.080
 2796SOL    HW2 9288   4.115   4.984   2.101
 2797SOL     OW 9289   4.994   4.474   5.031
 2797SOL    HW1 9290   4.924   4.469   5.101
 2797SOL    HW2 9291   5.085   4.471   5.074
 2798SOL     OW 9292   2.087   3.568   3.235
 2798SOL    HW1 9293   2.080   3.571   3.135
 2798SOL    HW2 9294   2.125   3.479   3.262
 2799SOL     OW 9295   6.769   5.438   6.226
 2799SOL    HW1 9296   6.857   5.447   6.272
 2799SOL    HW2 9297   6.696   5.439   6.294
 2800SOL     OW 9298   2.707   0.737   6.567
 2800SOL    HW1 9299   2.728   0.771   6.658
 2800SOL    HW2 9300   2.767   0.782   6.500
 2801SOL     OW 9301   3.811   5.336   1.856
 2801SOL    HW1 9302   3.911   5.337   1.861
 2801SOL    HW2 9303   3.782   5.366   1.766
 2802SOL     OW 9304   6.466   0.240   6.479
 2802SOL    HW1 9305   6.537   0.170   6.488
 2802SOL    HW2 9306   6.402   0.233   6.555
 2803SOL     OW 9307   2.506   5.900   4.774
 2803SOL    HW1 9308   2.448   5.823   4.746
 2803SOL    HW2 9309   2.588   5.902   4.717
 2804SOL     OW 9310   0.552   5.166   2.525
 2804SOL    HW1 9311   0.530   5.124   2.437
 2804SOL    HW2 9312   0.650   5.154   2.544
 2805SOL     OW 9313   6.655   4.209   6.526
 2805SOL    HW1 9314   6.566   4.240   6.558
 2805SOL    HW2 9315   6.714   4.289   6.510
 2806SOL     OW 9316   5.818   4.558   2.886
 2806SOL    HW1 9317   5.862   4.555   2.797
 2806SOL    HW2 9318   5.720   4.544   2.875
 2807SOL     OW 9319   3.814   4.947   3.662
 2807SOL    HW1 9320   3.816   5.008   3.583
 2807SOL    HW2 9321   3.895   4.888   3.660
 2808SOL     OW 9322   4.842   6.978   4.347
 2808SOL    HW1 9323   4.795   6.929   4.420
 2808SOL    HW2 9324   4.873   0.043   4.381
 2809SOL     OW 9325   5.148   1.938   0.416
 2809SOL    HW1 9326   5.055   1.974   0.413
 2809SOL    HW2 9327   5.154   1.867   0.487
 2810SOL     OW 9328   2.464   1.121   6.209
 2810SOL    HW1 9329   2.370   1.140   6.180
 2810SOL    HW2 9330   2.464   1.091   6.304
 2811SOL     OW 9331   0.199   0.417   4.098
 2811SOL    HW1 9332   0.176   0.471   4.179
 2811SOL    HW2 9333   0.235   0.328   4.127
 2812SOL     OW 9334   4.709   4.589   3.011
 2812SOL    HW1 9335   4.664   4.501   2.994
 2812SOL    HW2 9336   4.770   4.579   3.090
 2813SOL     OW 9337   6.127   1.782   5.739
 2813SOL    HW1 9338   6.188   1.777   5.819
 2813SOL    HW2 9339   6.042   1.829   5.765
 2814SOL     OW 9340   5.452   4.817   5.620
 2814SOL    HW1 9341   5.387   4.837   5.548
 2814SOL    HW2 9342   5.416   4.744   5.679
 2815SOL     OW 9343   1.621   1.122   4.065
 2815SOL    HW1 9344   1.625   1.058   3.988
 2815SOL    HW2 9345   1.713   1.139   4.099
 2816SOL     OW 9346   4.075   6.303   3.628
 2816SOL    HW1 9347   4.091   6.308   3.529
 2816SOL    HW2 9348   4.070   6.207   3.655
 2817SOL     OW 9349   1.389   1.092   1.106
 2817SOL    HW1 9350   1.366   1.038   1.188
 2817SOL    HW2 9351   1.472   1.145   1.124
 2818SOL     OW 9352   1.665   2.188   6.668
 2818SOL    HW1 9353   1.591   2.183   6.735
 2818SOL    HW2 9354   1.646   2.263   6.604
 2819SOL     OW 9355   6.461   3.622   2.088
 2819SOL    HW1 9356   6.388   3.578   2.035
 2819SOL    HW2 9357   6.442   3.610   2.185
 2820SOL     OW 9358   5.246   3.270   4.065
 2820SOL    HW1 9359   5.276   3.356   4.023
 2820SOL    HW2 9360   5.283   3.193   4.013
 2821SOL     OW 9361   1.502   3.448   2.813
 2821SOL    HW1 9362   1.526   3.420   2.906
 2821SOL    HW2 9363   1.409   3.418   2.792
 2822SOL     OW 9364   3.655   2.601   0.685
 2822SOL    HW1 9365   3.753   2.601   0.665
 2822SOL    HW2 9366   3.623   2.695   0.698
 2823SOL     OW 9367   1.129   0.580   4.476
 2823SOL    HW1 9368   1.168   0.498   4.432
 2823SOL    HW2 9369   1.169   0.662   4.435
 2824SOL     OW 9370   3.659   2.592   6.168
 2824SOL    HW1 9371   3.642   2.500   6.204
 2824SOL    HW2 9372   3.585   2.653   6.196
 2825SOL     OW 9373   5.732   5.879   1.105
 2825SOL    HW1 9374   5.810   5.868   1.167
 2825SOL    HW2 9375   5.762   5.917   1.018
 2826SOL     OW 9376   5.386   3.903   4.936
 2826SOL    HW1 9377   5.448   3.893   4.858
 2826SOL    HW2 9378   5.360   3.999   4.946
 2827SOL     OW 9379   0.054   0.024   6.075
 2827SOL    HW1 9380   0.013   6.987   6.143
 2827SOL    HW2 9381   0.151   0.036   6.095
 2828SOL     OW 9382   3.374   2.556   6.225
 2828SOL    HW1 9383   3.338   2.642   6.261
 2828SOL    HW2 9384   3.414   2.503   6.299
 2829SOL     OW 9385   2.949   1.372   6.944
 2829SOL    HW1 9386   2.978   1.353   6.850
 2829SOL    HW2 9387   2.911   1.288   6.984
 2830SOL     OW 9388   3.248   3.764   6.828
 2830SOL    HW1 9389   3.275   3.858   6.845
 2830SOL    HW2 9390   3.224   3.752   6.732
 2831SOL     OW 9391   6.353   6.353   4.302
 2831SOL    HW1 9392   6.377   6.331   4.397
 2831SOL    HW2 9393   6.254   6.355   4.293
 2832SOL     OW 9394   0.441   0.702   2.440
 2832SOL    HW1 9395   0.462   0.763   2.517
 2832SOL    HW2 9396   0.391   0.622   2.473
 2833SOL     OW 9397   5.490   3.128   2.844
 2833SOL    HW1 9398   5.513   3.083   2.757
 2833SOL    HW2 9399   5.393   3.115   2.864
 2834SOL     OW 9400   4.367   0.999   5.027
 2834SOL    HW1 9401   4.351   0.959   5.118
 2834SOL    HW2 9402   4.466   1.005   5.010
 2835SOL     OW 9403   6.117   6.332   3.166
 2835SOL    HW1 9404   6.200   6.386   3.180
 2835SOL    HW2 9405   6.142   6.241   3.132
 2836SOL     OW 9406   6.259   6.938   1.515
 2836SOL    HW1 9407   6.215   6.966   1.600
 2836SOL    HW2 9408   6.293   6.845   1.523
 2837SOL     OW 9409   6.157   2.270   3.807
 2837SOL    HW1 9410   6.121   2.296   3.718
 2837SOL    HW2 9411   6.087   2.284   3.877
 2838SOL     OW 9412   1.859   4.769   4.160
 2838SOL    HW1 9413   1.820   4.732   4.245
 2838SOL    HW2 9414   1.957   4.786   4.174
 2839SOL     OW 9415   5.472   2.998   1.096
 2839SOL    HW1 9416   5.458   2.901   1.116
 2839SOL    HW2 9417   5.444   3.018   1.002
 2840SOL     OW 9418   0.594   2.815   4.982
 2840SOL    HW1 9419   0.578   2.724   5.019
 2840SOL    HW2 9420   0.628   2.875   5.054
 2841SOL     OW 9421   0.202   5.876   0.070
 2841SOL    HW1 9422   0.259   5.822   0.007
 2841SOL    HW2 9423   0.116   5.900   0.024
 2842SOL     OW 9424   5.515   3.397   2.948
 2842SOL    HW1 9425   5.487   3.306   2.918
 2842SOL    HW2 9426   5.438   3.460   2.938
 2843SOL     OW 9427   3.615   0.517   3.663
 2843SOL    HW1 9428   3.575   0.435   3.624
 2843SOL    HW2 9429   3.616   0.590   3.595
 2844SOL     OW 9430   1.329   4.136   5.125
 2844SOL    HW1 9431   1.422   4.170   5.138
 2844SOL    HW2 9432   1.328   4.069   5.051
 2845SOL     OW 9433   0.657   4.220   6.486
 2845SOL    HW1 9434   0.606   4.272   6.555
 2845SOL    HW2 9435   0.659   4.123   6.512
 2846SOL     OW 9436   5.176   0.962   5.911
 2846SOL    HW1 9437   5.267   0.924   5.900
 2846SOL    HW2 9438   5.167   1.000   6.003
 2847SOL     OW 9439   4.097   4.768   4.156
 2847SOL    HW1 9440   4.024   4.809   4.100
 2847SOL    HW2 9441   4.074   4.778   4.253
 2848SOL     OW 9442   2.047   6.884   5.946
 2848SOL    HW1 9443   1.987   6.892   5.866
 2848SOL    HW2 9444   2.133   6.840   5.919
 2849SOL     OW 9445   2.456   2.670   1.427
 2849SOL    HW1 9446   2.430   2.764   1.450
 2849SOL    HW2 9447   2.524   2.671   1.354
 2850SOL     OW 9448   4.302   1.695   0.539
 2850SOL    HW1 9449   4.391   1.687   0.496
 2850SOL    HW2 9450   4.314   1.725   0.634
 2851SOL     OW 9451   3.433   5.852   5.110
 2851SOL    HW1 9452   3.523   5.813   5.094
 2851SOL    HW2 9453   3.417   5.860   5.209
 2852SOL     OW 9454   0.158   2.178   6.609
 2852SOL    HW1 9455   0.250   2.172   6.647
 2852SOL    HW2 9456   0.092   2.190   6.682
 2853SOL     OW 9457   4.075   2.731   1.483
 2853SOL    HW1 9458   4.129   2.656   1.444
 2853SOL    HW2 9459   3.979   2.706   1.483
 2854SOL     OW 9460   0.573   0.875   3.390
 2854SOL    HW1 9461   0.508   0.879   3.465
 2854SOL    HW2 9462   0.540   0.811   3.321
 2855SOL     OW 9463   3.191   1.827   3.911
 2855SOL    HW1 9464   3.173   1.764   3.986
 2855SOL    HW2 9465   3.151   1.917   3.933
 2856SOL     OW 9466   3.319   1.395   5.507
 2856SOL    HW1 9467   3.272   1.475   5.471
 2856SOL    HW2 9468   3.283   1.373   5.598
 2857SOL     OW 9469   3.350   3.045   4.804
 2857SOL    HW1 9470   3.343   3.005   4.896
 2857SOL    HW2 9471   3.294   3.128   4.800
 2858SOL     OW 9472   5.376   2.805   2.779
 2858SOL    HW1 9473   5.306   2.876   2.772
 2858SOL    HW2 9474   5.461   2.844   2.814
 2859SOL     OW 9475   5.990   5.460   6.842
 2859SOL    HW1 9476   6.080   5.472   6.883
 2859SOL    HW2 9477   5.998   5.411   6.756
 2860SOL     OW 9478   4.458   2.757   0.722
 2860SOL    HW1 9479   4.475   2.724   0.815
 2860SOL    HW2 9480   4.507   2.699   0.656
 2861SOL     OW 9481   4.744   4.553   5.964
 2861SOL    HW1 9482   4.720   4.471   6.017
 2861SOL    HW2 9483   4.661   4.607   5.947
 2862SOL     OW 9484   7.016   6.343   3.786
 2862SOL    HW1 9485   0.015   6.288   3.705
 2862SOL    HW2 9486   0.008   6.440   3.766
 2863SOL     OW 9487   6.258   6.903   0.087
 2863SOL    HW1 9488   6.169   6.867   0.060
 2863SOL    HW2 9489   6.246   6.986   0.141
 2864SOL     OW 9490   4.399   2.356   0.314
 2864SOL    HW1 9491   4.394   2.453   0.291
 2864SOL    HW2 9492   4.323   2.308   0.271
 2865SOL     OW 9493   4.734   4.812   4.902
 2865SOL    HW1 9494   4.776   4.871   4.970
 2865SOL    HW2 9495   4.804   4.752   4.861
 2866SOL     OW 9496   0.522   0.096   6.426
 2866SOL    HW1 9497   0.457   0.106   6.501
 2866SOL    HW2 9498   0.527   7.024   6.399
 2867SOL     OW 9499   6.220   4.212   4.747
 2867SOL    HW1 9500   6.162   4.263   4.811
 2867SOL    HW2 9501   6.259   4.132   4.793
 2868SOL     OW 9502   1.960   5.392   5.125
 2868SOL    HW1 9503   1.992   5.327   5.194
 2868SOL    HW2 9504   1.981   5.357   5.033
 2869SOL     OW 9505   5.843   1.575   2.492
 2869SOL    HW1 9506   5.793   1.588   2.407
 2869SOL    HW2 9507   5.834   1.480   2.522
 2870SOL     OW 9508   4.462   2.124   1.531
 2870SOL    HW1 9509   4.421   2.105   1.620
 2870SOL    HW2 9510   4.497   2.038   1.493
 2871SOL     OW 9511   1.168   1.317   5.938
 2871SOL    HW1 9512   1.129   1.391   5.883
 2871SOL    HW2 9513   1.246   1.352   5.991
 2872SOL     OW 9514   1.357   0.336   3.952
 2872SOL    HW1 9515   1.337   0.381   3.865
 2872SOL    HW2 9516   1.347   0.402   4.027
 2873SOL     OW 9517   6.252   4.986   2.577
 2873SOL    HW1 9518   6.202   5.069   2.552
 2873SOL    HW2 9519   6.333   5.011   2.630
 2874SOL     OW 9520   5.317   1.972   1.762
 2874SOL    HW1 9521   5.259   1.983   1.843
 2874SOL    HW2 9522   5.277   1.905   1.700
 2875SOL     OW 9523   2.818   5.048   0.355
 2875SOL    HW1 9524   2.723   5.031   0.382
 2875SOL    HW2 9525   2.823   5.062   0.257
 2876SOL     OW 9526   6.023   2.185   1.884
 2876SOL    HW1 9527   6.046   2.174   1.787
 2876SOL    HW2 9528   5.924   2.193   1.895
 2877SOL     OW 9529   1.427   3.790   5.488
 2877SOL    HW1 9530   1.465   3.817   5.577
 2877SOL    HW2 9531   1.501   3.778   5.422
 2878SOL     OW 9532   5.002   4.892   0.432
 2878SOL    HW1 9533   4.951   4.969   0.472
 2878SOL    HW2 9534   4.984   4.810   0.486
 2879SOL     OW 9535   5.173   4.653   6.858
 2879SOL    HW1 9536   5.237   4.578   6.876
 2879SOL    HW2 9537   5.213   4.716   6.792
 2880SOL     OW 9538   1.392   6.653   3.348
 2880SOL    HW1 9539   1.356   6.663   3.255
 2880SOL    HW2 9540   1.469   6.589   3.348
 2881SOL     OW 9541   6.655   0.139   0.461
 2881SOL    HW1 9542   6.677   0.226   0.417
 2881SOL    HW2 9543   6.734   0.079   0.458
 2882SOL     OW 9544   6.416   4.189   3.262
 2882SOL    HW1 9545   6.478   4.232   3.328
 2882SOL    HW2 9546   6.336   4.153   3.310
 2883SOL     OW 9547   3.568   6.739   2.673
 2883SOL    HW1 9548   3.473   6.761   2.652
 2883SOL    HW2 9549   3.603   6.674   2.606
 2884SOL     OW 9550   2.221   4.752   2.927
 2884SOL    HW1 9551   2.295   4.685   2.939
 2884SOL    HW2 9552   2.257   4.832   2.879
 2885SOL     OW 9553   0.855   2.270   4.577
 2885SOL    HW1 9554   0.953   2.290   4.583
 2885SOL    HW2 9555   0.819   2.301   4.489
 2886SOL     OW 9556   2.507   2.656   6.261
 2886SOL    HW1 9557   2.486   2.748   6.294
 2886SOL    HW2 9558   2.450   2.635   6.181
 2887SOL     OW 9559   2.858   0.552   5.229
 2887SOL    HW1 9560   2.954   0.524   5.236
 2887SOL    HW2 9561   2.820   0.564   5.321
 2888SOL     OW 9562   0.158   5.948   6.796
 2888SOL    HW1 9563   0.229   5.877   6.793
 2888SOL    HW2 9564   0.070   5.908   6.772
 2889SOL     OW 9565   1.530   0.936   0.936
 2889SOL    HW1 9566   1.471   0.995   0.991
 2889SOL    HW2 9567   1.474   0.877   0.878
 2890SOL     OW 9568   2.481   0.520   0.703
 2890SOL    HW1 9569   2.490   0.535   0.605
 2890SOL    HW2 9570   2.506   0.604   0.752
 2891SOL     OW 9571   3.084   4.754   5.200
 2891SOL    HW1 9572   3.039   4.668   5.177
 2891SOL    HW2 9573   3.062   4.781   5.293
 2892SOL     OW 9574   4.369   3.944   5.315
 2892SOL    HW1 9575   4.346   4.036   5.348
 2892SOL    HW2 9576   4.286   3.901   5.280
 2893SOL     OW 9577   2.956   0.703   4.942
 2893SOL    HW1 9578   2.974   0.611   4.978
 2893SOL    HW2 9579   2.869   0.703   4.894
 2894SOL     OW 9580   4.142   3.418   2.145
 2894SOL    HW1 9581   4.083   3.415   2.064
 2894SOL    HW2 9582   4.237   3.403   2.118
 2895SOL     OW 9583   3.804   2.741   7.023
 2895SOL    HW1 9584   3.761   2.651   7.023
 2895SOL    HW2 9585   3.735   2.811   7.004
 2896SOL     OW 9586   1.259   4.529   6.982
 2896SOL    HW1 9587   1.333   4.589   7.014
 2896SOL    HW2 9588   1.171   4.575   6.992
 2897SOL     OW 9589   0.332   6.996   3.205
 2897SOL    HW1 9590   0.305   0.068   3.210
 2897SOL    HW2 9591   0.338   6.968   3.109
 2898SOL     OW 9592   1.977   5.153   2.806
 2898SOL    HW1 9593   1.885   5.177   2.775
 2898SOL    HW2 9594   1.982   5.055   2.824
 2899SOL     OW 9595   5.909   0.953   0.935
 2899SOL    HW1 9596   5.850   1.003   0.872
 2899SOL    HW2 9597   5.860   0.940   1.022
 2900SOL     OW 9598   2.550   5.778   6.652
 2900SOL    HW1 9599   2.499   5.719   6.589
 2900SOL    HW2 9600   2.555   5.870   6.614
 2901SOL     OW 9601   2.709   6.685   1.682
 2901SOL    HW1 9602   2.778   6.626   1.639
 2901SOL    HW2 9603   2.720   6.683   1.781
 2902SOL     OW 9604   4.630   5.416   1.155
 2902SOL    HW1 9605   4.725   5.393   1.175
 2902SOL    HW2 9606   4.587   5.340   1.105
 2903SOL     OW 9607   3.109   2.462   1.708
 2903SOL    HW1 9608   3.031   2.440   1.767
 2903SOL    HW2 9609   3.150   2.378   1.674
 2904SOL     OW 9610   2.759   1.940   4.766
 2904SOL    HW1 9611   2.689   1.971   4.701
 2904SOL    HW2 9612   2.723   1.865   4.821
 2905SOL     OW 9613   1.052   2.791   2.003
 2905SOL    HW1 9614   1.120   2.718   2.003
 2905SOL    HW2 9615   1.096   2.877   1.975
 2906SOL     OW 9616   4.967   5.176   2.651
 2906SOL    HW1 9617   5.013   5.194   2.738
 2906SOL    HW2 9618   4.921   5.087   2.656
 2907SOL     OW 9619   5.829   0.417   4.876
 2907SOL    HW1 9620   5.753   0.405   4.940
 2907SOL    HW2 9621   5.862   0.327   4.847
 2908SOL     OW 9622   4.367   6.407   4.828
 2908SOL    HW1 9623   4.316   6.440   4.749
 2908SOL    HW2 9624   4.423   6.481   4.865
 2909SOL     OW 9625   2.204   6.062   5.971
 2909SOL    HW1 9626   2.162   6.053   6.062
 2909SOL    HW2 9627   2.136   6.040   5.901
 2910SOL     OW 9628   4.011   5.338   5.206
 2910SOL    HW1 9629   3.992   5.311   5.301
 2910SOL    HW2 9630   4.110   5.335   5.190
 2911SOL     OW 9631   2.684   4.767   3.053
 2911SOL    HW1 9632   2.650   4.680   3.089
 2911SOL    HW2 9633   2.710   4.826   3.129
 2912SOL     OW 9634   2.744   5.185   1.373
 2912SOL    HW1 9635   2.673   5.214   1.437
 2912SOL    HW2 9636   2.709   5.188   1.280
 2913SOL     OW 9637   0.427   2.734   1.386
 2913SOL    HW1 9638   0.366   2.770   1.315
 2913SOL    HW2 9639   0.419   2.634   1.390
 2914SOL     OW 9640   5.204   4.820   6.660
 2914SOL    HW1 9641   5.121   4.776   6.626
 2914SOL    HW2 9642   5.246   4.874   6.587
 2915SOL     OW 9643   4.881   1.114   3.211
 2915SOL    HW1 9644   4.794   1.142   3.252
 2915SOL    HW2 9645   4.956   1.162   3.256
 2916SOL     OW 9646   5.247   0.307   4.488
 2916SOL    HW1 9647   5.341   0.284   4.461
 2916SOL    HW2 9648   5.214   0.383   4.431
 2917SOL     OW 9649   4.127   0.560   2.429
 2917SOL    HW1 9650   4.090   0.589   2.341
 2917SOL    HW2 9651   4.129   0.460   2.434
 2918SOL     OW 9652   1.184   3.262   4.713
 2918SOL    HW1 9653   1.211   3.255   4.809
 2918SOL    HW2 9654   1.210   3.352   4.677
 2919SOL     OW 9655   5.756   5.227   0.474
 2919SOL    HW1 9656   5.726   5.134   0.496
 2919SOL    HW2 9657   5.716   5.254   0.386
 2920SOL     OW 9658   4.434   1.356   2.760
 2920SOL    HW1 9659   4.337   1.382   2.756
 2920SOL    HW2 9660   4.469   1.348   2.667
 2921SOL     OW 9661   6.798   1.192   0.371
 2921SOL    HW1 9662   6.790   1.207   0.273
 2921SOL    HW2 9663   6.796   1.281   0.418
 2922SOL     OW 9664   4.907   0.259   4.765
 2922SOL    HW1 9665   4.995   0.305   4.773
 2922SOL    HW2 9666   4.856   0.297   4.688
 2923SOL     OW 9667   0.217   4.422   6.915
 2923SOL    HW1 9668   0.131   4.473   6.911
 2923SOL    HW2 9669   0.201   4.334   6.961
 2924SOL     OW 9670   6.043   6.685   6.481
 2924SOL    HW1 9671   6.017   6.755   6.414
 2924SOL    HW2 9672   6.049   6.725   6.572
 2925SOL     OW 9673   6.536   4.645   0.462
 2925SOL    HW1 9674   6.624   4.615   0.499
 2925SOL    HW2 9675   6.510   4.586   0.386
 2926SOL     OW 9676   0.126   1.313   2.922
 2926SOL    HW1 9677   0.158   1.400   2.886
 2926SOL    HW2 9678   0.062   1.271   2.858
 2927SOL     OW 9679   6.225   2.868   2.707
 2927SOL    HW1 9680   6.132   2.864   2.669
 2927SOL    HW2 9681   6.237   2.954   2.755
 2928SOL     OW 9682   5.394   6.272   0.944
 2928SOL    HW1 9683   5.484   6.311   0.964
 2928SOL    HW2 9684   5.396   6.229   0.853
 2929SOL     OW 9685   0.059   0.843   5.757
 2929SOL    HW1 9686   0.012   0.755   5.761
 2929SOL    HW2 9687   0.158   0.828   5.767
 2930SOL     OW 9688   2.297   0.019   4.050
 2930SOL    HW1 9689   2.235   7.018   3.976
 2930SOL    HW2 9690   2.366   0.083   4.016
 2931SOL     OW 9691   4.388   4.732   6.265
 2931SOL    HW1 9692   4.420   4.816   6.221
 2931SOL    HW2 9693   4.289   4.737   6.278
 2932SOL     OW 9694   0.722   4.663   1.621
 2932SOL    HW1 9695   0.658   4.696   1.690
 2932SOL    HW2 9696   0.671   4.619   1.547
 2933SOL     OW 9697   4.733   2.284   3.066
 2933SOL    HW1 9698   4.716   2.379   3.039
 2933SOL    HW2 9699   4.790   2.240   2.996
 2934SOL     OW 9700   1.840   1.193   1.381
 2934SOL    HW1 9701   1.852   1.288   1.353
 2934SOL    HW2 9702   1.781   1.145   1.315
 2935SOL     OW 9703   0.206   1.240   1.350
 2935SOL    HW1 9704   0.117   1.227   1.306
 2935SOL    HW2 9705   0.208   1.190   1.436
 2936SOL     OW 9706   4.242   4.573   1.531
 2936SOL    HW1 9707   4.216   4.509   1.603
 2936SOL    HW2 9708   4.319   4.536   1.479
 2937SOL     OW 9709   2.352   4.588   0.436
 2937SOL    HW1 9710   2.359   4.668   0.376
 2937SOL    HW2 9711   2.377   4.506   0.385
 2938SOL     OW 9712   4.004   5.613   7.002
 2938SOL    HW1 9713   4.064   5.653   0.046
 2938SOL    HW2 9714   3.961   5.685   6.948
 2939SOL     OW 9715   6.938   6.329   6.033
 2939SOL    HW1 9716   6.866   6.333   6.101
 2939SOL    HW2 9717   6.916   6.389   5.956
 2940SOL     OW 9718   3.610   0.298   5.795
 2940SOL    HW1 9719   3.565   0.361   5.732
 2940SOL    HW2 9720   3.690   0.258   5.751
 2941SOL     OW 9721   3.849   1.417   5.480
 2941SOL    HW1 9722   3.887   1.389   5.569
 2941SOL    HW2 9723   3.750   1.401   5.479
 2942SOL     OW 9724   3.257   6.741   3.918
 2942SOL    HW1 9725   3.338   6.759   3.862
 2942SOL    HW2 9726   3.225   6.647   3.903
 2943SOL     OW 9727   5.539   4.595   2.965
 2943SOL    HW1 9728   5.525   4.519   3.028
 2943SOL    HW2 9729   5.551   4.680   3.017
 2944SOL     OW 9730   5.055   5.575   0.643
 2944SOL    HW1 9731   5.030   5.561   0.547
 2944SOL    HW2 9732   5.069   5.672   0.660
 2945SOL     OW 9733   3.294   3.680   4.500
 2945SOL    HW1 9734   3.275   3.601   4.558
 2945SOL    HW2 9735   3.242   3.759   4.531
 2946SOL     OW 9736   1.350   6.345   5.119
 2946SOL    HW1 9737   1.311   6.436   5.137
 2946SOL    HW2 9738   1.340   6.324   5.022
 2947SOL     OW 9739   6.965   5.276   6.682
 2947SOL    HW1 9740   0.013   5.230   6.732
 2947SOL    HW2 9741   6.877   5.260   6.728
 2948SOL     OW 9742   6.342   3.184   5.327
 2948SOL    HW1 9743   6.442   3.184   5.320
 2948SOL    HW2 9744   6.314   3.243   5.402
 2949SOL     OW 9745   0.804   6.863   0.961
 2949SOL    HW1 9746   0.732   6.870   0.891
 2949SOL    HW2 9747   0.889   6.835   0.917
 2950SOL     OW 9748   5.199   3.461   4.966
 2950SOL    HW1 9749   5.227   3.514   4.886
 2950SOL    HW2 9750   5.256   3.379   4.973
 2951SOL     OW 9751   6.325   0.426   0.022
 2951SOL    HW1 9752   6.409   0.479   0.010
 2951SOL    HW2 9753   6.343   0.345   0.077
 2952SOL     OW 9754   0.452   3.700   2.012
 2952SOL    HW1 9755   0.446   3.685   2.111
 2952SOL    HW2 9756   0.361   3.693   1.971
 2953SOL     OW 9757   5.783   1.738   1.822
 2953SOL    HW1 9758   5.701   1.796   1.821
 2953SOL    HW2 9759   5.756   1.642   1.833
 2954SOL     OW 9760   4.886   6.310   1.976
 2954SOL    HW1 9761   4.972   6.275   1.939
 2954SOL    HW2 9762   4.812   6.294   1.911
 2955SOL     OW 9763   5.792   1.635   1.191
 2955SOL    HW1 9764   5.860   1.571   1.154
 2955SOL    HW2 9765   5.788   1.626   1.290
 2956SOL     OW 9766   5.777   6.057   3.442
 2956SOL    HW1 9767   5.788   6.129   3.511
 2956SOL    HW2 9768   5.850   5.989   3.453
 2957SOL     OW 9769   1.439   4.676   1.775
 2957SOL    HW1 9770   1.445   4.746   1.704
 2957SOL    HW2 9771   1.359   4.618   1.757
 2958SOL     OW 9772   2.542   4.814   6.235
 2958SOL    HW1 9773   2.618   4.813   6.301
 2958SOL    HW2 9774   2.466   4.761   6.271
 2959SOL     OW 9775   3.671   5.446   6.957
 2959SOL    HW1 9776   3.641   5.537   6.930
 2959SOL    HW2 9777   3.713   5.400   6.879
 2960SOL     OW 9778   3.045   1.761   0.247
 2960SOL    HW1 9779   3.018   1.704   0.325
 2960SOL    HW2 9780   3.037   1.708   0.162
 2961SOL     OW 9781   5.387   1.301   4.036
 2961SOL    HW1 9782   5.297   1.336   4.008
 2961SOL    HW2 9783   5.376   1.242   4.116
 2962SOL     OW 9784   4.434   0.164   2.487
 2962SOL    HW1 9785   4.415   0.214   2.571
 2962SOL    HW2 9786   4.522   0.117   2.495
 2963SOL     OW 9787   2.196   3.075   4.871
 2963SOL    HW1 9788   2.203   3.173   4.891
 2963SOL    HW2 9789   2.272   3.027   4.916
 2964SOL     OW 9790   2.422   6.183   0.172
 2964SOL    HW1 9791   2.341   6.200   0.228
 2964SOL    HW2 9792   2.475   6.267   0.162
 2965SOL     OW 9793   0.938   3.009   6.197
 2965SOL    HW1 9794   0.964   3.024   6.102
 2965SOL    HW2 9795   0.984   2.928   6.232
 2966SOL     OW 9796   4.488   5.292   3.240
 2966SOL    HW1 9797   4.429   5.216   3.213
 2966SOL    HW2 9798   4.566   5.256   3.291
 2967SOL     OW 9799   5.668   2.579   4.316
 2967SOL    HW1 9800   5.734   2.511   4.349
 2967SOL    HW2 9801   5.619   2.619   4.395
 2968SOL     OW 9802   6.568   4.467   4.398
 2968SOL    HW1 9803   6.643   4.425   4.348
 2968SOL    HW2 9804   6.501   4.505   4.334
 2969SOL     OW 9805   3.407   1.284   4.917
 2969SOL    HW1 9806   3.435   1.340   4.839
 2969SOL    HW2 9807   3.469   1.301   4.994
 2970SOL     OW 9808   1.094   4.308   6.267
 2970SOL    HW1 9809   1.157   4.266   6.201
 2970SOL    HW2 9810   1.103   4.262   6.355
 2971SOL     OW 9811   5.613   2.717   1.778
 2971SOL    HW1 9812   5.700   2.756   1.748
 2971SOL    HW2 9813   5.603   2.732   1.877
 2972SOL     OW 9814   0.475   4.389   4.428
 2972SOL    HW1 9815   0.450   4.454   4.357
 2972SOL    HW2 9816   0.394   4.335   4.453
 2973SOL     OW 9817   5.699   6.935   4.139
 2973SOL    HW1 9818   5.723   6.861   4.203
 2973SOL    HW2 9819   5.765   7.009   4.148
 2974SOL     OW 9820   6.379   4.086   0.929
 2974SOL    HW1 9821   6.309   4.051   0.991
 2974SOL    HW2 9822   6.344   4.084   0.835
 2975SOL     OW 9823   6.004   1.678   4.230
 2975SOL    HW1 9824   5.915   1.702   4.267
 2975SOL    HW2 9825   6.011   1.709   4.135
 2976SOL     OW 9826   2.555   5.671   1.057
 2976SOL    HW1 9827   2.593   5.668   0.965
 2976SOL    HW2 9828   2.529   5.579   1.085
 2977SOL     OW 9829   2.778   6.801   3.504
 2977SOL    HW1 9830   2.752   6.750   3.585
 2977SOL    HW2 9831   2.712   6.785   3.430
 2978SOL     OW 9832   2.536   0.395   6.530
 2978SOL    HW1 9833   2.492   0.361   6.614
 2978SOL    HW2 9834   2.511   0.490   6.516
 2979SOL     OW 9835   2.490   1.292   3.323
 2979SOL    HW1 9836   2.559   1.273   3.393
 2979SOL    HW2 9837   2.533   1.286   3.232
 2980SOL     OW 9838   5.829   0.184   3.268
 2980SOL    HW1 9839   5.867   0.189   3.175
 2980SOL    HW2 9840   5.810   0.088   3.290
 2981SOL     OW 9841   1.560   1.176   5.587
 2981SOL    HW1 9842   1.623   1.174   5.664
 2981SOL    HW2 9843   1.468   1.200   5.619
 2982SOL     OW 9844   5.235   5.791   2.463
 2982SOL    HW1 9845   5.262   5.887   2.453
 2982SOL    HW2 9846   5.317   5.734   2.468
 2983SOL     OW 9847   0.917   1.009   2.668
 2983SOL    HW1 9848   0.908   1.072   2.745
 2983SOL    HW2 9849   0.989   0.942   2.688
 2984SOL     OW 9850   6.375   4.347   1.455
 2984SOL    HW1 9851   6.403   4.395   1.371
 2984SOL    HW2 9852   6.424   4.260   1.460
 2985SOL     OW 9853   6.498   2.217   2.915
 2985SOL    HW1 9854   6.586   2.172   2.932
 2985SOL    HW2 9855   6.424   2.155   2.942
 2986SOL     OW 9856   1.491   3.284   4.697
 2986SOL    HW1 9857   1.453   3.226   4.625
 2986SOL    HW2 9858   1.447   3.375   4.693
 2987SOL     OW 9859   5.101   1.870   4.579
 2987SOL    HW1 9860   5.068   1.934   4.648
 2987SOL    HW2 9861   5.107   1.778   4.618
 2988SOL     OW 9862   0.598   0.910   2.621
 2988SOL    HW1 9863   0.691   0.929   2.650
 2988SOL    HW2 9864   0.534   0.934   2.694
 2989SOL     OW 9865   0.073   5.264   0.599
 2989SOL    HW1 9866   0.002   5.255   0.529
 2989SOL    HW2 9867   0.045   5.332   0.667
 2990SOL     OW 9868   2.719   1.097   1.390
 2990SOL    HW1 9869   2.759   1.079   1.300
 2990SOL    HW2 9870   2.776   1.056   1.461
 2991SOL     OW 9871   6.064   4.663   6.959
 2991SOL    HW1 9872   6.120   4.644   0.015
 2991SOL    HW2 9873   5.999   4.589   6.944
 2992SOL     OW 9874   4.295   4.697   6.679
 2992SOL    HW1 9875   4.265   4.676   6.772
 2992SOL    HW2 9876   4.380   4.750   6.683
 2993SOL     OW 9877   1.320   4.085   0.247
 2993SOL    HW1 9878   1.247   4.081   0.316
 2993SOL    HW2 9879   1.280   4.091   0.156
 2994SOL     OW 9880   4.171   6.701   6.490
 2994SOL    HW1 9881   4.119   6.778   6.529
 2994SOL    HW2 9882   4.168   6.624   6.554
 2995SOL     OW 9883   2.771   0.653   5.456
 2995SOL    HW1 9884   2.816   0.731   5.500
 2995SOL    HW2 9885   2.673   0.655   5.477
 2996SOL     OW 9886   4.622   6.675   6.132
 2996SOL    HW1 9887   4.617   6.653   6.034
 2996SOL    HW2 9888   4.673   6.759   6.144
 2997SOL     OW 9889   3.742   5.853   0.644
 2997SOL    HW1 9890   3.831   5.821   0.612
 2997SOL    HW2 9891   3.670   5.802   0.598
 2998SOL     OW 9892   6.436   3.976   6.187
 2998SOL    HW1 9893   6.457   3.949   6.281
 2998SOL    HW2 9894   6.499   4.049   6.159
 2999SOL     OW 9895   2.432   1.403   1.887
 2999SOL    HW1 9896   2.495   1.362   1.820
 2999SOL    HW2 9897   2.479   1.475   1.938
 3000SOL     OW 9898   1.463   2.111   5.194
 3000SOL    HW1 9899   1.369   2.143   5.209
 3000SOL    HW2 9900   1.468   2.067   5.104
 3001SOL     OW 9901   4.714   5.941   5.830
 3001SOL    HW1 9902   4.732   5.843   5.828
 3001SOL    HW2 9903   4.785   5.989   5.778
 3002SOL     OW 9904   3.504   0.061   5.331
 3002SOL    HW1 9905   3.560   0.121   5.274
 3002SOL    HW2 9906   3.411   0.057   5.293
 3003SOL     OW 9907   1.585   0.497   5.826
 3003SOL    HW1 9908   1.622   0.437   5.897
 3003SOL    HW2 9909   1.503   0.455   5.787
 3004SOL     OW 9910   0.233   3.110   6.016
 3004SOL    HW1 9911   0.213   3.051   6.094
 3004SOL    HW2 9912   0.198   3.067   5.933
 3005SOL     OW 9913   4.886   1.972   0.510
 3005SOL    HW1 9914   4.874   1.991   0.413
 3005SOL    HW2 9915   4.807   2.006   0.561
 3006SOL     OW 9916   4.442   6.253   1.867
 3006SOL    HW1 9917   4.455   6.158   1.894
 3006SOL    HW2 9918   4.347   6.280   1.885
 3007SOL     OW 9919   5.944   5.417   1.753
 3007SOL    HW1 9920   5.926   5.511   1.724
 3007SOL    HW2 9921   5.961   5.415   1.851
 3008SOL     OW 9922   4.479   5.061   5.673
 3008SOL    HW1 9923   4.521   5.068   5.764
 3008SOL    HW2 9924   4.526   5.123   5.610
 3009SOL     OW 9925   1.706   0.406   2.309
 3009SOL    HW1 9926   1.706   0.318   2.262
 3009SOL    HW2 9927   1.798   0.426   2.342
 3010SOL     OW 9928   3.146   0.276   3.615
 3010SOL    HW1 9929   3.111   0.317   3.531
 3010SOL    HW2 9930   3.243   0.253   3.603
 3011SOL     OW 9931   5.143   0.260   0.572
 3011SOL    HW1 9932   5.217   0.314   0.532
 3011SOL    HW2 9933   5.163   0.163   0.561
 3012SOL     OW 9934   0.002   4.972   1.357
 3012SOL    HW1 9935   6.941   5.008   1.319
 3012SOL    HW2 9936   0.033   5.031   1.432
 3013SOL     OW 9937   5.770   4.745   1.709
 3013SOL    HW1 9938   5.845   4.732   1.774
 3013SOL    HW2 9939   5.796   4.814   1.641
 3014SOL     OW 9940   5.606   5.657   5.267
 3014SOL    HW1 9941   5.538   5.725   5.294
 3014SOL    HW2 9942   5.697   5.701   5.264
 3015SOL     OW 9943   3.076   1.303   0.461
 3015SOL    HW1 9944   3.074   1.368   0.536
 3015SOL    HW2 9945   3.161   1.316   0.408
 3016SOL     OW 9946   4.276   6.158   4.384
 3016SOL    HW1 9947   4.363   6.181   4.426
 3016SOL    HW2 9948   4.268   6.207   4.296
 3017SOL     OW 9949   0.746   6.841   1.813
 3017SOL    HW1 9950   0.823   6.826   1.874
 3017SOL    HW2 9951   0.764   6.922   1.757
 3018SOL     OW 9952   4.587   6.996   5.926
 3018SOL    HW1 9953   4.613   0.040   5.858
 3018SOL    HW2 9954   4.509   6.943   5.892
 3019SOL     OW 9955   4.706   0.815   1.713
 3019SOL    HW1 9956   4.730   0.865   1.796
 3019SOL    HW2 9957   4.621   0.851   1.675
 3020SOL     OW 9958   1.787   0.334   1.537
 3020SOL    HW1 9959   1.874   0.374   1.508
 3020SOL    HW2 9960   1.795   0.234   1.539
 3021SOL     OW 9961   4.166   0.618   6.413
 3021SOL    HW1 9962   4.123   0.540   6.459
 3021SOL    HW2 9963   4.116   0.701   6.434
 3022SOL     OW 9964   6.977   0.516   3.286
 3022SOL    HW1 9965   6.977   0.416   3.280
 3022SOL    HW2 9966   6.905   0.552   3.227
 3023SOL     OW 9967   5.866   0.102   1.813
 3023SOL    HW1 9968   5.832   0.015   1.776
 3023SOL    HW2 9969   5.788   0.159   1.840
 3024SOL     OW 9970   1.851   0.079   0.080
 3024SOL    HW1 9971   1.916   0.056   0.152
 3024SOL    HW2 9972   1.760   0.044   0.104
 3025SOL     OW 9973   1.923   2.666   1.828
 3025SOL    HW1 9974   1.971   2.753   1.828
 3025SOL    HW2 9975   1.898   2.641   1.734
 3026SOL     OW 9976   3.107   5.957   0.626
 3026SOL    HW1 9977   3.105   6.055   0.647
 3026SOL    HW2 9978   3.102   5.944   0.527
 3027SOL     OW 9979   1.418   2.072   3.845
 3027SOL    HW1 9980   1.452   2.164   3.827
 3027SOL    HW2 9981   1.334   2.077   3.899
 3028SOL     OW 9982   1.578   0.549   4.351
 3028SOL    HW1 9983   1.552   0.640   4.319
 3028SOL    HW2 9984   1.674   0.532   4.328
 3029SOL     OW 9985   6.426   4.822   5.643
 3029SOL    HW1 9986   6.367   4.744   5.665
 3029SOL    HW2 9987   6.517   4.805   5.679
 3030SOL     OW 9988   0.910   1.002   5.433
 3030SOL    HW1 9989   0.996   0.982   5.480
 3030SOL    HW2 9990   0.865   0.916   5.409
 3031SOL     OW 9991   0.053   5.725   6.083
 3031SOL    HW1 9992   0.028   5.736   5.987
 3031SOL    HW2 9993   0.051   5.627   6.106
 3032SOL     OW 9994   3.838   6.733   6.051
 3032SOL    HW1 9995   3.822   6.789   6.132
 3032SOL    HW2 9996   3.824   6.637   6.074
 3033SOL     OW 9997   5.053   4.270   6.288
 3033SOL    HW1 9998   5.129   4.212   6.316
 3033SOL    HW2 9999   5.075   4.315   6.202
 3034SOL     OW10000   2.551   6.798   4.994
 3034SOL    HW110001   2.635   6.746   4.981
 3034SOL    HW210002   2.570   6.882   5.045
 3035SOL     OW10003   6.076   6.695   6.990
 3035SOL    HW110004   6.082   6.615   6.931
 3035SOL    HW210005   6.107   6.672   0.058
 3036SOL     OW10006   0.581   5.207   5.605
 3036SOL    HW110007   0.631   5.141   5.549
 3036SOL    HW210008   0.547   5.161   5.687
 3037SOL     OW10009   5.205   6.278   6.178
 3037SOL    HW110010   5.135   6.233   6.233
 3037SOL    HW210011   5.266   6.208   6.139
 3038SOL     OW10012   5.784   5.768   5.555
 3038SOL    HW110013   5.763   5.677   5.592
 3038SOL    HW210014   5.861   5.807   5.606
 3039SOL     OW10015   0.482   4.866   0.197
 3039SOL    HW110016   0.563   4.874   0.139
 3039SOL    HW210017   0.423   4.793   0.162
 3040SOL     OW10018   2.523   1.126   0.389
 3040SOL    HW110019   2.492   1.217   0.361
 3040SOL    HW210020   2.562   1.131   0.481
 3041SOL     OW10021   1.639   1.890   5.973
 3041SOL    HW110022   1.721   1.910   5.919
 3041SOL    HW210023   1.659   1.817   6.038
 3042SOL     OW10024   5.636   0.319   1.529
 3042SOL    HW110025   5.575   0.246   1.498
 3042SOL    HW210026   5.652   0.309   1.627
 3043SOL     OW10027   0.502   5.257   6.593
 3043SOL    HW110028   0.559   5.306   6.659
 3043SOL    HW210029   0.409   5.294   6.596
 3044SOL     OW10030   2.551   2.967   6.610
 3044SOL    HW110031   2.473   2.925   6.563
 3044SOL    HW210032   2.518   3.041   6.669
 3045SOL     OW10033   4.819   2.591   4.515
 3045SOL    HW110034   4.800   2.651   4.437
 3045SOL    HW210035   4.737   2.586   4.573
 3046SOL     OW10036   2.951   2.275   5.690
 3046SOL    HW110037   3.018   2.253   5.761
 3046SOL    HW210038   2.937   2.374   5.688
 3047SOL     OW10039   6.814   5.185   1.956
 3047SOL    HW110040   6.802   5.206   2.053
 3047SOL    HW210041   6.783   5.262   1.901
 3048SOL     OW10042   3.420   3.032   2.321
 3048SOL    HW110043   3.331   3.024   2.276
 3048SOL    HW210044   3.482   2.963   2.284
 3049SOL     OW10045   0.996   0.642   0.783
 3049SOL    HW110046   1.014   0.562   0.841
 3049SOL    HW210047   0.898   0.664   0.786
 3050SOL     OW10048   1.345   0.507   4.188
 3050SOL    HW110049   1.276   0.450   4.234
 3050SOL    HW210050   1.426   0.515   4.247
 3051SOL     OW10051   2.992   4.913   5.493
 3051SOL    HW110052   2.954   4.821   5.506
 3051SOL    HW210053   3.078   4.920   5.544
 3052SOL     OW10054   4.752   6.191   2.866
 3052SOL    HW110055   4.842   6.230   2.886
 3052SOL    HW210056   4.689   6.213   2.941
 3053SOL     OW10057   3.683   6.339   1.988
 3053SOL    HW110058   3.600   6.325   2.042
 3053SOL    HW210059   3.713   6.434   1.997
 3054SOL     OW10060   1.701   4.630   4.921
 3054SOL    HW110061   1.714   4.557   4.854
 3054SOL    HW210062   1.735   4.601   5.010
 3055SOL     OW10063   6.464   6.617   2.767
 3055SOL    HW110064   6.446   6.538   2.826
 3055SOL    HW210065   6.556   6.609   2.728
 3056SOL     OW10066   5.039   0.876   2.611
 3056SOL    HW110067   5.138   0.890   2.611
 3056SOL    HW210068   5.012   0.835   2.698
 3057SOL     OW10069   6.979   4.570   2.635
 3057SOL    HW110070   6.939   4.655   2.671
 3057SOL    HW210071   6.921   4.535   2.562
 3058SOL     OW10072   6.037   6.668   1.537
 3058SOL    HW110073   6.000   6.725   1.464
 3058SOL    HW210074   6.060   6.577   1.500
 3059SOL     OW10075   2.404   2.614   6.718
 3059SOL    HW110076   2.493   2.635   6.678
 3059SOL    HW210077   2.342   2.582   6.646
 3060SOL     OW10078   0.486   6.203   6.428
 3060SOL    HW110079   0.425   6.253   6.489
 3060SOL    HW210080   0.437   6.125   6.388
 3061SOL     OW10081   6.728   0.810   5.752
 3061SOL    HW110082   6.731   0.908   5.771
 3061SOL    HW210083   6.687   0.795   5.662
 3062SOL     OW10084   3.248   5.054   6.241
 3062SOL    HW110085   3.152   5.080   6.227
 3062SOL    HW210086   3.261   5.024   6.335
 3063SOL     OW10087   2.942   6.128   1.021
 3063SOL    HW110088   2.983   6.038   1.006
 3063SOL    HW210089   2.846   6.118   1.043
 3064SOL     OW10090   0.009   4.556   3.455
 3064SOL    HW110091   6.971   4.502   3.398
 3064SOL    HW210092   0.090   4.502   3.476
 3065SOL     OW10093   3.238   1.919   1.636
 3065SOL    HW110094   3.197   2.009   1.624
 3065SOL    HW210095   3.183   1.865   1.700
 3066SOL     OW10096   5.736   5.113   0.841
 3066SOL    HW110097   5.814   5.174   0.855
 3066SOL    HW210098   5.769   5.021   0.821
 3067SOL     OW10099   3.970   0.024   3.105
 3067SOL    HW110100   3.982   0.017   3.006
 3067SOL    HW210101   3.978   0.120   3.132
 3068SOL     OW10102   6.356   4.278   6.959
 3068SOL    HW110103   6.301   4.282   0.018
 3068SOL    HW210104   6.348   4.186   6.918
 3069SOL     OW10105   1.065   4.718   3.145
 3069SOL    HW110106   1.073   4.658   3.224
 3069SOL    HW210107   1.153   4.765   3.130
 3070SOL     OW10108   4.781   1.644   3.533
 3070SOL    HW110109   4.810   1.558   3.491
 3070SOL    HW210110   4.782   1.717   3.464
 3071SOL     OW10111   5.728   0.364   3.755
 3071SOL    HW110112   5.640   0.336   3.715
 3071SOL    HW210113   5.761   0.292   3.816
 3072SOL     OW10114   6.580   0.915   1.457
 3072SOL    HW110115   6.565   0.868   1.544
 3072SOL    HW210116   6.560   0.852   1.382
 3073SOL     OW10117   1.533   1.608   5.151
 3073SOL    HW110118   1.463   1.551   5.195
 3073SOL    HW210119   1.544   1.692   5.204
 3074SOL     OW10120   4.845   3.563   5.792
 3074SOL    HW110121   4.747   3.544   5.796
 3074SOL    HW210122   4.887   3.510   5.718
 3075SOL     OW10123   0.059   4.964   1.062
 3075SOL    HW110124   0.021   5.012   0.983
 3075SOL    HW210125   0.032   5.012   1.146
 3076SOL     OW10126   0.753   0.823   5.297
 3076SOL    HW110127   0.766   0.805   5.200
 3076SOL    HW210128   0.655   0.819   5.319
 3077SOL     OW10129   4.194   4.678   3.433
 3077SOL    HW110130   4.271   4.615   3.428
 3077SOL    HW210131   4.173   4.713   3.342
 3078SOL     OW10132   2.135   3.014   0.650
 3078SOL    HW110133   2.113   3.044   0.557
 3078SOL    HW210134   2.217   2.957   0.647
 3079SOL     OW10135   5.319   3.186   5.943
 3079SOL    HW110136   5.340   3.091   5.967
 3079SOL    HW210137   5.220   3.194   5.927
 3080SOL     OW10138   5.999   6.998   2.473
 3080SOL    HW110139   6.036   6.967   2.386
 3080SOL    HW210140   5.937   6.928   2.509
 3081SOL     OW10141   1.076   4.567   6.018
 3081SOL    HW110142   1.142   4.568   6.093
 3081SOL    HW210143   1.082   4.652   5.967
 3082SOL     OW10144   3.702   6.498   2.503
 3082SOL    HW110145   3.650   6.463   2.582
 3082SOL    HW210146   3.773   6.431   2.478
 3083SOL     OW10147   3.878   6.791   2.448
 3083SOL    HW110148   3.798   6.847   2.471
 3083SOL    HW210149   3.859   6.696   2.471
 3084SOL     OW10150   4.535   6.651   3.977
 3084SOL    HW110151   4.567   6.675   3.885
 3084SOL    HW210152   4.599   6.688   4.045
 3085SOL     OW10153   1.128   4.749   2.290
 3085SOL    HW110154   1.152   4.754   2.387
 3085SOL    HW210155   1.167   4.827   2.241
 3086SOL     OW10156   6.240   1.371   4.569
 3086SOL    HW110157   6.264   1.286   4.616
 3086SOL    HW210158   6.177   1.350   4.494
 3087SOL     OW10159   5.535   3.563   1.526
 3087SOL    HW110160   5.599   3.529   1.595
 3087SOL    HW210161   5.517   3.491   1.459
 3088SOL     OW10162   2.944   3.795   6.534
 3088SOL    HW110163   3.024   3.853   6.518
 3088SOL    HW210164   2.974   3.700   6.548
 3089SOL     OW10165   3.291   2.208   1.751
 3089SOL    HW110166   3.382   2.178   1.780
 3089SOL    HW210167   3.222   2.173   1.814
 3090SOL     OW10168   6.087   1.645   1.118
 3090SOL    HW110169   6.029   1.563   1.120
 3090SOL    HW210170   6.028   1.726   1.122
 3091SOL     OW10171   2.100   6.308   6.563
 3091SOL    HW110172   2.112   6.344   6.471
 3091SOL    HW210173   2.063   6.215   6.558
 3092SOL     OW10174   4.398   5.080   0.477
 3092SOL    HW110175   4.412   5.173   0.442
 3092SOL    HW210176   4.383   5.018   0.400
 3093SOL     OW10177   4.610   6.602   3.206
 3093SOL    HW110178   4.586   6.517   3.255
 3093SOL    HW210179   4.610   6.678   3.271
 3094SOL     OW10180   3.891   5.463   4.316
 3094SOL    HW110181   3.886   5.363   4.321
 3094SOL    HW210182   3.882   5.501   4.408
 3095SOL     OW10183   1.775   5.406   4.896
 3095SOL    HW110184   1.847   5.442   4.956
 3095SOL    HW210185   1.726   5.332   4.943
 3096SOL     OW10186   0.630   1.984   6.127
 3096SOL    HW110187   0.713   1.984   6.071
 3096SOL    HW210188   0.610   2.077   6.157
 3097SOL     OW10189   1.590   0.923   6.851
 3097SOL    HW110190   1.645   0.843   6.829
 3097SOL    HW210191   1.648   1.004   6.858
 3098SOL     OW10192   3.780   2.960   0.389
 3098SOL    HW110193   3.688   2.936   0.356
 3098SOL    HW210194   3.841   2.882   0.377
 3099SOL     OW10195   1.401   6.083   5.551
 3099SOL    HW110196   1.359   6.117   5.636
 3099SOL    HW210197   1.484   6.033   5.573
 3100SOL     OW10198   6.313   0.001   6.342
 3100SOL    HW110199   6.299   0.095   6.375
 3100SOL    HW210200   6.325   6.965   6.421
 3101SOL     OW10201   3.007   0.610   1.206
 3101SOL    HW110202   2.913   0.641   1.224
 3101SOL    HW210203   3.071   0.683   1.232
 3102SOL     OW10204   1.349   6.069   0.827
 3102SOL    HW110205   1.415   6.139   0.800
 3102SOL    HW210206   1.280   6.059   0.755
 3103SOL     OW10207   4.274   4.372   1.700
 3103SOL    HW110208   4.327   4.333   1.775
 3103SOL    HW210209   4.309   4.338   1.613
 3104SOL     OW10210   5.674   6.007   3.732
 3104SOL    HW110211   5.602   5.966   3.676
 3104SOL    HW210212   5.728   5.935   3.775
 3105SOL     OW10213   5.718   6.054   4.039
 3105SOL    HW110214   5.659   6.086   3.964
 3105SOL    HW210215   5.813   6.066   4.013
 3106SOL     OW10216   6.773   3.572   4.503
 3106SOL    HW110217   6.714   3.519   4.564
 3106SOL    HW210218   6.859   3.594   4.551
 3107SOL     OW10219   2.591   6.877   4.086
 3107SOL    HW110220   2.626   6.961   4.128
 3107SOL    HW210221   2.543   6.900   4.001
 3108SOL     OW10222   2.014   0.046   3.003
 3108SOL    HW110223   2.111   0.049   3.030
 3108SOL    HW210224   2.000   6.997   2.937
 3109SOL     OW10225   4.536   5.523   3.502
 3109SOL    HW110226   4.467   5.483   3.563
 3109SOL    HW210227   4.627   5.492   3.531
 3110SOL     OW10228   0.248   2.664   1.969
 3110SOL    HW110229   0.238   2.725   1.890
 3110SOL    HW210230   0.288   2.714   2.046
 3111SOL     OW10231   0.443   5.008   2.317
 3111SOL    HW110232   0.375   5.072   2.282
 3111SOL    HW210233   0.401   4.918   2.330
 3112SOL     OW10234   3.288   3.431   5.985
 3112SOL    HW110235   3.328   3.444   5.894
 3112SOL    HW210236   3.262   3.334   5.995
 3113SOL     OW10237   4.163   0.060   4.265
 3113SOL    HW110238   4.066   0.081   4.256
 3113SOL    HW210239   4.190   7.018   4.195
 3114SOL     OW10240   5.225   5.464   0.823
 3114SOL    HW110241   5.214   5.365   0.811
 3114SOL    HW210242   5.177   5.511   0.749
 3115SOL     OW10243   3.383   3.142   2.769
 3115SOL    HW110244   3.386   3.192   2.682
 3115SOL    HW210245   3.343   3.201   2.839
 3116SOL     OW10246   0.257   1.502   6.720
 3116SOL    HW110247   0.339   1.477   6.668
 3116SOL    HW210248   0.182   1.520   6.657
 3117SOL     OW10249   3.079   4.366   6.218
 3117SOL    HW110250   3.142   4.430   6.262
 3117SOL    HW210251   3.025   4.318   6.287
 3118SOL     OW10252   6.251   5.256   0.042
 3118SOL    HW110253   6.243   5.164   0.003
 3118SOL    HW210254   6.170   5.277   0.097
 3119SOL     OW10255   2.216   4.006   6.666
 3119SOL    HW110256   2.133   3.989   6.719
 3119SOL    HW210257   2.293   4.024   6.728
 3120SOL     OW10258   2.599   5.402   6.788
 3120SOL    HW110259   2.552   5.481   6.826
 3120SOL    HW210260   2.696   5.405   6.813
 3121SOL     OW10261   6.755   5.739   3.938
 3121SOL    HW110262   6.722   5.645   3.947
 3121SOL    HW210263   6.736   5.772   3.845
 3122SOL     OW10264   3.516   6.125   1.497
 3122SOL    HW110265   3.539   6.141   1.593
 3122SOL    HW210266   3.419   6.105   1.489
 3123SOL     OW10267   3.046   0.135   3.812
 3123SOL    HW110268   3.010   0.050   3.774
 3123SOL    HW210269   3.084   0.191   3.738
 3124SOL     OW10270   3.811   6.925   5.841
 3124SOL    HW110271   3.895   6.965   5.877
 3124SOL    HW210272   3.777   6.856   5.905
 3125SOL     OW10273   6.958   1.800   6.072
 3125SOL    HW110274   6.917   1.851   5.997
 3125SOL    HW210275   0.032   1.794   6.058
 3126SOL     OW10276   3.646   6.330   6.393
 3126SOL    HW110277   3.678   6.276   6.315
 3126SOL    HW210278   3.703   6.310   6.473
 3127SOL     OW10279   0.827   1.049   4.283
 3127SOL    HW110280   0.924   1.028   4.296
 3127SOL    HW210281   0.805   1.048   4.185
 3128SOL     OW10282   1.685   0.826   1.122
 3128SOL    HW110283   1.611   0.867   1.068
 3128SOL    HW210284   1.711   0.738   1.081
 3129SOL     OW10285   1.281   3.349   2.679
 3129SOL    HW110286   1.300   3.262   2.632
 3129SOL    HW210287   1.188   3.347   2.714
 3130SOL     OW10288   2.423   5.589   3.155
 3130SOL    HW110289   2.507   5.624   3.197
 3130SOL    HW210290   2.374   5.665   3.111
 3131SOL     OW10291   0.513   3.263   3.762
 3131SOL    HW110292   0.561   3.190   3.714
 3131SOL    HW210293   0.484   3.231   3.852
 3132SOL     OW10294   4.907   3.556   6.063
 3132SOL    HW110295   4.896   3.563   5.964
 3132SOL    HW210296   5.002   3.532   6.084
 3133SOL     OW10297   2.354   1.549   3.886
 3133SOL    HW110298   2.313   1.546   3.977
 3133SOL    HW210299   2.288   1.589   3.821
 3134SOL     OW10300   5.761   2.261   1.931
 3134SOL    HW110301   5.794   2.350   1.898
 3134SOL    HW210302   5.681   2.234   1.877
 3135SOL     OW10303   1.058   2.709   3.085
 3135SOL    HW110304   0.998   2.787   3.104
 3135SOL    HW210305   1.082   2.708   2.988
 3136SOL     OW10306   6.508   0.941   4.822
 3136SOL    HW110307   6.479   0.899   4.908
 3136SOL    HW210308   6.603   0.973   4.832
 3137SOL     OW10309   0.574   1.661   4.192
 3137SOL    HW110310   0.503   1.731   4.203
 3137SOL    HW210311   0.551   1.582   4.249
 3138SOL     OW10312   6.351   2.245   4.249
 3138SOL    HW110313   6.306   2.330   4.218
 3138SOL    HW210314   6.410   2.211   4.176
 3139SOL     OW10315   5.028   5.598   5.402
 3139SOL    HW110316   5.060   5.628   5.312
 3139SOL    HW210317   5.040   5.671   5.468
 3140SOL     OW10318   6.311   6.001   5.379
 3140SOL    HW110319   6.313   6.066   5.455
 3140SOL    HW210320   6.244   5.930   5.399
 3141SOL     OW10321   0.850   0.407   1.840
 3141SOL    HW110322   0.778   0.399   1.771
 3141SOL    HW210323   0.878   0.502   1.848
 3142SOL     OW10324   3.592   6.949   0.880
 3142SOL    HW110325   3.555   6.986   0.966
 3142SOL    HW210326   3.517   6.909   0.827
 3143SOL     OW10327   0.156   1.632   0.508
 3143SOL    HW110328   0.234   1.635   0.445
 3143SOL    HW210329   0.186   1.592   0.595
 3144SOL     OW10330   2.840   3.046   0.138
 3144SOL    HW110331   2.828   3.020   0.233
 3144SOL    HW210332   2.937   3.043   0.114
 3145SOL     OW10333   2.194   5.104   2.576
 3145SOL    HW110334   2.122   5.158   2.622
 3145SOL    HW210335   2.259   5.166   2.533
 3146SOL     OW10336   2.046   6.894   4.033
 3146SOL    HW110337   2.033   6.920   4.128
 3146SOL    HW210338   1.957   6.880   3.990
 3147SOL     OW10339   4.092   4.288   0.914
 3147SOL    HW110340   4.101   4.229   0.834
 3147SOL    HW210341   4.092   4.231   0.997
 3148SOL     OW10342   2.641   5.844   4.534
 3148SOL    HW110343   2.564   5.781   4.525
 3148SOL    HW210344   2.714   5.799   4.585
 3149SOL     OW10345   2.205   6.430   5.656
 3149SOL    HW110346   2.277   6.379   5.704
 3149SOL    HW210347   2.117   6.384   5.670
 3150SOL     OW10348   6.276   0.298   4.537
 3150SOL    HW110349   6.336   0.332   4.464
 3150SOL    HW210350   6.189   0.269   4.497
 3151SOL     OW10351   3.947   6.548   1.690
 3151SOL    HW110352   3.937   6.647   1.684
 3151SOL    HW210353   4.042   6.524   1.707
 3152SOL     OW10354   1.518   5.049   6.660
 3152SOL    HW110355   1.601   5.060   6.606
 3152SOL    HW210356   1.439   5.039   6.600
 3153SOL     OW10357   6.893   3.900   3.460
 3153SOL    HW110358   6.888   3.934   3.366
 3153SOL    HW210359   6.870   3.975   3.523
 3154SOL     OW10360   6.105   2.665   6.387
 3154SOL    HW110361   6.065   2.749   6.424
 3154SOL    HW210362   6.188   2.642   6.439
 3155SOL     OW10363   4.375   5.615   0.276
 3155SOL    HW110364   4.464   5.660   0.271
 3155SOL    HW210365   4.371   5.556   0.357
 3156SOL     OW10366   3.426   3.828   3.634
 3156SOL    HW110367   3.469   3.766   3.699
 3156SOL    HW210368   3.417   3.783   3.545
 3157SOL     OW10369   1.986   2.180   4.872
 3157SOL    HW110370   1.995   2.121   4.792
 3157SOL    HW210371   2.072   2.183   4.921
 3158SOL     OW10372   4.767   6.903   2.038
 3158SOL    HW110373   4.768   6.859   2.128
 3158SOL    HW210374   4.796   6.837   1.969
 3159SOL     OW10375   5.758   4.417   0.728
 3159SOL    HW110376   5.850   4.391   0.700
 3159SOL    HW210377   5.739   4.381   0.819
 3160SOL     OW10378   6.059   4.511   0.392
 3160SOL    HW110379   5.988   4.564   0.346
 3160SOL    HW210380   6.017   4.435   0.442
 3161SOL     OW10381   0.716   1.754   3.871
 3161SOL    HW110382   0.756   1.793   3.954
 3161SOL    HW210383   0.620   1.731   3.888
 3162SOL     OW10384   0.265   0.493   6.358
 3162SOL    HW110385   0.292   0.590   6.357
 3162SOL    HW210386   0.333   0.440   6.408
 3163SOL     OW10387   1.567   4.503   5.358
 3163SOL    HW110388   1.490   4.490   5.296
 3163SOL    HW210389   1.621   4.582   5.330
 3164SOL     OW10390   6.385   5.099   5.610
 3164SOL    HW110391   6.288   5.120   5.621
 3164SOL    HW210392   6.397   4.999   5.612
 3165SOL     OW10393   6.957   2.524   1.698
 3165SOL    HW110394   0.001   2.587   1.663
 3165SOL    HW210395   7.003   2.446   1.741
 3166SOL     OW10396   3.538   3.148   6.471
 3166SOL    HW110397   3.548   3.242   6.438
 3166SOL    HW210398   3.446   3.134   6.506
 3167SOL     OW10399   0.274   4.790   2.325
 3167SOL    HW110400   0.327   4.727   2.382
 3167SOL    HW210401   0.179   4.759   2.321
 3168SOL     OW10402   6.675   3.266   0.568
 3168SOL    HW110403   6.632   3.176   0.563
 3168SOL    HW210404   6.610   3.335   0.537
 3169SOL     OW10405   3.267   2.559   5.843
 3169SOL    HW110406   3.358   2.517   5.842
 3169SOL    HW210407   3.247   2.596   5.752
 3170SOL     OW10408   3.348   0.369   4.717
 3170SOL    HW110409   3.314   0.456   4.752
 3170SOL    HW210410   3.304   0.349   4.630
 3171SOL     OW10411   6.505   5.707   2.938
 3171SOL    HW110412   6.583   5.690   2.998
 3171SOL    HW210413   6.530   5.685   2.844
 3172SOL     OW10414   5.326   6.708   5.287
 3172SOL    HW110415   5.387   6.778   5.323
 3172SOL    HW210416   5.346   6.692   5.191
 3173SOL     OW10417   1.296   0.891   1.626
 3173SOL    HW110418   1.245   0.959   1.572
 3173SOL    HW210419   1.394   0.903   1.609
 3174SOL     OW10420   2.473   3.056   6.974
 3174SOL    HW110421   2.387   3.010   6.995
 3174SOL    HW210422   2.496   3.120   0.023
 3175SOL     OW10423   6.936   5.964   0.164
 3175SOL    HW110424   6.977   6.041   0.213
 3175SOL    HW210425   6.894   5.902   0.230
 3176SOL     OW10426   0.848   5.294   6.979
 3176SOL    HW110427   0.874   5.368   0.017
 3176SOL    HW210428   0.930   5.260   6.933
 3177SOL     OW10429   0.913   0.295   3.559
 3177SOL    HW110430   0.879   0.388   3.571
 3177SOL    HW210431   0.836   0.232   3.549
 3178SOL     OW10432   3.851   3.358   0.089
 3178SOL    HW110433   3.757   3.338   0.116
 3178SOL    HW210434   3.852   3.442   0.034
 3179SOL     OW10435   1.271   2.655   4.689
 3179SOL    HW110436   1.271   2.693   4.781
 3179SOL    HW210437   1.182   2.671   4.646
 3180SOL     OW10438   6.598   1.343   6.871
 3180SOL    HW110439   6.503   1.369   6.858
 3180SOL    HW210440   6.615   1.256   6.825
 3181SOL     OW10441   0.355   1.177   2.015
 3181SOL    HW110442   0.293   1.127   2.074
 3181SOL    HW210443   0.440   1.125   2.004
 3182SOL     OW10444   1.718   6.076   5.858
 3182SOL    HW110445   1.759   6.132   5.787
 3182SOL    HW210446   1.786   6.056   5.929
 3183SOL     OW10447   4.815   3.803   1.098
 3183SOL    HW110448   4.878   3.739   1.143
 3183SOL    HW210449   4.849   3.897   1.109
 3184SOL     OW10450   0.182   2.133   2.880
 3184SOL    HW110451   0.183   2.045   2.833
 3184SOL    HW210452   0.217   2.204   2.818
 3185SOL     OW10453   0.550   6.323   0.042
 3185SOL    HW110454   0.563   6.255   6.995
 3185SOL    HW210455   0.465   6.304   0.091
 3186SOL     OW10456   3.599   0.288   1.659
 3186SOL    HW110457   3.658   0.366   1.681
 3186SOL    HW210458   3.565   0.247   1.744
 3187SOL     OW10459   3.714   4.496   0.623
 3187SOL    HW110460   3.668   4.448   0.699
 3187SOL    HW210461   3.649   4.556   0.577
 3188SOL     OW10462   3.596   0.177   3.822
 3188SOL    HW110463   3.685   0.150   3.786
 3188SOL    HW210464   3.586   0.145   3.916
 3189SOL     OW10465   6.072   6.411   2.043
 3189SOL    HW110466   6.073   6.370   2.134
 3189SOL    HW210467   5.979   6.441   2.021
 3190SOL     OW10468   1.305   0.400   2.359
 3190SOL    HW110469   1.333   0.485   2.403
 3190SOL    HW210470   1.264   0.420   2.270
 3191SOL     OW10471   3.238   1.289   1.024
 3191SOL    HW110472   3.242   1.236   0.939
 3191SOL    HW210473   3.300   1.368   1.016
 3192SOL     OW10474   5.599   3.241   4.564
 3192SOL    HW110475   5.698   3.245   4.571
 3192SOL    HW210476   5.559   3.324   4.605
 3193SOL     OW10477   5.355   4.391   1.836
 3193SOL    HW110478   5.431   4.446   1.803
 3193SOL    HW210479   5.343   4.311   1.776
 3194SOL     OW10480   3.231   5.596   4.547
 3194SOL    HW110481   3.153   5.602   4.610
 3194SOL    HW210482   3.272   5.687   4.535
 3195SOL     OW10483   6.232   4.106   4.225
 3195SOL    HW110484   6.186   4.158   4.153
 3195SOL    HW210485   6.228   4.156   4.311
 3196SOL     OW10486   6.842   6.065   6.189
 3196SOL    HW110487   6.913   6.016   6.239
 3196SOL    HW210488   6.800   6.133   6.248
 3197SOL     OW10489   0.668   4.487   5.734
 3197SOL    HW110490   0.579   4.448   5.756
 3197SOL    HW210491   0.673   4.581   5.768
 3198SOL     OW10492   5.948   0.261   1.290
 3198SOL    HW110493   5.953   0.195   1.365
 3198SOL    HW210494   5.984   0.349   1.320
 3199SOL     OW10495   2.902   1.873   3.248
 3199SOL    HW110496   2.983   1.865   3.189
 3199SOL    HW210497   2.825   1.824   3.206
 3200SOL     OW10498   6.668   1.769   0.382
 3200SOL    HW110499   6.751   1.737   0.335
 3200SOL    HW210500   6.599   1.794   0.314
 3201SOL     OW10501   3.723   4.864   2.802
 3201SOL    HW110502   3.755   4.860   2.707
 3201SOL    HW210503   3.623   4.871   2.803
 3202SOL     OW10504   1.455   4.926   1.912
 3202SOL    HW110505   1.550   4.952   1.933
 3202SOL    HW210506   1.455   4.837   1.867
 3203SOL     OW10507   4.671   0.131   0.872
 3203SOL    HW110508   4.676   0.202   0.801
 3203SOL    HW210509   4.608   0.161   0.944
 3204SOL     OW10510   6.351   6.459   2.139
 3204SOL    HW110511   6.279   6.468   2.071
 3204SOL    HW210512   6.367   6.363   2.159
 3205SOL     OW10513   1.511   4.228   4.437
 3205SOL    HW110514   1.462   4.267   4.515
 3205SOL    HW210515   1.548   4.302   4.381
 3206SOL     OW10516   2.126   6.302   0.217
 3206SOL    HW110517   2.183   6.351   0.152
 3206SOL    HW210518   2.169   6.302   0.307
 3207SOL     OW10519   1.652   1.038   3.002
 3207SOL    HW110520   1.645   1.060   2.905
 3207SOL    HW210521   1.594   1.101   3.054
 3208SOL     OW10522   5.868   6.282   6.041
 3208SOL    HW110523   5.903   6.245   5.955
 3208SOL    HW210524   5.838   6.377   6.027
 3209SOL     OW10525   0.898   6.512   3.143
 3209SOL    HW110526   0.971   6.446   3.124
 3209SOL    HW210527   0.937   6.593   3.185
 3210SOL     OW10528   0.421   6.247   2.141
 3210SOL    HW110529   0.408   6.190   2.059
 3210SOL    HW210530   0.466   6.193   2.212
 3211SOL     OW10531   0.375   4.530   3.908
 3211SOL    HW110532   0.332   4.620   3.915
 3211SOL    HW210533   0.305   4.459   3.921
 3212SOL     OW10534   4.463   2.378   4.772
 3212SOL    HW110535   4.377   2.345   4.812
 3212SOL    HW210536   4.534   2.380   4.843
 3213SOL     OW10537   5.207   0.190   2.146
 3213SOL    HW110538   5.235   0.148   2.060
 3213SOL    HW210539   5.136   0.135   2.189
 3214SOL     OW10540   4.918   3.884   0.284
 3214SOL    HW110541   4.865   3.969   0.291
 3214SOL    HW210542   4.967   3.868   0.369
 3215SOL     OW10543   6.760   1.337   0.116
 3215SOL    HW110544   6.707   1.391   0.181
 3215SOL    HW210545   6.727   1.353   0.023
 3216SOL     OW10546   5.159   6.721   5.882
 3216SOL    HW110547   5.186   6.814   5.908
 3216SOL    HW210548   5.195   6.656   5.949
 3217SOL     OW10549   0.384   4.506   6.412
 3217SOL    HW110550   0.480   4.509   6.385
 3217SOL    HW210551   0.362   4.588   6.465
 3218SOL     OW10552   4.275   2.784   1.648
 3218SOL    HW110553   4.206   2.768   1.577
 3218SOL    HW210554   4.346   2.715   1.642
 3219SOL     OW10555   0.614   2.016   3.403
 3219SOL    HW110556   0.636   1.979   3.492
 3219SOL    HW210557   0.688   1.996   3.338
 3220SOL     OW10558   6.888   2.719   6.795
 3220SOL    HW110559   6.886   2.622   6.771
 3220SOL    HW210560   6.840   2.772   6.724
 3221SOL     OW10561   4.354   0.292   1.645
 3221SOL    HW110562   4.364   0.384   1.684
 3221SOL    HW210563   4.266   0.286   1.597
 3222SOL     OW10564   6.173   3.678   1.985
 3222SOL    HW110565   6.115   3.727   1.919
 3222SOL    HW210566   6.243   3.626   1.935
 3223SOL     OW10567   0.937   4.207   5.418
 3223SOL    HW110568   1.031   4.173   5.416
 3223SOL    HW210569   0.923   4.262   5.500
 3224SOL     OW10570   2.846   6.293   1.292
 3224SOL    HW110571   2.831   6.202   1.254
 3224SOL    HW210572   2.760   6.344   1.292
 3225SOL     OW10573   1.374   1.589   0.785
 3225SOL    HW110574   1.295   1.584   0.725
 3225SOL    HW210575   1.440   1.518   0.761
 3226SOL     OW10576   6.673   1.365   3.959
 3226SOL    HW110577   6.712   1.457   3.964
 3226SOL    HW210578   6.575   1.371   3.942
 3227SOL     OW10579   2.451   1.593   4.930
 3227SOL    HW110580   2.467   1.576   4.833
 3227SOL    HW210581   2.395   1.520   4.968
 3228SOL     OW10582   4.938   3.103   4.987
 3228SOL    HW110583   4.919   3.190   5.033
 3228SOL    HW210584   4.887   3.100   4.900
 3229SOL     OW10585   4.707   1.619   4.405
 3229SOL    HW110586   4.716   1.580   4.496
 3229SOL    HW210587   4.656   1.555   4.346
 3230SOL     OW10588   1.103   6.970   3.934
 3230SOL    HW110589   1.031   6.956   4.002
 3230SOL    HW210590   1.187   6.996   3.981
 3231SOL     OW10591   4.345   4.499   0.260
 3231SOL    HW110592   4.316   4.530   0.351
 3231SOL    HW210593   4.321   4.403   0.249
 3232SOL     OW10594   1.156   4.057   3.570
 3232SOL    HW110595   1.147   4.007   3.484
 3232SOL    HW210596   1.107   4.144   3.563
 3233SOL     OW10597   2.155   4.293   0.353
 3233SOL    HW110598   2.253   4.312   0.361
 3233SOL    HW210599   2.105   4.347   0.421
 3234SOL     OW10600   0.003   1.486   4.033
 3234SOL    HW110601   6.939   1.532   4.037
 3234SOL    HW210602   0.076   1.554   4.037
 3235SOL     OW10603   6.359   1.035   2.348
 3235SOL    HW110604   6.325   1.112   2.401
 3235SOL    HW210605   6.361   1.059   2.251
 3236SOL     OW10606   6.807   1.668   1.402
 3236SOL    HW110607   6.855   1.752   1.428
 3236SOL    HW210608   6.816   1.600   1.475
 3237SOL     OW10609   3.096   5.735   4.746
 3237SOL    HW110610   3.095   5.706   4.842
 3237SOL    HW210611   3.163   5.808   4.735
 3238SOL     OW10612   0.033   6.071   6.359
 3238SOL    HW110613   0.057   6.149   6.301
 3238SOL    HW210614   0.069   6.085   6.451
 3239SOL     OW10615   2.188   6.435   6.341
 3239SOL    HW110616   2.249   6.459   6.266
 3239SOL    HW210617   2.224   6.470   6.427
 3240SOL     OW10618   1.247   2.430   4.899
 3240SOL    HW110619   1.298   2.373   4.834
 3240SOL    HW210620   1.151   2.430   4.874
 3241SOL     OW10621   4.291   6.257   5.367
 3241SOL    HW110622   4.215   6.252   5.303
 3241SOL    HW210623   4.353   6.330   5.340
 3242SOL     OW10624   2.822   1.049   1.130
 3242SOL    HW110625   2.843   0.964   1.081
 3242SOL    HW210626   2.900   1.111   1.122
 3243SOL     OW10627   3.495   5.818   2.159
 3243SOL    HW110628   3.546   5.750   2.105
 3243SOL    HW210629   3.463   5.775   2.244
 3244SOL     OW10630   1.575   0.173   5.082
 3244SOL    HW110631   1.477   0.191   5.093
 3244SOL    HW210632   1.621   0.191   5.169
 3245SOL     OW10633   3.232   2.188   5.775
 3245SOL    HW110634   3.231   2.133   5.691
 3245SOL    HW210635   3.327   2.202   5.804
 3246SOL     OW10636   5.709   6.651   2.221
 3246SOL    HW110637   5.764   6.610   2.148
 3246SOL    HW210638   5.736   6.746   2.236
 3247SOL     OW10639   6.135   3.041   5.045
 3247SOL    HW110640   6.171   3.058   5.136
 3247SOL    HW210641   6.189   2.971   4.999
 3248SOL     OW10642   5.323   4.092   3.379
 3248SOL    HW110643   5.272   4.169   3.340
 3248SOL    HW210644   5.261   4.032   3.429
 3249SOL     OW10645   3.524   4.810   5.931
 3249SOL    HW110646   3.514   4.731   5.871
 3249SOL    HW210647   3.596   4.870   5.895
 3250SOL     OW10648   4.924   4.771   0.676
 3250SOL    HW110649   4.839   4.760   0.728
 3250SOL    HW210650   4.991   4.702   0.706
 3251SOL     OW10651   2.583   1.792   3.411
 3251SOL    HW110652   2.637   1.722   3.457
 3251SOL    HW210653   2.488   1.760   3.401
 3252SOL     OW10654   3.180   2.143   2.921
 3252SOL    HW110655   3.263   2.133   2.866
 3252SOL    HW210656   3.102   2.164   2.862
 3253SOL     OW10657   4.943   4.334   2.104
 3253SOL    HW110658   4.929   4.430   2.125
 3253SOL    HW210659   5.020   4.299   2.156
 3254SOL     OW10660   5.950   3.835   3.165
 3254SOL    HW110661   5.974   3.786   3.248
 3254SOL    HW210662   5.975   3.780   3.085
 3255SOL     OW10663   3.087   4.641   0.450
 3255SOL    HW110664   3.007   4.702   0.445
 3255SOL    HW210665   3.165   4.692   0.486
 3256SOL     OW10666   6.572   7.006   5.447
 3256SOL    HW110667   6.506   6.974   5.515
 3256SOL    HW210668   6.563   0.081   5.437
 3257SOL     OW10669   2.703   0.806   1.839
 3257SOL    HW110670   2.771   0.743   1.877
 3257SOL    HW210671   2.668   0.770   1.753
 3258SOL     OW10672   4.588   6.956   2.634
 3258SOL    HW110673   4.579   6.888   2.562
 3258SOL    HW210674   4.516   6.942   2.702
 3259SOL     OW10675   5.950   5.718   3.258
 3259SOL    HW110676   5.988   5.628   3.238
 3259SOL    HW210677   5.864   5.729   3.208
 3260SOL     OW10678   1.946   1.777   1.239
 3260SOL    HW110679   1.999   1.860   1.220
 3260SOL    HW210680   1.990   1.726   1.313
 3261SOL     OW10681   4.717   6.778   4.159
 3261SOL    HW110682   4.738   6.843   4.231
 3261SOL    HW210683   4.798   6.721   4.141
 3262SOL     OW10684   4.817   2.219   3.334
 3262SOL    HW110685   4.783   2.264   3.417
 3262SOL    HW210686   4.774   2.261   3.254
 3263SOL     OW10687   2.923   5.162   3.002
 3263SOL    HW110688   3.016   5.172   3.037
 3263SOL    HW210689   2.925   5.108   2.918
 3264SOL     OW10690   4.966   3.884   6.648
 3264SOL    HW110691   4.890   3.889   6.584
 3264SOL    HW210692   5.029   3.812   6.621
 3265SOL     OW10693   5.223   6.979   5.926
 3265SOL    HW110694   5.167   0.028   5.889
 3265SOL    HW210695   5.319   6.994   5.902
 3266SOL     OW10696   1.137   2.345   6.178
 3266SOL    HW110697   1.096   2.369   6.090
 3266SOL    HW210698   1.236   2.357   6.173
 3267SOL     OW10699   5.616   4.059   0.974
 3267SOL    HW110700   5.668   3.978   0.949
 3267SOL    HW210701   5.525   4.055   0.933
 3268SOL     OW10702   2.324   5.583   0.602
 3268SOL    HW110703   2.335   5.539   0.513
 3268SOL    HW210704   2.285   5.675   0.589
 3269SOL     OW10705   4.224   2.973   1.255
 3269SOL    HW110706   4.194   2.897   1.198
 3269SOL    HW210707   4.157   3.048   1.248
 3270SOL     OW10708   6.701   5.430   2.900
 3270SOL    HW110709   6.752   5.513   2.920
 3270SOL    HW210710   6.640   5.408   2.976
 3271SOL     OW10711   4.816   6.898   0.391
 3271SOL    HW110712   4.785   6.855   0.306
 3271SOL    HW210713   4.774   6.989   0.399
 3272SOL     OW10714   4.152   5.635   6.000
 3272SOL    HW110715   4.148   5.536   6.014
 3272SOL    HW210716   4.208   5.655   5.920
 3273SOL     OW10717   6.991   6.834   3.210
 3273SOL    HW110718   6.903   6.881   3.204
 3273SOL    HW210719   0.005   6.825   3.118
 3274SOL     OW10720   3.408   0.498   1.559
 3274SOL    HW110721   3.496   0.495   1.605
 3274SOL    HW210722   3.398   0.418   1.500
 3275SOL     OW10723   4.473   0.664   5.858
 3275SOL    HW110724   4.503   0.589   5.917
 3275SOL    HW210725   4.374   0.663   5.850
 3276SOL     OW10726   2.131   5.295   1.322
 3276SOL    HW110727   2.034   5.296   1.345
 3276SOL    HW210728   2.176   5.218   1.369
 3277SOL     OW10729   0.424   5.896   6.627
 3277SOL    HW110730   0.490   5.918   6.699
 3277SOL    HW210731   0.382   5.981   6.594
 3278SOL     OW10732   1.183   6.965   0.460
 3278SOL    HW110733   1.259   0.002   0.483
 3278SOL    HW210734   1.102   7.020   0.438
 3279SOL     OW10735   2.152   6.443   1.543
 3279SOL    HW110736   2.160   6.344   1.550
 3279SOL    HW210737   2.215   6.486   1.608
 3280SOL     OW10738   2.896   5.852   3.463
 3280SOL    HW110739   2.903   5.878   3.367
 3280SOL    HW210740   2.817   5.792   3.476
 3281SOL     OW10741   1.648   6.923   1.012
 3281SOL    HW110742   1.739   6.906   1.051
 3281SOL    HW210743   1.592   6.840   1.022
 3282SOL     OW10744   1.557   4.569   2.001
 3282SOL    HW110745   1.502   4.611   1.929
 3282SOL    HW210746   1.501   4.503   2.051
 3283SOL     OW10747   1.325   0.720   3.018
 3283SOL    HW110748   1.335   0.621   3.012
 3283SOL    HW210749   1.339   0.760   2.927
 3284SOL     OW10750   2.325   6.062   5.566
 3284SOL    HW110751   2.348   5.986   5.626
 3284SOL    HW210752   2.236   6.045   5.523
 3285SOL     OW10753   0.651   3.614   4.154
 3285SOL    HW110754   0.691   3.690   4.205
 3285SOL    HW210755   0.666   3.627   4.056
 3286SOL     OW10756   5.097   4.932   6.960
 3286SOL    HW110757   5.078   4.902   0.029
 3286SOL    HW210758   5.098   4.853   6.899
 3287SOL     OW10759   0.679   2.198   1.229
 3287SOL    HW110760   0.595   2.145   1.244
 3287SOL    HW210761   0.743   2.144   1.176
 3288SOL     OW10762   0.570   0.004   0.373
 3288SOL    HW110763   0.568   0.057   0.457
 3288SOL    HW210764   0.477   7.003   0.346
 3289SOL     OW10765   1.708   0.527   3.908
 3289SOL    HW110766   1.757   0.444   3.935
 3289SOL    HW210767   1.773   0.602   3.896
 3290SOL     OW10768   6.838   4.638   4.584
 3290SOL    HW110769   6.749   4.592   4.595
 3290SOL    HW210770   6.861   4.643   4.487
 3291SOL     OW10771   1.292   1.739   1.565
 3291SOL    HW110772   1.212   1.716   1.620
 3291SOL    HW210773   1.331   1.825   1.597
 3292SOL     OW10774   0.912   6.984   4.157
 3292SOL    HW110775   0.952   0.051   4.149
 3292SOL    HW210776   0.829   6.979   4.101
 3293SOL     OW10777   5.873   0.501   2.911
 3293SOL    HW110778   5.957   0.451   2.932
 3293SOL    HW210779   5.891   0.599   2.917
 3294SOL     OW10780   0.003   6.516   1.382
 3294SOL    HW110781   6.975   6.449   1.329
 3294SOL    HW210782   0.004   6.604   1.334
 3295SOL     OW10783   2.849   3.186   6.357
 3295SOL    HW110784   2.843   3.104   6.413
 3295SOL    HW210785   2.757   3.219   6.335
 3296SOL     OW10786   0.905   0.093   1.609
 3296SOL    HW110787   0.809   0.096   1.637
 3296SOL    HW210788   0.962   0.082   1.691
 3297SOL     OW10789   3.681   0.359   5.385
 3297SOL    HW110790   3.724   0.285   5.333
 3297SOL    HW210791   3.642   0.426   5.321
 3298SOL     OW10792   6.984   5.643   3.310
 3298SOL    HW110793   6.939   5.580   3.246
 3298SOL    HW210794   6.973   5.609   3.404
 3299SOL     OW10795   2.249   1.391   4.411
 3299SOL    HW110796   2.323   1.345   4.361
 3299SOL    HW210797   2.174   1.410   4.348
 3300SOL     OW10798   0.601   7.000   4.896
 3300SOL    HW110799   0.622   6.926   4.831
 3300SOL    HW210800   0.634   0.062   4.860
 3301SOL     OW10801   6.476   4.171   2.311
 3301SOL    HW110802   6.532   4.204   2.235
 3301SOL    HW210803   6.498   4.075   2.330
 3302SOL     OW10804   1.703   5.600   5.545
 3302SOL    HW110805   1.686   5.591   5.447
 3302SOL    HW210806   1.801   5.601   5.562
 3303SOL     OW10807   3.540   3.534   5.234
 3303SOL    HW110808   3.634   3.569   5.244
 3303SOL    HW210809   3.515   3.482   5.316
 3304SOL     OW10810   1.689   0.734   4.097
 3304SOL    HW110811   1.689   0.644   4.054
 3304SOL    HW210812   1.691   0.804   4.026
 3305SOL     OW10813   1.347   2.210   0.341
 3305SOL    HW110814   1.383   2.117   0.350
 3305SOL    HW210815   1.289   2.231   0.420
 3306SOL     OW10816   1.179   1.256   0.880
 3306SOL    HW110817   1.194   1.162   0.909
 3306SOL    HW210818   1.150   1.311   0.958
 3307SOL     OW10819   0.285   6.650   6.990
 3307SOL    HW110820   0.331   6.599   6.917
 3307SOL    HW210821   0.351   6.673   0.037
 3308SOL     OW10822   5.736   5.785   0.219
 3308SOL    HW110823   5.731   5.797   0.120
 3308SOL    HW210824   5.770   5.694   0.241
 3309SOL     OW10825   0.477   4.649   2.120
 3309SOL    HW110826   0.542   4.588   2.166
 3309SOL    HW210827   0.422   4.696   2.188
 3310SOL     OW10828   2.447   6.825   2.100
 3310SOL    HW110829   2.419   6.899   2.039
 3310SOL    HW210830   2.372   6.804   2.163
 3311SOL     OW10831   4.669   5.286   0.532
 3311SOL    HW110832   4.656   5.211   0.597
 3311SOL    HW210833   4.684   5.371   0.583
 3312SOL     OW10834   2.051   2.564   5.830
 3312SOL    HW110835   2.064   2.485   5.889
 3312SOL    HW210836   2.120   2.563   5.757
 3313SOL     OW10837   5.592   6.433   5.090
 3313SOL    HW110838   5.606   6.529   5.114
 3313SOL    HW210839   5.674   6.380   5.112
 3314SOL     OW10840   0.753   3.946   6.598
 3314SOL    HW110841   0.821   3.911   6.533
 3314SOL    HW210842   0.714   3.870   6.649
 3315SOL     OW10843   6.446   3.357   3.436
 3315SOL    HW110844   6.489   3.297   3.368
 3315SOL    HW210845   6.465   3.452   3.413
 3316SOL     OW10846   3.640   0.510   6.315
 3316SOL    HW110847   3.663   0.590   6.370
 3316SOL    HW210848   3.587   0.446   6.369
 3317SOL     OW10849   6.253   2.766   1.166
 3317SOL    HW110850   6.299   2.739   1.251
 3317SOL    HW210851   6.172   2.821   1.188
 3318SOL     OW10852   2.571   4.932   6.584
 3318SOL    HW110853   2.601   4.870   6.656
 3318SOL    HW210854   2.514   4.882   6.519
 3319SOL     OW10855   1.031   6.083   6.159
 3319SOL    HW110856   1.117   6.083   6.211
 3319SOL    HW210857   1.014   5.991   6.123
 3320SOL     OW10858   1.261   0.655   1.052
 3320SOL    HW110859   1.217   0.675   1.139
 3320SOL    HW210860   1.353   0.620   1.068
 3321SOL     OW10861   3.776   3.986   4.102
 3321SOL    HW110862   3.871   3.955   4.096
 3321SOL    HW210863   3.717   3.906   4.117
 3322SOL     OW10864   5.148   3.963   2.611
 3322SOL    HW110865   5.071   3.901   2.622
 3322SOL    HW210866   5.129   4.049   2.659
 3323SOL     OW10867   1.439   4.314   0.724
 3323SOL    HW110868   1.484   4.385   0.779
 3323SOL    HW210869   1.503   4.280   0.655
 3324SOL     OW10870   6.297   3.222   1.942
 3324SOL    HW110871   6.313   3.178   1.854
 3324SOL    HW210872   6.271   3.317   1.927
 3325SOL     OW10873   1.135   4.777   5.839
 3325SOL    HW110874   1.049   4.756   5.792
 3325SOL    HW210875   1.199   4.818   5.774
 3326SOL     OW10876   4.565   6.939   2.324
 3326SOL    HW110877   4.500   6.872   2.358
 3326SOL    HW210878   4.519   7.002   2.262
 3327SOL     OW10879   4.819   5.849   1.961
 3327SOL    HW110880   4.863   5.859   1.871
 3327SOL    HW210881   4.890   5.838   2.031
 3328SOL     OW10882   6.319   5.924   3.204
 3328SOL    HW110883   6.372   5.849   3.243
 3328SOL    HW210884   6.334   6.007   3.257
 3329SOL     OW10885   5.738   0.269   6.027
 3329SOL    HW110886   5.729   0.363   6.060
 3329SOL    HW210887   5.724   0.267   5.928
 3330SOL     OW10888   5.759   0.571   3.570
 3330SOL    HW110889   5.770   0.509   3.647
 3330SOL    HW210890   5.749   0.518   3.486
 3331SOL     OW10891   0.070   3.285   2.362
 3331SOL    HW110892   0.031   3.222   2.428
 3331SOL    HW210893   0.166   3.303   2.385
 3332SOL     OW10894   4.632   5.081   1.193
 3332SOL    HW110895   4.700   5.118   1.257
 3332SOL    HW210896   4.647   5.119   1.102
 3333SOL     OW10897   2.222   3.962   1.034
 3333SOL    HW110898   2.247   4.048   1.077
 3333SOL    HW210899   2.247   3.964   0.937
 3334SOL     OW10900   2.176   2.829   2.015
 3334SOL    HW110901   2.179   2.869   1.923
 3334SOL    HW210902   2.098   2.867   2.065
 3335SOL     OW10903   4.563   4.352   6.727
 3335SOL    HW110904   4.611   4.274   6.687
 3335SOL    HW210905   4.501   4.391   6.659
 3336SOL     OW10906   3.532   5.628   6.079
 3336SOL    HW110907   3.477   5.681   6.143
 3336SOL    HW210908   3.610   5.588   6.127
 3337SOL     OW10909   3.149   3.948   4.303
 3337SOL    HW110910   3.142   3.936   4.402
 3337SOL    HW210911   3.206   4.028   4.283
 3338SOL     OW10912   3.550   3.037   1.675
 3338SOL    HW110913   3.543   3.056   1.577
 3338SOL    HW210914   3.462   3.055   1.719
 3339SOL     OW10915   0.604   0.432   5.712
 3339SOL    HW110916   0.593   0.333   5.712
 3339SOL    HW210917   0.514   0.476   5.713
 3340SOL     OW10918   5.102   1.981   6.586
 3340SOL    HW110919   5.008   2.007   6.608
 3340SOL    HW210920   5.131   2.028   6.503
 3341SOL     OW10921   1.194   3.651   1.561
 3341SOL    HW110922   1.120   3.707   1.524
 3341SOL    HW210923   1.260   3.709   1.608
 3342SOL     OW10924   5.720   0.414   3.330
 3342SOL    HW110925   5.747   0.319   3.313
 3342SOL    HW210926   5.704   0.459   3.242
 3343SOL     OW10927   3.522   5.004   0.404
 3343SOL    HW110928   3.509   5.091   0.451
 3343SOL    HW210929   3.598   5.012   0.340
 3344SOL     OW10930   1.767   3.636   0.997
 3344SOL    HW110931   1.686   3.676   0.953
 3344SOL    HW210932   1.846   3.694   0.978
 3345SOL     OW10933   4.539   5.130   0.750
 3345SOL    HW110934   4.455   5.168   0.790
 3345SOL    HW210935   4.523   5.036   0.723
 3346SOL     OW10936   0.736   0.579   0.467
 3346SOL    HW110937   0.767   0.522   0.390
 3346SOL    HW210938   0.767   0.673   0.453
 3347SOL     OW10939   1.013   3.208   5.720
 3347SOL    HW110940   1.034   3.263   5.801
 3347SOL    HW210941   1.053   3.117   5.731
 3348SOL     OW10942   3.073   4.126   5.753
 3348SOL    HW110943   2.985   4.155   5.716
 3348SOL    HW210944   3.058   4.070   5.835
 3349SOL     OW10945   2.378   5.344   1.770
 3349SOL    HW110946   2.432   5.352   1.854
 3349SOL    HW210947   2.388   5.427   1.716
 3350SOL     OW10948   3.095   5.233   4.348
 3350SOL    HW110949   3.162   5.274   4.410
 3350SOL    HW210950   3.025   5.186   4.400
 3351SOL     OW10951   4.536   0.051   2.094
 3351SOL    HW110952   4.612   7.024   2.053
 3351SOL    HW210953   4.490   0.104   2.024
 3352SOL     OW10954   6.178   1.106   0.477
 3352SOL    HW110955   6.117   1.095   0.555
 3352SOL    HW210956   6.273   1.092   0.507
 3353SOL     OW10957   4.574   0.361   5.755
 3353SOL    HW110958   4.549   0.279   5.703
 3353SOL    HW210959   4.568   0.441   5.695
 3354SOL     OW10960   3.654   1.693   0.528
 3354SOL    HW110961   3.689   1.754   0.599
 3354SOL    HW210962   3.714   1.698   0.448
 3355SOL     OW10963   0.840   2.031   5.968
 3355SOL    HW110964   0.827   2.124   5.934
 3355SOL    HW210965   0.901   2.032   6.048
 3356SOL     OW10966   2.903   0.157   5.299
 3356SOL    HW110967   2.893   0.241   5.353
 3356SOL    HW210968   2.861   0.170   5.210
 3357SOL     OW10969   3.110   3.450   4.291
 3357SOL    HW110970   3.153   3.384   4.352
 3357SOL    HW210971   3.165   3.533   4.287
 3358SOL     OW10972   6.856   1.941   1.587
 3358SOL    HW110973   6.760   1.967   1.596
 3358SOL    HW210974   6.911   2.021   1.562
 3359SOL     OW10975   0.565   6.731   3.235
 3359SOL    HW110976   0.658   6.766   3.224
 3359SOL    HW210977   0.547   6.716   3.332
 3360SOL     OW10978   1.535   5.744   5.003
 3360SOL    HW110979   1.445   5.787   5.006
 3360SOL    HW210980   1.526   5.648   4.980
 3361SOL     OW10981   0.690   6.846   4.674
 3361SOL    HW110982   0.773   6.790   4.678
 3361SOL    HW210983   0.697   6.912   4.599
 3362SOL     OW10984   3.474   0.527   5.242
 3362SOL    HW110985   3.420   0.609   5.263
 3362SOL    HW210986   3.413   0.456   5.207
 3363SOL     OW10987   5.140   3.155   0.674
 3363SOL    HW110988   5.131   3.250   0.645
 3363SOL    HW210989   5.085   3.139   0.755
 3364SOL     OW10990   2.395   2.977   1.143
 3364SOL    HW110991   2.368   2.991   1.048
 3364SOL    HW210992   2.313   2.966   1.200
 3365SOL     OW10993   0.359   2.910   2.775
 3365SOL    HW110994   0.333   2.847   2.701
 3365SOL    HW210995   0.320   2.878   2.861
 3366SOL     OW10996   5.723   3.141   3.214
 3366SOL    HW110997   5.691   3.135   3.309
 3366SOL    HW210998   5.818   3.172   3.214
 3367SOL     OW10999   3.204   3.495   3.441
 3367SOL    HW111000   3.110   3.509   3.471
 3367SOL    HW211001   3.232   3.401   3.461
 3368SOL     OW11002   1.600   1.155   3.666
 3368SOL    HW111003   1.685   1.186   3.709
 3368SOL    HW211004   1.545   1.234   3.640
 3369SOL     OW11005   5.988   2.927   0.627
 3369SOL    HW111006   6.021   2.938   0.534
 3369SOL    HW211007   5.890   2.945   0.630
 3370SOL     OW11008   0.012   5.936   3.686
 3370SOL    HW111009   0.093   5.901   3.639
 3370SOL    HW211010   0.007   5.898   3.778
 3371SOL     OW11011   3.223   2.731   1.732
 3371SOL    HW111012   3.320   2.739   1.706
 3371SOL    HW211013   3.194   2.636   1.725
 3372SOL     OW11014   5.516   2.833   3.496
 3372SOL    HW111015   5.465   2.754   3.531
 3372SOL    HW211016   5.614   2.811   3.497
 3373SOL     OW11017   0.938   4.814   0.668
 3373SOL    HW111018   0.890   4.887   0.619
 3373SOL    HW211019   1.006   4.773   0.607
 3374SOL     OW11020   1.067   5.543   3.860
 3374SOL    HW111021   1.035   5.624   3.909
 3374SOL    HW211022   1.091   5.472   3.926
 3375SOL     OW11023   6.842   6.967   5.601
 3375SOL    HW111024   6.903   7.009   5.667
 3375SOL    HW211025   6.896   6.926   5.527
 3376SOL     OW11026   3.362   3.946   5.078
 3376SOL    HW111027   3.423   3.877   5.039
 3376SOL    HW211028   3.411   4.032   5.089
 3377SOL     OW11029   6.087   5.595   4.579
 3377SOL    HW111030   6.079   5.519   4.515
 3377SOL    HW211031   5.995   5.631   4.600
 3378SOL     OW11032   1.111   6.121   0.094
 3378SOL    HW111033   1.152   6.209   0.070
 3378SOL    HW211034   1.054   6.131   0.176
 3379SOL     OW11035   5.787   5.031   3.842
 3379SOL    HW111036   5.708   4.982   3.807
 3379SOL    HW211037   5.766   5.065   3.934
 3380SOL     OW11038   1.259   4.460   1.849
 3380SOL    HW111039   1.235   4.503   1.936
 3380SOL    HW211040   1.314   4.378   1.866
 3381SOL     OW11041   3.131   4.443   6.991
 3381SOL    HW111042   3.138   4.509   6.916
 3381SOL    HW211043   3.155   4.488   0.053
 3382SOL     OW11044   0.421   3.513   6.653
 3382SOL    HW111045   0.450   3.474   6.566
 3382SOL    HW211046   0.339   3.570   6.639
 3383SOL     OW11047   3.831   5.904   0.279
 3383SOL    HW111048   3.819   6.002   0.289
 3383SOL    HW211049   3.909   5.874   0.334
 3384SOL     OW11050   3.104   2.647   6.346
 3384SOL    HW111051   3.060   2.676   6.431
 3384SOL    HW211052   3.119   2.549   6.347
 3385SOL     OW11053   5.945   2.181   4.660
 3385SOL    HW111054   6.044   2.171   4.665
 3385SOL    HW211055   5.909   2.120   4.589
 3386SOL     OW11056   6.798   4.483   5.196
 3386SOL    HW111057   6.749   4.506   5.280
 3386SOL    HW211058   6.733   4.475   5.120
 3387SOL     OW11059   6.188   0.670   2.851
 3387SOL    HW111060   6.181   0.608   2.773
 3387SOL    HW211061   6.106   0.727   2.856
 3388SOL     OW11062   1.149   4.123   0.983
 3388SOL    HW111063   1.110   4.037   0.950
 3388SOL    HW211064   1.246   4.127   0.959
 3389SOL     OW11065   6.489   5.140   6.156
 3389SOL    HW111066   6.560   5.072   6.172
 3389SOL    HW211067   6.519   5.203   6.085
 3390SOL     OW11068   3.024   4.317   0.821
 3390SOL    HW111069   2.992   4.387   0.757
 3390SOL    HW211070   2.952   4.296   0.887
 3391SOL     OW11071   5.341   4.150   5.498
 3391SOL    HW111072   5.410   4.165   5.427
 3391SOL    HW211073   5.250   4.173   5.462
 3392SOL     OW11074   4.711   5.398   5.716
 3392SOL    HW111075   4.760   5.353   5.790
 3392SOL    HW211076   4.751   5.488   5.700
 3393SOL     OW11077   3.406   0.879   0.428
 3393SOL    HW111078   3.402   0.904   0.525
 3393SOL    HW211079   3.314   0.860   0.395
 3394SOL     OW11080   2.972   5.822   1.714
 3394SOL    HW111081   3.062   5.861   1.698
 3394SOL    HW211082   2.980   5.722   1.722
 3395SOL     OW11083   1.787   5.997   2.830
 3395SOL    HW111084   1.859   6.031   2.890
 3395SOL    HW211085   1.714   6.066   2.824
 3396SOL     OW11086   3.792   0.103   4.184
 3396SOL    HW111087   3.827   0.010   4.196
 3396SOL    HW211088   3.820   0.159   4.262
 3397SOL     OW11089   3.428   6.188   2.097
 3397SOL    HW111090   3.425   6.243   2.181
 3397SOL    HW211091   3.391   6.097   2.115
 3398SOL     OW11092   6.342   0.291   1.091
 3398SOL    HW111093   6.317   0.204   1.132
 3398SOL    HW211094   6.441   0.294   1.077
 3399SOL     OW11095   6.217   6.322   2.525
 3399SOL    HW111096   6.176   6.243   2.568
 3399SOL    HW211097   6.215   6.400   2.588
 3400SOL     OW11098   3.591   3.153   5.687
 3400SOL    HW111099   3.526   3.134   5.761
 3400SOL    HW211100   3.557   3.113   5.602
 3401SOL     OW11101   6.399   3.774   3.762
 3401SOL    HW111102   6.478   3.828   3.792
 3401SOL    HW211103   6.325   3.785   3.828
 3402SOL     OW11104   6.794   4.236   0.114
 3402SOL    HW111105   6.766   4.148   0.075
 3402SOL    HW211106   6.886   4.227   0.153
 3403SOL     OW11107   5.131   0.174   3.903
 3403SOL    HW111108   5.048   0.138   3.945
 3403SOL    HW211109   5.169   0.247   3.960
 3404SOL     OW11110   5.174   4.745   3.150
 3404SOL    HW111111   5.198   4.811   3.079
 3404SOL    HW211112   5.251   4.733   3.212
 3405SOL     OW11113   4.773   0.156   0.375
 3405SOL    HW111114   4.674   0.155   0.385
 3405SOL    HW211115   4.797   0.153   0.277
 3406SOL     OW11116   4.786   4.596   1.365
 3406SOL    HW111117   4.867   4.542   1.387
 3406SOL    HW211118   4.813   4.676   1.311
 3407SOL     OW11119   2.554   1.677   0.679
 3407SOL    HW111120   2.629   1.688   0.614
 3407SOL    HW211121   2.582   1.711   0.769
 3408SOL     OW11122   2.705   6.650   4.486
 3408SOL    HW111123   2.759   6.732   4.469
 3408SOL    HW211124   2.752   6.591   4.552
 3409SOL     OW11125   4.733   2.171   7.008
 3409SOL    HW111126   4.657   2.137   6.952
 3409SOL    HW211127   4.699   2.245   0.043
 3410SOL     OW11128   6.250   1.827   2.307
 3410SOL    HW111129   6.343   1.824   2.270
 3410SOL    HW211130   6.184   1.817   2.233
 3411SOL     OW11131   5.178   3.695   6.588
 3411SOL    HW111132   5.277   3.701   6.600
 3411SOL    HW211133   5.158   3.650   6.502
 3412SOL     OW11134   4.887   3.841   2.594
 3412SOL    HW111135   4.812   3.819   2.532
 3412SOL    HW211136   4.856   3.908   2.662
 3413SOL     OW11137   1.403   2.566   0.801
 3413SOL    HW111138   1.314   2.581   0.844
 3413SOL    HW211139   1.467   2.529   0.868
 3414SOL     OW11140   3.162   3.371   1.958
 3414SOL    HW111141   3.077   3.411   1.924
 3414SOL    HW211142   3.223   3.444   1.989
 3415SOL     OW11143   2.813   1.160   0.053
 3415SOL    HW111144   2.821   1.148   0.152
 3415SOL    HW211145   2.809   1.071   0.009
 3416SOL     OW11146   5.325   5.971   6.618
 3416SOL    HW111147   5.365   6.001   6.705
 3416SOL    HW211148   5.371   6.017   6.543
 3417SOL     OW11149   6.094   0.320   2.870
 3417SOL    HW111150   6.177   0.321   2.926
 3417SOL    HW211151   6.102   0.386   2.796
 3418SOL     OW11152   4.397   5.866   1.358
 3418SOL    HW111153   4.349   5.914   1.284
 3418SOL    HW211154   4.480   5.824   1.322
 3419SOL     OW11155   2.741   4.681   5.344
 3419SOL    HW111156   2.798   4.644   5.271
 3419SOL    HW211157   2.797   4.694   5.426
 3420SOL     OW11158   5.085   0.248   2.651
 3420SOL    HW111159   5.128   0.322   2.599
 3420SOL    HW211160   4.987   0.244   2.629
 3421SOL     OW11161   0.518   1.378   4.304
 3421SOL    HW111162   0.601   1.337   4.342
 3421SOL    HW211163   0.493   1.331   4.220
 3422SOL     OW11164   3.259   5.219   1.688
 3422SOL    HW111165   3.316   5.176   1.758
 3422SOL    HW211166   3.292   5.195   1.597
 3423SOL     OW11167   1.593   5.869   5.607
 3423SOL    HW111168   1.637   5.786   5.572
 3423SOL    HW211169   1.663   5.930   5.643
 3424SOL     OW11170   6.019   5.522   2.912
 3424SOL    HW111171   6.016   5.460   2.990
 3424SOL    HW211172   6.108   5.568   2.908
 3425SOL     OW11173   5.729   3.178   6.473
 3425SOL    HW111174   5.766   3.206   6.384
 3425SOL    HW211175   5.630   3.175   6.468
 3426SOL     OW11176   6.631   5.272   5.801
 3426SOL    HW111177   6.723   5.295   5.770
 3426SOL    HW211178   6.575   5.245   5.723
 3427SOL     OW11179   1.762   1.155   6.583
 3427SOL    HW111180   1.850   1.130   6.544
 3427SOL    HW211181   1.692   1.091   6.553
 3428SOL     OW11182   4.083   1.054   3.717
 3428SOL    HW111183   4.078   0.961   3.679
 3428SOL    HW211184   4.154   1.106   3.668
 3429SOL     OW11185   5.464   5.577   0.487
 3429SOL    HW111186   5.435   5.524   0.407
 3429SOL    HW211187   5.416   5.665   0.487
 3430SOL     OW11188   2.810   4.463   6.868
 3430SOL    HW111189   2.825   4.504   6.959
 3430SOL    HW211190   2.884   4.490   6.807
 3431SOL     OW11191   1.543   3.839   2.029
 3431SOL    HW111192   1.528   3.904   2.104
 3431SOL    HW211193   1.552   3.747   2.067
 3432SOL     OW11194   6.854   5.706   6.466
 3432SOL    HW111195   6.842   5.738   6.372
 3432SOL    HW211196   6.894   5.615   6.465
 3433SOL     OW11197   0.658   1.238   0.153
 3433SOL    HW111198   0.737   1.177   0.146
 3433SOL    HW211199   0.628   1.264   0.061
 3434SOL     OW11200   4.473   2.981   1.391
 3434SOL    HW111201   4.382   2.995   1.353
 3434SOL    HW211202   4.474   3.006   1.487
 3435SOL     OW11203   3.090   2.759   1.331
 3435SOL    HW111204   3.068   2.664   1.352
 3435SOL    HW211205   3.008   2.816   1.342
 3436SOL     OW11206   4.590   5.249   5.018
 3436SOL    HW111207   4.664   5.254   4.951
 3436SOL    HW211208   4.502   5.258   4.971
 3437SOL     OW11209   2.914   5.538   0.714
 3437SOL    HW111210   2.904   5.467   0.645
 3437SOL    HW211211   2.862   5.619   0.688
 3438SOL     OW11212   2.574   4.193   0.606
 3438SOL    HW111213   2.589   4.105   0.650
 3438SOL    HW211214   2.553   4.262   0.675
 3439SOL     OW11215   3.008   5.802   0.964
 3439SOL    HW111216   2.947   5.738   1.011
 3439SOL    HW211217   3.068   5.751   0.902
 3440SOL     OW11218   4.111   4.795   5.585
 3440SOL    HW111219   4.133   4.889   5.612
 3440SOL    HW211220   4.094   4.740   5.667
 3441SOL     OW11221   0.235   5.455   5.724
 3441SOL    HW111222   0.157   5.500   5.681
 3441SOL    HW211223   0.286   5.521   5.779
 3442SOL     OW11224   2.089   1.883   0.398
 3442SOL    HW111225   2.156   1.939   0.446
 3442SOL    HW211226   2.082   1.914   0.303
 3443SOL     OW11227   6.787   5.679   2.088
 3443SOL    HW111228   6.690   5.664   2.073
 3443SOL    HW211229   6.826   5.600   2.137
 3444SOL     OW11230   1.450   3.849   5.774
 3444SOL    HW111231   1.416   3.885   5.861
 3444SOL    HW211232   1.548   3.867   5.766
 3445SOL     OW11233   6.007   4.862   4.080
 3445SOL    HW111234   5.996   4.863   3.981
 3445SOL    HW211235   6.097   4.825   4.103
 3446SOL     OW11236   5.299   1.348   6.994
 3446SOL    HW111237   5.387   1.312   6.963
 3446SOL    HW211238   5.250   1.389   6.917
 3447SOL     OW11239   5.561   1.499   6.277
 3447SOL    HW111240   5.493   1.433   6.245
 3447SOL    HW211241   5.612   1.535   6.199
 3448SOL     OW11242   0.730   5.521   4.860
 3448SOL    HW111243   0.697   5.552   4.771
 3448SOL    HW211244   0.678   5.565   4.932
 3449SOL     OW11245   1.052   4.436   4.498
 3449SOL    HW111246   1.032   4.397   4.408
 3449SOL    HW211247   0.979   4.409   4.562
 3450SOL     OW11248   1.900   6.568   3.189
 3450SOL    HW111249   1.842   6.649   3.205
 3450SOL    HW211250   1.850   6.486   3.218
 3451SOL     OW11251   2.476   1.573   1.307
 3451SOL    HW111252   2.444   1.537   1.220
 3451SOL    HW211253   2.480   1.673   1.302
 3452SOL     OW11254   4.306   1.249   5.293
 3452SOL    HW111255   4.308   1.153   5.321
 3452SOL    HW211256   4.394   1.273   5.252
 3453SOL     OW11257   4.325   6.942   5.870
 3453SOL    HW111258   4.277   7.021   5.909
 3453SOL    HW211259   4.298   6.859   5.919
 3454SOL     OW11260   1.339   3.320   4.136
 3454SOL    HW111261   1.342   3.341   4.038
 3454SOL    HW211262   1.414   3.367   4.182
 3455SOL     OW11263   1.595   3.648   6.006
 3455SOL    HW111264   1.566   3.589   5.930
 3455SOL    HW211265   1.563   3.609   6.092
 3456SOL     OW11266   4.527   4.889   2.860
 3456SOL    HW111267   4.576   4.805   2.834
 3456SOL    HW211268   4.554   4.963   2.797
 3457SOL     OW11269   3.937   4.165   0.279
 3457SOL    HW111270   3.921   4.253   0.323
 3457SOL    HW211271   3.852   4.112   0.281
 3458SOL     OW11272   4.186   1.644   0.920
 3458SOL    HW111273   4.267   1.697   0.894
 3458SOL    HW211274   4.168   1.657   1.017
 3459SOL     OW11275   6.636   0.777   3.127
 3459SOL    HW111276   6.629   0.719   3.046
 3459SOL    HW211277   6.545   0.807   3.155
 3460SOL     OW11278   5.000   1.848   4.980
 3460SOL    HW111279   5.008   1.881   5.074
 3460SOL    HW211280   4.904   1.851   4.952
 3461SOL     OW11281   4.996   4.369   4.613
 3461SOL    HW111282   5.033   4.277   4.604
 3461SOL    HW211283   4.925   4.369   4.684
 3462SOL     OW11284   1.337   3.817   0.089
 3462SOL    HW111285   1.389   3.732   0.088
 3462SOL    HW211286   1.243   3.799   0.119
 3463SOL     OW11287   6.589   3.458   6.826
 3463SOL    HW111288   6.525   3.496   6.759
 3463SOL    HW211289   6.547   3.378   6.870
 3464SOL     OW11290   0.464   4.942   4.818
 3464SOL    HW111291   0.415   4.857   4.799
 3464SOL    HW211292   0.539   4.953   4.753
 3465SOL     OW11293   1.150   2.632   0.874
 3465SOL    HW111294   1.105   2.706   0.824
 3465SOL    HW211295   1.095   2.549   0.867
 3466SOL     OW11296   4.757   4.093   3.296
 3466SOL    HW111297   4.764   4.047   3.207
 3466SOL    HW211298   4.802   4.036   3.366
 3467SOL     OW11299   1.869   1.317   6.223
 3467SOL    HW111300   1.896   1.350   6.313
 3467SOL    HW211301   1.878   1.217   6.220
 3468SOL     OW11302   5.467   4.978   1.747
 3468SOL    HW111303   5.514   4.938   1.826
 3468SOL    HW211304   5.466   5.078   1.756
 3469SOL     OW11305   5.960   3.379   0.641
 3469SOL    HW111306   6.031   3.437   0.681
 3469SOL    HW211307   6.004   3.302   0.593
 3470SOL     OW11308   6.260   6.006   6.595
 3470SOL    HW111309   6.206   5.998   6.511
 3470SOL    HW211310   6.243   5.927   6.654
 3471SOL     OW11311   3.778   6.699   4.476
 3471SOL    HW111312   3.828   6.678   4.560
 3471SOL    HW211313   3.721   6.620   4.451
 3472SOL     OW11314   3.428   0.706   3.806
 3472SOL    HW111315   3.345   0.679   3.756
 3472SOL    HW211316   3.473   0.624   3.841
 3473SOL     OW11317   5.108   6.753   3.500
 3473SOL    HW111318   5.160   6.688   3.444
 3473SOL    HW211319   5.010   6.731   3.493
 3474SOL     OW11320   5.948   5.264   0.863
 3474SOL    HW111321   6.012   5.196   0.900
 3474SOL    HW211322   5.947   5.345   0.921
 3475SOL     OW11323   1.752   6.067   4.980
 3475SOL    HW111324   1.805   6.138   4.933
 3475SOL    HW211325   1.751   6.085   5.078
 3476SOL     OW11326   2.645   2.093   3.095
 3476SOL    HW111327   2.653   2.149   3.178
 3476SOL    HW211328   2.653   1.996   3.120
 3477SOL     OW11329   4.982   5.610   2.300
 3477SOL    HW111330   4.989   5.594   2.399
 3477SOL    HW211331   4.957   5.705   2.283
 3478SOL     OW11332   3.833   5.152   0.306
 3478SOL    HW111333   3.923   5.119   0.277
 3478SOL    HW211334   3.836   5.176   0.403
 3479SOL     OW11335   1.999   0.990   0.622
 3479SOL    HW111336   1.919   0.979   0.680
 3479SOL    HW211337   2.064   1.053   0.666
 3480SOL     OW11338   1.992   6.787   4.674
 3480SOL    HW111339   1.991   6.887   4.672
 3480SOL    HW211340   2.051   6.755   4.749
 3481SOL     OW11341   1.679   4.557   0.573
 3481SOL    HW111342   1.670   4.457   0.577
 3481SOL    HW211343   1.734   4.588   0.651
 3482SOL     OW11344   0.097   2.017   1.344
 3482SOL    HW111345   0.028   1.952   1.312
 3482SOL    HW211346   0.055   2.105   1.364
 3483SOL     OW11347   4.147   1.713   1.196
 3483SOL    HW111348   4.246   1.703   1.190
 3483SOL    HW211349   4.125   1.795   1.249
 3484SOL     OW11350   3.450   4.094   3.569
 3484SOL    HW111351   3.429   4.003   3.604
 3484SOL    HW211352   3.474   4.154   3.644
 3485SOL     OW11353   6.198   2.782   3.948
 3485SOL    HW111354   6.295   2.774   3.972
 3485SOL    HW211355   6.148   2.821   4.025
 3486SOL     OW11356   6.120   1.755   2.803
 3486SOL    HW111357   6.200   1.815   2.795
 3486SOL    HW211358   6.062   1.766   2.722
 3487SOL     OW11359   1.339   6.417   1.501
 3487SOL    HW111360   1.279   6.342   1.528
 3487SOL    HW211361   1.411   6.382   1.441
 3488SOL     OW11362   6.565   2.883   5.343
 3488SOL    HW111363   6.635   2.814   5.363
 3488SOL    HW211364   6.603   2.951   5.281
 3489SOL     OW11365   2.366   5.659   0.177
 3489SOL    HW111366   2.320   5.737   0.135
 3489SOL    HW211367   2.463   5.680   0.190
 3490SOL     OW11368   5.364   3.674   0.379
 3490SOL    HW111369   5.416   3.759   0.388
 3490SOL    HW211370   5.363   3.646   0.283
 3491SOL     OW11371   6.042   2.521   5.279
 3491SOL    HW111372   5.952   2.503   5.240
 3491SOL    HW211373   6.041   2.609   5.327
 3492SOL     OW11374   0.972   4.159   6.469
 3492SOL    HW111375   0.977   4.093   6.394
 3492SOL    HW211376   0.879   4.196   6.475
 3493SOL     OW11377   0.259   4.873   0.867
 3493SOL    HW111378   0.172   4.861   0.915
 3493SOL    HW211379   0.245   4.923   0.782
 3494SOL     OW11380   3.291   6.883   1.321
 3494SOL    HW111381   3.193   6.865   1.325
 3494SOL    HW211382   3.312   6.966   1.374
 3495SOL     OW11383   5.566   4.357   5.970
 3495SOL    HW111384   5.504   4.362   5.891
 3495SOL    HW211385   5.519   4.390   6.052
 3496SOL     OW11386   0.933   6.434   1.284
 3496SOL    HW111387   0.958   6.481   1.200
 3496SOL    HW211388   0.905   6.340   1.262
 3497SOL     OW11389   3.046   0.210   4.905
 3497SOL    HW111390   3.051   0.208   4.806
 3497SOL    HW211391   3.098   0.133   4.943
 3498SOL     OW11392   1.781   1.737   0.643
 3498SOL    HW111393   1.845   1.672   0.602
 3498SOL    HW211394   1.827   1.826   0.654
 3499SOL     OW11395   6.868   4.046   3.220
 3499SOL    HW111396   6.781   4.016   3.182
 3499SOL    HW211397   6.920   4.094   3.149
 3500SOL     OW11398   0.069   2.413   0.463
 3500SOL    HW111399   0.014   2.425   0.379
 3500SOL    HW211400   0.008   2.410   0.542
 3501SOL     OW11401   0.178   5.241   3.031
 3501SOL    HW111402   0.119   5.221   2.953
 3501SOL    HW211403   0.132   5.219   3.116
 3502SOL     OW11404   1.076   6.568   1.489
 3502SOL    HW111405   1.019   6.505   1.436
 3502SOL    HW211406   1.169   6.531   1.495
 3503SOL     OW11407   2.907   1.321   3.577
 3503SOL    HW111408   3.002   1.349   3.565
 3503SOL    HW211409   2.874   1.353   3.666
 3504SOL     OW11410   2.171   2.570   2.514
 3504SOL    HW111411   2.119   2.571   2.600
 3504SOL    HW211412   2.107   2.574   2.437
 3505SOL     OW11413   4.303   0.191   4.687
 3505SOL    HW111414   4.333   0.218   4.595
 3505SOL    HW211415   4.264   0.099   4.683
 3506SOL     OW11416   6.540   3.145   2.989
 3506SOL    HW111417   6.611   3.080   2.961
 3506SOL    HW211418   6.492   3.178   2.908
 3507SOL     OW11419   7.005   6.885   5.390
 3507SOL    HW111420   0.040   6.843   5.459
 3507SOL    HW211421   0.033   6.953   5.338
 3508SOL     OW11422   0.484   4.427   6.939
 3508SOL    HW111423   0.388   4.408   6.921
 3508SOL    HW211424   0.497   4.443   0.013
 3509SOL     OW11425   3.643   6.722   0.081
 3509SOL    HW111426   3.575   6.674   0.026
 3509SOL    HW211427   3.731   6.721   0.033
 3510SOL     OW11428   2.449   1.549   3.217
 3510SOL    HW111429   2.350   1.551   3.198
 3510SOL    HW211430   2.475   1.459   3.250
 3511SOL     OW11431   1.185   1.222   3.921
 3511SOL    HW111432   1.243   1.157   3.970
 3511SOL    HW211433   1.133   1.173   3.851
 3512SOL     OW11434   3.210   2.955   2.167
 3512SOL    HW111435   3.177   2.874   2.215
 3512SOL    HW211436   3.253   2.927   2.081
 3513SOL     OW11437   6.841   4.964   0.214
 3513SOL    HW111438   6.880   4.874   0.191
 3513SOL    HW211439   6.771   4.953   0.284
 3514SOL     OW11440   3.194   5.462   3.382
 3514SOL    HW111441   3.246   5.533   3.334
 3514SOL    HW211442   3.112   5.503   3.423
 3515SOL     OW11443   3.716   5.587   4.117
 3515SOL    HW111444   3.771   5.556   4.195
 3515SOL    HW211445   3.619   5.584   4.141
 3516SOL     OW11446   1.601   1.412   0.692
 3516SOL    HW111447   1.649   1.460   0.766
 3516SOL    HW211448   1.663   1.348   0.647
 3517SOL     OW11449   0.362   1.195   6.508
 3517SOL    HW111450   0.273   1.185   6.464
 3517SOL    HW211451   0.372   1.125   6.579
 3518SOL     OW11452   4.351   3.846   6.082
 3518SOL    HW111453   4.428   3.784   6.069
 3518SOL    HW211454   4.279   3.799   6.134
 3519SOL     OW11455   4.425   0.565   6.390
 3519SOL    HW111456   4.397   0.474   6.423
 3519SOL    HW211457   4.344   0.621   6.376
 3520SOL     OW11458   4.377   4.972   1.018
 3520SOL    HW111459   4.339   5.052   0.970
 3520SOL    HW211460   4.307   4.930   1.075
 3521SOL     OW11461   0.365   1.917   5.561
 3521SOL    HW111462   0.389   1.826   5.593
 3521SOL    HW211463   0.333   1.973   5.637
 3522SOL     OW11464   2.295   0.313   0.817
 3522SOL    HW111465   2.359   0.387   0.798
 3522SOL    HW211466   2.206   0.351   0.843
 3523SOL     OW11467   2.315   4.414   4.251
 3523SOL    HW111468   2.401   4.464   4.255
 3523SOL    HW211469   2.309   4.352   4.329
 3524SOL     OW11470   2.942   1.555   3.395
 3524SOL    HW111471   2.936   1.642   3.444
 3524SOL    HW211472   2.857   1.504   3.406
 3525SOL     OW11473   2.176   3.258   3.950
 3525SOL    HW111474   2.178   3.334   4.015
 3525SOL    HW211475   2.162   3.172   3.999
 3526SOL     OW11476   3.267   5.631   3.747
 3526SOL    HW111477   3.348   5.608   3.692
 3526SOL    HW211478   3.208   5.551   3.755
 3527SOL     OW11479   6.917   3.714   6.556
 3527SOL    HW111480   6.943   3.631   6.506
 3527SOL    HW211481   6.887   3.689   6.648
 3528SOL     OW11482   0.777   6.094   3.843
 3528SOL    HW111483   0.788   6.170   3.779
 3528SOL    HW211484   0.682   6.063   3.844
 3529SOL     OW11485   3.739   6.899   0.293
 3529SOL    HW111486   3.672   6.891   0.366
 3529SOL    HW211487   3.722   6.829   0.223
 3530SOL     OW11488   2.041   5.033   2.269
 3530SOL    HW111489   2.053   4.973   2.347
 3530SOL    HW211490   1.945   5.061   2.262
 3531SOL     OW11491   5.428   4.119   0.000
 3531SOL    HW111492   5.523   4.126   6.995
 3531SOL    HW211493   5.419   4.043   0.064
 3532SOL     OW11494   2.655   0.306   6.308
 3532SOL    HW111495   2.594   0.327   6.385
 3532SOL    HW211496   2.750   0.313   6.337
 3533SOL     OW11497   1.330   1.362   2.689
 3533SOL    HW111498   1.256   1.427   2.707
 3533SOL    HW211499   1.291   1.279   2.648
 3534SOL     OW11500   4.670   6.880   4.538
 3534SOL    HW111501   4.710   6.812   4.599
 3534SOL    HW211502   4.596   6.837   4.485
 3535SOL     OW11503   3.917   4.519   7.014
 3535SOL    HW111504   3.822   4.497   6.994
 3535SOL    HW211505   3.922   4.573   0.074
 3536SOL     OW11506   2.135   2.983   2.559
 3536SOL    HW111507   2.086   3.066   2.532
 3536SOL    HW211508   2.145   2.980   2.658
 3537SOL     OW11509   3.010   5.164   1.383
 3537SOL    HW111510   3.031   5.109   1.464
 3537SOL    HW211511   2.912   5.157   1.363
 3538SOL     OW11512   2.710   0.121   4.087
 3538SOL    HW111513   2.774   0.188   4.125
 3538SOL    HW211514   2.740   0.094   3.995
 3539SOL     OW11515   5.124   5.489   6.033
 3539SOL    HW111516   5.054   5.526   5.971
 3539SOL    HW211517   5.112   5.527   6.124
 3540SOL     OW11518   5.350   3.907   0.169
 3540SOL    HW111519   5.340   3.809   0.153
 3540SOL    HW211520   5.300   3.932   0.251
 3541SOL     OW11521   0.126   2.836   2.480
 3541SOL    HW111522   0.206   2.894   2.467
 3541SOL    HW211523   0.099   2.796   2.392
 3542SOL     OW11524   6.344   0.915   0.002
 3542SOL    HW111525   6.318   1.012   7.024
 3542SOL    HW211526   6.367   0.884   6.934
 3543SOL     OW11527   0.332   3.176   4.791
 3543SOL    HW111528   0.359   3.254   4.847
 3543SOL    HW211529   0.411   3.143   4.739
 3544SOL     OW11530   3.956   4.709   5.846
 3544SOL    HW111531   3.889   4.674   5.912
 3544SOL    HW211532   4.048   4.683   5.874
 3545SOL     OW11533   2.789   6.422   1.958
 3545SOL    HW111534   2.778   6.345   2.022
 3545SOL    HW211535   2.781   6.508   2.008
 3546SOL     OW11536   6.910   4.406   1.080
 3546SOL    HW111537   6.819   4.443   1.061
 3546SOL    HW211538   6.941   4.352   1.001
 3547SOL     OW11539   1.960   3.918   4.327
 3547SOL    HW111540   2.027   3.944   4.258
 3547SOL    HW211541   1.933   3.999   4.380
 3548SOL     OW11542   6.099   6.602   5.543
 3548SOL    HW111543   6.145   6.515   5.526
 3548SOL    HW211544   6.019   6.610   5.484
 3549SOL     OW11545   1.541   0.235   6.662
 3549SOL    HW111546   1.543   0.278   6.571
 3549SOL    HW211547   1.631   0.199   6.684
 3550SOL     OW11548   6.698   2.459   4.512
 3550SOL    HW111549   6.705   2.555   4.538
 3550SOL    HW211550   6.606   2.440   4.477
 3551SOL     OW11551   6.667   1.775   5.423
 3551SOL    HW111552   6.618   1.727   5.351
 3551SOL    HW211553   6.724   1.711   5.474
 3552SOL     OW11554   6.297   0.771   3.739
 3552SOL    HW111555   6.218   0.734   3.691
 3552SOL    HW211556   6.303   0.730   3.830
 3553SOL     OW11557   5.834   6.012   6.488
 3553SOL    HW111558   5.892   6.026   6.569
 3553SOL    HW211559   5.844   6.089   6.425
 3554SOL     OW11560   5.917   3.328   6.872
 3554SOL    HW111561   5.835   3.280   6.840
 3554SOL    HW211562   5.958   3.378   6.795
 3555SOL     OW11563   2.832   1.211   5.127
 3555SOL    HW111564   2.761   1.281   5.120
 3555SOL    HW211565   2.803   1.141   5.193
 3556SOL     OW11566   5.218   1.375   0.561
 3556SOL    HW111567   5.227   1.357   0.659
 3556SOL    HW211568   5.236   1.471   0.543
 3557SOL     OW11569   4.963   0.584   0.976
 3557SOL    HW111570   4.959   0.570   1.075
 3557SOL    HW211571   4.882   0.634   0.946
 3558SOL     OW11572   4.528   5.901   3.445
 3558SOL    HW111573   4.451   5.965   3.439
 3558SOL    HW211574   4.514   5.839   3.523
 3559SOL     OW11575   4.626   6.113   6.763
 3559SOL    HW111576   4.567   6.033   6.753
 3559SOL    HW211577   4.573   6.196   6.740
 3560SOL     OW11578   1.683   5.691   4.468
 3560SOL    HW111579   1.659   5.733   4.556
 3560SOL    HW211580   1.769   5.729   4.435
 3561SOL     OW11581   4.321   3.049   6.059
 3561SOL    HW111582   4.227   3.021   6.080
 3561SOL    HW211583   4.376   3.048   6.142
 3562SOL     OW11584   2.755   1.002   0.811
 3562SOL    HW111585   2.824   1.074   0.800
 3562SOL    HW211586   2.791   0.930   0.870
 3563SOL     OW11587   5.922   1.931   5.858
 3563SOL    HW111588   5.967   2.020   5.856
 3563SOL    HW211589   5.875   1.920   5.946
 3564SOL     OW11590   5.748   2.713   2.837
 3564SOL    HW111591   5.711   2.766   2.913
 3564SOL    HW211592   5.838   2.678   2.862
 3565SOL     OW11593   4.984   6.446   5.480
 3565SOL    HW111594   5.012   6.497   5.561
 3565SOL    HW211595   5.051   6.375   5.460
 3566SOL     OW11596   0.623   0.945   4.744
 3566SOL    HW111597   0.606   0.953   4.843
 3566SOL    HW211598   0.674   0.861   4.726
 3567SOL     OW11599   1.579   4.440   7.008
 3567SOL    HW111600   1.561   4.437   0.082
 3567SOL    HW211601   1.518   4.375   6.961
 3568SOL     OW11602   1.917   4.141   5.476
 3568SOL    HW111603   1.900   4.044   5.455
 3568SOL    HW211604   1.968   4.147   5.562
 3569SOL     OW11605   0.498   0.285   3.368
 3569SOL    HW111606   0.418   0.241   3.326
 3569SOL    HW211607   0.558   0.320   3.296
 3570SOL     OW11608   0.540   1.661   4.879
 3570SOL    HW111609   0.613   1.725   4.854
 3570SOL    HW211610   0.452   1.695   4.845
 3571SOL     OW11611   6.997   5.609   5.013
 3571SOL    HW111612   6.999   5.690   4.954
 3571SOL    HW211613   0.012   5.532   4.963
 3572SOL     OW11614   5.059   6.996   5.437
 3572SOL    HW111615   5.110   0.056   5.448
 3572SOL    HW211616   5.081   6.933   5.511
 3573SOL     OW11617   6.869   2.679   2.032
 3573SOL    HW111618   6.847   2.760   2.087
 3573SOL    HW211619   6.788   2.651   1.981
 3574SOL     OW11620   0.946   3.725   0.442
 3574SOL    HW111621   0.854   3.762   0.449
 3574SOL    HW211622   0.989   3.756   0.358
 3575SOL     OW11623   6.707   0.394   2.612
 3575SOL    HW111624   6.734   0.392   2.515
 3575SOL    HW211625   6.705   0.489   2.644
 3576SOL     OW11626   0.647   0.951   0.910
 3576SOL    HW111627   0.741   0.965   0.941
 3576SOL    HW211628   0.643   0.962   0.811
 3577SOL     OW11629   2.023   4.455   0.520
 3577SOL    HW111630   2.022   4.453   0.620
 3577SOL    HW211631   2.048   4.547   0.489
 3578SOL     OW11632   3.524   4.827   1.670
 3578SOL    HW111633   3.535   4.746   1.726
 3578SOL    HW211634   3.569   4.814   1.582
 3579SOL     OW11635   2.670   2.747   6.735
 3579SOL    HW111636   2.646   2.840   6.708
 3579SOL    HW211637   2.700   2.747   6.830
 3580SOL     OW11638   5.510   1.119   2.288
 3580SOL    HW111639   5.436   1.053   2.290
 3580SOL    HW211640   5.598   1.071   2.291
 3581SOL     OW11641   0.189   1.868   2.513
 3581SOL    HW111642   0.170   1.912   2.601
 3581SOL    HW211643   0.199   1.769   2.526
 3582SOL     OW11644   0.730   0.543   5.955
 3582SOL    HW111645   0.761   0.521   5.862
 3582SOL    HW211646   0.693   0.636   5.956
 3583SOL     OW11647   1.153   6.767   2.317
 3583SOL    HW111648   1.222   6.808   2.257
 3583SOL    HW211649   1.148   6.820   2.402
 3584SOL     OW11650   5.245   0.603   5.019
 3584SOL    HW111651   5.319   0.629   4.957
 3584SOL    HW211652   5.158   0.611   4.972
 3585SOL     OW11653   2.302   4.994   2.805
 3585SOL    HW111654   2.251   5.010   2.720
 3585SOL    HW211655   2.289   5.072   2.866
 3586SOL     OW11656   1.157   1.125   6.786
 3586SOL    HW111657   1.250   1.102   6.813
 3586SOL    HW211658   1.132   1.214   6.824
 3587SOL     OW11659   4.006   6.101   5.766
 3587SOL    HW111660   4.082   6.125   5.707
 3587SOL    HW211661   3.928   6.073   5.710
 3588SOL     OW11662   2.751   2.461   5.232
 3588SOL    HW111663   2.746   2.362   5.239
 3588SOL    HW211664   2.660   2.499   5.220
 3589SOL     OW11665   2.851   6.155   4.690
 3589SOL    HW111666   2.846   6.056   4.700
 3589SOL    HW211667   2.857   6.197   4.780
 3590SOL     OW11668   1.167   5.805   6.798
 3590SOL    HW111669   1.263   5.799   6.823
 3590SOL    HW211670   1.114   5.739   6.851
 3591SOL     OW11671   4.647   2.262   4.162
 3591SOL    HW111672   4.617   2.178   4.208
 3591SOL    HW211673   4.705   2.315   4.224
 3592SOL     OW11674   5.659   1.324   2.404
 3592SOL    HW111675   5.597   1.388   2.451
 3592SOL    HW211676   5.605   1.255   2.356
 3593SOL     OW11677   0.844   4.901   4.807
 3593SOL    HW111678   0.853   4.833   4.880
 3593SOL    HW211679   0.792   4.862   4.732
 3594SOL     OW11680   4.295   1.668   4.465
 3594SOL    HW111681   4.198   1.662   4.487
 3594SOL    HW211682   4.323   1.764   4.467
 3595SOL     OW11683   2.107   6.707   6.826
 3595SOL    HW111684   2.118   6.806   6.815
 3595SOL    HW211685   2.056   6.688   6.910
 3596SOL     OW11686   6.212   3.370   2.679
 3596SOL    HW111687   6.158   3.452   2.694
 3596SOL    HW211688   6.203   3.342   2.583
 3597SOL     OW11689   4.282   0.299   3.736
 3597SOL    HW111690   4.344   0.360   3.785
 3597SOL    HW211691   4.218   0.258   3.802
 3598SOL     OW11692   2.077   0.062   0.262
 3598SOL    HW111693   2.106   0.107   0.178
 3598SOL    HW211694   2.146   7.019   0.289
 3599SOL     OW11695   0.513   2.209   4.319
 3599SOL    HW111696   0.415   2.223   4.307
 3599SOL    HW211697   0.530   2.123   4.368
 3600SOL     OW11698   6.494   6.386   1.021
 3600SOL    HW111699   6.424   6.456   1.010
 3600SOL    HW211700   6.451   6.298   1.039
 3601SOL     OW11701   6.765   3.908   5.879
 3601SOL    HW111702   6.746   3.848   5.956
 3601SOL    HW211703   6.848   3.877   5.832
 3602SOL     OW11704   3.722   2.361   1.088
 3602SOL    HW111705   3.799   2.381   1.028
 3602SOL    HW211706   3.714   2.431   1.158
 3603SOL     OW11707   3.649   5.442   5.098
 3603SOL    HW111708   3.663   5.404   5.190
 3603SOL    HW211709   3.711   5.396   5.034
 3604SOL     OW11710   5.727   4.190   3.552
 3604SOL    HW111711   5.644   4.240   3.577
 3604SOL    HW211712   5.738   4.111   3.612
 3605SOL     OW11713   5.648   1.032   6.643
 3605SOL    HW111714   5.574   1.051   6.708
 3605SOL    HW211715   5.613   1.043   6.550
 3606SOL     OW11716   1.806   3.675   2.709
 3606SOL    HW111717   1.840   3.730   2.633
 3606SOL    HW211718   1.708   3.688   2.718
 3607SOL     OW11719   4.423   6.657   5.291
 3607SOL    HW111720   4.484   6.723   5.247
 3607SOL    HW211721   4.464   6.566   5.287
 3608SOL     OW11722   6.683   3.448   2.411
 3608SOL    HW111723   6.676   3.417   2.506
 3608SOL    HW211724   6.596   3.490   2.383
 3609SOL     OW11725   1.028   1.098   3.735
 3609SOL    HW111726   1.022   0.999   3.733
 3609SOL    HW211727   0.935   1.137   3.742
 3610SOL     OW11728   1.532   4.827   5.314
 3610SOL    HW111729   1.547   4.843   5.216
 3610SOL    HW211730   1.436   4.809   5.330
 3611SOL     OW11731   4.283   5.093   6.595
 3611SOL    HW111732   4.235   5.054   6.517
 3611SOL    HW211733   4.382   5.084   6.581
 3612SOL     OW11734   2.608   5.743   1.464
 3612SOL    HW111735   2.582   5.795   1.383
 3612SOL    HW211736   2.674   5.672   1.439
 3613SOL     OW11737   5.579   4.487   6.414
 3613SOL    HW111738   5.513   4.544   6.463
 3613SOL    HW211739   5.669   4.497   6.457
 3614SOL     OW11740   3.947   3.139   4.929
 3614SOL    HW111741   3.955   3.159   4.831
 3614SOL    HW211742   3.905   3.049   4.941
 3615SOL     OW11743   6.025   6.866   6.750
 3615SOL    HW111744   6.120   6.859   6.779
 3615SOL    HW211745   5.974   6.786   6.784
 3616SOL     OW11746   0.017   1.354   4.302
 3616SOL    HW111747   0.015   1.401   4.214
 3616SOL    HW211748   0.111   1.352   4.337
 3617SOL     OW11749   7.016   0.839   1.422
 3617SOL    HW111750   0.026   0.802   1.508
 3617SOL    HW211751   6.927   0.799   1.401
 3618SOL     OW11752   3.671   5.286   6.388
 3618SOL    HW111753   3.600   5.228   6.348
 3618SOL    HW211754   3.669   5.278   6.488
 3619SOL     OW11755   4.976   3.288   3.765
 3619SOL    HW111756   5.072   3.308   3.743
 3619SOL    HW211757   4.941   3.219   3.702
 3620SOL     OW11758   5.638   1.955   5.347
 3620SOL    HW111759   5.689   1.879   5.387
 3620SOL    HW211760   5.634   1.943   5.248
 3621SOL     OW11761   2.168   2.711   6.357
 3621SOL    HW111762   2.171   2.801   6.401
 3621SOL    HW211763   2.091   2.708   6.292
 3622SOL     OW11764   1.394   4.074   0.849
 3622SOL    HW111765   1.422   4.159   0.806
 3622SOL    HW211766   1.469   4.038   0.905
 3623SOL     OW11767   6.626   5.336   4.628
 3623SOL    HW111768   6.619   5.294   4.718
 3623SOL    HW211769   6.637   5.435   4.639
 3624SOL     OW11770   1.988   0.024   1.828
 3624SOL    HW111771   2.009   6.952   1.809
 3624SOL    HW211772   1.918   0.029   1.900
 3625SOL     OW11773   1.681   2.232   5.304
 3625SOL    HW111774   1.602   2.190   5.260
 3625SOL    HW211775   1.758   2.168   5.303
 3626SOL     OW11776   1.767   3.480   5.261
 3626SOL    HW111777   1.859   3.471   5.299
 3626SOL    HW211778   1.736   3.392   5.226
 3627SOL     OW11779   4.135   3.412   4.458
 3627SOL    HW111780   4.055   3.356   4.434
 3627SOL    HW211781   4.144   3.418   4.557
 3628SOL     OW11782   2.695   5.281   3.925
 3628SOL    HW111783   2.612   5.284   3.870
 3628SOL    HW211784   2.715   5.372   3.961
 3629SOL     OW11785   6.071   3.810   4.721
 3629SOL    HW111786   6.078   3.816   4.821
 3629SOL    HW211787   6.162   3.822   4.681
 3630SOL     OW11788   6.375   1.798   4.580
 3630SOL    HW111789   6.457   1.743   4.566
 3630SOL    HW211790   6.354   1.849   4.496
 3631SOL     OW11791   2.179   0.948   4.087
 3631SOL    HW111792   2.212   0.934   4.180
 3631SOL    HW211793   2.246   0.913   4.022
 3632SOL     OW11794   5.082   6.718   6.450
 3632SOL    HW111795   5.168   6.767   6.434
 3632SOL    HW211796   5.012   6.755   6.389
 3633SOL     OW11797   0.998   2.727   5.569
 3633SOL    HW111798   1.069   2.737   5.500
 3633SOL    HW211799   0.975   2.631   5.579
 3634SOL     OW11800   2.239   4.659   6.367
 3634SOL    HW111801   2.179   4.579   6.369
 3634SOL    HW211802   2.201   4.731   6.426
 3635SOL     OW11803   1.321   2.153   4.524
 3635SOL    HW111804   1.389   2.080   4.525
 3635SOL    HW211805   1.293   2.174   4.618
 3636SOL     OW11806   0.676   6.710   1.370
 3636SOL    HW111807   0.684   6.618   1.407
 3636SOL    HW211808   0.765   6.757   1.377
 3637SOL     OW11809   5.448   1.478   2.474
 3637SOL    HW111810   5.457   1.563   2.422
 3637SOL    HW211811   5.400   1.497   2.559
 3638SOL     OW11812   6.662   5.114   3.392
 3638SOL    HW111813   6.636   5.063   3.310
 3638SOL    HW211814   6.732   5.063   3.442
 3639SOL     OW11815   2.751   5.665   6.951
 3639SOL    HW111816   2.810   5.743   6.929
 3639SOL    HW211817   2.795   5.581   6.922
 3640SOL     OW11818   2.473   0.001   3.376
 3640SOL    HW111819   2.414   0.067   3.423
 3640SOL    HW211820   2.437   7.009   3.284
 3641SOL     OW11821   2.125   0.575   4.990
 3641SOL    HW111822   2.133   0.565   5.089
 3641SOL    HW211823   2.138   0.671   4.965
 3642SOL     OW11824   6.290   0.308   3.041
 3642SOL    HW111825   6.278   0.382   3.107
 3642SOL    HW211826   6.331   0.229   3.086
 3643SOL     OW11827   3.879   0.048   3.744
 3643SOL    HW111828   3.941   0.119   3.780
 3643SOL    HW211829   3.932   6.992   3.719
 3644SOL     OW11830   6.114   0.612   1.647
 3644SOL    HW111831   6.055   0.532   1.659
 3644SOL    HW211832   6.059   0.695   1.652
 3645SOL     OW11833   4.212   5.512   3.906
 3645SOL    HW111834   4.131   5.551   3.950
 3645SOL    HW211835   4.246   5.436   3.960
 3646SOL     OW11836   0.499   5.210   5.217
 3646SOL    HW111837   0.568   5.269   5.259
 3646SOL    HW211838   0.429   5.266   5.173
 3647SOL     OW11839   4.280   2.878   0.894
 3647SOL    HW111840   4.318   2.956   0.943
 3647SOL    HW211841   4.324   2.871   0.804
 3648SOL     OW11842   2.245   6.341   3.690
 3648SOL    HW111843   2.200   6.391   3.764
 3648SOL    HW211844   2.253   6.400   3.610
 3649SOL     OW11845   3.988   3.229   2.973
 3649SOL    HW111846   4.060   3.279   2.926
 3649SOL    HW211847   3.963   3.149   2.919
 3650SOL     OW11848   5.563   5.899   1.833
 3650SOL    HW111849   5.558   5.860   1.741
 3650SOL    HW211850   5.470   5.917   1.866
 3651SOL     OW11851   1.898   5.423   1.695
 3651SOL    HW111852   1.991   5.387   1.706
 3651SOL    HW211853   1.833   5.347   1.697
 3652SOL     OW11854   4.304   6.543   3.879
 3652SOL    HW111855   4.370   6.613   3.906
 3652SOL    HW211856   4.246   6.579   3.806
 3653SOL     OW11857   0.231   3.640   3.388
 3653SOL    HW111858   0.144   3.594   3.367
 3653SOL    HW211859   0.213   3.716   3.451
 3654SOL     OW11860   2.114   6.807   1.883
 3654SOL    HW111861   2.170   6.753   1.820
 3654SOL    HW211862   2.083   6.749   1.958
 3655SOL     OW11863   6.218   1.066   3.767
 3655SOL    HW111864   6.224   0.981   3.714
 3655SOL    HW211865   6.267   1.138   3.719
 3656SOL     OW11866   1.633   1.648   2.537
 3656SOL    HW111867   1.678   1.717   2.593
 3656SOL    HW211868   1.686   1.633   2.453
 3657SOL     OW11869   5.770   5.059   1.149
 3657SOL    HW111870   5.675   5.091   1.142
 3657SOL    HW211871   5.802   5.073   1.243
 3658SOL     OW11872   2.855   4.230   5.598
 3658SOL    HW111873   2.756   4.230   5.586
 3658SOL    HW211874   2.894   4.149   5.555
 3659SOL     OW11875   1.782   3.391   6.857
 3659SOL    HW111876   1.737   3.477   6.831
 3659SOL    HW211877   1.727   3.344   6.926
 3660SOL     OW11878   5.049   3.864   0.885
 3660SOL    HW111879   5.128   3.842   0.943
 3660SOL    HW211880   5.050   3.962   0.864
 3661SOL     OW11881   5.321   0.914   2.357
 3661SOL    HW111882   5.222   0.910   2.343
 3661SOL    HW211883   5.353   0.826   2.392
 3662SOL     OW11884   1.590   6.458   4.085
 3662SOL    HW111885   1.525   6.534   4.083
 3662SOL    HW211886   1.542   6.374   4.114
 3663SOL     OW11887   2.510   2.876   5.606
 3663SOL    HW111888   2.533   2.778   5.606
 3663SOL    HW211889   2.486   2.904   5.513
 3664SOL     OW11890   4.091   0.136   2.070
 3664SOL    HW111891   4.151   0.067   2.028
 3664SOL    HW211892   4.138   0.179   2.146
 3665SOL     OW11893   2.485   1.874   5.315
 3665SOL    HW111894   2.572   1.863   5.268
 3665SOL    HW211895   2.410   1.876   5.248
 3666SOL     OW11896   0.897   4.742   2.891
 3666SOL    HW111897   0.812   4.741   2.943
 3666SOL    HW211898   0.973   4.714   2.950
 3667SOL     OW11899   0.128   0.594   0.151
 3667SOL    HW111900   0.215   0.625   0.189
 3667SOL    HW211901   0.081   0.670   0.107
 3668SOL     OW11902   2.039   0.152   0.980
 3668SOL    HW111903   1.975   0.185   0.910
 3668SOL    HW211904   2.055   0.224   1.047
 3669SOL     OW11905   4.928   1.387   4.390
 3669SOL    HW111906   4.927   1.310   4.326
 3669SOL    HW211907   4.959   1.469   4.342
 3670SOL     OW11908   3.121   5.063   5.808
 3670SOL    HW111909   3.023   5.079   5.818
 3670SOL    HW211910   3.169   5.093   5.891
 3671SOL     OW11911   1.955   1.780   3.098
 3671SOL    HW111912   1.859   1.802   3.081
 3671SOL    HW211913   1.994   1.736   3.017
 3672SOL     OW11914   5.957   6.138   6.971
 3672SOL    HW111915   5.877   6.125   0.006
 3672SOL    HW211916   6.040   6.129   0.001
 3673SOL     OW11917   3.720   6.969   6.264
 3673SOL    HW111918   3.700   0.011   6.192
 3673SOL    HW211919   3.645   6.903   6.271
 3674SOL     OW11920   1.314   6.421   0.923
 3674SOL    HW111921   1.245   6.492   0.911
 3674SOL    HW211922   1.356   6.401   0.835
 3675SOL     OW11923   2.049   2.045   4.291
 3675SOL    HW111924   2.050   1.980   4.367
 3675SOL    HW211925   1.989   2.011   4.219
 3676SOL     OW11926   0.487   4.831   2.730
 3676SOL    HW111927   0.492   4.931   2.735
 3676SOL    HW211928   0.562   4.797   2.673
 3677SOL     OW11929   6.425   1.085   3.340
 3677SOL    HW111930   6.510   1.113   3.295
 3677SOL    HW211931   6.408   1.145   3.419
 3678SOL     OW11932   0.701   2.745   4.250
 3678SOL    HW111933   0.605   2.748   4.276
 3678SOL    HW211934   0.713   2.794   4.163
 3679SOL     OW11935   6.126   1.466   1.769
 3679SOL    HW111936   6.086   1.375   1.779
 3679SOL    HW211937   6.163   1.496   1.857
 3680SOL     OW11938   6.304   4.192   5.202
 3680SOL    HW111939   6.226   4.255   5.196
 3680SOL    HW211940   6.270   4.099   5.216
 3681SOL     OW11941   5.498   0.591   4.655
 3681SOL    HW111942   5.546   0.550   4.577
 3681SOL    HW211943   5.424   0.649   4.622
 3682SOL     OW11944   0.544   1.944   0.064
 3682SOL    HW111945   0.523   1.874   7.021
 3682SOL    HW211946   0.626   1.918   0.114
 3683SOL     OW11947   4.324   6.038   3.819
 3683SOL    HW111948   4.354   6.122   3.774
 3683SOL    HW211949   4.244   6.001   3.771
 3684SOL     OW11950   2.296   4.040   1.981
 3684SOL    HW111951   2.236   4.088   1.916
 3684SOL    HW211952   2.272   3.943   1.983
 3685SOL     OW11953   5.701   5.494   5.948
 3685SOL    HW111954   5.633   5.559   5.982
 3685SOL    HW211955   5.655   5.411   5.916
 3686SOL     OW11956   0.571   3.977   0.601
 3686SOL    HW111957   0.533   3.926   0.678
 3686SOL    HW211958   0.506   4.047   0.572
 3687SOL     OW11959   3.967   1.091   1.031
 3687SOL    HW111960   4.033   1.165   1.044
 3687SOL    HW211961   3.899   1.094   1.104
 3688SOL     OW11962   6.957   2.476   6.685
 3688SOL    HW111963   0.032   2.485   6.684
 3688SOL    HW211964   6.929   2.418   6.609
 3689SOL     OW11965   1.177   6.142   3.938
 3689SOL    HW111966   1.258   6.170   3.989
 3689SOL    HW211967   1.202   6.076   3.868
 3690SOL     OW11968   4.888   4.562   5.721
 3690SOL    HW111969   4.851   4.523   5.806
 3690SOL    HW211970   4.830   4.534   5.644
 3691SOL     OW11971   3.125   3.294   6.344
 3691SOL    HW111972   3.156   3.385   6.317
 3691SOL    HW211973   3.027   3.295   6.360
 3692SOL     OW11974   6.560   0.278   5.328
 3692SOL    HW111975   6.508   0.353   5.369
 3692SOL    HW211976   6.608   0.311   5.247
 3693SOL     OW11977   1.717   1.507   3.621
 3693SOL    HW111978   1.751   1.601   3.632
 3693SOL    HW211979   1.791   1.443   3.639
 3694SOL     OW11980   1.827   4.741   3.501
 3694SOL    HW111981   1.865   4.778   3.417
 3694SOL    HW211982   1.812   4.815   3.567
 3695SOL     OW11983   2.478   2.742   0.787
 3695SOL    HW111984   2.515   2.774   0.873
 3695SOL    HW211985   2.494   2.643   0.778
 3696SOL     OW11986   2.658   5.657   5.766
 3696SOL    HW111987   2.694   5.749   5.781
 3696SOL    HW211988   2.627   5.648   5.672
 3697SOL     OW11989   5.456   0.964   3.340
 3697SOL    HW111990   5.504   0.884   3.303
 3697SOL    HW211991   5.487   0.980   3.434
 3698SOL     OW11992   3.457   0.042   5.816
 3698SOL    HW111993   3.362   0.062   5.796
 3698SOL    HW211994   3.513   0.123   5.803
 3699SOL     OW11995   1.136   5.245   2.273
 3699SOL    HW111996   1.185   5.162   2.302
 3699SOL    HW211997   1.077   5.223   2.196
 3700SOL     OW11998   6.223   0.348   3.807
 3700SOL    HW111999   6.230   0.357   3.906
 3700SOL    HW212000   6.226   0.251   3.781
 3701SOL     OW12001   4.200   1.409   3.469
 3701SOL    HW112002   4.112   1.433   3.427
 3701SOL    HW212003   4.271   1.471   3.436
 3702SOL     OW12004   4.264   1.389   6.616
 3702SOL    HW112005   4.227   1.301   6.646
 3702SOL    HW212006   4.257   1.397   6.517
 3703SOL     OW12007   3.557   4.852   0.941
 3703SOL    HW112008   3.501   4.865   1.022
 3703SOL    HW212009   3.644   4.900   0.952
 3704SOL     OW12010   3.646   6.471   0.844
 3704SOL    HW112011   3.606   6.385   0.876
 3704SOL    HW212012   3.657   6.533   0.922
 3705SOL     OW12013   0.160   1.033   3.985
 3705SOL    HW112014   0.094   0.968   4.022
 3705SOL    HW212015   0.112   1.113   3.950
 3706SOL     OW12016   2.680   2.418   3.098
 3706SOL    HW112017   2.718   2.369   3.019
 3706SOL    HW212018   2.726   2.387   3.182
 3707SOL     OW12019   4.118   2.266   5.448
 3707SOL    HW112020   4.214   2.258   5.475
 3707SOL    HW212021   4.062   2.205   5.505
 3708SOL     OW12022   6.180   6.563   0.716
 3708SOL    HW112023   6.181   6.637   0.647
 3708SOL    HW212024   6.156   6.477   0.671
 3709SOL     OW12025   0.706   6.482   6.354
 3709SOL    HW112026   0.656   6.395   6.357
 3709SOL    HW212027   0.705   6.518   6.261
 3710SOL     OW12028   0.833   4.945   6.405
 3710SOL    HW112029   0.745   4.983   6.432
 3710SOL    HW212030   0.865   4.882   6.476
 3711SOL     OW12031   6.314   5.028   2.312
 3711SOL    HW112032   6.287   4.974   2.232
 3711SOL    HW212033   6.286   4.980   2.395
 3712SOL     OW12034   1.535   0.090   5.683
 3712SOL    HW112035   1.501   0.135   5.600
 3712SOL    HW212036   1.465   0.095   5.754
 3713SOL     OW12037   3.303   4.766   6.148
 3713SOL    HW112038   3.296   4.862   6.177
 3713SOL    HW212039   3.245   4.752   6.067
 3714SOL     OW12040   4.847   2.428   4.293
 3714SOL    HW112041   4.829   2.497   4.364
 3714SOL    HW212042   4.876   2.343   4.336
 3715SOL     OW12043   4.626   4.262   3.628
 3715SOL    HW112044   4.646   4.166   3.645
 3715SOL    HW212045   4.636   4.314   3.713
 3716SOL     OW12046   1.486   1.099   4.739
 3716SOL    HW112047   1.519   1.147   4.657
 3716SOL    HW212048   1.447   1.011   4.713
 3717SOL     OW12049   6.006   0.521   6.646
 3717SOL    HW112050   5.954   0.443   6.681
 3717SOL    HW212051   5.977   0.604   6.693
 3718SOL     OW12052   1.096   6.865   6.336
 3718SOL    HW112053   1.152   6.945   6.358
 3718SOL    HW212054   1.076   6.815   6.420
 3719SOL     OW12055   3.816   4.154   0.621
 3719SOL    HW112056   3.775   4.083   0.564
 3719SOL    HW212057   3.761   4.237   0.617
 3720SOL     OW12058   6.792   1.260   6.393
 3720SOL    HW112059   6.868   1.275   6.330
 3720SOL    HW212060   6.787   1.335   6.459
 3721SOL     OW12061   5.768   3.013   0.366
 3721SOL    HW112062   5.813   2.935   0.322
 3721SOL    HW212063   5.672   3.014   0.339
 3722SOL     OW12064   4.518   5.861   0.625
 3722SOL    HW112065   4.529   5.789   0.694
 3722SOL    HW212066   4.468   5.938   0.664
 3723SOL     OW12067   4.074   1.400   0.283
 3723SOL    HW112068   4.069   1.304   0.311
 3723SOL    HW212069   4.165   1.436   0.306
 3724SOL     OW12070   1.100   3.800   6.600
 3724SOL    HW112071   1.099   3.701   6.587
 3724SOL    HW212072   1.074   3.822   6.694
 3725SOL     OW12073   4.978   5.900   1.739
 3725SOL    HW112074   4.939   5.858   1.657
 3725SOL    HW212075   5.050   5.965   1.712
 3726SOL     OW12076   6.004   3.344   1.874
 3726SOL    HW112077   6.018   3.442   1.891
 3726SOL    HW212078   6.045   3.320   1.786
 3727SOL     OW12079   2.880   2.530   5.593
 3727SOL    HW112080   2.791   2.573   5.608
 3727SOL    HW212081   2.902   2.533   5.495
 3728SOL     OW12082   0.647   3.712   6.727
 3728SOL    HW112083   0.568   3.659   6.697
 3728SOL    HW212084   0.693   3.664   6.801
 3729SOL     OW12085   1.225   3.775   3.433
 3729SOL    HW112086   1.305   3.733   3.474
 3729SOL    HW212087   1.152   3.781   3.501
 3730SOL     OW12088   1.930   6.932   1.061
 3730SOL    HW112089   1.954   7.017   1.015
 3730SOL    HW212090   1.956   6.855   1.003
 3731SOL     OW12091   2.575   6.435   0.110
 3731SOL    HW112092   2.550   6.513   0.052
 3731SOL    HW212093   2.670   6.445   0.140
 3732SOL     OW12094   1.918   3.653   4.424
 3732SOL    HW112095   1.824   3.642   4.455
 3732SOL    HW212096   1.934   3.749   4.399
 3733SOL     OW12097   3.328   3.175   1.818
 3733SOL    HW112098   3.302   3.218   1.904
 3733SOL    HW212099   3.257   3.192   1.749
 3734SOL     OW12100   4.290   1.402   3.153
 3734SOL    HW112101   4.386   1.426   3.139
 3734SOL    HW212102   4.240   1.483   3.183
 3735SOL     OW12103   3.796   2.091   1.726
 3735SOL    HW112104   3.733   2.029   1.678
 3735SOL    HW212105   3.745   2.169   1.762
 3736SOL     OW12106   4.994   0.925   6.182
 3736SOL    HW112107   4.937   0.869   6.241
 3736SOL    HW212108   5.090   0.914   6.207
 3737SOL     OW12109   2.757   6.997   3.845
 3737SOL    HW112110   2.829   6.927   3.852
 3737SOL    HW212111   2.727   7.004   3.750
 3738SOL     OW12112   0.600   0.343   4.180
 3738SOL    HW112113   0.556   0.272   4.233
 3738SOL    HW212114   0.549   0.429   4.189
 3739SOL     OW12115   0.187   3.535   0.757
 3739SOL    HW112116   0.180   3.634   0.745
 3739SOL    HW212117   0.247   3.515   0.835
 3740SOL     OW12118   5.763   6.940   0.317
 3740SOL    HW112119   5.813   6.914   0.234
 3740SOL    HW212120   5.821   6.998   0.374
 3741SOL     OW12121   3.906   0.721   6.945
 3741SOL    HW112122   3.915   0.681   0.012
 3741SOL    HW212123   3.847   0.801   6.949
 3742SOL     OW12124   3.535   3.383   6.373
 3742SOL    HW112125   3.476   3.462   6.390
 3742SOL    HW212126   3.594   3.403   6.294
 3743SOL     OW12127   1.283   6.199   5.813
 3743SOL    HW112128   1.228   6.271   5.855
 3743SOL    HW212129   1.248   6.109   5.839
 3744SOL     OW12130   6.342   4.649   3.685
 3744SOL    HW112131   6.393   4.590   3.748
 3744SOL    HW212132   6.267   4.598   3.644
 3745SOL     OW12133   5.293   4.751   1.342
 3745SOL    HW112134   5.253   4.666   1.375
 3745SOL    HW212135   5.390   4.753   1.365
 3746SOL     OW12136   4.447   1.481   1.085
 3746SOL    HW112137   4.467   1.518   1.175
 3746SOL    HW212138   4.529   1.434   1.049
 3747SOL     OW12139   3.075   6.718   1.430
 3747SOL    HW112140   3.076   6.633   1.377
 3747SOL    HW212141   3.152   6.719   1.493
 3748SOL     OW12142   5.342   0.627   1.898
 3748SOL    HW112143   5.324   0.543   1.950
 3748SOL    HW212144   5.255   0.663   1.862
 3749SOL     OW12145   1.229   0.757   4.099
 3749SOL    HW112146   1.265   0.698   4.027
 3749SOL    HW212147   1.263   0.725   4.188
 3750SOL     OW12148   0.708   3.596   6.983
 3750SOL    HW112149   0.705   3.666   0.030
 3750SOL    HW212150   0.651   3.518   7.011
 3751SOL     OW12151   2.209   5.077   1.455
 3751SOL    HW112152   2.158   4.992   1.466
 3751SOL    HW212153   2.284   5.081   1.520
 3752SOL     OW12154   5.556   5.213   6.461
 3752SOL    HW112155   5.588   5.119   6.459
 3752SOL    HW212156   5.515   5.237   6.373
 3753SOL     OW12157   0.160   1.384   3.636
 3753SOL    HW112158   0.251   1.342   3.626
 3753SOL    HW212159   0.099   1.320   3.683
 3754SOL     OW12160   3.929   1.473   1.458
 3754SOL    HW112161   3.897   1.495   1.366
 3754SOL    HW212162   3.864   1.508   1.525
 3755SOL     OW12163   2.763   6.228   4.432
 3755SOL    HW112164   2.685   6.278   4.469
 3755SOL    HW212165   2.821   6.196   4.506
 3756SOL     OW12166   1.398   6.370   0.675
 3756SOL    HW112167   1.486   6.325   0.687
 3756SOL    HW212168   1.365   6.356   0.581
 3757SOL     OW12169   1.095   5.163   6.927
 3757SOL    HW112170   1.117   5.155   6.830
 3757SOL    HW212171   1.173   5.203   6.975
 3758SOL     OW12172   0.361   6.013   4.099
 3758SOL    HW112173   0.449   6.036   4.139
 3758SOL    HW212174   0.312   6.097   4.075
 3759SOL     OW12175   4.746   0.716   3.498
 3759SOL    HW112176   4.655   0.674   3.493
 3759SOL    HW212177   4.762   0.771   3.416
 3760SOL     OW12178   0.593   1.138   3.297
 3760SOL    HW112179   0.577   1.043   3.326
 3760SOL    HW212180   0.585   1.144   3.198
 3761SOL     OW12181   4.055   1.329   4.524
 3761SOL    HW112182   4.127   1.354   4.589
 3761SOL    HW212183   4.001   1.254   4.561
 3762SOL     OW12184   6.819   2.194   3.233
 3762SOL    HW112185   6.874   2.182   3.151
 3762SOL    HW212186   6.742   2.131   3.231
 3763SOL     OW12187   0.766   6.976   6.317
 3763SOL    HW112188   0.769   6.909   6.392
 3763SOL    HW212189   0.789   0.042   6.353
 3764SOL     OW12190   4.436   2.039   2.372
 3764SOL    HW112191   4.511   2.020   2.310
 3764SOL    HW212192   4.364   1.970   2.361
 3765SOL     OW12193   5.795   3.916   2.237
 3765SOL    HW112194   5.853   3.936   2.316
 3765SOL    HW212195   5.795   3.994   2.175
 3766SOL     OW12196   2.362   2.781   2.296
 3766SOL    HW112197   2.377   2.745   2.388
 3766SOL    HW212198   2.384   2.879   2.295
 3767SOL     OW12199   1.498   6.331   5.734
 3767SOL    HW112200   1.498   6.424   5.770
 3767SOL    HW212201   1.427   6.278   5.779
 3768SOL     OW12202   1.263   6.745   3.884
 3768SOL    HW112203   1.246   6.700   3.796
 3768SOL    HW212204   1.214   6.832   3.888
 3769SOL     OW12205   5.008   5.090   6.119
 3769SOL    HW112206   5.015   4.993   6.095
 3769SOL    HW212207   5.022   5.101   6.217
 3770SOL     OW12208   2.746   0.136   0.561
 3770SOL    HW112209   2.648   0.132   0.579
 3770SOL    HW212210   2.761   0.163   0.466
 3771SOL     OW12211   6.406   6.236   5.556
 3771SOL    HW112212   6.454   6.323   5.563
 3771SOL    HW212213   6.428   6.179   5.636
 3772SOL     OW12214   3.411   5.563   1.453
 3772SOL    HW112215   3.332   5.517   1.412
 3772SOL    HW212216   3.386   5.657   1.476
 3773SOL     OW12217   5.019   4.042   6.884
 3773SOL    HW112218   5.042   3.980   6.959
 3773SOL    HW212219   4.991   3.990   6.804
 3774SOL     OW12220   0.101   4.163   0.776
 3774SOL    HW112221   0.156   4.228   0.724
 3774SOL    HW212222   0.153   4.132   0.855
 3775SOL     OW12223   5.677   6.671   5.107
 3775SOL    HW112224   5.674   6.762   5.148
 3775SOL    HW212225   5.666   6.678   5.008
 3776SOL     OW12226   4.288   2.702   6.513
 3776SOL    HW112227   4.317   2.787   6.557
 3776SOL    HW212228   4.204   2.719   6.461
 3777SOL     OW12229   2.942   5.149   3.346
 3777SOL    HW112230   2.940   5.080   3.273
 3777SOL    HW212231   2.896   5.113   3.427
 3778SOL     OW12232   2.740   5.645   6.502
 3778SOL    HW112233   2.730   5.699   6.419
 3778SOL    HW212234   2.669   5.672   6.568
 3779SOL     OW12235   6.501   4.815   6.344
 3779SOL    HW112236   6.412   4.770   6.350
 3779SOL    HW212237   6.559   4.784   6.419
 3780SOL     OW12238   6.034   2.140   1.621
 3780SOL    HW112239   5.979   2.057   1.626
 3780SOL    HW212240   6.090   2.138   1.538
 3781SOL     OW12241   1.284   0.382   6.788
 3781SOL    HW112242   1.349   0.383   6.864
 3781SOL    HW212243   1.311   0.312   6.722
 3782SOL     OW12244   3.435   5.318   6.867
 3782SOL    HW112245   3.465   5.266   6.787
 3782SOL    HW212246   3.514   5.360   6.911
 3783SOL     OW12247   4.635   5.214   5.524
 3783SOL    HW112248   4.640   5.272   5.442
 3783SOL    HW212249   4.653   5.270   5.605
 3784SOL     OW12250   5.546   3.816   5.168
 3784SOL    HW112251   5.515   3.869   5.089
 3784SOL    HW212252   5.602   3.873   5.227
 3785SOL     OW12253   0.738   3.370   2.539
 3785SOL    HW112254   0.781   3.438   2.598
 3785SOL    HW212255   0.782   3.371   2.449
 3786SOL     OW12256   2.954   3.145   6.072
 3786SOL    HW112257   2.884   3.088   6.028
 3786SOL    HW212258   2.924   3.170   6.164
 3787SOL     OW12259   5.346   5.768   5.609
 3787SOL    HW112260   5.383   5.803   5.695
 3787SOL    HW212261   5.347   5.668   5.610
 3788SOL     OW12262   5.703   3.009   5.967
 3788SOL    HW112263   5.688   2.960   5.881
 3788SOL    HW212264   5.687   3.107   5.952
 3789SOL     OW12265   2.051   4.884   1.605
 3789SOL    HW112266   2.065   4.907   1.702
 3789SOL    HW212267   1.959   4.849   1.592
 3790SOL     OW12268   2.939   0.121   1.639
 3790SOL    HW112269   2.909   0.216   1.650
 3790SOL    HW212270   2.881   0.076   1.571
 3791SOL     OW12271   4.990   0.698   4.077
 3791SOL    HW112272   5.002   0.772   4.011
 3791SOL    HW212273   4.971   0.612   4.029
 3792SOL     OW12274   6.324   0.379   3.554
 3792SOL    HW112275   6.245   0.403   3.610
 3792SOL    HW212276   6.349   0.284   3.572
 3793SOL     OW12277   5.171   3.109   6.820
 3793SOL    HW112278   5.094   3.045   6.824
 3793SOL    HW212279   5.190   3.134   6.725
 3794SOL     OW12280   1.756   5.493   5.283
 3794SOL    HW112281   1.714   5.577   5.248
 3794SOL    HW212282   1.825   5.461   5.219
 3795SOL     OW12283   3.468   6.088   0.576
 3795SOL    HW112284   3.395   6.102   0.643
 3795SOL    HW212285   3.472   5.991   0.552
 3796SOL     OW12286   5.518   1.007   0.560
 3796SOL    HW112287   5.487   0.915   0.584
 3796SOL    HW212288   5.440   1.068   0.554
 3797SOL     OW12289   6.852   1.911   1.107
 3797SOL    HW112290   6.946   1.905   1.074
 3797SOL    HW212291   6.811   1.820   1.107
 3798SOL     OW12292   6.678   3.742   4.294
 3798SOL    HW112293   6.737   3.709   4.367
 3798SOL    HW212294   6.677   3.675   4.219
 3799SOL     OW12295   6.538   1.948   2.237
 3799SOL    HW112296   6.511   1.993   2.151
 3799SOL    HW212297   6.506   2.003   2.314
 3800SOL     OW12298   5.749   3.673   1.910
 3800SOL    HW112299   5.757   3.627   1.821
 3800SOL    HW212300   5.653   3.699   1.926
 3801SOL     OW12301   5.362   1.622   0.498
 3801SOL    HW112302   5.442   1.652   0.447
 3801SOL    HW212303   5.361   1.665   0.588
 3802SOL     OW12304   5.963   3.435   3.727
 3802SOL    HW112305   6.049   3.410   3.683
 3802SOL    HW212306   5.887   3.397   3.673
 3803SOL     OW12307   4.091   4.279   6.260
 3803SOL    HW112308   4.128   4.259   6.169
 3803SOL    HW212309   4.035   4.361   6.256
 3804SOL     OW12310   3.245   6.145   2.932
 3804SOL    HW112311   3.206   6.170   2.844
 3804SOL    HW212312   3.345   6.150   2.927
 3805SOL     OW12313   2.786   2.099   7.022
 3805SOL    HW112314   2.746   2.188   0.018
 3805SOL    HW212315   2.733   2.027   0.043
 3806SOL     OW12316   1.847   3.938   2.154
 3806SOL    HW112317   1.862   3.902   2.062
 3806SOL    HW212318   1.901   3.884   2.219
 3807SOL     OW12319   6.972   3.900   4.253
 3807SOL    HW112320   6.927   3.820   4.213
 3807SOL    HW212321   6.981   3.972   4.184
 3808SOL     OW12322   2.471   6.317   5.713
 3808SOL    HW112323   2.458   6.242   5.648
 3808SOL    HW212324   2.507   6.396   5.665
 3809SOL     OW12325   6.057   2.239   1.245
 3809SOL    HW112326   6.065   2.209   1.150
 3809SOL    HW212327   5.965   2.275   1.261
 3810SOL     OW12328   4.554   1.895   3.830
 3810SOL    HW112329   4.594   1.820   3.883
 3810SOL    HW212330   4.495   1.859   3.759
 3811SOL     OW12331   0.478   6.142   5.619
 3811SOL    HW112332   0.460   6.085   5.699
 3811SOL    HW212333   0.422   6.224   5.624
 3812SOL     OW12334   4.184   5.743   0.113
 3812SOL    HW112335   4.252   5.689   0.161
 3812SOL    HW212336   4.195   5.840   0.137
 3813SOL     OW12337   0.113   3.073   6.464
 3813SOL    HW112338   0.036   3.104   6.408
 3813SOL    HW212339   0.142   3.147   6.525
 3814SOL     OW12340   0.003   0.397   4.836
 3814SOL    HW112341   0.064   0.471   4.864
 3814SOL    HW212342   6.934   0.419   4.864
 3815SOL     OW12343   4.656   2.046   5.470
 3815SOL    HW112344   4.580   2.109   5.479
 3815SOL    HW212345   4.677   2.031   5.373
 3816SOL     OW12346   6.395   6.585   1.741
 3816SOL    HW112347   6.336   6.511   1.774
 3816SOL    HW212348   6.378   6.667   1.795
 3817SOL     OW12349   3.615   4.081   2.878
 3817SOL    HW112350   3.572   3.991   2.871
 3817SOL    HW212351   3.614   4.126   2.789
 3818SOL     OW12352   4.745   5.578   1.917
 3818SOL    HW112353   4.689   5.552   1.995
 3818SOL    HW212354   4.772   5.674   1.925
 3819SOL     OW12355   6.047   2.597   2.602
 3819SOL    HW112356   6.088   2.545   2.527
 3819SOL    HW212357   6.010   2.683   2.567
 3820SOL     OW12358   3.071   6.291   5.901
 3820SOL    HW112359   3.100   6.304   5.996
 3820SOL    HW212360   3.067   6.380   5.855
 3821SOL     OW12361   1.297   6.677   1.312
 3821SOL    HW112362   1.306   6.742   1.388
 3821SOL    HW212363   1.296   6.584   1.348
 3822SOL     OW12364   6.051   6.143   1.766
 3822SOL    HW112365   5.952   6.153   1.753
 3822SOL    HW212366   6.079   6.190   1.850
 3823SOL     OW12367   5.840   6.009   4.451
 3823SOL    HW112368   5.918   6.030   4.392
 3823SOL    HW212369   5.764   6.072   4.430
 3824SOL     OW12370   1.967   2.677   0.705
 3824SOL    HW112371   2.012   2.612   0.643
 3824SOL    HW212372   1.891   2.721   0.658
 3825SOL     OW12373   0.375   4.428   5.375
 3825SOL    HW112374   0.331   4.464   5.293
 3825SOL    HW212375   0.387   4.501   5.441
 3826SOL     OW12376   4.803   4.081   3.790
 3826SOL    HW112377   4.887   4.055   3.837
 3826SOL    HW212378   4.752   4.146   3.845
 3827SOL     OW12379   0.333   1.403   0.208
 3827SOL    HW112380   0.313   1.371   0.300
 3827SOL    HW212381   0.301   1.335   0.141
 3828SOL     OW12382   3.271   3.367   5.649
 3828SOL    HW112383   3.182   3.337   5.682
 3828SOL    HW212384   3.273   3.365   5.549
 3829SOL     OW12385   6.683   2.502   1.685
 3829SOL    HW112386   6.655   2.534   1.775
 3829SOL    HW212387   6.782   2.514   1.674
 3830SOL     OW12388   5.354   6.123   3.665
 3830SOL    HW112389   5.260   6.090   3.669
 3830SOL    HW212390   5.381   6.136   3.569
 3831SOL     OW12391   5.570   2.176   4.164
 3831SOL    HW112392   5.556   2.144   4.071
 3831SOL    HW212393   5.520   2.262   4.179
 3832SOL     OW12394   6.410   1.417   3.971
 3832SOL    HW112395   6.419   1.504   4.020
 3832SOL    HW212396   6.333   1.422   3.908
 3833SOL     OW12397   2.179   3.139   6.064
 3833SOL    HW112398   2.126   3.184   6.136
 3833SOL    HW212399   2.128   3.143   5.978
 3834SOL     OW12400   4.945   4.719   1.045
 3834SOL    HW112401   4.976   4.813   1.038
 3834SOL    HW212402   4.863   4.706   0.990
 3835SOL     OW12403   4.754   5.310   4.397
 3835SOL    HW112404   4.758   5.355   4.308
 3835SOL    HW212405   4.831   5.340   4.453
 3836SOL     OW12406   0.387   0.070   5.051
 3836SOL    HW112407   0.307   0.094   4.996
 3836SOL    HW212408   0.446   0.008   4.999
 3837SOL     OW12409   4.923   4.287   5.574
 3837SOL    HW112410   4.874   4.255   5.655
 3837SOL    HW212411   4.865   4.352   5.523
 3838SOL     OW12412   0.760   1.536   3.497
 3838SOL    HW112413   0.671   1.563   3.534
 3838SOL    HW212414   0.833   1.569   3.557
 3839SOL     OW12415   4.680   1.682   3.936
 3839SOL    HW112416   4.618   1.673   4.014
 3839SOL    HW212417   4.732   1.597   3.924
 3840SOL     OW12418   3.879   1.433   6.107
 3840SOL    HW112419   3.861   1.464   6.014
 3840SOL    HW212420   3.800   1.452   6.165
 3841SOL     OW12421   5.430   4.078   2.774
 3841SOL    HW112422   5.439   4.055   2.870
 3841SOL    HW212423   5.408   3.996   2.721
 3842SOL     OW12424   1.708   4.310   4.844
 3842SOL    HW112425   1.799   4.288   4.879
 3842SOL    HW212426   1.717   4.348   4.752
 3843SOL     OW12427   5.804   1.734   6.822
 3843SOL    HW112428   5.855   1.752   6.738
 3843SOL    HW212429   5.706   1.741   6.804
 3844SOL     OW12430   5.892   6.411   0.817
 3844SOL    HW112431   5.890   6.457   0.906
 3844SOL    HW212432   5.872   6.477   0.745
 3845SOL     OW12433   2.334   5.452   0.360
 3845SOL    HW112434   2.373   5.538   0.327
 3845SOL    HW212435   2.337   5.384   0.287
 3846SOL     OW12436   6.694   3.222   2.609
 3846SOL    HW112437   6.710   3.209   2.511
 3846SOL    HW212438   6.759   3.168   2.661
 3847SOL     OW12439   0.628   0.995   6.994
 3847SOL    HW112440   0.543   0.972   0.017
 3847SOL    HW212441   0.614   0.986   6.895
 3848SOL     OW12442   5.586   4.674   2.685
 3848SOL    HW112443   5.601   4.587   2.639
 3848SOL    HW212444   5.553   4.657   2.778
 3849SOL     OW12445   0.338   2.952   5.613
 3849SOL    HW112446   0.293   2.908   5.536
 3849SOL    HW212447   0.279   2.944   5.694
 3850SOL     OW12448   3.478   3.054   1.380
 3850SOL    HW112449   3.405   2.998   1.339
 3850SOL    HW212450   3.445   3.148   1.391
 3851SOL     OW12451   0.013   5.494   2.241
 3851SOL    HW112452   0.045   5.495   2.336
 3851SOL    HW212453   0.088   5.520   2.181
 3852SOL     OW12454   3.197   0.421   5.268
 3852SOL    HW112455   3.201   0.337   5.322
 3852SOL    HW212456   3.222   0.499   5.325
 3853SOL     OW12457   1.937   1.122   3.049
 3853SOL    HW112458   1.956   1.108   2.952
 3853SOL    HW212459   1.839   1.113   3.066
 3854SOL     OW12460   0.309   1.309   1.768
 3854SOL    HW112461   0.329   1.293   1.864
 3854SOL    HW212462   0.382   1.270   1.711
 3855SOL     OW12463   3.146   5.738   6.762
 3855SOL    HW112464   3.214   5.804   6.793
 3855SOL    HW212465   3.055   5.768   6.790
 3856SOL     OW12466   0.162   2.813   6.411
 3856SOL    HW112467   0.143   2.906   6.444
 3856SOL    HW212468   0.080   2.756   6.422
 3857SOL     OW12469   0.864   0.403   5.553
 3857SOL    HW112470   0.929   0.422   5.627
 3857SOL    HW212471   0.777   0.372   5.592
 3858SOL     OW12472   3.386   0.889   5.036
 3858SOL    HW112473   3.449   0.812   5.031
 3858SOL    HW212474   3.432   0.967   5.079
 3859SOL     OW12475   5.192   0.259   2.905
 3859SOL    HW112476   5.143   0.250   2.818
 3859SOL    HW212477   5.159   0.188   2.968
 3860SOL     OW12478   1.708   6.570   4.858
 3860SOL    HW112479   1.630   6.614   4.902
 3860SOL    HW212480   1.712   6.597   4.762
 3861SOL     OW12481   2.618   5.964   2.473
 3861SOL    HW112482   2.690   5.922   2.417
 3861SOL    HW212483   2.631   5.939   2.569
 3862SOL     OW12484   1.985   0.752   3.983
 3862SOL    HW112485   2.046   0.697   3.926
 3862SOL    HW212486   2.033   0.833   4.016
 3863SOL     OW12487   4.243   0.397   1.225
 3863SOL    HW112488   4.228   0.352   1.137
 3863SOL    HW212489   4.192   0.483   1.227
 3864SOL     OW12490   1.096   0.838   4.832
 3864SOL    HW112491   1.155   0.761   4.806
 3864SOL    HW212492   1.144   0.896   4.898
 3865SOL     OW12493   5.331   1.097   1.027
 3865SOL    HW112494   5.412   1.040   1.011
 3865SOL    HW212495   5.308   1.095   1.124
 3866SOL     OW12496   3.507   1.284   6.647
 3866SOL    HW112497   3.440   1.356   6.630
 3866SOL    HW212498   3.509   1.262   6.745
 3867SOL     OW12499   6.590   3.300   2.037
 3867SOL    HW112500   6.600   3.249   2.122
 3867SOL    HW212501   6.496   3.294   2.004
 3868SOL     OW12502   4.124   0.828   0.236
 3868SOL    HW112503   4.158   0.855   0.146
 3868SOL    HW212504   4.048   0.763   0.225
 3869SOL     OW12505   3.571   0.924   3.698
 3869SOL    HW112506   3.515   1.004   3.676
 3869SOL    HW212507   3.515   0.854   3.741
 3870SOL     OW12508   6.769   1.681   5.768
 3870SOL    HW112509   6.795   1.646   5.678
 3870SOL    HW212510   6.794   1.778   5.774
 3871SOL     OW12511   2.528   5.112   4.074
 3871SOL    HW112512   2.608   5.134   4.018
 3871SOL    HW212513   2.556   5.058   4.153
 3872SOL     OW12514   2.904   4.015   5.399
 3872SOL    HW112515   2.953   3.939   5.441
 3872SOL    HW212516   2.831   3.980   5.341
 3873SOL     OW12517   5.364   2.560   6.300
 3873SOL    HW112518   5.336   2.469   6.268
 3873SOL    HW212519   5.305   2.629   6.260
 3874SOL     OW12520   2.009   0.979   1.800
 3874SOL    HW112521   2.003   0.978   1.899
 3874SOL    HW212522   2.092   1.028   1.772
 3875SOL     OW12523   0.736   0.921   6.747
 3875SOL    HW112524   0.690   0.835   6.725
 3875SOL    HW212525   0.701   0.994   6.687
 3876SOL     OW12526   2.943   5.539   1.997
 3876SOL    HW112527   3.004   5.461   2.008
 3876SOL    HW212528   2.849   5.511   2.017
 3877SOL     OW12529   0.794   1.396   6.071
 3877SOL    HW112530   0.825   1.422   5.980
 3877SOL    HW212531   0.831   1.306   6.094
 3878SOL     OW12532   4.344   1.819   4.791
 3878SOL    HW112533   4.392   1.881   4.729
 3878SOL    HW212534   4.325   1.733   4.743
 3879SOL     OW12535   5.403   5.515   6.548
 3879SOL    HW112536   5.329   5.448   6.555
 3879SOL    HW212537   5.477   5.490   6.610
 3880SOL     OW12538   5.278   4.806   3.910
 3880SOL    HW112539   5.235   4.772   3.827
 3880SOL    HW212540   5.283   4.732   3.978
 3881SOL     OW12541   1.695   2.593   0.222
 3881SOL    HW112542   1.636   2.515   0.242
 3881SOL    HW212543   1.790   2.562   0.219
 3882SOL     OW12544   0.585   2.243   6.139
 3882SOL    HW112545   0.573   2.318   6.204
 3882SOL    HW212546   0.562   2.275   6.047
 3883SOL     OW12547   4.049   6.016   4.412
 3883SOL    HW112548   3.970   6.058   4.366
 3883SOL    HW212549   4.132   6.066   4.388
 3884SOL     OW12550   6.798   3.080   1.960
 3884SOL    HW112551   6.854   3.026   2.023
 3884SOL    HW212552   6.789   3.173   1.995
 3885SOL     OW12553   4.185   5.466   2.021
 3885SOL    HW112554   4.189   5.399   2.094
 3885SOL    HW212555   4.146   5.425   1.939
 3886SOL     OW12556   2.985   5.136   6.254
 3886SOL    HW112557   2.958   5.073   6.181
 3886SOL    HW212558   2.934   5.115   6.337
 3887SOL     OW12559   1.641   5.794   1.747
 3887SOL    HW112560   1.693   5.864   1.699
 3887SOL    HW212561   1.692   5.709   1.748
 3888SOL     OW12562   5.348   4.596   3.319
 3888SOL    HW112563   5.302   4.603   3.407
 3888SOL    HW212564   5.445   4.617   3.331
 3889SOL     OW12565   5.769   3.523   0.484
 3889SOL    HW112566   5.734   3.455   0.419
 3889SOL    HW212567   5.835   3.480   0.545
 3890SOL     OW12568   5.035   3.983   3.886
 3890SOL    HW112569   5.103   3.952   3.819
 3890SOL    HW212570   5.079   4.044   3.952
 3891SOL     OW12571   4.832   4.888   3.908
 3891SOL    HW112572   4.801   4.903   4.002
 3891SOL    HW212573   4.900   4.957   3.884
 3892SOL     OW12574   6.992   2.189   1.544
 3892SOL    HW112575   6.964   2.250   1.470
 3892SOL    HW212576   7.012   2.243   1.626
 3893SOL     OW12577   3.641   2.929   3.460
 3893SOL    HW112578   3.691   2.897   3.540
 3893SOL    HW212579   3.622   3.027   3.470
 3894SOL     OW12580   4.183   0.813   6.037
 3894SOL    HW112581   4.208   0.754   5.960
 3894SOL    HW212582   4.111   0.768   6.090
 3895SOL     OW12583   0.517   0.097   4.273
 3895SOL    HW112584   0.523   0.092   4.173
 3895SOL    HW212585   0.422   0.109   4.300
 3896SOL     OW12586   2.051   1.645   6.707
 3896SOL    HW112587   2.137   1.619   6.751
 3896SOL    HW212588   1.983   1.572   6.722
 3897SOL     OW12589   3.355   6.095   0.830
 3897SOL    HW112590   3.297   6.015   0.829
 3897SOL    HW212591   3.412   6.094   0.913
 3898SOL     OW12592   3.971   3.102   1.193
 3898SOL    HW112593   4.003   3.052   1.112
 3898SOL    HW212594   3.918   3.182   1.164
 3899SOL     OW12595   3.171   6.769   5.183
 3899SOL    HW112596   3.259   6.748   5.139
 3899SOL    HW212597   3.106   6.696   5.164
 3900SOL     OW12598   4.304   4.673   2.988
 3900SOL    HW112599   4.281   4.763   2.951
 3900SOL    HW212600   4.375   4.682   3.058
 3901SOL     OW12601   3.202   1.742   6.876
 3901SOL    HW112602   3.244   1.802   6.943
 3901SOL    HW212603   3.228   1.771   6.784
 3902SOL     OW12604   5.161   2.910   2.580
 3902SOL    HW112605   5.106   2.891   2.499
 3902SOL    HW212606   5.223   2.986   2.562
 3903SOL     OW12607   3.603   4.767   6.797
 3903SOL    HW112608   3.602   4.672   6.767
 3903SOL    HW212609   3.654   4.776   6.882
 3904SOL     OW12610   1.924   6.421   0.860
 3904SOL    HW112611   1.854   6.356   0.832
 3904SOL    HW212612   1.965   6.463   0.778
 3905SOL     OW12613   0.131   6.490   5.267
 3905SOL    HW112614   0.120   6.510   5.170
 3905SOL    HW212615   0.049   6.521   5.316
 3906SOL     OW12616   0.629   6.059   5.308
 3906SOL    HW112617   0.702   6.127   5.316
 3906SOL    HW212618   0.540   6.105   5.308
 3907SOL     OW12619   5.538   2.019   3.938
 3907SOL    HW112620   5.444   2.052   3.941
 3907SOL    HW212621   5.561   1.989   3.846
 3908SOL     OW12622   2.514   3.896   5.954
 3908SOL    HW112623   2.457   3.848   5.887
 3908SOL    HW212624   2.534   3.988   5.920
 3909SOL     OW12625   4.243   5.719   3.737
 3909SOL    HW112626   4.330   5.766   3.754
 3909SOL    HW212627   4.231   5.647   3.805
 3910SOL     OW12628   3.776   4.048   2.596
 3910SOL    HW112629   3.801   4.141   2.569
 3910SOL    HW212630   3.712   4.010   2.530
 3911SOL     OW12631   5.681   2.150   5.543
 3911SOL    HW112632   5.636   2.083   5.484
 3911SOL    HW212633   5.757   2.192   5.493
 3912SOL     OW12634   5.912   2.890   6.365
 3912SOL    HW112635   5.962   2.918   6.283
 3912SOL    HW212636   5.814   2.901   6.350
 3913SOL     OW12637   1.329   6.881   1.493
 3913SOL    HW112638   1.313   6.950   1.563
 3913SOL    HW212639   1.323   6.924   1.402
 3914SOL     OW12640   3.190   5.666   5.407
 3914SOL    HW112641   3.165   5.611   5.327
 3914SOL    HW212642   3.286   5.649   5.430
 3915SOL     OW12643   5.342   5.666   1.741
 3915SOL    HW112644   5.356   5.692   1.645
 3915SOL    HW212645   5.287   5.583   1.746
 3916SOL     OW12646   0.090   0.182   3.467
 3916SOL    HW112647   0.100   0.087   3.439
 3916SOL    HW212648   0.128   0.242   3.396
 3917SOL     OW12649   3.039   0.038   6.972
 3917SOL    HW112650   3.077   0.011   6.884
 3917SOL    HW212651   3.068   0.130   6.995
 3918SOL     OW12652   6.092   3.586   6.915
 3918SOL    HW112653   6.102   3.550   6.823
 3918SOL    HW212654   6.053   3.678   6.911
 3919SOL     OW12655   3.462   6.516   0.433
 3919SOL    HW112656   3.439   6.575   0.356
 3919SOL    HW212657   3.535   6.558   0.487
 3920SOL     OW12658   2.382   0.898   0.086
 3920SOL    HW112659   2.290   0.860   0.081
 3920SOL    HW212660   2.422   0.901   7.019
 3921SOL     OW12661   0.885   3.454   0.968
 3921SOL    HW112662   0.872   3.537   0.914
 3921SOL    HW212663   0.881   3.374   0.908
 3922SOL     OW12664   0.541   5.235   1.154
 3922SOL    HW112665   0.579   5.264   1.066
 3922SOL    HW212666   0.450   5.196   1.139
 3923SOL     OW12667   0.274   5.807   0.334
 3923SOL    HW112668   0.264   5.856   0.248
 3923SOL    HW212669   0.189   5.759   0.355
 3924SOL     OW12670   6.268   5.217   4.181
 3924SOL    HW112671   6.320   5.138   4.213
 3924SOL    HW212672   6.176   5.188   4.155
 3925SOL     OW12673   0.589   4.995   0.929
 3925SOL    HW112674   0.667   4.973   0.987
 3925SOL    HW212675   0.512   4.935   0.953
 3926SOL     OW12676   2.817   5.648   3.025
 3926SOL    HW112677   2.775   5.622   3.112
 3926SOL    HW212678   2.916   5.639   3.032
 3927SOL     OW12679   2.430   3.447   6.462
 3927SOL    HW112680   2.376   3.413   6.539
 3927SOL    HW212681   2.371   3.460   6.383
 3928SOL     OW12682   0.089   6.302   6.228
 3928SOL    HW112683   0.137   6.390   6.227
 3928SOL    HW212684   0.021   6.300   6.155
 3929SOL     OW12685   1.339   1.832   4.900
 3929SOL    HW112686   1.337   1.733   4.909
 3929SOL    HW212687   1.286   1.859   4.819
 3930SOL     OW12688   3.245   1.697   4.337
 3930SOL    HW112689   3.302   1.761   4.287
 3930SOL    HW212690   3.260   1.707   4.435
 3931SOL     OW12691   3.971   6.770   2.190
 3931SOL    HW112692   4.050   6.711   2.175
 3931SOL    HW212693   3.944   6.766   2.286
 3932SOL     OW12694   1.817   3.366   3.652
 3932SOL    HW112695   1.841   3.324   3.564
 3932SOL    HW212696   1.824   3.297   3.724
 3933SOL     OW12697   2.190   1.188   6.141
 3933SOL    HW112698   2.165   1.189   6.044
 3933SOL    HW212699   2.168   1.098   6.180
 3934SOL     OW12700   5.457   6.028   6.836
 3934SOL    HW112701   5.514   5.971   6.777
 3934SOL    HW212702   5.498   6.119   6.846
 3935SOL     OW12703   4.809   6.828   2.312
 3935SOL    HW112704   4.795   6.731   2.329
 3935SOL    HW212705   4.720   6.873   2.301
 3936SOL     OW12706   1.026   4.162   2.274
 3936SOL    HW112707   1.084   4.161   2.356
 3936SOL    HW212708   0.983   4.251   2.265
 3937SOL     OW12709   0.353   2.058   2.394
 3937SOL    HW112710   0.277   2.008   2.435
 3937SOL    HW212711   0.436   2.002   2.398
 3938SOL     OW12712   6.034   3.018   2.977
 3938SOL    HW112713   6.007   2.921   2.979
 3938SOL    HW212714   5.952   3.075   2.986
 3939SOL     OW12715   2.083   2.310   1.584
 3939SOL    HW112716   2.091   2.361   1.670
 3939SOL    HW212717   2.097   2.372   1.507
 3940SOL     OW12718   4.369   4.582   0.908
 3940SOL    HW112719   4.289   4.559   0.854
 3940SOL    HW212720   4.430   4.503   0.914
 3941SOL     OW12721   5.451   3.316   0.329
 3941SOL    HW112722   5.363   3.283   0.297
 3941SOL    HW212723   5.440   3.361   0.417
 3942SOL     OW12724   6.374   6.706   1.062
 3942SOL    HW112725   6.448   6.703   0.994
 3942SOL    HW212726   6.300   6.646   1.032
 3943SOL     OW12727   6.769   2.982   4.823
 3943SOL    HW112728   6.691   2.959   4.881
 3943SOL    HW212729   6.854   2.968   4.875
 3944SOL     OW12730   5.633   1.860   5.073
 3944SOL    HW112731   5.591   1.907   4.996
 3944SOL    HW212732   5.720   1.820   5.045
 3945SOL     OW12733   0.209   6.815   0.835
 3945SOL    HW112734   0.181   6.721   0.855
 3945SOL    HW212735   0.128   6.871   0.815
 3946SOL     OW12736   3.542   4.881   3.681
 3946SOL    HW112737   3.522   4.923   3.769
 3946SOL    HW212738   3.639   4.892   3.660
 3947SOL     OW12739   0.019   4.312   5.926
 3947SOL    HW112740   6.974   4.366   5.879
 3947SOL    HW212741   0.078   4.268   5.859
 3948SOL     OW12742   6.285   3.742   1.353
 3948SOL    HW112743   6.321   3.752   1.261
 3948SOL    HW212744   6.359   3.754   1.420
 3949SOL     OW12745   5.644   6.503   2.821
 3949SOL    HW112746   5.652   6.508   2.722
 3949SOL    HW212747   5.584   6.427   2.847
 3950SOL     OW12748   1.490   6.095   0.331
 3950SOL    HW112749   1.426   6.028   0.293
 3950SOL    HW212750   1.547   6.051   0.400
 3951SOL     OW12751   5.720   5.240   1.961
 3951SOL    HW112752   5.684   5.163   2.014
 3951SOL    HW212753   5.647   5.279   1.904
 3952SOL     OW12754   5.989   1.097   6.406
 3952SOL    HW112755   6.072   1.085   6.351
 3952SOL    HW212756   5.915   1.042   6.365
 3953SOL     OW12757   2.849   3.544   2.379
 3953SOL    HW112758   2.819   3.450   2.391
 3953SOL    HW212759   2.877   3.558   2.284
 3954SOL     OW12760   4.303   4.133   6.083
 3954SOL    HW112761   4.311   4.166   6.177
 3954SOL    HW212762   4.354   4.047   6.073
 3955SOL     OW12763   3.551   1.051   4.835
 3955SOL    HW112764   3.490   1.130   4.829
 3955SOL    HW212765   3.515   0.977   4.778
 3956SOL     OW12766   2.157   1.755   0.889
 3956SOL    HW112767   2.212   1.709   0.819
 3956SOL    HW212768   2.202   1.840   0.916
 3957SOL     OW12769   4.365   1.822   3.646
 3957SOL    HW112770   4.276   1.807   3.690
 3957SOL    HW212771   4.358   1.898   3.582
 3958SOL     OW12772   5.245   6.551   6.100
 3958SOL    HW112773   5.271   6.461   6.135
 3958SOL    HW212774   5.154   6.575   6.133
 3959SOL     OW12775   6.065   5.595   6.319
 3959SOL    HW112776   6.134   5.523   6.308
 3959SOL    HW212777   6.110   5.682   6.340
 3960SOL     OW12778   5.921   2.570   4.680
 3960SOL    HW112779   5.909   2.495   4.615
 3960SOL    HW212780   5.904   2.537   4.773
 3961SOL     OW12781   5.089   6.855   4.534
 3961SOL    HW112782   5.063   6.898   4.620
 3961SOL    HW212783   5.165   6.906   4.494
 3962SOL     OW12784   6.640   5.244   4.936
 3962SOL    HW112785   6.591   5.157   4.936
 3962SOL    HW212786   6.677   5.261   5.027
 3963SOL     OW12787   3.495   6.571   1.919
 3963SOL    HW112788   3.592   6.594   1.920
 3963SOL    HW212789   3.474   6.519   1.836
 3964SOL     OW12790   5.609   2.589   3.766
 3964SOL    HW112791   5.634   2.526   3.693
 3964SOL    HW212792   5.687   2.646   3.790
 3965SOL     OW12793   5.045   4.129   4.182
 3965SOL    HW112794   5.092   4.178   4.108
 3965SOL    HW212795   5.050   4.184   4.266
 3966SOL     OW12796   2.862   6.730   6.551
 3966SOL    HW112797   2.769   6.763   6.538
 3966SOL    HW212798   2.927   6.803   6.528
 3967SOL     OW12799   1.483   4.074   3.892
 3967SOL    HW112800   1.482   4.097   3.989
 3967SOL    HW212801   1.578   4.067   3.860
 3968SOL     OW12802   4.298   6.758   0.807
 3968SOL    HW112803   4.329   6.679   0.861
 3968SOL    HW212804   4.368   6.783   0.740
 3969SOL     OW12805   0.196   4.351   3.496
 3969SOL    HW112806   0.254   4.414   3.549
 3969SOL    HW212807   0.213   4.257   3.526
 3970SOL     OW12808   4.631   6.240   1.396
 3970SOL    HW112809   4.553   6.302   1.404
 3970SOL    HW212810   4.635   6.180   1.476
 3971SOL     OW12811   0.933   5.947   3.668
 3971SOL    HW112812   0.881   5.902   3.596
 3971SOL    HW212813   0.870   5.993   3.731
 3972SOL     OW12814   1.689   3.691   0.356
 3972SOL    HW112815   1.674   3.777   0.308
 3972SOL    HW212816   1.622   3.623   0.326
 3973SOL     OW12817   1.832   4.622   0.797
 3973SOL    HW112818   1.883   4.538   0.816
 3973SOL    HW212819   1.888   4.701   0.819
 3974SOL     OW12820   3.042   0.565   6.355
 3974SOL    HW112821   3.008   0.609   6.272
 3974SOL    HW212822   2.968   0.513   6.398
 3975SOL     OW12823   6.669   3.051   0.071
 3975SOL    HW112824   6.635   2.997   0.148
 3975SOL    HW212825   6.725   3.127   0.106
 3976SOL     OW12826   1.481   4.290   2.715
 3976SOL    HW112827   1.421   4.295   2.795
 3976SOL    HW212828   1.507   4.382   2.688
 3977SOL     OW12829   0.610   2.480   0.105
 3977SOL    HW112830   0.541   2.425   0.058
 3977SOL    HW212831   0.699   2.437   0.095
 3978SOL     OW12832   5.551   4.045   3.963
 3978SOL    HW112833   5.592   4.130   3.928
 3978SOL    HW212834   5.564   3.971   3.897
 3979SOL     OW12835   3.839   5.947   6.227
 3979SOL    HW112836   3.806   6.041   6.223
 3979SOL    HW212837   3.823   5.910   6.319
 3980SOL     OW12838   5.323   4.794   6.060
 3980SOL    HW112839   5.246   4.849   6.026
 3980SOL    HW212840   5.368   4.750   5.982
 3981SOL     OW12841   4.599   5.409   6.671
 3981SOL    HW112842   4.673   5.449   6.618
 3981SOL    HW212843   4.631   5.390   6.764
 3982SOL     OW12844   2.211   6.252   2.896
 3982SOL    HW112845   2.237   6.321   2.963
 3982SOL    HW212846   2.143   6.191   2.936
 3983SOL     OW12847   3.601   6.017   4.476
 3983SOL    HW112848   3.529   6.080   4.502
 3983SOL    HW212849   3.669   6.011   4.550
 3984SOL     OW12850   6.301   2.992   3.064
 3984SOL    HW112851   6.370   3.052   3.022
 3984SOL    HW212852   6.217   2.996   3.010
 3985SOL     OW12853   3.987   5.121   6.158
 3985SOL    HW112854   3.947   5.030   6.163
 3985SOL    HW212855   3.986   5.164   6.248
 3986SOL     OW12856   5.355   0.468   2.985
 3986SOL    HW112857   5.343   0.545   2.922
 3986SOL    HW212858   5.304   0.389   2.950
 3987SOL     OW12859   3.417   5.349   5.617
 3987SOL    HW112860   3.467   5.292   5.683
 3987SOL    HW212861   3.369   5.290   5.552
 3988SOL     OW12862   4.766   5.892   0.758
 3988SOL    HW112863   4.765   5.905   0.659
 3988SOL    HW212864   4.861   5.885   0.790
 3989SOL     OW12865   6.432   2.699   1.390
 3989SOL    HW112866   6.528   2.674   1.374
 3989SOL    HW212867   6.428   2.766   1.464
 3990SOL     OW12868   6.586   1.504   1.786
 3990SOL    HW112869   6.586   1.604   1.789
 3990SOL    HW212870   6.515   1.473   1.722
 3991SOL     OW12871   5.402   1.246   3.539
 3991SOL    HW112872   5.441   1.179   3.602
 3991SOL    HW212873   5.451   1.243   3.452
 3992SOL     OW12874   4.774   1.662   1.573
 3992SOL    HW112875   4.720   1.644   1.656
 3992SOL    HW212876   4.761   1.758   1.546
 3993SOL     OW12877   1.236   3.401   1.478
 3993SOL    HW112878   1.217   3.495   1.507
 3993SOL    HW212879   1.178   3.378   1.400
 3994SOL     OW12880   2.476   5.639   4.479
 3994SOL    HW112881   2.486   5.678   4.387
 3994SOL    HW212882   2.452   5.542   4.470
 3995SOL     OW12883   1.484   2.395   3.970
 3995SOL    HW112884   1.462   2.381   3.873
 3995SOL    HW212885   1.571   2.445   3.977
 3996SOL     OW12886   0.053   5.753   4.521
 3996SOL    HW112887   0.036   5.655   4.521
 3996SOL    HW212888   0.064   5.784   4.426
 3997SOL     OW12889   2.900   0.601   2.880
 3997SOL    HW112890   2.943   0.535   2.819
 3997SOL    HW212891   2.864   0.678   2.827
 3998SOL     OW12892   4.344   2.147   2.865
 3998SOL    HW112893   4.386   2.112   2.781
 3998SOL    HW212894   4.373   2.242   2.879
 3999SOL     OW12895   4.261   1.464   4.309
 3999SOL    HW112896   4.266   1.538   4.375
 3999SOL    HW212897   4.232   1.500   4.220
 4000SOL     OW12898   4.731   5.490   4.768
 4000SOL    HW112899   4.754   5.566   4.706
 4000SOL    HW212900   4.815   5.454   4.808
 4001SOL     OW12901   0.676   1.989   5.061
 4001SOL    HW112902   0.700   1.893   5.073
 4001SOL    HW212903   0.697   2.039   5.146
 4002SOL     OW12904   2.102   4.940   1.869
 4002SOL    HW112905   2.095   4.868   1.939
 4002SOL    HW212906   2.077   5.028   1.910
 4003SOL     OW12907   3.810   2.136   4.716
 4003SOL    HW112908   3.899   2.169   4.686
 4003SOL    HW212909   3.786   2.179   4.803
 4004SOL     OW12910   6.665   1.751   6.417
 4004SOL    HW112911   6.619   1.684   6.359
 4004SOL    HW212912   6.726   1.704   6.481
 4005SOL     OW12913   6.577   4.833   4.660
 4005SOL    HW112914   6.588   4.746   4.708
 4005SOL    HW212915   6.638   4.901   4.699
 4006SOL     OW12916   3.624   6.248   3.471
 4006SOL    HW112917   3.613   6.302   3.554
 4006SOL    HW212918   3.535   6.226   3.433
 4007SOL     OW12919   0.382   1.629   5.570
 4007SOL    HW112920   0.441   1.613   5.491
 4007SOL    HW212921   0.436   1.621   5.654
 4008SOL     OW12922   2.790   1.437   5.349
 4008SOL    HW112923   2.710   1.442   5.290
 4008SOL    HW212924   2.873   1.451   5.294
 4009SOL     OW12925   3.403   3.891   2.855
 4009SOL    HW112926   3.368   3.810   2.902
 4009SOL    HW212927   3.334   3.964   2.859
 4010SOL     OW12928   1.419   3.104   0.284
 4010SOL    HW112929   1.485   3.099   0.359
 4010SOL    HW212930   1.355   3.028   0.291
 4011SOL     OW12931   0.553   1.587   0.653
 4011SOL    HW112932   0.535   1.498   0.610
 4011SOL    HW212933   0.480   1.651   0.628
 4012SOL     OW12934   5.428   3.290   3.376
 4012SOL    HW112935   5.479   3.217   3.422
 4012SOL    HW212936   5.338   3.255   3.348
 4013SOL     OW12937   5.191   2.604   2.704
 4013SOL    HW112938   5.248   2.686   2.711
 4013SOL    HW212939   5.243   2.525   2.736
 4014SOL     OW12940   5.136   4.581   2.677
 4014SOL    HW112941   5.190   4.560   2.758
 4014SOL    HW212942   5.168   4.525   2.600
 4015SOL     OW12943   5.332   3.448   0.536
 4015SOL    HW112944   5.234   3.430   0.534
 4015SOL    HW212945   5.355   3.519   0.470
 4016SOL     OW12946   2.993   6.657   4.635
 4016SOL    HW112947   2.941   6.602   4.701
 4016SOL    HW212948   3.051   6.597   4.580
 4017SOL     OW12949   5.601   6.921   6.147
 4017SOL    HW112950   5.538   6.844   6.142
 4017SOL    HW212951   5.692   6.892   6.120
 4018SOL     OW12952   2.381   0.364   6.755
 4018SOL    HW112953   2.326   0.423   6.815
 4018SOL    HW212954   2.403   0.279   6.803
 4019SOL     OW12955   5.061   6.742   4.277
 4019SOL    HW112956   5.053   6.830   4.232
 4019SOL    HW212957   5.075   6.756   4.375
 4020SOL     OW12958   5.497   1.671   4.226
 4020SOL    HW112959   5.525   1.612   4.302
 4020SOL    HW212960   5.499   1.618   4.141
 4021SOL     OW12961   5.344   3.598   0.101
 4021SOL    HW112962   5.316   3.583   0.006
 4021SOL    HW212963   5.437   3.564   0.114
 4022SOL     OW12964   5.850   0.718   1.321
 4022SOL    HW112965   5.846   0.795   1.258
 4022SOL    HW212966   5.782   0.649   1.294
 4023SOL     OW12967   6.463   6.113   5.171
 4023SOL    HW112968   6.476   6.202   5.216
 4023SOL    HW212969   6.401   6.057   5.225
 4024SOL     OW12970   4.346   4.321   5.604
 4024SOL    HW112971   4.322   4.417   5.616
 4024SOL    HW212972   4.361   4.279   5.693
 4025SOL     OW12973   6.950   3.631   4.089
 4025SOL    HW112974   6.868   3.575   4.080
 4025SOL    HW212975   6.988   3.621   4.181
 4026SOL     OW12976   6.127   1.079   5.101
 4026SOL    HW112977   6.146   1.092   5.004
 4026SOL    HW212978   6.070   0.997   5.112
 4027SOL     OW12979   2.609   5.182   3.041
 4027SOL    HW112980   2.558   5.109   3.088
 4027SOL    HW212981   2.693   5.200   3.092
 4028SOL     OW12982   1.318   5.436   3.071
 4028SOL    HW112983   1.269   5.352   3.047
 4028SOL    HW212984   1.416   5.423   3.056
 4029SOL     OW12985   1.537   3.943   3.556
 4029SOL    HW112986   1.635   3.922   3.554
 4029SOL    HW212987   1.493   3.886   3.625
 4030SOL     OW12988   2.534   1.131   6.526
 4030SOL    HW112989   2.449   1.092   6.561
 4030SOL    HW212990   2.546   1.224   6.562
 4031SOL     OW12991   6.669   5.889   4.337
 4031SOL    HW112992   6.698   5.887   4.241
 4031SOL    HW212993   6.636   5.980   4.360
 4032SOL     OW12994   3.405   6.696   5.061
 4032SOL    HW112995   3.469   6.757   5.109
 4032SOL    HW212996   3.391   6.729   4.968
 4033SOL     OW12997   3.634   3.866   6.348
 4033SOL    HW112998   3.693   3.796   6.307
 4033SOL    HW212999   3.680   3.906   6.427
 4034SOL     OW13000   5.855   3.628   5.006
 4034SOL    HW113001   5.871   3.541   5.053
 4034SOL    HW213002   5.758   3.636   4.983
 4035SOL     OW13003   0.234   6.488   2.106
 4035SOL    HW113004   0.267   6.533   2.023
 4035SOL    HW213005   0.300   6.420   2.136
 4036SOL     OW13006   6.110   5.899   1.386
 4036SOL    HW113007   6.105   5.869   1.291
 4036SOL    HW213008   6.103   5.821   1.447
 4037SOL     OW13009   0.655   3.762   6.319
 4037SOL    HW113010   0.744   3.772   6.364
 4037SOL    HW213011   0.662   3.792   6.224
 4038SOL     OW13012   6.242   5.529   3.445
 4038SOL    HW113013   6.281   5.447   3.403
 4038SOL    HW213014   6.144   5.532   3.429
 4039SOL     OW13015   2.770   4.878   1.156
 4039SOL    HW113016   2.707   4.956   1.157
 4039SOL    HW213017   2.824   4.877   1.240
 4040SOL     OW13018   3.221   6.837   6.982
 4040SOL    HW113019   3.203   6.929   6.949
 4040SOL    HW213020   3.135   6.788   6.994
 4041SOL     OW13021   0.333   6.103   3.470
 4041SOL    HW113022   0.365   6.146   3.555
 4041SOL    HW213023   0.325   6.172   3.398
 4042SOL     OW13024   5.466   5.270   1.822
 4042SOL    HW113025   5.410   5.270   1.904
 4042SOL    HW213026   5.426   5.330   1.753
 4043SOL     OW13027   0.321   3.485   0.993
 4043SOL    HW113028   0.353   3.572   1.031
 4043SOL    HW213029   0.323   3.415   1.064
 4044SOL     OW13030   5.478   4.708   2.420
 4044SOL    HW113031   5.496   4.784   2.357
 4044SOL    HW213032   5.518   4.729   2.509
 4045SOL     OW13033   2.766   5.291   5.331
 4045SOL    HW113034   2.832   5.252   5.267
 4045SOL    HW213035   2.815   5.323   5.413
 4046SOL     OW13036   0.569   3.447   0.484
 4046SOL    HW113037   0.585   3.444   0.583
 4046SOL    HW213038   0.512   3.526   0.462
 4047SOL     OW13039   2.925   3.303   2.981
 4047SOL    HW113040   2.932   3.373   3.052
 4047SOL    HW213041   2.937   3.345   2.892
 4048SOL     OW13042   5.009   2.226   0.295
 4048SOL    HW113043   5.048   2.263   0.211
 4048SOL    HW213044   4.972   2.135   0.276
 4049SOL     OW13045   6.994   6.453   6.494
 4049SOL    HW113046   0.035   6.454   6.570
 4049SOL    HW213047   7.014   6.374   6.436
 4050SOL     OW13048   2.262   1.134   2.720
 4050SOL    HW113049   2.254   1.227   2.758
 4050SOL    HW213050   2.330   1.083   2.772
 4051SOL     OW13051   2.833   3.513   0.805
 4051SOL    HW113052   2.813   3.581   0.735
 4051SOL    HW213053   2.851   3.425   0.762
 4052SOL     OW13054   1.459   0.335   0.834
 4052SOL    HW113055   1.395   0.273   0.879
 4052SOL    HW213056   1.548   0.328   0.878
 4053SOL     OW13057   2.418   5.301   2.487
 4053SOL    HW113058   2.485   5.366   2.450
 4053SOL    HW213059   2.457   5.254   2.566
 4054SOL     OW13060   5.118   1.550   6.508
 4054SOL    HW113061   5.213   1.539   6.538
 4054SOL    HW213062   5.068   1.604   6.576
 4055SOL     OW13063   4.553   3.781   6.313
 4055SOL    HW113064   4.523   3.806   6.221
 4055SOL    HW213065   4.614   3.702   6.308
 4056SOL     OW13066   4.325   2.962   6.733
 4056SOL    HW113067   4.311   3.043   6.790
 4056SOL    HW213068   4.253   2.958   6.663
 4057SOL     OW13069   6.466   2.524   0.602
 4057SOL    HW113070   6.491   2.509   0.698
 4057SOL    HW213071   6.527   2.472   0.543
 4058SOL     OW13072   0.686   3.673   3.879
 4058SOL    HW113073   0.778   3.636   3.872
 4058SOL    HW213074   0.687   3.771   3.859
 4059SOL     OW13075   0.359   2.003   4.654
 4059SOL    HW113076   0.390   2.035   4.744
 4059SOL    HW213077   0.336   1.906   4.660
 4060SOL     OW13078   2.292   6.772   5.827
 4060SOL    HW113079   2.299   6.686   5.878
 4060SOL    HW213080   2.235   6.758   5.746
 4061SOL     OW13081   2.059   2.822   1.509
 4061SOL    HW113082   2.017   2.791   1.424
 4061SOL    HW213083   2.158   2.824   1.499
 4062SOL     OW13084   2.900   0.587   3.401
 4062SOL    HW113085   2.917   0.630   3.312
 4062SOL    HW213086   2.948   0.499   3.405
 4063SOL     OW13087   3.584   6.520   6.200
 4063SOL    HW113088   3.580   6.483   6.293
 4063SOL    HW213089   3.671   6.495   6.158
 4064SOL     OW13090   6.124   6.677   4.661
 4064SOL    HW113091   6.120   6.711   4.755
 4064SOL    HW213092   6.050   6.719   4.608
 4065SOL     OW13093   1.162   4.353   5.748
 4065SOL    HW113094   1.198   4.391   5.833
 4065SOL    HW213095   1.062   4.363   5.747
 4066SOL     OW13096   4.775   4.586   2.168
 4066SOL    HW113097   4.828   4.633   2.237
 4066SOL    HW213098   4.731   4.505   2.208
 4067SOL     OW13099   5.278   0.495   1.459
 4067SOL    HW113100   5.260   0.501   1.361
 4067SOL    HW213101   5.354   0.556   1.483
 4068SOL     OW13102   5.381   0.940   4.734
 4068SOL    HW113103   5.302   0.987   4.773
 4068SOL    HW213104   5.351   0.879   4.660
 4069SOL     OW13105   6.712   6.103   0.511
 4069SOL    HW113106   6.639   6.100   0.442
 4069SOL    HW213107   6.750   6.011   0.523
 4070SOL     OW13108   6.767   3.725   2.408
 4070SOL    HW113109   6.853   3.767   2.437
 4070SOL    HW213110   6.771   3.626   2.426
 4071SOL     OW13111   2.782   6.963   4.668
 4071SOL    HW113112   2.869   6.915   4.668
 4071SOL    HW213113   2.784   0.010   4.598
 4072SOL     OW13114   0.260   0.190   4.353
 4072SOL    HW113115   0.161   0.181   4.346
 4072SOL    HW213116   0.286   0.197   4.450
 4073SOL     OW13117   2.507   4.548   1.904
 4073SOL    HW113118   2.468   4.624   1.850
 4073SOL    HW213119   2.600   4.572   1.931
 4074SOL     OW13120   0.267   2.894   1.753
 4074SOL    HW113121   0.293   2.961   1.822
 4074SOL    HW213122   0.167   2.890   1.746
 4075SOL     OW13123   6.625   0.545   3.448
 4075SOL    HW113124   6.636   0.522   3.351
 4075SOL    HW213125   6.587   0.637   3.456
 4076SOL     OW13126   1.712   3.680   3.397
 4076SOL    HW113127   1.789   3.740   3.417
 4076SOL    HW213128   1.741   3.609   3.333
 4077SOL     OW13129   3.951   0.687   2.011
 4077SOL    HW113130   3.904   0.681   2.099
 4077SOL    HW213131   3.929   0.774   1.968
 4078SOL     OW13132   4.869   4.472   2.648
 4078SOL    HW113133   4.946   4.527   2.682
 4078SOL    HW213134   4.901   4.410   2.577
 4079SOL     OW13135   4.506   1.072   3.114
 4079SOL    HW113136   4.491   1.051   3.211
 4079SOL    HW213137   4.468   0.998   3.058
 4080SOL     OW13138   3.739   4.111   4.522
 4080SOL    HW113139   3.702   4.123   4.614
 4080SOL    HW213140   3.825   4.060   4.526
 4081SOL     OW13141   2.447   0.077   0.300
 4081SOL    HW113142   2.499   0.093   0.384
 4081SOL    HW213143   2.475   0.145   0.231
 4082SOL     OW13144   1.942   1.385   5.819
 4082SOL    HW113145   1.955   1.444   5.739
 4082SOL    HW213146   1.916   1.441   5.897
 4083SOL     OW13147   5.641   4.423   2.559
 4083SOL    HW113148   5.654   4.371   2.643
 4083SOL    HW213149   5.559   4.391   2.512
 4084SOL     OW13150   3.983   5.947   2.926
 4084SOL    HW113151   4.060   6.002   2.893
 4084SOL    HW213152   4.017   5.880   2.992
 4085SOL     OW13153   1.610   4.329   2.422
 4085SOL    HW113154   1.656   4.255   2.373
 4085SOL    HW213155   1.678   4.387   2.466
 4086SOL     OW13156   5.824   5.228   5.054
 4086SOL    HW113157   5.734   5.187   5.041
 4086SOL    HW213158   5.814   5.314   5.105
 4087SOL     OW13159   1.463   1.455   1.419
 4087SOL    HW113160   1.381   1.506   1.393
 4087SOL    HW213161   1.487   1.391   1.347
 4088SOL     OW13162   0.058   2.474   5.074
 4088SOL    HW113163   0.058   2.389   5.022
 4088SOL    HW213164   0.130   2.471   5.143
 4089SOL     OW13165   6.725   6.642   2.585
 4089SOL    HW113166   6.770   6.553   2.590
 4089SOL    HW213167   6.692   6.657   2.492
 4090SOL     OW13168   3.520   2.597   5.380
 4090SOL    HW113169   3.523   2.498   5.372
 4090SOL    HW213170   3.429   2.630   5.354
 4091SOL     OW13171   4.223   6.944   3.387
 4091SOL    HW113172   4.178   6.944   3.477
 4091SOL    HW213173   4.258   0.010   3.367
 4092SOL     OW13174   4.461   1.843   6.566
 4092SOL    HW113175   4.376   1.823   6.518
 4092SOL    HW213176   4.483   1.769   6.629
 4093SOL     OW13177   5.726   4.324   1.584
 4093SOL    HW113178   5.731   4.272   1.499
 4093SOL    HW213179   5.803   4.388   1.588
 4094SOL     OW13180   6.240   6.068   7.017
 4094SOL    HW113181   6.295   6.097   6.939
 4094SOL    HW213182   6.246   6.138   0.064
 4095SOL     OW13183   1.521   5.247   0.183
 4095SOL    HW113184   1.583   5.186   0.233
 4095SOL    HW213185   1.476   5.309   0.247
 4096SOL     OW13186   0.939   6.756   6.117
 4096SOL    HW113187   0.970   6.823   6.185
 4096SOL    HW213188   0.964   6.664   6.146
 4097SOL     OW13189   1.678   3.939   6.056
 4097SOL    HW113190   1.687   3.893   5.968
 4097SOL    HW213191   1.612   3.889   6.112
 4098SOL     OW13192   1.147   5.915   1.788
 4098SOL    HW113193   1.219   5.983   1.797
 4098SOL    HW213194   1.163   5.860   1.706
 4099SOL     OW13195   6.990   2.575   5.795
 4099SOL    HW113196   0.021   2.545   5.872
 4099SOL    HW213197   6.894   2.557   5.814
 4100SOL     OW13198   2.189   0.961   3.666
 4100SOL    HW113199   2.187   0.883   3.604
 4100SOL    HW213200   2.153   0.934   3.755
 4101SOL     OW13201   5.713   6.032   5.868
 4101SOL    HW113202   5.722   6.070   5.960
 4101SOL    HW213203   5.738   6.102   5.801
 4102SOL     OW13204   2.895   5.347   0.536
 4102SOL    HW113205   2.953   5.319   0.460
 4102SOL    HW213206   2.821   5.281   0.549
 4103SOL     OW13207   2.128   5.458   2.242
 4103SOL    HW113208   2.085   5.522   2.305
 4103SOL    HW213209   2.175   5.386   2.294
 4104SOL     OW13210   2.649   5.547   5.502
 4104SOL    HW113211   2.578   5.500   5.449
 4104SOL    HW213212   2.734   5.495   5.496
 4105SOL     OW13213   3.946   0.257   1.841
 4105SOL    HW113214   3.986   0.182   1.894
 4105SOL    HW213215   4.004   0.338   1.849
 4106SOL     OW13216   1.696   6.667   2.971
 4106SOL    HW113217   1.635   6.739   2.939
 4106SOL    HW213218   1.734   6.693   3.060
 4107SOL     OW13219   2.431   2.223   0.613
 4107SOL    HW113220   2.530   2.217   0.600
 4107SOL    HW213221   2.408   2.195   0.705
 4108SOL     OW13222   0.676   5.379   5.327
 4108SOL    HW113223   0.753   5.443   5.318
 4108SOL    HW213224   0.609   5.417   5.390
 4109SOL     OW13225   5.254   0.465   5.234
 4109SOL    HW113226   5.241   0.523   5.154
 4109SOL    HW213227   5.328   0.502   5.290
 4110SOL     OW13228   4.984   2.391   0.554
 4110SOL    HW113229   5.057   2.457   0.532
 4110SOL    HW213230   4.991   2.312   0.493
 4111SOL     OW13231   6.441   4.249   4.071
 4111SOL    HW113232   6.377   4.325   4.082
 4111SOL    HW213233   6.431   4.186   4.149
 4112SOL     OW13234   3.857   5.329   5.431
 4112SOL    HW113235   3.817   5.291   5.348
 4112SOL    HW213236   3.785   5.367   5.489
 4113SOL     OW13237   5.189   5.949   5.873
 4113SOL    HW113238   5.097   5.946   5.832
 4113SOL    HW213239   5.185   5.911   5.965
 4114SOL     OW13240   6.190   1.464   3.833
 4114SOL    HW113241   6.218   1.559   3.823
 4114SOL    HW213242   6.103   1.450   3.785
 4115SOL     OW13243   4.702   0.065   4.748
 4115SOL    HW113244   4.799   0.087   4.743
 4115SOL    HW213245   4.681   7.016   4.684
 4116SOL     OW13246   5.835   3.527   3.364
 4116SOL    HW113247   5.916   3.577   3.336
 4116SOL    HW213248   5.778   3.509   3.284
 4117SOL     OW13249   0.807   2.940   2.783
 4117SOL    HW113250   0.768   2.950   2.874
 4117SOL    HW213251   0.794   2.846   2.752
 4118SOL     OW13252   0.967   0.922   1.843
 4118SOL    HW113253   1.029   0.937   1.766
 4118SOL    HW213254   0.986   0.990   1.914
 4119SOL     OW13255   6.381   1.057   4.231
 4119SOL    HW113256   6.393   1.063   4.132
 4119SOL    HW213257   6.446   1.118   4.276
 4120SOL     OW13258   1.894   0.132   0.451
 4120SOL    HW113259   1.970   0.118   0.388
 4120SOL    HW213260   1.843   0.214   0.424
 4121SOL     OW13261   6.515   0.053   1.507
 4121SOL    HW113262   6.435   7.017   1.517
 4121SOL    HW213263   6.486   0.139   1.465
 4122SOL     OW13264   0.897   4.347   3.204
 4122SOL    HW113265   0.913   4.436   3.246
 4122SOL    HW213266   0.799   4.332   3.194
 4123SOL     OW13267   5.672   4.551   1.947
 4123SOL    HW113268   5.598   4.591   2.000
 4123SOL    HW213269   5.636   4.515   1.861
 4124SOL     OW13270   5.409   6.147   0.405
 4124SOL    HW113271   5.429   6.231   0.356
 4124SOL    HW213272   5.435   6.068   0.349
 4125SOL     OW13273   0.930   2.870   0.217
 4125SOL    HW113274   0.849   2.928   0.212
 4125SOL    HW213275   0.912   2.791   0.275
 4126SOL     OW13276   1.888   4.077   2.941
 4126SOL    HW113277   1.925   4.017   3.012
 4126SOL    HW213278   1.794   4.048   2.920
 4127SOL     OW13279   4.528   2.486   4.083
 4127SOL    HW113280   4.558   2.393   4.101
 4127SOL    HW213281   4.529   2.539   4.168
 4128SOL     OW13282   6.345   2.837   6.535
 4128SOL    HW113283   6.301   2.787   6.609
 4128SOL    HW213284   6.282   2.905   6.498
 4129SOL     OW13285   3.406   6.966   2.231
 4129SOL    HW113286   3.431   0.038   2.221
 4129SOL    HW213287   3.325   6.947   2.177
 4130SOL     OW13288   5.075   0.939   0.149
 4130SOL    HW113289   5.081   0.879   0.070
 4130SOL    HW213290   5.038   1.028   0.121
 4131SOL     OW13291   5.501   5.836   4.274
 4131SOL    HW113292   5.599   5.842   4.256
 4131SOL    HW213293   5.452   5.901   4.216
 4132SOL     OW13294   6.831   3.308   2.216
 4132SOL    HW113295   6.922   3.289   2.252
 4132SOL    HW213296   6.784   3.373   2.275
 4133SOL     OW13297   5.447   6.187   3.921
 4133SOL    HW113298   5.405   6.164   3.833
 4133SOL    HW213299   5.408   6.273   3.954
 4134SOL     OW13300   2.104   2.837   0.859
 4134SOL    HW113301   2.140   2.914   0.807
 4134SOL    HW213302   2.061   2.771   0.796
 4135SOL     OW13303   6.061   0.535   0.858
 4135SOL    HW113304   6.022   0.581   0.937
 4135SOL    HW213305   5.997   0.465   0.826
 4136SOL     OW13306   0.518   5.224   0.159
 4136SOL    HW113307   0.565   5.197   0.244
 4136SOL    HW213308   0.554   5.171   0.083
 4137SOL     OW13309   0.429   2.290   5.138
 4137SOL    HW113310   0.350   2.320   5.192
 4137SOL    HW213311   0.486   2.231   5.195
 4138SOL     OW13312   5.749   6.502   6.394
 4138SOL    HW113313   5.734   6.582   6.452
 4138SOL    HW213314   5.846   6.478   6.393
 4139SOL     OW13315   1.377   4.214   1.967
 4139SOL    HW113316   1.318   4.133   1.977
 4139SOL    HW213317   1.390   4.257   2.057
 4140SOL     OW13318   2.726   6.751   0.738
 4140SOL    HW113319   2.743   6.698   0.655
 4140SOL    HW213320   2.798   6.733   0.805
 4141SOL     OW13321   5.033   0.213   6.075
 4141SOL    HW113322   5.106   0.193   6.141
 4141SOL    HW213323   5.074   0.243   5.989
 4142SOL     OW13324   0.076   6.864   1.767
 4142SOL    HW113325   0.142   6.844   1.694
 4142SOL    HW213326   0.078   6.791   1.835
 4143SOL     OW13327   6.349   3.803   6.611
 4143SOL    HW113328   6.366   3.709   6.581
 4143SOL    HW213329   6.383   3.815   6.704
 4144SOL     OW13330   5.018   0.525   1.543
 4144SOL    HW113331   5.090   0.472   1.500
 4144SOL    HW213332   5.041   0.543   1.638
 4145SOL     OW13333   4.469   1.127   1.215
 4145SOL    HW113334   4.377   1.113   1.251
 4145SOL    HW213335   4.482   1.223   1.191
 4146SOL     OW13336   3.019   1.104   2.100
 4146SOL    HW113337   3.112   1.132   2.077
 4146SOL    HW213338   2.975   1.066   2.019
 4147SOL     OW13339   5.187   4.248   6.937
 4147SOL    HW113340   5.127   4.169   6.937
 4147SOL    HW213341   5.281   4.219   6.955
 4148SOL     OW13342   3.324   0.721   6.194
 4148SOL    HW113343   3.401   0.733   6.132
 4148SOL    HW213344   3.345   0.646   6.258
 4149SOL     OW13345   1.966   2.288   6.425
 4149SOL    HW113346   1.933   2.379   6.399
 4149SOL    HW213347   1.899   2.245   6.486
 4150SOL     OW13348   0.239   1.504   1.408
 4150SOL    HW113349   0.213   1.573   1.340
 4150SOL    HW213350   0.214   1.414   1.375
 4151SOL     OW13351   2.931   5.518   4.479
 4151SOL    HW113352   2.940   5.464   4.563
 4151SOL    HW213353   2.945   5.615   4.500
 4152SOL     OW13354   2.858   4.250   1.260
 4152SOL    HW113355   2.842   4.272   1.356
 4152SOL    HW213356   2.810   4.316   1.203
 4153SOL     OW13357   5.956   6.478   0.415
 4153SOL    HW113358   5.928   6.514   0.504
 4153SOL    HW213359   5.883   6.420   0.379
 4154SOL     OW13360   0.765   6.479   3.410
 4154SOL    HW113361   0.765   6.577   3.434
 4154SOL    HW213362   0.793   6.468   3.315
 4155SOL     OW13363   5.302   1.006   2.609
 4155SOL    HW113364   5.333   0.995   2.515
 4155SOL    HW213365   5.375   0.978   2.671
 4156SOL     OW13366   0.845   5.670   5.898
 4156SOL    HW113367   0.936   5.637   5.872
 4156SOL    HW213368   0.813   5.620   5.979
 4157SOL     OW13369   4.482   6.238   0.527
 4157SOL    HW113370   4.490   6.302   0.451
 4157SOL    HW213371   4.536   6.271   0.604
 4158SOL     OW13372   6.657   0.966   6.708
 4158SOL    HW113373   6.648   0.978   6.609
 4158SOL    HW213374   6.720   1.035   6.744
 4159SOL     OW13375   3.455   0.686   4.276
 4159SOL    HW113376   3.438   0.784   4.284
 4159SOL    HW213377   3.390   0.646   4.210
 4160SOL     OW13378   1.258   0.598   5.985
 4160SOL    HW113379   1.348   0.627   5.954
 4160SOL    HW213380   1.268   0.535   6.062
 4161SOL     OW13381   3.523   3.739   4.996
 4161SOL    HW113382   3.601   3.778   5.045
 4161SOL    HW213383   3.509   3.645   5.026
 4162SOL     OW13384   4.480   6.733   1.109
 4162SOL    HW113385   4.549   6.680   1.158
 4162SOL    HW213386   4.430   6.673   1.047
 4163SOL     OW13387   3.767   6.257   1.421
 4163SOL    HW113388   3.685   6.201   1.430
 4163SOL    HW213389   3.750   6.332   1.357
 4164SOL     OW13390   5.970   1.044   6.947
 4164SOL    HW113391   5.994   1.131   6.989
 4164SOL    HW213392   5.957   1.057   6.848
 4165SOL     OW13393   3.161   1.404   4.625
 4165SOL    HW113394   3.062   1.419   4.624
 4165SOL    HW213395   3.186   1.347   4.703
 4166SOL     OW13396   5.570   1.738   2.364
 4166SOL    HW113397   5.585   1.836   2.381
 4166SOL    HW213398   5.627   1.709   2.287
 4167SOL     OW13399   3.838   6.377   4.763
 4167SOL    HW113400   3.891   6.303   4.721
 4167SOL    HW213401   3.889   6.463   4.757
 4168SOL     OW13402   5.455   3.560   6.719
 4168SOL    HW113403   5.548   3.594   6.702
 4168SOL    HW213404   5.460   3.472   6.766
 4169SOL     OW13405   5.372   4.496   6.760
 4169SOL    HW113406   5.350   4.529   6.669
 4169SOL    HW213407   5.347   4.399   6.768
 4170SOL     OW13408   0.864   2.968   5.082
 4170SOL    HW113409   0.819   3.049   5.043
 4170SOL    HW213410   0.928   2.931   5.014
 4171SOL     OW13411   6.904   0.540   6.104
 4171SOL    HW113412   6.966   0.481   6.156
 4171SOL    HW213413   6.865   0.489   6.028
 4172SOL     OW13414   3.692   2.999   6.968
 4172SOL    HW113415   3.648   3.083   7.001
 4172SOL    HW213416   3.672   2.988   6.871
 4173SOL     OW13417   5.456   1.157   5.988
 4173SOL    HW113418   5.451   1.066   6.029
 4173SOL    HW213419   5.503   1.151   5.900
 4174SOL     OW13420   2.400   6.806   3.531
 4174SOL    HW113421   2.442   6.860   3.604
 4174SOL    HW213422   2.392   6.862   3.449
 4175SOL     OW13423   1.485   3.537   6.275
 4175SOL    HW113424   1.445   3.629   6.270
 4175SOL    HW213425   1.584   3.544   6.286
 4176SOL     OW13426   4.257   6.799   5.130
 4176SOL    HW113427   4.285   6.776   5.037
 4176SOL    HW213428   4.320   6.756   5.195
 4177SOL     OW13429   5.064   6.465   4.275
 4177SOL    HW113430   5.046   6.563   4.275
 4177SOL    HW213431   5.159   6.448   4.300
 4178SOL     OW13432   3.207   6.526   0.938
 4178SOL    HW113433   3.221   6.620   0.966
 4178SOL    HW213434   3.252   6.464   1.002
 4179SOL     OW13435   3.963   1.584   0.099
 4179SOL    HW113436   3.946   1.679   0.123
 4179SOL    HW213437   4.028   1.544   0.163
 4180SOL     OW13438   4.062   4.214   6.790
 4180SOL    HW113439   4.084   4.294   6.847
 4180SOL    HW213440   3.987   4.163   6.831
 4181SOL     OW13441   4.933   6.097   5.753
 4181SOL    HW113442   4.895   6.169   5.695
 4181SOL    HW213443   4.950   6.133   5.844
 4182SOL     OW13444   6.545   5.081   5.398
 4182SOL    HW113445   6.633   5.040   5.421
 4182SOL    HW213446   6.495   5.102   5.482
 4183SOL     OW13447   5.675   2.729   0.073
 4183SOL    HW113448   5.581   2.731   0.109
 4183SOL    HW213449   5.672   2.723   6.998
 4184SOL     OW13450   3.421   5.977   3.174
 4184SOL    HW113451   3.378   5.916   3.108
 4184SOL    HW213452   3.417   5.937   3.266
 4185SOL     OW13453   4.415   4.526   3.364
 4185SOL    HW113454   4.420   4.595   3.291
 4185SOL    HW213455   4.505   4.483   3.374
 4186SOL     OW13456   1.879   4.976   0.903
 4186SOL    HW113457   1.792   4.965   0.854
 4186SOL    HW213458   1.901   4.891   0.950
 4187SOL     OW13459   1.176   3.635   6.262
 4187SOL    HW113460   1.187   3.596   6.170
 4187SOL    HW213461   1.083   3.621   6.293
 4188SOL     OW13462   4.973   0.489   6.086
 4188SOL    HW113463   4.920   0.407   6.109
 4188SOL    HW213464   4.916   0.570   6.098
 4189SOL     OW13465   3.608   5.287   3.420
 4189SOL    HW113466   3.691   5.232   3.428
 4189SOL    HW213467   3.569   5.277   3.329
 4190SOL     OW13468   6.459   5.522   1.361
 4190SOL    HW113469   6.466   5.566   1.450
 4190SOL    HW213470   6.375   5.553   1.315
 4191SOL     OW13471   4.907   2.631   5.892
 4191SOL    HW113472   4.942   2.704   5.951
 4191SOL    HW213473   4.898   2.547   5.945
 4192SOL     OW13474   1.763   3.569   6.351
 4192SOL    HW113475   1.800   3.536   6.437
 4192SOL    HW213476   1.812   3.652   6.322
 4193SOL     OW13477   5.449   6.515   1.511
 4193SOL    HW113478   5.352   6.519   1.485
 4193SOL    HW213479   5.501   6.467   1.440
 4194SOL     OW13480   5.552   0.237   6.932
 4194SOL    HW113481   5.458   0.206   6.944
 4194SOL    HW213482   5.613   0.157   6.924
 4195SOL     OW13483   2.158   6.209   0.766
 4195SOL    HW113484   2.205   6.151   0.833
 4195SOL    HW213485   2.063   6.222   0.793
 4196SOL     OW13486   6.249   3.139   2.807
 4196SOL    HW113487   6.163   3.111   2.849
 4196SOL    HW213488   6.234   3.224   2.756
 4197SOL     OW13489   4.183   0.932   6.997
 4197SOL    HW113490   4.274   0.953   0.009
 4197SOL    HW213491   4.168   0.983   6.912
 4198SOL     OW13492   6.628   2.017   1.958
 4198SOL    HW113493   6.666   1.929   1.985
 4198SOL    HW213494   6.531   2.006   1.934
 4199SOL     OW13495   1.682   3.704   6.998
 4199SOL    HW113496   1.660   3.660   6.910
 4199SOL    HW213497   1.623   3.666   0.045
 4200SOL     OW13498   5.301   1.491   2.689
 4200SOL    HW113499   5.262   1.542   2.766
 4200SOL    HW213500   5.265   1.398   2.690
 4201SOL     OW13501   4.900   0.383   5.379
 4201SOL    HW113502   4.971   0.355   5.314
 4201SOL    HW213503   4.857   0.468   5.347
 4202SOL     OW13504   4.511   4.156   1.369
 4202SOL    HW113505   4.518   4.194   1.462
 4202SOL    HW213506   4.493   4.058   1.374
 4203SOL     OW13507   6.329   3.727   4.613
 4203SOL    HW113508   6.338   3.738   4.514
 4203SOL    HW213509   6.389   3.793   4.659
 4204SOL     OW13510   2.367   4.333   5.935
 4204SOL    HW113511   2.409   4.311   6.023
 4204SOL    HW213512   2.380   4.257   5.872
 4205SOL     OW13513   5.560   5.273   5.862
 4205SOL    HW113514   5.588   5.178   5.856
 4205SOL    HW213515   5.466   5.282   5.828
 4206SOL     OW13516   2.511   2.621   4.931
 4206SOL    HW113517   2.603   2.660   4.944
 4206SOL    HW213518   2.451   2.654   5.004
 4207SOL     OW13519   2.815   2.374   1.080
 4207SOL    HW113520   2.837   2.277   1.076
 4207SOL    HW213521   2.891   2.427   1.041
 4208SOL     OW13522   1.636   2.796   3.009
 4208SOL    HW113523   1.658   2.877   2.954
 4208SOL    HW213524   1.718   2.741   3.021
 4209SOL     OW13525   6.860   4.837   2.778
 4209SOL    HW113526   6.840   4.920   2.830
 4209SOL    HW213527   6.782   4.815   2.719
 4210SOL     OW13528   3.399   5.494   5.007
 4210SOL    HW113529   3.489   5.467   5.039
 4210SOL    HW213530   3.336   5.416   5.015
 4211SOL     OW13531   5.027   3.109   6.113
 4211SOL    HW113532   4.938   3.132   6.152
 4211SOL    HW213533   5.038   3.158   6.026
 4212SOL     OW13534   0.670   2.761   2.994
 4212SOL    HW113535   0.660   2.813   3.079
 4212SOL    HW213536   0.588   2.707   2.978
 4213SOL     OW13537   3.046   0.638   3.924
 4213SOL    HW113538   2.987   0.558   3.916
 4213SOL    HW213539   3.086   0.660   3.835
 4214SOL     OW13540   6.361   6.199   3.996
 4214SOL    HW113541   6.367   6.298   4.009
 4214SOL    HW213542   6.268   6.168   4.013
 4215SOL     OW13543   6.034   6.883   5.228
 4215SOL    HW113544   5.975   6.830   5.288
 4215SOL    HW213545   5.989   6.894   5.139
 4216SOL     OW13546   1.736   5.911   2.551
 4216SOL    HW113547   1.653   5.962   2.526
 4216SOL    HW213548   1.719   5.858   2.633
 4217SOL     OW13549   0.180   0.210   2.883
 4217SOL    HW113550   0.173   0.115   2.853
 4217SOL    HW213551   0.088   0.250   2.888
 4218SOL     OW13552   2.576   0.671   1.625
 4218SOL    HW113553   2.484   0.656   1.590
 4218SOL    HW213554   2.631   0.588   1.612
 4219SOL     OW13555   2.762   5.838   2.305
 4219SOL    HW113556   2.814   5.803   2.227
 4219SOL    HW213557   2.677   5.786   2.315
 4220SOL     OW13558   5.461   1.887   1.197
 4220SOL    HW113559   5.368   1.902   1.164
 4220SOL    HW213560   5.504   1.816   1.142
 4221SOL     OW13561   0.775   0.208   1.187
 4221SOL    HW113562   0.848   0.176   1.248
 4221SOL    HW213563   0.686   0.191   1.229
 4222SOL     OW13564   4.811   3.782   4.301
 4222SOL    HW113565   4.715   3.770   4.275
 4222SOL    HW213566   4.866   3.795   4.218
 4223SOL     OW13567   3.371   4.113   2.588
 4223SOL    HW113568   3.299   4.107   2.658
 4223SOL    HW213569   3.449   4.058   2.616
 4224SOL     OW13570   4.691   4.130   5.203
 4224SOL    HW113571   4.732   4.051   5.250
 4224SOL    HW213572   4.629   4.177   5.266
 4225SOL     OW13573   0.532   1.385   6.132
 4225SOL    HW113574   0.630   1.377   6.113
 4225SOL    HW213575   0.508   1.326   6.208
 4226SOL     OW13576   5.400   5.208   4.185
 4226SOL    HW113577   5.320   5.239   4.237
 4226SOL    HW213578   5.452   5.143   4.241
 4227SOL     OW13579   5.632   6.350   1.035
 4227SOL    HW113580   5.681   6.286   1.095
 4227SOL    HW213581   5.686   6.433   1.024
 4228SOL     OW13582   1.875   4.483   3.568
 4228SOL    HW113583   1.795   4.434   3.600
 4228SOL    HW213584   1.848   4.575   3.538
 4229SOL     OW13585   6.078   6.465   6.071
 4229SOL    HW113586   6.120   6.551   6.101
 4229SOL    HW213587   6.095   6.394   6.139
 4230SOL     OW13588   0.791   1.641   2.045
 4230SOL    HW113589   0.846   1.694   2.109
 4230SOL    HW213590   0.851   1.588   1.985
 4231SOL     OW13591   6.942   0.635   5.828
 4231SOL    HW113592   6.896   0.553   5.862
 4231SOL    HW213593   6.876   0.692   5.779
 4232SOL     OW13594   2.202   4.480   2.302
 4232SOL    HW113595   2.259   4.411   2.348
 4232SOL    HW213596   2.252   4.516   2.223
 4233SOL     OW13597   4.545   5.584   2.417
 4233SOL    HW113598   4.621   5.559   2.477
 4233SOL    HW213599   4.488   5.503   2.400
 4234SOL     OW13600   3.165   5.389   6.315
 4234SOL    HW113601   3.233   5.416   6.246
 4234SOL    HW213602   3.121   5.304   6.286
 4235SOL     OW13603   6.785   6.148   0.048
 4235SOL    HW113604   6.855   6.077   0.057
 4235SOL    HW213605   6.828   6.238   0.045
 4236SOL     OW13606   0.156   4.971   3.530
 4236SOL    HW113607   0.252   4.963   3.504
 4236SOL    HW213608   0.132   5.067   3.540
 4237SOL     OW13609   6.874   4.689   4.316
 4237SOL    HW113610   6.942   4.758   4.291
 4237SOL    HW213611   6.787   4.734   4.334
 4238SOL     OW13612   1.865   5.617   3.246
 4238SOL    HW113613   1.905   5.698   3.289
 4238SOL    HW213614   1.776   5.598   3.288
 4239SOL     OW13615   4.238   1.159   3.511
 4239SOL    HW113616   4.233   1.259   3.503
 4239SOL    HW213617   4.181   1.117   3.441
 4240SOL     OW13618   4.727   6.719   1.853
 4240SOL    HW113619   4.766   6.641   1.804
 4240SOL    HW213620   4.629   6.703   1.867
 4241SOL     OW13621   0.482   4.341   6.635
 4241SOL    HW113622   0.425   4.395   6.572
 4241SOL    HW213623   0.513   4.399   6.710
 4242SOL     OW13624   3.907   2.144   2.711
 4242SOL    HW113625   3.932   2.159   2.806
 4242SOL    HW213626   3.975   2.086   2.667
 4243SOL     OW13627   2.539   2.083   2.844
 4243SOL    HW113628   2.578   2.079   2.936
 4243SOL    HW213629   2.551   2.175   2.807
 4244SOL     OW13630   3.031   3.213   5.212
 4244SOL    HW113631   2.963   3.139   5.216
 4244SOL    HW213632   3.037   3.258   5.300
 4245SOL     OW13633   6.752   1.323   5.466
 4245SOL    HW113634   6.842   1.299   5.430
 4245SOL    HW213635   6.681   1.274   5.415
 4246SOL     OW13636   1.074   5.066   6.304
 4246SOL    HW113637   0.999   5.012   6.342
 4246SOL    HW213638   1.068   5.065   6.204
 4247SOL     OW13639   0.314   4.540   5.140
 4247SOL    HW113640   0.214   4.526   5.141
 4247SOL    HW213641   0.334   4.636   5.121
 4248SOL     OW13642   2.031   3.510   6.999
 4248SOL    HW113643   1.984   3.467   6.922
 4248SOL    HW213644   2.017   3.609   6.996
 4249SOL     OW13645   5.170   3.417   6.304
 4249SOL    HW113646   5.201   3.323   6.293
 4249SOL    HW213647   5.181   3.466   6.217
 4250SOL     OW13648   6.790   3.835   3.771
 4250SOL    HW113649   6.883   3.840   3.807
 4250SOL    HW213650   6.789   3.871   3.677
 4251SOL     OW13651   6.074   4.826   6.252
 4251SOL    HW113652   6.037   4.892   6.186
 4251SOL    HW213653   6.158   4.786   6.215
 4252SOL     OW13654   6.120   4.766   5.431
 4252SOL    HW113655   6.022   4.761   5.412
 4252SOL    HW213656   6.136   4.832   5.504
 4253SOL     OW13657   3.073   0.363   3.359
 4253SOL    HW113658   3.146   0.403   3.303
 4253SOL    HW213659   3.021   0.297   3.306
 4254SOL     OW13660   4.065   3.509   3.077
 4254SOL    HW113661   3.981   3.545   3.118
 4254SOL    HW213662   4.069   3.410   3.091
 4255SOL     OW13663   0.768   2.287   4.311
 4255SOL    HW113664   0.811   2.257   4.226
 4255SOL    HW213665   0.673   2.255   4.313
 4256SOL     OW13666   0.748   0.573   1.571
 4256SOL    HW113667   0.782   0.546   1.481
 4256SOL    HW213668   0.707   0.494   1.617
 4257SOL     OW13669   4.213   2.265   4.878
 4257SOL    HW113670   4.179   2.331   4.945
 4257SOL    HW213671   4.161   2.274   4.793
 4258SOL     OW13672   5.396   6.065   2.118
 4258SOL    HW113673   5.323   6.004   2.087
 4258SOL    HW213674   5.383   6.084   2.216
 4259SOL     OW13675   2.946   3.162   1.875
 4259SOL    HW113676   3.001   3.220   1.935
 4259SOL    HW213677   2.989   3.072   1.867
 4260SOL     OW13678   4.492   6.205   5.002
 4260SOL    HW113679   4.440   6.268   4.944
 4260SOL    HW213680   4.432   6.136   5.040
 4261SOL     OW13681   1.350   1.489   2.979
 4261SOL    HW113682   1.314   1.573   2.938
 4261SOL    HW213683   1.290   1.413   2.955
 4262SOL     OW13684   1.180   6.875   5.277
 4262SOL    HW113685   1.126   6.935   5.218
 4262SOL    HW213686   1.211   6.926   5.357
 4263SOL     OW13687   4.204   5.431   6.817
 4263SOL    HW113688   4.253   5.443   6.730
 4263SOL    HW213689   4.203   5.518   6.866
 4264SOL     OW13690   1.801   0.884   1.356
 4264SOL    HW113691   1.748   0.869   1.273
 4264SOL    HW213692   1.754   0.843   1.434
 4265SOL     OW13693   1.997   1.587   1.055
 4265SOL    HW113694   2.072   1.616   0.995
 4265SOL    HW213695   1.966   1.665   1.110
 4266SOL     OW13696   2.846   4.754   0.546
 4266SOL    HW113697   2.860   4.665   0.591
 4266SOL    HW213698   2.749   4.765   0.525
 4267SOL     OW13699   1.617   3.925   5.052
 4267SOL    HW113700   1.631   4.023   5.067
 4267SOL    HW213701   1.571   3.912   4.965
 4268SOL     OW13702   0.571   1.713   1.112
 4268SOL    HW113703   0.582   1.794   1.169
 4268SOL    HW213704   0.660   1.689   1.071
 4269SOL     OW13705   2.903   3.939   0.655
 4269SOL    HW113706   2.872   3.859   0.604
 4269SOL    HW213707   2.953   3.909   0.736
 4270SOL     OW13708   3.970   2.995   6.748
 4270SOL    HW113709   3.887   2.939   6.745
 4270SOL    HW213710   3.966   3.056   6.827
 4271SOL     OW13711   2.033   0.452   1.506
 4271SOL    HW113712   1.990   0.542   1.510
 4271SOL    HW213713   2.098   0.442   1.581
 4272SOL     OW13714   1.301   4.545   3.358
 4272SOL    HW113715   1.309   4.643   3.377
 4272SOL    HW213716   1.260   4.532   3.268
 4273SOL     OW13717   6.755   6.295   3.414
 4273SOL    HW113718   6.731   6.220   3.351
 4273SOL    HW213719   6.767   6.257   3.506
 4274SOL     OW13720   1.592   0.315   3.328
 4274SOL    HW113721   1.503   0.352   3.354
 4274SOL    HW213722   1.581   0.221   3.297
 4275SOL     OW13723   0.312   0.651   6.073
 4275SOL    HW113724   0.223   0.679   6.110
 4275SOL    HW213725   0.305   0.559   6.035
 4276SOL     OW13726   2.153   3.204   3.657
 4276SOL    HW113727   2.128   3.296   3.628
 4276SOL    HW213728   2.185   3.206   3.752
 4277SOL     OW13729   0.447   5.592   5.847
 4277SOL    HW113730   0.514   5.529   5.808
 4277SOL    HW213731   0.472   5.611   5.942
 4278SOL     OW13732   1.295   6.559   6.686
 4278SOL    HW113733   1.259   6.466   6.674
 4278SOL    HW213734   1.357   6.561   6.764
 4279SOL     OW13735   3.736   6.009   3.178
 4279SOL    HW113736   3.760   5.925   3.226
 4279SOL    HW213737   3.639   6.029   3.191
 4280SOL     OW13738   4.746   2.931   4.116
 4280SOL    HW113739   4.804   2.997   4.164
 4280SOL    HW213740   4.766   2.934   4.018
 4281SOL     OW13741   2.160   3.783   4.637
 4281SOL    HW113742   2.158   3.791   4.737
 4281SOL    HW213743   2.203   3.697   4.611
 4282SOL     OW13744   0.718   1.582   6.939
 4282SOL    HW113745   0.806   1.541   6.960
 4282SOL    HW213746   0.665   1.594   7.023
 4283SOL     OW13747   2.910   1.389   3.869
 4283SOL    HW113748   2.905   1.470   3.927
 4283SOL    HW213749   2.917   1.308   3.926
 4284SOL     OW13750   6.854   2.942   3.202
 4284SOL    HW113751   6.807   2.866   3.246
 4284SOL    HW213752   6.952   2.936   3.220
 4285SOL     OW13753   0.646   6.168   4.099
 4285SOL    HW113754   0.589   6.249   4.082
 4285SOL    HW213755   0.740   6.198   4.117
 4286SOL     OW13756   4.546   5.478   6.933
 4286SOL    HW113757   4.472   5.542   6.913
 4286SOL    HW213758   4.515   5.385   6.914
 4287SOL     OW13759   3.990   5.407   6.061
 4287SOL    HW113760   3.943   5.367   5.982
 4287SOL    HW213761   3.950   5.370   6.145
 4288SOL     OW13762   0.868   6.308   4.158
 4288SOL    HW113763   0.949   6.326   4.214
 4288SOL    HW213764   0.891   6.318   4.061
 4289SOL     OW13765   0.838   4.089   6.795
 4289SOL    HW113766   0.924   4.128   6.762
 4289SOL    HW213767   0.803   4.024   6.728
 4290SOL     OW13768   1.632   2.018   2.668
 4290SOL    HW113769   1.695   1.946   2.697
 4290SOL    HW213770   1.678   2.076   2.601
 4291SOL     OW13771   6.908   4.043   1.349
 4291SOL    HW113772   6.809   4.056   1.338
 4291SOL    HW213773   6.955   4.130   1.336
 4292SOL     OW13774   5.606   5.843   4.866
 4292SOL    HW113775   5.678   5.815   4.929
 4292SOL    HW213776   5.606   5.943   4.858
 4293SOL     OW13777   0.748   1.811   0.693
 4293SOL    HW113778   0.698   1.890   0.658
 4293SOL    HW213779   0.686   1.732   0.699
 4294SOL     OW13780   4.391   2.294   6.179
 4294SOL    HW113781   4.357   2.327   6.091
 4294SOL    HW213782   4.365   2.198   6.191
 4295SOL     OW13783   3.592   5.257   5.348
 4295SOL    HW113784   3.600   5.190   5.423
 4295SOL    HW213785   3.501   5.298   5.350
 4296SOL     OW13786   1.989   1.377   2.441
 4296SOL    HW113787   1.943   1.339   2.521
 4296SOL    HW213788   2.057   1.444   2.471
 4297SOL     OW13789   5.349   6.846   0.556
 4297SOL    HW113790   5.259   6.882   0.530
 4297SOL    HW213791   5.398   6.916   0.609
 4298SOL     OW13792   1.805   4.638   1.831
 4298SOL    HW113793   1.717   4.617   1.874
 4298SOL    HW213794   1.812   4.590   1.744
 4299SOL     OW13795   1.243   5.736   5.042
 4299SOL    HW113796   1.247   5.822   5.093
 4299SOL    HW213797   1.148   5.718   5.016
 4300SOL     OW13798   5.874   0.429   5.563
 4300SOL    HW113799   5.956   0.449   5.509
 4300SOL    HW213800   5.808   0.503   5.552
 4301SOL     OW13801   3.044   0.708   0.765
 4301SOL    HW113802   3.140   0.681   0.777
 4301SOL    HW213803   2.998   0.640   0.707
 4302SOL     OW13804   0.806   0.169   6.951
 4302SOL    HW113805   0.882   0.232   6.936
 4302SOL    HW213806   0.797   0.151   0.025
 4303SOL     OW13807   0.786   4.246   2.100
 4303SOL    HW113808   0.779   4.241   2.000
 4303SOL    HW213809   0.798   4.154   2.137
 4304SOL     OW13810   2.753   3.616   5.656
 4304SOL    HW113811   2.847   3.587   5.639
 4304SOL    HW213812   2.751   3.679   5.734
 4305SOL     OW13813   0.595   1.427   5.035
 4305SOL    HW113814   0.567   1.335   5.010
 4305SOL    HW213815   0.560   1.492   4.968
 4306SOL     OW13816   6.337   5.399   5.737
 4306SOL    HW113817   6.387   5.361   5.814
 4306SOL    HW213818   6.267   5.463   5.771
 4307SOL     OW13819   6.170   3.929   1.080
 4307SOL    HW113820   6.094   3.937   1.145
 4307SOL    HW213821   6.136   3.888   0.995
 4308SOL     OW13822   3.172   0.153   5.392
 4308SOL    HW113823   3.203   0.073   5.341
 4308SOL    HW213824   3.078   0.174   5.368
 4309SOL     OW13825   1.133   0.418   1.320
 4309SOL    HW113826   1.071   0.389   1.246
 4309SOL    HW213827   1.181   0.338   1.355
 4310SOL     OW13828   1.581   6.909   2.820
 4310SOL    HW113829   1.639   6.949   2.749
 4310SOL    HW213830   1.550   6.980   2.882
 4311SOL     OW13831   1.086   5.044   4.796
 4311SOL    HW113832   1.018   4.971   4.787
 4311SOL    HW213833   1.041   5.133   4.787
 4312SOL     OW13834   1.281   5.496   2.808
 4312SOL    HW113835   1.183   5.484   2.788
 4312SOL    HW213836   1.294   5.499   2.907
 4313SOL     OW13837   5.246   1.142   1.273
 4313SOL    HW113838   5.244   1.199   1.356
 4313SOL    HW213839   5.199   1.055   1.291
 4314SOL     OW13840   6.648   2.898   1.460
 4314SOL    HW113841   6.580   2.950   1.409
 4314SOL    HW213842   6.683   2.953   1.536
 4315SOL     OW13843   1.441   0.828   2.205
 4315SOL    HW113844   1.352   0.807   2.166
 4315SOL    HW213845   1.496   0.745   2.209
 4316SOL     OW13846   0.193   1.111   2.426
 4316SOL    HW113847   0.222   1.067   2.510
 4316SOL    HW213848   0.102   1.151   2.439
 4317SOL     OW13849   4.052   0.771   3.616
 4317SOL    HW113850   3.968   0.723   3.642
 4317SOL    HW213851   4.127   0.742   3.676
 4318SOL     OW13852   6.885   2.232   4.891
 4318SOL    HW113853   6.787   2.248   4.877
 4318SOL    HW213854   6.900   2.196   4.983
 4319SOL     OW13855   3.894   3.311   6.344
 4319SOL    HW113856   3.926   3.279   6.433
 4319SOL    HW213857   3.868   3.232   6.288
 4320SOL     OW13858   0.112   6.394   3.426
 4320SOL    HW113859   0.144   6.363   3.336
 4320SOL    HW213860   0.073   6.316   3.475
 4321SOL     OW13861   0.266   0.538   4.454
 4321SOL    HW113862   0.213   0.455   4.470
 4321SOL    HW213863   0.329   0.553   4.531
 4322SOL     OW13864   6.461   1.060   0.452
 4322SOL    HW113865   6.454   1.072   0.551
 4322SOL    HW213866   6.557   1.059   0.425
 4323SOL     OW13867   0.126   2.091   3.971
 4323SOL    HW113868   0.028   2.102   3.954
 4323SOL    HW213869   0.168   2.044   3.893
 4324SOL     OW13870   5.700   2.370   5.943
 4324SOL    HW113871   5.758   2.367   6.024
 4324SOL    HW213872   5.716   2.289   5.886
 4325SOL     OW13873   1.877   2.558   6.385
 4325SOL    HW113874   1.846   2.550   6.291
 4325SOL    HW213875   1.889   2.655   6.408
 4326SOL     OW13876   7.012   2.472   5.490
 4326SOL    HW113877   0.024   2.458   5.398
 4326SOL    HW213878   0.052   2.528   5.543
 4327SOL     OW13879   4.869   0.816   3.247
 4327SOL    HW113880   4.805   0.786   3.177
 4327SOL    HW213881   4.876   0.916   3.246
 4328SOL     OW13882   6.239   5.077   0.730
 4328SOL    HW113883   6.187   5.033   0.656
 4328SOL    HW213884   6.179   5.088   0.809
 4329SOL     OW13885   5.144   1.696   6.145
 4329SOL    HW113886   5.166   1.623   6.081
 4329SOL    HW213887   5.128   1.781   6.095
 4330SOL     OW13888   0.826   0.909   6.199
 4330SOL    HW113889   0.906   0.880   6.146
 4330SOL    HW213890   0.811   0.844   6.274
 4331SOL     OW13891   5.400   2.911   6.278
 4331SOL    HW113892   5.403   2.871   6.369
 4331SOL    HW213893   5.466   2.864   6.219
 4332SOL     OW13894   6.076   4.599   2.185
 4332SOL    HW113895   6.016   4.551   2.121
 4332SOL    HW213896   6.152   4.540   2.211
 4333SOL     OW13897   6.428   1.748   4.931
 4333SOL    HW113898   6.459   1.815   4.864
 4333SOL    HW213899   6.416   1.659   4.887
 4334SOL     OW13900   4.187   6.900   1.966
 4334SOL    HW113901   4.158   6.851   2.048
 4334SOL    HW213902   4.285   6.888   1.953
 4335SOL     OW13903   3.776   4.245   6.385
 4335SOL    HW113904   3.684   4.244   6.346
 4335SOL    HW213905   3.843   4.259   6.312
 4336SOL     OW13906   0.980   0.450   5.780
 4336SOL    HW113907   0.986   0.547   5.799
 4336SOL    HW213908   0.982   0.398   5.866
 4337SOL     OW13909   1.081   5.509   5.919
 4337SOL    HW113910   1.037   5.422   5.942
 4337SOL    HW213911   1.171   5.513   5.962
 4338SOL     OW13912   5.239   6.784   2.753
 4338SOL    HW113913   5.315   6.846   2.775
 4338SOL    HW213914   5.226   6.782   2.654
 4339SOL     OW13915   6.780   0.669   0.568
 4339SOL    HW113916   6.709   0.608   0.602
 4339SOL    HW213917   6.794   0.743   0.633
 4340SOL     OW13918   4.850   3.584   1.730
 4340SOL    HW113919   4.806   3.499   1.759
 4340SOL    HW213920   4.799   3.623   1.654
 4341SOL     OW13921   1.230   3.322   0.681
 4341SOL    HW113922   1.245   3.325   0.582
 4341SOL    HW213923   1.136   3.293   0.699
 4342SOL     OW13924   6.932   2.698   2.634
 4342SOL    HW113925   6.942   2.612   2.585
 4342SOL    HW213926   7.012   2.755   2.619
 4343SOL     OW13927   3.161   3.223   1.594
 4343SOL    HW113928   3.084   3.286   1.601
 4343SOL    HW213929   3.128   3.133   1.566
 4344SOL     OW13930   2.486   3.257   1.716
 4344SOL    HW113931   2.584   3.267   1.733
 4344SOL    HW213932   2.435   3.313   1.782
 4345SOL     OW13933   3.056   0.639   6.086
 4345SOL    HW113934   3.154   0.656   6.101
 4345SOL    HW213935   3.028   0.679   5.999
 4346SOL     OW13936   0.206   3.944   1.615
 4346SOL    HW113937   0.267   4.003   1.667
 4346SOL    HW213938   0.189   3.985   1.525
 4347SOL     OW13939   4.990   6.009   2.660
 4347SOL    HW113940   5.084   5.989   2.631
 4347SOL    HW213941   4.963   6.098   2.626
 4348SOL     OW13942   1.255   3.542   0.239
 4348SOL    HW113943   1.165   3.547   0.196
 4348SOL    HW213944   1.246   3.500   0.329
 4349SOL     OW13945   6.133   1.222   1.146
 4349SOL    HW113946   6.121   1.254   1.240
 4349SOL    HW213947   6.161   1.126   1.146
 4350SOL     OW13948   3.192   0.532   3.180
 4350SOL    HW113949   3.218   0.620   3.220
 4350SOL    HW213950   3.123   0.547   3.109
 4351SOL     OW13951   3.483   6.899   0.421
 4351SOL    HW113952   3.508   6.865   0.512
 4351SOL    HW213953   3.422   6.834   0.377
 4352SOL     OW13954   6.097   1.822   1.512
 4352SOL    HW113955   6.018   1.862   1.558
 4352SOL    HW213956   6.103   1.858   1.419
 4353SOL     OW13957   3.178   5.536   0.790
 4353SOL    HW113958   3.234   5.454   0.778
 4353SOL    HW213959   3.084   5.516   0.763
 4354SOL     OW13960   2.917   1.029   1.551
 4354SOL    HW113961   2.958   1.114   1.585
 4354SOL    HW213962   2.975   0.951   1.576
 4355SOL     OW13963   4.680   0.080   6.781
 4355SOL    HW113964   4.684   0.123   6.872
 4355SOL    HW213965   4.636   0.142   6.717
 4356SOL     OW13966   3.428   3.779   1.081
 4356SOL    HW113967   3.486   3.752   1.158
 4356SOL    HW213968   3.482   3.777   0.997
 4357SOL     OW13969   5.871   0.320   0.755
 4357SOL    HW113970   5.951   0.260   0.747
 4357SOL    HW213971   5.854   0.365   0.668
 4358SOL     OW13972   6.654   0.562   1.043
 4358SOL    HW113973   6.745   0.520   1.046
 4358SOL    HW213974   6.633   0.590   0.949
 4359SOL     OW13975   6.882   3.877   4.491
 4359SOL    HW113976   6.785   3.902   4.484
 4359SOL    HW213977   6.927   3.893   4.403
 4360SOL     OW13978   2.517   3.340   1.115
 4360SOL    HW113979   2.532   3.346   1.214
 4360SOL    HW213980   2.604   3.344   1.067
 4361SOL     OW13981   5.307   1.744   2.313
 4361SOL    HW113982   5.253   1.827   2.306
 4361SOL    HW213983   5.402   1.767   2.337
 4362SOL     OW13984   4.705   4.273   2.421
 4362SOL    HW113985   4.644   4.306   2.493
 4362SOL    HW213986   4.800   4.280   2.451
 4363SOL     OW13987   4.925   0.625   6.666
 4363SOL    HW113988   4.899   0.573   6.748
 4363SOL    HW213989   4.945   0.561   6.591
 4364SOL     OW13990   4.593   3.822   5.448
 4364SOL    HW113991   4.626   3.736   5.408
 4364SOL    HW213992   4.514   3.855   5.397
 4365SOL     OW13993   5.176   2.380   6.862
 4365SOL    HW113994   5.100   2.318   6.844
 4365SOL    HW213995   5.142   2.472   6.881
 4366SOL     OW13996   5.147   5.211   0.855
 4366SOL    HW113997   5.122   5.134   0.797
 4366SOL    HW213998   5.147   5.182   0.951
 4367SOL     OW13999   6.030   6.176   1.013
 4367SOL    HW114000   6.047   6.140   0.921
 4367SOL    HW214001   5.934   6.200   1.022
 4368SOL     OW14002   4.562   5.548   2.131
 4368SOL    HW114003   4.593   5.574   2.222
 4368SOL    HW214004   4.485   5.605   2.104
 4369SOL     OW14005   3.119   5.650   1.458
 4369SOL    HW114006   3.120   5.569   1.399
 4369SOL    HW214007   3.118   5.621   1.554
 4370SOL     OW14008   5.306   4.189   1.630
 4370SOL    HW114009   5.299   4.264   1.563
 4370SOL    HW214010   5.259   4.108   1.594
 4371SOL     OW14011   1.197   1.821   2.137
 4371SOL    HW114012   1.154   1.830   2.046
 4371SOL    HW214013   1.125   1.811   2.206
 4372SOL     OW14014   5.005   0.018   4.145
 4372SOL    HW114015   4.987   0.116   4.134
 4372SOL    HW214016   4.944   7.005   4.214
 4373SOL     OW14017   0.607   1.911   5.394
 4373SOL    HW114018   0.533   1.941   5.455
 4373SOL    HW214019   0.595   1.813   5.373
 4374SOL     OW14020   3.817   1.577   0.346
 4374SOL    HW114021   3.858   1.568   0.255
 4374SOL    HW214022   3.873   1.528   0.412
 4375SOL     OW14023   3.427   5.486   4.187
 4375SOL    HW114024   3.434   5.543   4.268
 4375SOL    HW214025   3.423   5.390   4.214
 4376SOL     OW14026   0.209   2.880   2.971
 4376SOL    HW114027   0.169   2.794   2.940
 4376SOL    HW214028   0.148   2.956   2.947
 4377SOL     OW14029   0.165   4.529   6.132
 4377SOL    HW114030   0.238   4.468   6.163
 4377SOL    HW214031   0.083   4.476   6.111
 4378SOL     OW14032   3.017   1.874   4.599
 4378SOL    HW114033   2.954   1.859   4.675
 4378SOL    HW214034   3.057   1.966   4.606
 4379SOL     OW14035   3.656   1.554   6.195
 4379SOL    HW114036   3.650   1.626   6.125
 4379SOL    HW214037   3.666   1.596   6.285
 4380SOL     OW14038   6.961   2.158   2.988
 4380SOL    HW114039   0.028   2.168   2.948
 4380SOL    HW214040   6.931   2.063   2.978
 4381SOL     OW14041   1.136   4.847   6.718
 4381SOL    HW114042   1.183   4.935   6.720
 4381SOL    HW214043   1.193   4.779   6.765
 4382SOL     OW14044   1.410   4.846   4.569
 4382SOL    HW114045   1.452   4.756   4.559
 4382SOL    HW214046   1.422   4.879   4.662
 4383SOL     OW14047   0.521   4.447   0.183
 4383SOL    HW114048   0.516   4.362   0.235
 4383SOL    HW214049   0.473   4.519   0.233
 4384SOL     OW14050   4.743   6.482   3.897
 4384SOL    HW114051   4.808   6.455   3.967
 4384SOL    HW214052   4.651   6.490   3.937
 4385SOL     OW14053   4.642   0.479   5.995
 4385SOL    HW114054   4.696   0.423   6.058
 4385SOL    HW214055   4.643   0.438   5.904
 4386SOL     OW14056   2.113   3.481   4.158
 4386SOL    HW114057   2.164   3.548   4.212
 4386SOL    HW214058   2.018   3.511   4.150
 4387SOL     OW14059   4.602   2.035   0.909
 4387SOL    HW114060   4.540   2.106   0.943
 4387SOL    HW214061   4.613   2.045   0.810
 4388SOL     OW14062   6.135   3.429   0.390
 4388SOL    HW114063   6.114   3.425   0.292
 4388SOL    HW214064   6.141   3.336   0.426
 4389SOL     OW14065   2.282   1.421   6.445
 4389SOL    HW114066   2.351   1.369   6.495
 4389SOL    HW214067   2.306   1.424   6.348
 4390SOL     OW14068   6.953   1.272   1.216
 4390SOL    HW114069   6.855   1.292   1.225
 4390SOL    HW214070   6.970   1.177   1.240
 4391SOL     OW14071   0.178   6.068   1.487
 4391SOL    HW114072   0.274   6.053   1.509
 4391SOL    HW214073   0.127   6.088   1.570
 4392SOL     OW14074   1.866   2.999   6.122
 4392SOL    HW114075   1.787   3.047   6.084
 4392SOL    HW214076   1.946   3.058   6.118
 4393SOL     OW14077   6.224   0.475   2.102
 4393SOL    HW114078   6.196   0.566   2.134
 4393SOL    HW214079   6.180   0.405   2.159
 4394SOL     OW14080   7.007   1.196   2.724
 4394SOL    HW114081   7.018   1.246   2.638
 4394SOL    HW214082   6.917   1.154   2.727
 4395SOL     OW14083   1.600   3.647   1.575
 4395SOL    HW114084   1.637   3.739   1.561
 4395SOL    HW214085   1.593   3.600   1.487
 4396SOL     OW14086   2.361   1.679   2.335
 4396SOL    HW114087   2.423   1.737   2.386
 4396SOL    HW214088   2.303   1.627   2.398
 4397SOL     OW14089   3.602   0.334   4.673
 4397SOL    HW114090   3.515   0.332   4.721
 4397SOL    HW214091   3.661   0.260   4.707
 4398SOL     OW14092   1.973   3.256   6.207
 4398SOL    HW114093   1.898   3.242   6.272
 4398SOL    HW214094   1.954   3.337   6.151
 4399SOL     OW14095   2.858   6.213   1.631
 4399SOL    HW114096   2.948   6.222   1.673
 4399SOL    HW214097   2.839   6.117   1.612
 4400SOL     OW14098   1.277   6.253   5.390
 4400SOL    HW114099   1.344   6.187   5.421
 4400SOL    HW214100   1.304   6.289   5.300
 4401SOL     OW14101   3.106   0.205   6.474
 4401SOL    HW114102   3.206   0.211   6.462
 4401SOL    HW214103   3.080   0.251   6.559
 4402SOL     OW14104   1.055   0.286   2.823
 4402SOL    HW114105   1.091   0.261   2.732
 4402SOL    HW214106   1.019   0.204   2.867
 4403SOL     OW14107   6.524   6.208   2.988
 4403SOL    HW114108   6.588   6.156   3.045
 4403SOL    HW214109   6.527   6.174   2.894
 4404SOL     OW14110   0.865   6.391   5.288
 4404SOL    HW114111   0.875   6.491   5.290
 4404SOL    HW214112   0.895   6.353   5.375
 4405SOL     OW14113   0.770   5.217   2.811
 4405SOL    HW114114   0.795   5.180   2.722
 4405SOL    HW214115   0.774   5.144   2.880
 4406SOL     OW14116   6.142   4.207   2.710
 4406SOL    HW114117   6.049   4.221   2.677
 4406SOL    HW214118   6.207   4.223   2.636
 4407SOL     OW14119   5.162   0.176   1.356
 4407SOL    HW114120   5.226   0.250   1.374
 4407SOL    HW214121   5.201   0.114   1.287
 4408SOL     OW14122   4.987   0.703   0.690
 4408SOL    HW114123   4.995   0.693   0.789
 4408SOL    HW214124   4.957   0.796   0.668
 4409SOL     OW14125   3.829   0.703   3.765
 4409SOL    HW114126   3.729   0.699   3.755
 4409SOL    HW214127   3.854   0.787   3.814
 4410SOL     OW14128   1.724   0.315   0.891
 4410SOL    HW114129   1.700   0.275   0.979
 4410SOL    HW214130   1.795   0.261   0.847
 4411SOL     OW14131   4.603   4.397   4.594
 4411SOL    HW114132   4.554   4.434   4.515
 4411SOL    HW214133   4.645   4.310   4.569
 4412SOL     OW14134   4.885   6.526   0.959
 4412SOL    HW114135   4.899   6.581   1.042
 4412SOL    HW214136   4.825   6.449   0.980
 4413SOL     OW14137   5.302   6.178   4.506
 4413SOL    HW114138   5.305   6.217   4.598
 4413SOL    HW214139   5.294   6.251   4.438
 4414SOL     OW14140   5.895   3.919   1.275
 4414SOL    HW114141   5.833   3.848   1.311
 4414SOL    HW214142   5.864   4.009   1.307
 4415SOL     OW14143   1.273   4.252   1.516
 4415SOL    HW114144   1.354   4.271   1.462
 4415SOL    HW214145   1.246   4.333   1.567
 4416SOL     OW14146   4.714   2.733   4.308
 4416SOL    HW114147   4.632   2.676   4.312
 4416SOL    HW214148   4.701   2.806   4.242
 4417SOL     OW14149   0.021   4.321   1.917
 4417SOL    HW114150   0.113   4.287   1.937
 4417SOL    HW214151   7.017   4.290   1.826
 4418SOL     OW14152   6.550   2.436   5.444
 4418SOL    HW114153   6.480   2.446   5.514
 4418SOL    HW214154   6.622   2.504   5.459
 4419SOL     OW14155   6.388   6.590   6.800
 4419SOL    HW114156   6.403   6.582   6.701
 4419SOL    HW214157   6.327   6.516   6.830
 4420SOL     OW14158   3.363   0.909   0.681
 4420SOL    HW114159   3.329   0.980   0.744
 4420SOL    HW214160   3.359   0.820   0.726
 4421SOL     OW14161   2.869   2.602   0.273
 4421SOL    HW114162   2.904   2.508   0.280
 4421SOL    HW214163   2.769   2.600   0.281
 4422SOL     OW14164   1.174   2.955   6.666
 4422SOL    HW114165   1.107   2.887   6.697
 4422SOL    HW214166   1.266   2.919   6.681
 4423SOL     OW14167   5.786   5.167   4.346
 4423SOL    HW114168   5.812   5.251   4.393
 4423SOL    HW214169   5.742   5.105   4.410
 4424SOL     OW14170   4.035   5.303   2.453
 4424SOL    HW114171   4.012   5.240   2.528
 4424SOL    HW214172   3.954   5.321   2.398
 4425SOL     OW14173   0.706   5.966   0.985
 4425SOL    HW114174   0.741   6.057   1.006
 4425SOL    HW214175   0.607   5.970   0.970
 4426SOL     OW14176   0.980   0.660   4.026
 4426SOL    HW114177   0.899   0.687   4.078
 4426SOL    HW214178   1.062   0.696   4.070
 4427SOL     OW14179   3.586   6.229   1.017
 4427SOL    HW114180   3.594   6.130   1.015
 4427SOL    HW214181   3.492   6.255   1.038
 4428SOL     OW14182   6.265   6.134   3.019
 4428SOL    HW114183   6.272   6.048   3.069
 4428SOL    HW214184   6.354   6.179   3.016
 4429SOL     OW14185   2.384   6.108   2.716
 4429SOL    HW114186   2.306   6.160   2.750
 4429SOL    HW214187   2.352   6.018   2.685
 4430SOL     OW14188   5.688   3.962   4.375
 4430SOL    HW114189   5.770   3.911   4.403
 4430SOL    HW214190   5.655   3.925   4.288
 4431SOL     OW14191   4.346   0.068   4.931
 4431SOL    HW114192   4.332   0.152   4.878
 4431SOL    HW214193   4.440   0.067   4.966
 4432SOL     OW14194   2.101   3.466   6.490
 4432SOL    HW114195   2.090   3.534   6.562
 4432SOL    HW214196   2.127   3.512   6.405
 4433SOL     OW14197   0.690   0.227   4.816
 4433SOL    HW114198   0.642   0.278   4.744
 4433SOL    HW214199   0.765   0.175   4.775
 4434SOL     OW14200   6.344   0.817   2.622
 4434SOL    HW114201   6.340   0.784   2.717
 4434SOL    HW214202   6.353   0.916   2.622
 4435SOL     OW14203   2.085   4.564   1.809
 4435SOL    HW114204   1.992   4.559   1.844
 4435SOL    HW214205   2.100   4.654   1.766
 4436SOL     OW14206   4.863   2.258   1.695
 4436SOL    HW114207   4.901   2.254   1.787
 4436SOL    HW214208   4.793   2.187   1.685
 4437SOL     OW14209   6.687   5.494   6.701
 4437SOL    HW114210   6.720   5.548   6.623
 4437SOL    HW214211   6.681   5.553   6.782
 4438SOL     OW14212   3.682   1.675   4.821
 4438SOL    HW114213   3.738   1.617   4.881
 4438SOL    HW214214   3.741   1.724   4.757
 4439SOL     OW14215   2.760   5.269   1.926
 4439SOL    HW114216   2.827   5.279   1.853
 4439SOL    HW214217   2.752   5.172   1.951
 4440SOL     OW14218   2.009   5.432   5.756
 4440SOL    HW114219   2.013   5.514   5.699
 4440SOL    HW214220   1.918   5.392   5.751
 4441SOL     OW14221   6.371   1.074   0.720
 4441SOL    HW114222   6.353   1.166   0.755
 4441SOL    HW214223   6.340   1.006   0.786
 4442SOL     OW14224   1.529   4.752   0.965
 4442SOL    HW114225   1.571   4.818   0.904
 4442SOL    HW214226   1.539   4.782   1.060
 4443SOL     OW14227   1.288   5.969   5.200
 4443SOL    HW114228   1.352   6.008   5.134
 4443SOL    HW214229   1.206   6.026   5.204
 4444SOL     OW14230   4.725   6.305   6.967
 4444SOL    HW114231   4.713   6.224   6.909
 4444SOL    HW214232   4.639   6.355   6.972
 4445SOL     OW14233   2.296   3.608   0.549
 4445SOL    HW114234   2.234   3.663   0.492
 4445SOL    HW214235   2.248   3.580   0.632
 4446SOL     OW14236   5.772   2.295   1.249
 4446SOL    HW114237   5.763   2.316   1.152
 4446SOL    HW214238   5.706   2.225   1.275
 4447SOL     OW14239   4.804   5.633   5.627
 4447SOL    HW114240   4.871   5.667   5.561
 4447SOL    HW214241   4.714   5.672   5.607
 4448SOL     OW14242   2.993   6.431   2.297
 4448SOL    HW114243   3.033   6.502   2.239
 4448SOL    HW214244   3.034   6.343   2.276
 4449SOL     OW14245   3.803   1.941   5.424
 4449SOL    HW114246   3.843   1.894   5.345
 4449SOL    HW214247   3.703   1.942   5.415
 4450SOL     OW14248   2.826   5.913   0.822
 4450SOL    HW114249   2.822   5.878   0.729
 4450SOL    HW214250   2.908   5.880   0.868
 4451SOL     OW14251   5.252   6.122   3.326
 4451SOL    HW114252   5.159   6.151   3.349
 4451SOL    HW214253   5.261   6.116   3.227
 4452SOL     OW14254   5.309   4.533   3.592
 4452SOL    HW114255   5.279   4.609   3.651
 4452SOL    HW214256   5.250   4.454   3.608
 4453SOL     OW14257   0.492   5.424   1.337
 4453SOL    HW114258   0.506   5.353   1.268
 4453SOL    HW214259   0.572   5.484   1.341
 4454SOL     OW14260   0.131   0.976   0.138
 4454SOL    HW114261   0.182   0.949   0.219
 4454SOL    HW214262   0.037   0.943   0.144
 4455SOL     OW14263   0.824   0.550   3.552
 4455SOL    HW114264   0.747   0.530   3.613
 4455SOL    HW214265   0.875   0.628   3.588
 4456SOL     OW14266   1.564   5.681   4.111
 4456SOL    HW114267   1.576   5.727   4.199
 4456SOL    HW214268   1.466   5.671   4.092
 4457SOL     OW14269   1.244   2.132   4.808
 4457SOL    HW114270   1.168   2.158   4.869
 4457SOL    HW214271   1.212   2.064   4.743
 4458SOL     OW14272   2.488   2.361   5.551
 4458SOL    HW114273   2.533   2.279   5.514
 4458SOL    HW214274   2.412   2.333   5.610
 4459SOL     OW14275   1.534   4.367   3.297
 4459SOL    HW114276   1.578   4.311   3.367
 4459SOL    HW214277   1.489   4.445   3.341
 4460SOL     OW14278   0.101   3.125   5.198
 4460SOL    HW114279   0.038   3.049   5.212
 4460SOL    HW214280   0.081   3.169   5.110
 4461SOL     OW14281   2.474   0.077   0.599
 4461SOL    HW114282   2.437   0.137   0.671
 4461SOL    HW214283   2.457   7.006   0.624
 4462SOL     OW14284   0.455   4.625   2.421
 4462SOL    HW114285   0.470   4.526   2.420
 4462SOL    HW214286   0.542   4.672   2.411
 4463SOL     OW14287   6.017   1.824   6.974
 4463SOL    HW114288   5.960   1.844   0.029
 4463SOL    HW214289   5.963   1.778   6.904
 4464SOL     OW14290   0.605   3.581   1.217
 4464SOL    HW114291   0.544   3.519   1.267
 4464SOL    HW214292   0.696   3.580   1.259
 4465SOL     OW14293   4.632   4.836   1.058
 4465SOL    HW114294   4.539   4.852   1.027
 4465SOL    HW214295   4.660   4.909   1.119
 4466SOL     OW14296   1.128   3.018   2.782
 4466SOL    HW114297   1.057   3.087   2.794
 4466SOL    HW214298   1.197   3.052   2.718
 4467SOL     OW14299   5.322   4.721   1.702
 4467SOL    HW114300   5.371   4.804   1.728
 4467SOL    HW214301   5.320   4.712   1.603
 4468SOL     OW14302   2.084   3.671   0.345
 4468SOL    HW114303   2.037   3.755   0.371
 4468SOL    HW214304   2.152   3.691   0.274
 4469SOL     OW14305   1.399   5.935   2.152
 4469SOL    HW114306   1.444   5.927   2.241
 4469SOL    HW214307   1.467   5.927   2.079
 4470SOL     OW14308   0.814   0.180   3.246
 4470SOL    HW114309   0.741   0.241   3.216
 4470SOL    HW214310   0.793   0.144   3.337
 4471SOL     OW14311   1.481   1.074   6.538
 4471SOL    HW114312   1.476   1.124   6.625
 4471SOL    HW214313   1.393   1.030   6.520
 4472SOL     OW14314   2.415   3.117   0.909
 4472SOL    HW114315   2.366   3.169   0.839
 4472SOL    HW214316   2.450   3.179   0.979
 4473SOL     OW14317   0.562   2.992   5.231
 4473SOL    HW114318   0.654   3.026   5.211
 4473SOL    HW214319   0.566   2.925   5.305
 4474SOL     OW14320   1.765   6.601   1.330
 4474SOL    HW114321   1.685   6.617   1.388
 4474SOL    HW214322   1.842   6.654   1.363
 4475SOL     OW14323   0.946   3.288   0.756
 4475SOL    HW114324   0.899   3.207   0.722
 4475SOL    HW214325   0.954   3.355   0.682
 4476SOL     OW14326   4.769   0.867   3.743
 4476SOL    HW114327   4.737   0.805   3.671
 4476SOL    HW214328   4.691   0.912   3.786
 4477SOL     OW14329   6.720   1.206   4.580
 4477SOL    HW114330   6.803   1.156   4.605
 4477SOL    HW214331   6.722   1.297   4.623
 4478SOL     OW14332   1.129   0.326   2.568
 4478SOL    HW114333   1.208   0.347   2.511
 4478SOL    HW214334   1.058   0.282   2.513
 4479SOL     OW14335   2.596   3.466   0.098
 4479SOL    HW114336   2.529   3.468   0.173
 4479SOL    HW214337   2.637   3.375   0.093
 4480SOL     OW14338   6.645   0.405   3.182
 4480SOL    HW114339   6.727   0.352   3.200
 4480SOL    HW214340   6.647   0.439   3.088
 4481SOL     OW14341   2.147   3.960   6.032
 4481SOL    HW114342   2.054   3.992   6.051
 4481SOL    HW214343   2.173   3.988   5.940
 4482SOL     OW14344   2.750   6.714   1.135
 4482SOL    HW114345   2.764   6.710   1.234
 4482SOL    HW214346   2.663   6.672   1.112
 4483SOL     OW14347   1.216   2.916   0.603
 4483SOL    HW114348   1.295   2.934   0.662
 4483SOL    HW214349   1.158   2.998   0.600
 4484SOL     OW14350   4.509   0.428   1.116
 4484SOL    HW114351   4.535   0.525   1.113
 4484SOL    HW214352   4.416   0.420   1.151
 4485SOL     OW14353   0.233   2.460   5.272
 4485SOL    HW114354   0.248   2.435   5.368
 4485SOL    HW214355   0.273   2.550   5.254
 4486SOL     OW14356   5.552   4.749   3.519
 4486SOL    HW114357   5.509   4.810   3.453
 4486SOL    HW214358   5.540   4.785   3.612
 4487SOL     OW14359   0.297   3.056   6.724
 4487SOL    HW114360   0.237   3.046   6.803
 4487SOL    HW214361   0.281   3.145   6.681
 4488SOL     OW14362   5.683   4.581   3.290
 4488SOL    HW114363   5.687   4.596   3.389
 4488SOL    HW214364   5.772   4.553   3.256
 4489SOL     OW14365   3.429   6.149   5.833
 4489SOL    HW114366   3.471   6.094   5.905
 4489SOL    HW214367   3.411   6.241   5.867
 4490SOL     OW14368   5.162   1.558   1.888
 4490SOL    HW114369   5.208   1.634   1.933
 4490SOL    HW214370   5.095   1.594   1.823
 4491SOL     OW14371   0.258   4.392   3.204
 4491SOL    HW114372   0.217   4.348   3.284
 4491SOL    HW214373   0.279   4.322   3.136
 4492SOL     OW14374   6.766   0.683   2.008
 4492SOL    HW114375   6.736   0.682   2.103
 4492SOL    HW214376   6.751   0.593   1.967
 4493SOL     OW14377   5.184   1.266   5.820
 4493SOL    HW114378   5.170   1.255   5.721
 4493SOL    HW214379   5.216   1.180   5.859
 4494SOL     OW14380   1.429   1.433   2.210
 4494SOL    HW114381   1.497   1.392   2.149
 4494SOL    HW214382   1.458   1.422   2.305
 4495SOL     OW14383   3.989   6.209   1.572
 4495SOL    HW114384   3.963   6.251   1.659
 4495SOL    HW214385   3.908   6.203   1.513
 4496SOL     OW14386   2.314   5.223   5.446
 4496SOL    HW114387   2.246   5.253   5.514
 4496SOL    HW214388   2.377   5.298   5.428
 4497SOL     OW14389   5.327   6.399   5.026
 4497SOL    HW114390   5.264   6.348   5.084
 4497SOL    HW214391   5.420   6.391   5.062
 4498SOL     OW14392   1.771   4.997   3.645
 4498SOL    HW114393   1.853   5.049   3.617
 4498SOL    HW214394   1.689   5.046   3.615
 4499SOL     OW14395   5.128   1.302   2.182
 4499SOL    HW114396   5.138   1.334   2.276
 4499SOL    HW214397   5.215   1.312   2.133
 4500SOL     OW14398   3.206   6.184   0.224
 4500SOL    HW114399   3.274   6.220   0.159
 4500SOL    HW214400   3.204   6.241   0.306
 4501SOL     OW14401   5.134   0.628   3.280
 4501SOL    HW114402   5.103   0.612   3.374
 4501SOL    HW214403   5.144   0.726   3.264
 4502SOL     OW14404   0.891   3.914   7.021
 4502SOL    HW114405   0.874   4.002   6.976
 4502SOL    HW214406   0.808   3.883   0.042
 4503SOL     OW14407   3.359   1.582   3.200
 4503SOL    HW114408   3.456   1.566   3.184
 4503SOL    HW214409   3.347   1.661   3.260
 4504SOL     OW14410   0.922   3.012   3.631
 4504SOL    HW114411   0.896   3.097   3.584
 4504SOL    HW214412   0.939   2.941   3.563
 4505SOL     OW14413   6.300   3.780   3.504
 4505SOL    HW114414   6.329   3.762   3.598
 4505SOL    HW214415   6.251   3.867   3.500
 4506SOL     OW14416   4.235   4.028   6.910
 4506SOL    HW114417   4.186   4.096   6.856
 4506SOL    HW214418   4.334   4.037   6.895
 4507SOL     OW14419   5.611   2.397   2.686
 4507SOL    HW114420   5.596   2.303   2.718
 4507SOL    HW214421   5.709   2.417   2.687
 4508SOL     OW14422   6.651   4.095   0.680
 4508SOL    HW114423   6.568   4.051   0.644
 4508SOL    HW214424   6.647   4.096   0.780
 4509SOL     OW14425   4.669   1.552   2.646
 4509SOL    HW114426   4.631   1.461   2.657
 4509SOL    HW214427   4.683   1.571   2.549
 4510SOL     OW14428   5.018   1.653   3.660
 4510SOL    HW114429   4.930   1.619   3.627
 4510SOL    HW214430   5.084   1.651   3.586
 4511SOL     OW14431   1.240   4.068   7.007
 4511SOL    HW114432   1.284   3.983   0.010
 4511SOL    HW214433   1.303   4.123   6.953
 4512SOL     OW14434   2.663   3.694   6.168
 4512SOL    HW114435   2.625   3.698   6.076
 4512SOL    HW214436   2.763   3.699   6.164
 4513SOL     OW14437   0.360   1.647   0.949
 4513SOL    HW114438   0.347   1.724   0.886
 4513SOL    HW214439   0.434   1.667   1.013
 4514SOL     OW14440   3.908   5.402   6.795
 4514SOL    HW114441   3.976   5.465   6.832
 4514SOL    HW214442   3.949   5.312   6.782
 4515SOL     OW14443   4.842   6.977   6.064
 4515SOL    HW114444   4.916   6.996   5.999
 4515SOL    HW214445   4.754   7.003   6.024
 4516SOL     OW14446   3.368   1.551   5.130
 4516SOL    HW114447   3.289   1.594   5.086
 4516SOL    HW214448   3.448   1.609   5.120
 4517SOL     OW14449   3.438   0.189   4.349
 4517SOL    HW114450   3.533   0.220   4.350
 4517SOL    HW214451   3.406   0.180   4.255
 4518SOL     OW14452   6.769   6.379   0.610
 4518SOL    HW114453   6.689   6.440   0.609
 4518SOL    HW214454   6.738   6.284   0.612
 4519SOL     OW14455   5.254   6.411   6.519
 4519SOL    HW114456   5.279   6.499   6.477
 4519SOL    HW214457   5.155   6.399   6.515
 4520SOL     OW14458   4.756   5.157   4.838
 4520SOL    HW114459   4.846   5.113   4.840
 4520SOL    HW214460   4.747   5.212   4.755
 4521SOL     OW14461   4.954   2.541   3.694
 4521SOL    HW114462   5.017   2.486   3.640
 4521SOL    HW214463   4.895   2.482   3.748
 4522SOL     OW14464   5.407   4.404   3.838
 4522SOL    HW114465   5.448   4.389   3.928
 4522SOL    HW214466   5.475   4.446   3.777
 4523SOL     OW14467   1.088   2.854   6.990
 4523SOL    HW114468   1.026   2.852   0.045
 4523SOL    HW214469   1.180   2.827   7.019
 4524SOL     OW14470   1.847   3.518   1.827
 4524SOL    HW114471   1.759   3.475   1.843
 4524SOL    HW214472   1.835   3.602   1.773
 4525SOL     OW14473   3.227   1.871   6.176
 4525SOL    HW114474   3.281   1.933   6.234
 4525SOL    HW214475   3.204   1.918   6.091
 4526SOL     OW14476   0.716   0.137   5.431
 4526SOL    HW114477   0.680   0.107   5.342
 4526SOL    HW214478   0.774   0.218   5.417
 4527SOL     OW14479   1.092   2.746   2.812
 4527SOL    HW114480   1.130   2.717   2.725
 4527SOL    HW214481   1.074   2.845   2.810
 4528SOL     OW14482   4.987   1.964   4.282
 4528SOL    HW114483   5.015   1.943   4.376
 4528SOL    HW214484   5.053   1.922   4.218
 4529SOL     OW14485   1.141   2.855   3.636
 4529SOL    HW114486   1.090   2.774   3.666
 4529SOL    HW214487   1.100   2.936   3.676
 4530SOL     OW14488   3.949   4.517   6.306
 4530SOL    HW114489   3.997   4.536   6.392
 4530SOL    HW214490   3.852   4.541   6.315
 4531SOL     OW14491   1.523   6.666   5.322
 4531SOL    HW114492   1.532   6.762   5.346
 4531SOL    HW214493   1.535   6.610   5.404
 4532SOL     OW14494   5.922   0.633   2.070
 4532SOL    HW114495   5.897   0.546   2.113
 4532SOL    HW214496   6.015   0.658   2.096
 4533SOL     OW14497   2.824   5.930   1.291
 4533SOL    HW114498   2.822   5.938   1.391
 4533SOL    HW214499   2.734   5.904   1.257
 4534SOL     OW14500   6.089   1.376   4.930
 4534SOL    HW114501   6.127   1.288   4.903
 4534SOL    HW214502   6.047   1.420   4.850
 4535SOL     OW14503   1.819   6.845   0.420
 4535SOL    HW114504   1.822   6.941   0.447
 4535SOL    HW214505   1.864   6.834   0.331
 4536SOL     OW14506   3.826   0.516   5.519
 4536SOL    HW114507   3.830   0.532   5.618
 4536SOL    HW214508   3.760   0.443   5.500
 4537SOL     OW14509   3.404   3.697   3.407
 4537SOL    HW114510   3.325   3.637   3.395
 4537SOL    HW214511   3.414   3.754   3.326
 4538SOL     OW14512   1.581   2.353   0.354
 4538SOL    HW114513   1.496   2.302   0.345
 4538SOL    HW214514   1.576   2.413   0.435
 4539SOL     OW14515   1.063   4.955   5.495
 4539SOL    HW114516   1.105   5.045   5.486
 4539SOL    HW214517   1.021   4.946   5.586
 4540SOL     OW14518   1.795   1.392   0.248
 4540SOL    HW114519   1.730   1.321   0.222
 4540SOL    HW214520   1.848   1.421   0.168
 4541SOL     OW14521   4.224   2.824   0.182
 4541SOL    HW114522   4.189   2.859   0.095
 4541SOL    HW214523   4.176   2.868   0.258
 4542SOL     OW14524   0.051   2.119   0.768
 4542SOL    HW114525   6.984   2.155   0.755
 4542SOL    HW214526   0.062   2.036   0.714
 4543SOL     OW14527   4.364   1.094   0.959
 4543SOL    HW114528   4.368   1.107   1.058
 4543SOL    HW214529   4.328   1.177   0.915
 4544SOL     OW14530   4.961   5.976   0.138
 4544SOL    HW114531   5.034   5.931   0.188
 4544SOL    HW214532   4.875   5.927   0.152
 4545SOL     OW14533   2.760   3.102   5.839
 4545SOL    HW114534   2.783   3.088   5.743
 4545SOL    HW214535   2.724   3.194   5.852
 4546SOL     OW14536   5.242   6.578   5.494
 4546SOL    HW114537   5.309   6.518   5.538
 4546SOL    HW214538   5.282   6.618   5.411
 4547SOL     OW14539   6.935   0.194   0.965
 4547SOL    HW114540   6.967   0.101   0.985
 4547SOL    HW214541   6.931   0.207   0.866
 4548SOL     OW14542   3.487   0.878   1.790
 4548SOL    HW114543   3.449   0.843   1.876
 4548SOL    HW214544   3.445   0.966   1.768
 4549SOL     OW14545   6.843   5.279   3.656
 4549SOL    HW114546   6.869   5.352   3.594
 4549SOL    HW214547   6.853   5.191   3.610
 4550SOL     OW14548   2.319   5.846   6.812
 4550SOL    HW114549   2.334   5.859   6.910
 4550SOL    HW214550   2.405   5.822   6.768
 4551SOL     OW14551   3.540   3.174   6.156
 4551SOL    HW114552   3.484   3.091   6.149
 4551SOL    HW214553   3.493   3.241   6.214
 4552SOL     OW14554   5.800   0.374   6.447
 4552SOL    HW114555   5.706   0.361   6.416
 4552SOL    HW214556   5.854   0.294   6.422
 4553SOL     OW14557   6.960   6.862   0.796
 4553SOL    HW114558   6.919   6.889   0.883
 4553SOL    HW214559   6.894   6.877   0.722
 4554SOL     OW14560   5.690   6.137   3.153
 4554SOL    HW114561   5.679   6.093   3.242
 4554SOL    HW214562   5.778   6.110   3.113
 4555SOL     OW14563   0.618   0.327   3.136
 4555SOL    HW114564   0.689   0.385   3.097
 4555SOL    HW214565   0.543   0.317   3.070
 4556SOL     OW14566   5.252   4.965   4.713
 4556SOL    HW114567   5.256   4.893   4.783
 4556SOL    HW214568   5.344   4.983   4.678
 4557SOL     OW14569   0.288   5.846   5.372
 4557SOL    HW114570   0.366   5.846   5.434
 4557SOL    HW214571   0.242   5.758   5.377
 4558SOL     OW14572   0.749   4.448   3.637
 4558SOL    HW114573   0.817   4.464   3.708
 4558SOL    HW214574   0.758   4.355   3.602
 4559SOL     OW14575   0.076   3.238   4.548
 4559SOL    HW114576   0.130   3.281   4.475
 4559SOL    HW214577   0.108   3.144   4.561
 4560SOL     OW14578   6.569   3.163   4.517
 4560SOL    HW114579   6.500   3.131   4.582
 4560SOL    HW214580   6.593   3.258   4.538
 4561SOL     OW14581   5.524   3.492   4.671
 4561SOL    HW114582   5.567   3.550   4.602
 4561SOL    HW214583   5.592   3.465   4.739
 4562SOL     OW14584   4.982   1.154   1.133
 4562SOL    HW114585   4.978   1.180   1.037
 4562SOL    HW214586   5.074   1.170   1.168
 4563SOL     OW14587   1.032   3.769   2.758
 4563SOL    HW114588   1.040   3.793   2.854
 4563SOL    HW214589   1.072   3.841   2.701
 4564SOL     OW14590   2.061   3.536   2.208
 4564SOL    HW114591   2.115   3.523   2.125
 4564SOL    HW214592   2.045   3.634   2.222
 4565SOL     OW14593   1.932   6.282   4.889
 4565SOL    HW114594   1.922   6.334   4.805
 4565SOL    HW214595   1.896   6.335   4.966
 4566SOL     OW14596   6.855   5.007   3.016
 4566SOL    HW114597   6.906   5.075   2.962
 4566SOL    HW214598   6.904   4.989   3.101
 4567SOL     OW14599   1.792   0.374   0.401
 4567SOL    HW114600   1.763   0.380   0.306
 4567SOL    HW214601   1.713   0.354   0.459
 4568SOL     OW14602   6.791   4.432   4.244
 4568SOL    HW114603   6.833   4.522   4.257
 4568SOL    HW214604   6.843   4.363   4.294
 4569SOL     OW14605   6.801   2.332   3.475
 4569SOL    HW114606   6.869   2.265   3.505
 4569SOL    HW214607   6.772   2.310   3.382
 4570SOL     OW14608   4.863   5.623   1.536
 4570SOL    HW114609   4.905   5.545   1.582
 4570SOL    HW214610   4.763   5.613   1.538
 4571SOL     OW14611   2.220   2.418   5.131
 4571SOL    HW114612   2.126   2.388   5.113
 4571SOL    HW214613   2.250   2.478   5.057
 4572SOL     OW14614   5.214   3.119   1.889
 4572SOL    HW114615   5.246   3.186   1.955
 4572SOL    HW214616   5.141   3.065   1.929
 4573SOL     OW14617   2.785   4.527   1.183
 4573SOL    HW114618   2.867   4.576   1.152
 4573SOL    HW214619   2.723   4.591   1.228
 4574SOL     OW14620   4.673   0.387   2.093
 4574SOL    HW114621   4.669   0.463   2.028
 4574SOL    HW214622   4.603   0.399   2.163
 4575SOL     OW14623   0.140   1.913   5.172
 4575SOL    HW114624   0.123   1.894   5.269
 4575SOL    HW214625   0.239   1.914   5.155
 4576SOL     OW14626   3.084   3.651   7.021
 4576SOL    HW114627   2.996   3.661   6.974
 4576SOL    HW214628   3.156   3.695   6.966
 4577SOL     OW14629   0.566   1.635   2.191
 4577SOL    HW114630   0.532   1.542   2.194
 4577SOL    HW214631   0.650   1.639   2.137
 4578SOL     OW14632   2.192   0.654   2.355
 4578SOL    HW114633   2.215   0.750   2.339
 4578SOL    HW214634   2.166   0.641   2.451
 4579SOL     OW14635   3.647   0.870   2.609
 4579SOL    HW114636   3.579   0.798   2.598
 4579SOL    HW214637   3.659   0.890   2.706
 4580SOL     OW14638   0.986   0.133   1.346
 4580SOL    HW114639   1.082   0.158   1.353
 4580SOL    HW214640   0.947   0.123   1.438
 4581SOL     OW14641   3.452   0.621   1.309
 4581SOL    HW114642   3.458   0.578   1.399
 4581SOL    HW214643   3.512   0.574   1.245
 4582SOL     OW14644   5.548   1.293   4.751
 4582SOL    HW114645   5.625   1.268   4.691
 4582SOL    HW214646   5.482   1.348   4.699
 4583SOL     OW14647   1.750   5.859   6.791
 4583SOL    HW114648   1.683   5.894   6.725
 4583SOL    HW214649   1.832   5.916   6.790
 4584SOL     OW14650   6.390   0.782   4.281
 4584SOL    HW114651   6.442   0.767   4.197
 4584SOL    HW214652   6.360   0.877   4.286
 4585SOL     OW14653   1.560   3.175   2.555
 4585SOL    HW114654   1.614   3.237   2.612
 4585SOL    HW214655   1.621   3.127   2.492
 4586SOL     OW14656   0.489   4.203   5.900
 4586SOL    HW114657   0.447   4.279   5.850
 4586SOL    HW214658   0.577   4.180   5.858
 4587SOL     OW14659   4.265   3.305   5.942
 4587SOL    HW114660   4.186   3.349   5.985
 4587SOL    HW214661   4.292   3.225   5.996
 4588SOL     OW14662   2.120   4.849   6.516
 4588SOL    HW114663   2.064   4.829   6.597
 4588SOL    HW214664   2.118   4.947   6.498
 4589SOL     OW14665   5.078   5.980   2.240
 4589SOL    HW114666   4.994   5.962   2.291
 4589SOL    HW214667   5.107   5.896   2.194
 4590SOL     OW14668   2.117   5.278   1.717
 4590SOL    HW114669   2.119   5.187   1.674
 4590SOL    HW214670   2.211   5.309   1.732
 4591SOL     OW14671   2.309   1.916   5.105
 4591SOL    HW114672   2.325   1.898   5.008
 4591SOL    HW214673   2.352   2.002   5.131
 4592SOL     OW14674   2.613   2.320   2.728
 4592SOL    HW114675   2.639   2.302   2.633
 4592SOL    HW214676   2.691   2.301   2.788
 4593SOL     OW14677   1.914   5.601   4.753
 4593SOL    HW114678   1.885   5.605   4.658
 4593SOL    HW214679   1.851   5.543   4.805
 4594SOL     OW14680   0.766   6.748   3.458
 4594SOL    HW114681   0.767   6.816   3.532
 4594SOL    HW214682   0.859   6.735   3.425
 4595SOL     OW14683   5.596   1.490   6.708
 4595SOL    HW114684   5.651   1.438   6.774
 4595SOL    HW214685   5.567   1.577   6.749
 4596SOL     OW14686   0.771   1.342   2.255
 4596SOL    HW114687   0.803   1.263   2.307
 4596SOL    HW214688   0.850   1.391   2.218
 4597SOL     OW14689   1.821   5.295   0.487
 4597SOL    HW114690   1.900   5.352   0.511
 4597SOL    HW214691   1.845   5.237   0.410
 4598SOL     OW14692   0.718   2.142   0.246
 4598SOL    HW114693   0.783   2.068   0.230
 4598SOL    HW214694   0.745   2.223   0.195
 4599SOL     OW14695   2.866   6.447   3.003
 4599SOL    HW114696   2.921   6.530   3.012
 4599SOL    HW214697   2.769   6.470   3.006
 4600SOL     OW14698   0.119   6.794   5.609
 4600SOL    HW114699   0.192   6.736   5.575
 4600SOL    HW214700   0.145   6.832   5.698
 4601SOL     OW14701   1.651   1.135   4.986
 4601SOL    HW114702   1.689   1.228   4.986
 4601SOL    HW214703   1.561   1.136   4.943
 4602SOL     OW14704   4.507   0.595   5.365
 4602SOL    HW114705   4.544   0.620   5.455
 4602SOL    HW214706   4.566   0.630   5.293
 4603SOL     OW14707   4.696   6.584   0.455
 4603SOL    HW114708   4.693   6.572   0.555
 4603SOL    HW214709   4.762   6.520   0.416
 4604SOL     OW14710   0.401   6.777   3.555
 4604SOL    HW114711   0.470   6.736   3.615
 4604SOL    HW214712   0.380   6.715   3.480
 4605SOL     OW14713   4.144   1.500   2.090
 4605SOL    HW114714   4.177   1.412   2.124
 4605SOL    HW214715   4.053   1.488   2.051
 4606SOL     OW14716   6.781   0.063   4.692
 4606SOL    HW114717   6.736   0.137   4.741
 4606SOL    HW214718   6.868   0.095   4.655
 4607SOL     OW14719   2.522   1.881   1.061
 4607SOL    HW114720   2.567   1.958   1.106
 4607SOL    HW214721   2.472   1.827   1.128
 4608SOL     OW14722   0.384   2.537   5.758
 4608SOL    HW114723   0.401   2.441   5.780
 4608SOL    HW214724   0.465   2.591   5.782
 4609SOL     OW14725   5.487   5.206   6.184
 4609SOL    HW114726   5.557   5.232   6.117
 4609SOL    HW214727   5.396   5.227   6.147
 4610SOL     OW14728   4.799   3.808   6.462
 4610SOL    HW114729   4.721   3.850   6.417
 4610SOL    HW214730   4.871   3.790   6.395
 4611SOL     OW14731   0.457   0.420   6.627
 4611SOL    HW114732   0.488   0.464   6.711
 4611SOL    HW214733   0.534   0.408   6.565
 4612SOL     OW14734   1.574   0.584   2.147
 4612SOL    HW114735   1.545   0.506   2.090
 4612SOL    HW214736   1.638   0.551   2.217
 4613SOL     OW14737   1.416   4.878   3.777
 4613SOL    HW114738   1.513   4.871   3.800
 4613SOL    HW214739   1.364   4.810   3.828
 4614SOL     OW14740   6.596   4.782   2.647
 4614SOL    HW114741   6.548   4.700   2.680
 4614SOL    HW214742   6.595   4.783   2.547
 4615SOL     OW14743   0.705   4.524   6.792
 4615SOL    HW114744   0.638   4.478   6.850
 4615SOL    HW214745   0.796   4.487   6.812
 4616SOL     OW14746   1.731   4.804   6.216
 4616SOL    HW114747   1.704   4.813   6.120
 4616SOL    HW214748   1.829   4.821   6.226
 4617SOL     OW14749   0.801   4.584   4.311
 4617SOL    HW114750   0.727   4.575   4.244
 4617SOL    HW214751   0.875   4.640   4.272
 4618SOL     OW14752   2.140   4.441   5.268
 4618SOL    HW114753   2.151   4.343   5.253
 4618SOL    HW214754   2.111   4.458   5.362
 4619SOL     OW14755   4.898   5.925   6.840
 4619SOL    HW114756   4.917   5.941   6.937
 4619SOL    HW214757   4.837   5.847   6.830
 4620SOL     OW14758   0.850   4.805   1.947
 4620SOL    HW114759   0.774   4.739   1.942
 4620SOL    HW214760   0.826   4.886   1.894
 4621SOL     OW14761   2.507   0.550   2.691
 4621SOL    HW114762   2.514   0.544   2.591
 4621SOL    HW214763   2.564   0.479   2.732
 4622SOL     OW14764   5.973   6.744   0.858
 4622SOL    HW114765   5.951   6.806   0.782
 4622SOL    HW214766   6.048   6.684   0.832
 4623SOL     OW14767   2.840   4.782   2.471
 4623SOL    HW114768   2.808   4.876   2.478
 4623SOL    HW214769   2.824   4.734   2.558
 4624SOL     OW14770   5.566   1.699   0.321
 4624SOL    HW114771   5.494   1.730   0.259
 4624SOL    HW214772   5.633   1.645   0.271
 4625SOL     OW14773   0.637   0.071   1.663
 4625SOL    HW114774   0.542   0.077   1.693
 4625SOL    HW214775   0.643   0.011   1.584
 4626SOL     OW14776   4.296   4.087   1.637
 4626SOL    HW114777   4.202   4.120   1.648
 4626SOL    HW214778   4.352   4.120   1.713
 4627SOL     OW14779   5.662   6.234   4.705
 4627SOL    HW114780   5.739   6.249   4.643
 4627SOL    HW214781   5.625   6.322   4.734
 4628SOL     OW14782   6.225   3.276   2.402
 4628SOL    HW114783   6.158   3.331   2.352
 4628SOL    HW214784   6.243   3.191   2.352
 4629SOL     OW14785   1.375   5.239   1.359
 4629SOL    HW114786   1.350   5.328   1.397
 4629SOL    HW214787   1.292   5.190   1.332
 4630SOL     OW14788   1.710   3.377   1.565
 4630SOL    HW114789   1.698   3.476   1.573
 4630SOL    HW214790   1.750   3.342   1.649
 4631SOL     OW14791   5.687   1.405   1.546
 4631SOL    HW114792   5.657   1.344   1.619
 4631SOL    HW214793   5.720   1.491   1.586
 4632SOL     OW14794   2.590   5.020   3.692
 4632SOL    HW114795   2.580   4.921   3.694
 4632SOL    HW214796   2.654   5.046   3.621
 4633SOL     OW14797   5.355   3.544   3.460
 4633SOL    HW114798   5.291   3.512   3.529
 4633SOL    HW214799   5.411   3.468   3.428
 4634SOL     OW14800   3.981   2.957   5.189
 4634SOL    HW114801   3.900   2.935   5.134
 4634SOL    HW214802   4.026   3.037   5.151
 4635SOL     OW14803   4.337   0.164   2.246
 4635SOL    HW114804   4.393   0.104   2.188
 4635SOL    HW214805   4.376   0.166   2.338
 4636SOL     OW14806   1.451   5.708   6.868
 4636SOL    HW114807   1.483   5.747   6.955
 4636SOL    HW214808   1.529   5.684   6.811
 4637SOL     OW14809   2.096   2.592   3.385
 4637SOL    HW114810   2.152   2.674   3.379
 4637SOL    HW214811   2.086   2.566   3.481
 4638SOL     OW14812   4.215   4.272   6.500
 4638SOL    HW114813   4.132   4.250   6.449
 4638SOL    HW214814   4.201   4.252   6.597
 4639SOL     OW14815   3.824   2.660   1.596
 4639SOL    HW114816   3.739   2.620   1.630
 4639SOL    HW214817   3.833   2.754   1.630
 4640SOL     OW14818   0.248   2.148   0.942
 4640SOL    HW114819   0.172   2.128   0.881
 4640SOL    HW214820   0.308   2.215   0.899
 4641SOL     OW14821   1.043   6.071   4.815
 4641SOL    HW114822   1.002   6.161   4.799
 4641SOL    HW214823   1.138   6.071   4.785
 4642SOL     OW14824   5.375   1.231   6.423
 4642SOL    HW114825   5.464   1.193   6.400
 4642SOL    HW214826   5.315   1.229   6.343
 4643SOL     OW14827   1.068   1.851   0.374
 4643SOL    HW114828   1.077   1.889   0.466
 4643SOL    HW214829   1.150   1.800   0.351
 4644SOL     OW14830   1.267   1.946   0.839
 4644SOL    HW114831   1.260   1.904   0.929
 4644SOL    HW214832   1.350   1.915   0.794
 4645SOL     OW14833   5.656   2.620   5.883
 4645SOL    HW114834   5.585   2.631   5.814
 4645SOL    HW214835   5.668   2.523   5.905
 4646SOL     OW14836   1.039   3.901   2.218
 4646SOL    HW114837   0.960   3.865   2.168
 4646SOL    HW214838   1.026   3.999   2.236
 4647SOL     OW14839   1.486   5.850   2.414
 4647SOL    HW114840   1.475   5.930   2.473
 4647SOL    HW214841   1.437   5.772   2.454
 4648SOL     OW14842   2.791   1.438   4.292
 4648SOL    HW114843   2.742   1.482   4.367
 4648SOL    HW214844   2.842   1.360   4.327
 4649SOL     OW14845   4.612   3.230   1.577
 4649SOL    HW114846   4.574   3.317   1.609
 4649SOL    HW214847   4.569   3.154   1.626
 4650SOL     OW14848   3.870   4.965   0.703
 4650SOL    HW114849   3.948   4.975   0.641
 4650SOL    HW214850   3.804   5.038   0.686
 4651SOL     OW14851   1.559   3.041   6.937
 4651SOL    HW114852   1.615   3.048   7.019
 4651SOL    HW214853   1.573   2.952   6.894
 4652SOL     OW14854   6.493   0.193   5.647
 4652SOL    HW114855   6.476   0.184   5.745
 4652SOL    HW214856   6.432   0.132   5.597
 4653SOL     OW14857   1.183   6.782   0.668
 4653SOL    HW114858   1.096   6.812   0.628
 4653SOL    HW214859   1.259   6.823   0.617
 4654SOL     OW14860   0.975   0.997   5.169
 4654SOL    HW114861   0.898   1.061   5.174
 4654SOL    HW214862   0.996   0.963   5.261
 4655SOL     OW14863   5.736   5.135   3.095
 4655SOL    HW114864   5.782   5.166   3.011
 4655SOL    HW214865   5.798   5.076   3.147
 4656SOL     OW14866   6.286   0.491   1.295
 4656SOL    HW114867   6.347   0.570   1.305
 4656SOL    HW214868   6.302   0.448   1.206
 4657SOL     OW14869   3.474   2.042   2.237
 4657SOL    HW114870   3.385   2.007   2.206
 4657SOL    HW214871   3.505   2.114   2.175
 4658SOL     OW14872   1.836   1.283   0.518
 4658SOL    HW114873   1.785   1.198   0.533
 4658SOL    HW214874   1.833   1.307   0.421
 4659SOL     OW14875   2.395   4.947   0.783
 4659SOL    HW114876   2.423   4.865   0.733
 4659SOL    HW214877   2.295   4.950   0.787
 4660SOL     OW14878   0.230   4.783   4.768
 4660SOL    HW114879   0.253   4.692   4.802
 4660SOL    HW214880   0.138   4.783   4.730
 4661SOL     OW14881   0.498   0.881   5.383
 4661SOL    HW114882   0.406   0.843   5.391
 4661SOL    HW214883   0.496   0.961   5.322
 4662SOL     OW14884   2.959   6.999   6.495
 4662SOL    HW114885   3.020   0.047   6.463
 4662SOL    HW214886   2.865   7.020   6.467
 4663SOL     OW14887   0.157   0.324   0.985
 4663SOL    HW114888   0.176   0.338   0.888
 4663SOL    HW214889   0.066   0.282   0.996
 4664SOL     OW14890   6.236   6.300   5.182
 4664SOL    HW114891   6.334   6.321   5.187
 4664SOL    HW214892   6.195   6.314   5.272
 4665SOL     OW14893   0.394   1.220   2.639
 4665SOL    HW114894   0.394   1.295   2.573
 4665SOL    HW214895   0.437   1.140   2.599
 4666SOL     OW14896   1.768   2.568   5.828
 4666SOL    HW114897   1.735   2.570   5.923
 4666SOL    HW214898   1.868   2.566   5.828
 4667SOL     OW14899   6.704   2.268   1.086
 4667SOL    HW114900   6.767   2.321   1.142
 4667SOL    HW214901   6.623   2.324   1.066
 4668SOL     OW14902   4.573   2.029   4.974
 4668SOL    HW114903   4.477   2.009   4.992
 4668SOL    HW214904   4.626   2.015   5.058
 4669SOL     OW14905   5.685   6.053   6.143
 4669SOL    HW114906   5.705   5.971   6.196
 4669SOL    HW214907   5.753   6.123   6.163
 4670SOL     OW14908   0.416   3.246   0.409
 4670SOL    HW114909   0.476   3.317   0.445
 4670SOL    HW214910   0.367   3.281   0.330
 4671SOL     OW14911   0.063   1.670   1.911
 4671SOL    HW114912   6.997   1.690   1.874
 4671SOL    HW214913   0.115   1.616   1.844
 4672SOL     OW14914   4.511   3.010   0.629
 4672SOL    HW114915   4.456   3.073   0.575
 4672SOL    HW214916   4.454   2.933   0.659
 4673SOL     OW14917   4.677   1.352   0.511
 4673SOL    HW114918   4.769   1.365   0.548
 4673SOL    HW214919   4.683   1.310   0.421
 4674SOL     OW14920   1.254   3.279   0.408
 4674SOL    HW114921   1.315   3.216   0.360
 4674SOL    HW214922   1.163   3.276   0.366
 4675SOL     OW14923   2.008   6.706   0.218
 4675SOL    HW114924   2.094   6.690   0.268
 4675SOL    HW214925   1.999   6.638   0.146
 4676SOL     OW14926   0.663   5.544   4.596
 4676SOL    HW114927   0.631   5.551   4.502
 4676SOL    HW214928   0.585   5.539   4.658
 4677SOL     OW14929   5.001   0.042   0.058
 4677SOL    HW114930   5.035   0.064   6.991
 4677SOL    HW214931   5.078   0.014   0.115
 4678SOL     OW14932   2.528   5.068   0.385
 4678SOL    HW114933   2.544   4.970   0.399
 4678SOL    HW214934   2.526   5.114   0.474
 4679SOL     OW14935   2.157   6.719   5.599
 4679SOL    HW114936   2.148   6.738   5.502
 4679SOL    HW214937   2.113   6.632   5.621
 4680SOL     OW14938   1.524   5.502   5.980
 4680SOL    HW114939   1.584   5.577   6.006
 4680SOL    HW214940   1.431   5.520   6.014
 4681SOL     OW14941   6.514   6.384   5.248
 4681SOL    HW114942   6.519   6.463   5.187
 4681SOL    HW214943   6.597   6.378   5.302
 4682SOL     OW14944   3.278   6.984   0.805
 4682SOL    HW114945   3.187   6.949   0.827
 4682SOL    HW214946   3.325   6.920   0.744
 4683SOL     OW14947   0.639   4.886   3.685
 4683SOL    HW114948   0.665   4.954   3.754
 4683SOL    HW214949   0.596   4.808   3.730
 4684SOL     OW14950   2.453   1.023   5.250
 4684SOL    HW114951   2.388   1.056   5.182
 4684SOL    HW214952   2.444   0.924   5.259
 4685SOL     OW14953   5.722   4.735   4.029
 4685SOL    HW114954   5.739   4.636   4.037
 4685SOL    HW214955   5.799   4.785   4.070
 4686SOL     OW14956   4.557   5.259   6.256
 4686SOL    HW114957   4.642   5.278   6.208
 4686SOL    HW214958   4.479   5.283   6.197
 4687SOL     OW14959   4.247   1.168   4.854
 4687SOL    HW114960   4.158   1.178   4.899
 4687SOL    HW214961   4.299   1.095   4.899
 4688SOL     OW14962   6.906   0.801   1.083
 4688SOL    HW114963   6.839   0.751   1.137
 4688SOL    HW214964   6.966   0.737   1.035
 4689SOL     OW14965   1.993   5.506   4.453
 4689SOL    HW114966   1.991   5.598   4.413
 4689SOL    HW214967   1.899   5.476   4.472
 4690SOL     OW14968   2.783   2.030   0.395
 4690SOL    HW114969   2.877   2.059   0.382
 4690SOL    HW214970   2.751   1.980   0.314
 4691SOL     OW14971   3.050   4.817   7.010
 4691SOL    HW114972   3.142   4.796   0.017
 4691SOL    HW214973   3.047   4.812   6.910
 4692SOL     OW14974   0.808   4.819   3.204
 4692SOL    HW114975   0.901   4.803   3.169
 4692SOL    HW214976   0.760   4.732   3.210
 4693SOL     OW14977   0.782   2.031   2.329
 4693SOL    HW114978   0.709   1.966   2.350
 4693SOL    HW214979   0.747   2.099   2.264
 4694SOL     OW14980   1.809   0.902   4.993
 4694SOL    HW114981   1.746   0.978   4.981
 4694SOL    HW214982   1.787   0.830   4.927
 4695SOL     OW14983   3.099   3.520   3.178
 4695SOL    HW114984   3.121   3.480   3.267
 4695SOL    HW214985   3.055   3.609   3.191
 4696SOL     OW14986   0.296   2.535   6.917
 4696SOL    HW114987   0.349   2.619   6.927
 4696SOL    HW214988   0.356   2.462   6.883
 4697SOL     OW14989   0.641   5.105   6.950
 4697SOL    HW114990   0.574   5.154   6.894
 4697SOL    HW214991   0.714   5.169   6.978
 4698SOL     OW14992   5.325   3.092   2.501
 4698SOL    HW114993   5.416   3.078   2.539
 4698SOL    HW214994   5.320   3.183   2.460
 4699SOL     OW14995   6.875   0.241   3.213
 4699SOL    HW114996   6.874   0.180   3.134
 4699SOL    HW214997   6.872   0.187   3.297
 4700SOL     OW14998   5.338   0.267   5.053
 4700SOL    HW114999   5.276   0.320   5.110
 4700SOL    HW215000   5.288   0.192   5.009
 4701SOL     OW15001   2.103   0.895   6.168
 4701SOL    HW115002   2.089   0.825   6.237
 4701SOL    HW215003   2.106   0.852   6.077
 4702SOL     OW15004   3.619   2.693   1.076
 4702SOL    HW115005   3.640   2.781   1.116
 4702SOL    HW215006   3.588   2.630   1.147
 4703SOL     OW15007   0.693   6.413   1.920
 4703SOL    HW115008   0.676   6.321   1.956
 4703SOL    HW215009   0.667   6.481   1.989
 4704SOL     OW15010   4.425   6.802   6.304
 4704SOL    HW115011   4.473   6.745   6.237
 4704SOL    HW215012   4.376   6.743   6.368
 4705SOL     OW15013   3.769   2.929   4.967
 4705SOL    HW115014   3.759   2.832   4.946
 4705SOL    HW215015   3.683   2.963   5.006
 4706SOL     OW15016   5.640   3.388   0.127
 4706SOL    HW115017   5.729   3.347   0.146
 4706SOL    HW215018   5.574   3.359   0.197
 4707SOL     OW15019   2.858   4.523   0.670
 4707SOL    HW115020   2.785   4.521   0.738
 4707SOL    HW215021   2.870   4.432   0.631
 4708SOL     OW15022   2.082   2.835   2.342
 4708SOL    HW115023   2.082   2.892   2.424
 4708SOL    HW215024   2.177   2.817   2.314
 4709SOL     OW15025   2.918   3.973   0.143
 4709SOL    HW115026   2.933   3.875   0.158
 4709SOL    HW215027   2.968   4.025   0.213
 4710SOL     OW15028   4.775   2.635   1.211
 4710SOL    HW115029   4.757   2.682   1.298
 4710SOL    HW215030   4.873   2.637   1.193
 4711SOL     OW15031   2.907   0.016   3.560
 4711SOL    HW115032   2.863   6.956   3.528
 4711SOL    HW215033   3.006   0.005   3.559
 4712SOL     OW15034   1.299   3.572   6.788
 4712SOL    HW115035   1.244   3.510   6.732
 4712SOL    HW215036   1.239   3.637   6.834
 4713SOL     OW15037   0.741   5.791   1.179
 4713SOL    HW115038   0.710   5.843   1.100
 4713SOL    HW215039   0.739   5.850   1.260
 4714SOL     OW15040   4.279   2.136   1.066
 4714SOL    HW115041   4.199   2.164   1.120
 4714SOL    HW215042   4.361   2.178   1.105
 4715SOL     OW15043   4.954   3.382   4.832
 4715SOL    HW115044   5.007   3.349   4.910
 4715SOL    HW215045   4.884   3.447   4.865
 4716SOL     OW15046   2.071   5.652   6.315
 4716SOL    HW115047   2.024   5.700   6.389
 4716SOL    HW215048   2.027   5.563   6.299
 4717SOL     OW15049   1.979   4.984   4.991
 4717SOL    HW115050   1.917   4.998   5.067
 4717SOL    HW215051   2.041   4.908   5.011
 4718SOL     OW15052   4.833   6.634   0.189
 4718SOL    HW115053   4.876   6.543   0.193
 4718SOL    HW215054   4.828   6.664   0.094
 4719SOL     OW15055   4.641   3.190   1.317
 4719SOL    HW115056   4.631   3.247   1.399
 4719SOL    HW215057   4.606   3.098   1.336
 4720SOL     OW15058   2.081   2.033   3.555
 4720SOL    HW115059   2.049   2.017   3.461
 4720SOL    HW215060   2.180   2.019   3.560
 4721SOL     OW15061   1.784   1.470   1.719
 4721SOL    HW115062   1.747   1.489   1.628
 4721SOL    HW215063   1.884   1.479   1.717
 4722SOL     OW15064   2.460   1.075   2.933
 4722SOL    HW115065   2.458   1.023   3.018
 4722SOL    HW215066   2.480   1.171   2.953
 4723SOL     OW15067   2.823   0.344   5.470
 4723SOL    HW115068   2.841   0.442   5.474
 4723SOL    HW215069   2.808   0.309   5.562
 4724SOL     OW15070   4.386   5.528   1.177
 4724SOL    HW115071   4.474   5.481   1.181
 4724SOL    HW215072   4.356   5.549   1.270
 4725SOL     OW15073   6.018   5.011   2.800
 4725SOL    HW115074   6.060   4.957   2.872
 4725SOL    HW215075   5.946   4.958   2.756
 4726SOL     OW15076   6.647   6.558   4.407
 4726SOL    HW115077   6.621   6.653   4.420
 4726SOL    HW215078   6.579   6.498   4.449
 4727SOL     OW15079   5.119   6.516   1.691
 4727SOL    HW115080   5.174   6.511   1.775
 4727SOL    HW215081   5.155   6.589   1.633
 4728SOL     OW15082   6.693   6.549   6.493
 4728SOL    HW115083   6.721   6.633   6.448
 4728SOL    HW215084   6.769   6.484   6.492
 4729SOL     OW15085   3.238   0.764   1.278
 4729SOL    HW115086   3.194   0.751   1.367
 4729SOL    HW215087   3.322   0.710   1.274
 4730SOL     OW15088   1.675   0.694   6.340
 4730SOL    HW115089   1.625   0.778   6.358
 4730SOL    HW215090   1.723   0.701   6.253
 4731SOL     OW15091   4.450   1.392   5.680
 4731SOL    HW115092   4.510   1.449   5.625
 4731SOL    HW215093   4.355   1.418   5.664
 4732SOL     OW15094   0.488   6.864   6.387
 4732SOL    HW115095   0.402   6.819   6.411
 4732SOL    HW215096   0.564   6.802   6.405
 4733SOL     OW15097   5.657   3.900   3.167
 4733SOL    HW115098   5.746   3.859   3.146
 4733SOL    HW215099   5.622   3.861   3.252
 4734SOL     OW15100   6.561   3.517   6.103
 4734SOL    HW115101   6.478   3.572   6.115
 4734SOL    HW215102   6.571   3.455   6.181
 4735SOL     OW15103   0.258   4.143   3.692
 4735SOL    HW115104   0.302   4.060   3.726
 4735SOL    HW215105   0.160   4.139   3.712
 4736SOL     OW15106   1.467   6.922   2.353
 4736SOL    HW115107   1.415   6.881   2.429
 4736SOL    HW215108   1.426   6.894   2.266
 4737SOL     OW15109   3.351   5.048   2.179
 4737SOL    HW115110   3.261   5.016   2.209
 4737SOL    HW215111   3.373   5.134   2.225
 4738SOL     OW15112   1.058   0.059   3.237
 4738SOL    HW115113   0.963   0.090   3.235
 4738SOL    HW215114   1.117   0.130   3.201
 4739SOL     OW15115   3.855   0.074   1.644
 4739SOL    HW115116   3.822   0.124   1.564
 4739SOL    HW215117   3.863   0.138   1.721
 4740SOL     OW15118   0.811   1.579   4.505
 4740SOL    HW115119   0.744   1.533   4.563
 4740SOL    HW215120   0.879   1.512   4.473
 4741SOL     OW15121   3.633   4.016   3.151
 4741SOL    HW115122   3.730   4.009   3.172
 4741SOL    HW215123   3.619   4.084   3.079
 4742SOL     OW15124   4.830   1.023   2.951
 4742SOL    HW115125   4.780   0.939   2.973
 4742SOL    HW215126   4.837   1.080   3.033
 4743SOL     OW15127   0.688   5.009   0.683
 4743SOL    HW115128   0.628   4.972   0.755
 4743SOL    HW215129   0.733   5.091   0.717
 4744SOL     OW15130   1.552   4.830   1.549
 4744SOL    HW115131   1.500   4.774   1.485
 4744SOL    HW215132   1.555   4.924   1.517
 4745SOL     OW15133   1.748   2.998   0.184
 4745SOL    HW115134   1.678   2.949   0.236
 4745SOL    HW215135   1.775   3.081   0.233
 4746SOL     OW15136   5.841   5.756   4.589
 4746SOL    HW115137   5.810   5.839   4.542
 4746SOL    HW215138   5.763   5.707   4.626
 4747SOL     OW15139   4.113   0.773   1.144
 4747SOL    HW115140   4.023   0.772   1.100
 4747SOL    HW215141   4.110   0.719   1.228
 4748SOL     OW15142   1.991   6.879   3.468
 4748SOL    HW115143   2.024   6.846   3.557
 4748SOL    HW215144   1.891   6.888   3.472
 4749SOL     OW15145   2.202   0.995   1.444
 4749SOL    HW115146   2.257   1.072   1.411
 4749SOL    HW215147   2.119   1.030   1.488
 4750SOL     OW15148   5.491   3.113   6.596
 4750SOL    HW115149   5.508   3.170   6.676
 4750SOL    HW215150   5.408   3.145   6.549
 4751SOL     OW15151   3.798   1.755   2.604
 4751SOL    HW115152   3.721   1.701   2.637
 4751SOL    HW215153   3.865   1.765   2.677
 4752SOL     OW15154   5.906   6.902   0.086
 4752SOL    HW115155   5.965   6.843   0.030
 4752SOL    HW215156   5.859   6.967   0.027
 4753SOL     OW15157   2.998   5.408   4.970
 4753SOL    HW115158   2.910   5.425   5.015
 4753SOL    HW215159   3.059   5.485   4.986
 4754SOL     OW15160   5.743   4.650   0.583
 4754SOL    HW115161   5.784   4.620   0.496
 4754SOL    HW215162   5.737   4.571   0.645
 4755SOL     OW15163   0.174   1.134   1.603
 4755SOL    HW115164   0.108   1.077   1.651
 4755SOL    HW215165   0.198   1.213   1.660
 4756SOL     OW15166   6.837   3.774   5.132
 4756SOL    HW115167   6.786   3.769   5.218
 4756SOL    HW215168   6.886   3.861   5.128
 4757SOL     OW15169   1.995   3.268   1.432
 4757SOL    HW115170   1.977   3.193   1.368
 4757SOL    HW215171   1.916   3.330   1.434
 4758SOL     OW15172   1.899   5.247   1.977
 4758SOL    HW115173   1.849   5.244   1.890
 4758SOL    HW215174   1.991   5.209   1.964
 4759SOL     OW15175   0.585   6.977   2.567
 4759SOL    HW115176   0.487   6.957   2.565
 4759SOL    HW215177   0.618   6.970   2.661
 4760SOL     OW15178   0.409   0.188   1.815
 4760SOL    HW115179   0.446   0.250   1.884
 4760SOL    HW215180   0.368   0.109   1.860
 4761SOL     OW15181   4.132   6.388   2.146
 4761SOL    HW115182   4.199   6.334   2.197
 4761SOL    HW215183   4.148   6.486   2.163
 4762SOL     OW15184   0.997   0.776   2.272
 4762SOL    HW115185   1.055   0.857   2.282
 4762SOL    HW215186   1.046   0.705   2.221
 4763SOL     OW15187   5.084   4.637   1.802
 4763SOL    HW115188   5.176   4.659   1.768
 4763SOL    HW215189   5.074   4.538   1.808
 4764SOL     OW15190   4.812   3.075   6.572
 4764SOL    HW115191   4.715   3.071   6.547
 4764SOL    HW215192   4.864   3.011   6.514
 4765SOL     OW15193   3.586   1.390   5.477
 4765SOL    HW115194   3.486   1.397   5.467
 4765SOL    HW215195   3.617   1.305   5.434
 4766SOL     OW15196   1.184   0.872   3.476
 4766SOL    HW115197   1.263   0.932   3.472
 4766SOL    HW215198   1.166   0.834   3.385
 4767SOL     OW15199   2.902   4.917   3.173
 4767SOL    HW115200   2.993   4.887   3.203
 4767SOL    HW215201   2.911   4.991   3.107
 4768SOL     OW15202   4.874   2.315   6.485
 4768SOL    HW115203   4.800   2.308   6.553
 4768SOL    HW215204   4.843   2.275   6.398
 4769SOL     OW15205   3.031   3.151   0.666
 4769SOL    HW115206   3.058   3.143   0.762
 4769SOL    HW215207   2.932   3.163   0.660
 4770SOL     OW15208   0.139   1.704   3.981
 4770SOL    HW115209   0.107   1.706   3.887
 4770SOL    HW215210   0.237   1.683   3.982
 4771SOL     OW15211   3.058   0.911   4.286
 4771SOL    HW115212   3.030   1.006   4.274
 4771SOL    HW215213   3.155   0.907   4.308
 4772SOL     OW15214   2.482   4.889   2.619
 4772SOL    HW115215   2.551   4.958   2.592
 4772SOL    HW215216   2.423   4.928   2.689
 4773SOL     OW15217   2.833   5.624   4.225
 4773SOL    HW115218   2.897   5.696   4.196
 4773SOL    HW215219   2.872   5.573   4.302
 4774SOL     OW15220   0.803   4.552   0.124
 4774SOL    HW115221   0.830   4.576   0.217
 4774SOL    HW215222   0.705   4.532   0.122
 4775SOL     OW15223   5.673   5.097   4.079
 4775SOL    HW115224   5.581   5.130   4.098
 4775SOL    HW215225   5.710   5.052   4.161
 4776SOL     OW15226   0.018   2.052   4.746
 4776SOL    HW115227   6.985   2.110   4.805
 4776SOL    HW215228   0.083   2.110   4.697
 4777SOL     OW15229   0.799   6.252   3.592
 4777SOL    HW115230   0.886   6.266   3.640
 4777SOL    HW215231   0.771   6.337   3.549
 4778SOL     OW15232   1.618   0.217   0.581
 4778SOL    HW115233   1.581   0.290   0.640
 4778SOL    HW215234   1.643   0.138   0.638
 4779SOL     OW15235   4.724   1.871   4.300
 4779SOL    HW115236   4.734   1.777   4.332
 4779SOL    HW215237   4.755   1.878   4.206
 4780SOL     OW15238   4.951   2.690   4.941
 4780SOL    HW115239   4.859   2.730   4.931
 4780SOL    HW215240   5.014   2.761   4.974
 4781SOL     OW15241   3.048   5.531   1.728
 4781SOL    HW115242   3.012   5.443   1.698
 4781SOL    HW215243   3.008   5.555   1.816
 4782SOL     OW15244   1.259   6.880   3.144
 4782SOL    HW115245   1.201   6.952   3.184
 4782SOL    HW215246   1.354   6.909   3.146
 4783SOL     OW15247   1.107   4.215   6.796
 4783SOL    HW115248   1.162   4.294   6.769
 4783SOL    HW215249   1.128   4.191   6.891
 4784SOL     OW15250   6.161   2.702   6.680
 4784SOL    HW115251   6.136   2.724   6.775
 4784SOL    HW215252   6.088   2.648   6.638
 4785SOL     OW15253   0.538   1.201   4.101
 4785SOL    HW115254   0.481   1.194   4.019
 4785SOL    HW215255   0.581   1.112   4.118
 4786SOL     OW15256   1.851   6.292   0.188
 4786SOL    HW115257   1.821   6.360   0.255
 4786SOL    HW215258   1.949   6.275   0.199
 4787SOL     OW15259   4.208   1.385   5.047
 4787SOL    HW115260   4.212   1.301   4.993
 4787SOL    HW215261   4.270   1.377   5.126
 4788SOL     OW15262   7.004   5.938   0.790
 4788SOL    HW115263   6.958   6.007   0.846
 4788SOL    HW215264   6.936   5.890   0.734
 4789SOL     OW15265   5.873   1.193   2.076
 4789SOL    HW115266   5.938   1.138   2.024
 4789SOL    HW215267   5.787   1.142   2.085
 4790SOL     OW15268   0.442   2.742   6.239
 4790SOL    HW115269   0.453   2.833   6.280
 4790SOL    HW215270   0.378   2.748   6.162
 4791SOL     OW15271   0.985   0.672   6.567
 4791SOL    HW115272   1.054   0.678   6.494
 4791SOL    HW215273   0.983   0.758   6.617
 4792SOL     OW15274   0.743   4.010   1.517
 4792SOL    HW115275   0.796   3.952   1.579
 4792SOL    HW215276   0.799   4.086   1.485
 4793SOL     OW15277   1.021   3.040   5.321
 4793SOL    HW115278   1.063   3.124   5.286
 4793SOL    HW215279   0.967   2.997   5.248
 4794SOL     OW15280   5.641   1.152   6.390
 4794SOL    HW115281   5.666   1.239   6.430
 4794SOL    HW215282   5.684   1.142   6.300
 4795SOL     OW15283   0.135   6.482   6.717
 4795SOL    HW115284   0.223   6.528   6.722
 4795SOL    HW215285   0.122   6.426   6.800
 4796SOL     OW15286   5.711   1.276   5.613
 4796SOL    HW115287   5.656   1.360   5.606
 4796SOL    HW215288   5.668   1.214   5.678
 4797SOL     OW15289   3.122   5.080   5.254
 4797SOL    HW115290   3.051   5.015   5.224
 4797SOL    HW215291   3.103   5.109   5.348
 4798SOL     OW15292   3.430   5.812   0.081
 4798SOL    HW115293   3.529   5.797   0.087
 4798SOL    HW215294   3.411   5.909   0.093
 4799SOL     OW15295   4.275   3.464   1.178
 4799SOL    HW115296   4.283   3.540   1.242
 4799SOL    HW215297   4.356   3.407   1.183
 4800SOL     OW15298   1.021   4.642   6.993
 4800SOL    HW115299   1.031   4.741   6.990
 4800SOL    HW215300   0.941   4.618   0.024
 4801SOL     OW15301   4.875   3.389   3.413
 4801SOL    HW115302   4.882   3.468   3.474
 4801SOL    HW215303   4.882   3.305   3.465
 4802SOL     OW15304   6.907   0.378   5.304
 4802SOL    HW115305   6.871   0.306   5.363
 4802SOL    HW215306   7.007   0.372   5.300
 4803SOL     OW15307   5.434   3.430   5.927
 4803SOL    HW115308   5.404   3.470   5.840
 4803SOL    HW215309   5.399   3.337   5.935
 4804SOL     OW15310   5.659   2.843   0.925
 4804SOL    HW115311   5.627   2.908   0.994
 4804SOL    HW215312   5.674   2.892   0.838
 4805SOL     OW15313   5.863   0.671   5.898
 4805SOL    HW115314   5.959   0.675   5.871
 4805SOL    HW215315   5.856   0.651   5.995
 4806SOL     OW15316   1.547   2.945   3.614
 4806SOL    HW115317   1.595   3.017   3.664
 4806SOL    HW215318   1.518   2.874   3.678
 4807SOL     OW15319   1.320   3.596   0.793
 4807SOL    HW115320   1.327   3.692   0.765
 4807SOL    HW215321   1.320   3.538   0.711
 4808SOL     OW15322   3.169   6.654   3.174
 4808SOL    HW115323   3.078   6.637   3.213
 4808SOL    HW215324   3.223   6.707   3.239
 4809SOL     OW15325   2.841   4.316   0.502
 4809SOL    HW115326   2.895   4.271   0.431
 4809SOL    HW215327   2.763   4.259   0.527
 4810SOL     OW15328   1.724   5.422   4.505
 4810SOL    HW115329   1.686   5.380   4.588
 4810SOL    HW215330   1.669   5.501   4.479
 4811SOL     OW15331   3.411   3.387   5.043
 4811SOL    HW115332   3.324   3.424   5.010
 4811SOL    HW215333   3.454   3.454   5.104
 4812SOL     OW15334   2.139   6.476   1.087
 4812SOL    HW115335   2.047   6.445   1.064
 4812SOL    HW215336   2.135   6.538   1.166
 4813SOL     OW15337   1.027   2.526   5.113
 4813SOL    HW115338   1.010   2.570   5.025
 4813SOL    HW215339   1.077   2.587   5.173
 4814SOL     OW15340   4.662   1.568   0.358
 4814SOL    HW115341   4.655   1.526   0.267
 4814SOL    HW215342   4.658   1.497   0.428
 4815SOL     OW15343   6.763   3.723   3.161
 4815SOL    HW115344   6.774   3.684   3.252
 4815SOL    HW215345   6.719   3.813   3.168
 4816SOL     OW15346   2.090   0.677   2.627
 4816SOL    HW115347   2.184   0.687   2.658
 4816SOL    HW215348   2.028   0.684   2.706
 4817SOL     OW15349   4.600   3.231   6.970
 4817SOL    HW115350   4.665   3.249   0.019
 4817SOL    HW215351   4.631   3.275   6.886
 4818SOL     OW15352   4.590   6.656   5.860
 4818SOL    HW115353   4.626   6.698   5.777
 4818SOL    HW215354   4.523   6.585   5.835
 4819SOL     OW15355   3.362   0.461   0.548
 4819SOL    HW115356   3.294   0.524   0.510
 4819SOL    HW215357   3.323   0.369   0.553
 4820SOL     OW15358   0.636   5.122   1.604
 4820SOL    HW115359   0.623   5.097   1.508
 4820SOL    HW215360   0.558   5.178   1.635
 4821SOL     OW15361   6.736   5.748   1.660
 4821SOL    HW115362   6.715   5.811   1.735
 4821SOL    HW215363   6.835   5.736   1.654
 4822SOL     OW15364   0.220   3.608   1.903
 4822SOL    HW115365   0.260   3.544   1.837
 4822SOL    HW215366   0.189   3.557   1.983
 4823SOL     OW15367   0.143   1.858   2.812
 4823SOL    HW115368   0.103   1.767   2.798
 4823SOL    HW215369   0.235   1.848   2.849
 4824SOL     OW15370   5.081   1.771   3.158
 4824SOL    HW115371   5.150   1.828   3.202
 4824SOL    HW215372   4.994   1.821   3.154
 4825SOL     OW15373   2.175   3.994   4.177
 4825SOL    HW115374   2.235   4.068   4.148
 4825SOL    HW215375   2.221   3.906   4.164
 4826SOL     OW15376   0.660   5.908   0.098
 4826SOL    HW115377   0.622   5.995   0.069
 4826SOL    HW215378   0.760   5.913   0.099
 4827SOL     OW15379   5.051   0.763   6.866
 4827SOL    HW115380   5.019   0.716   6.784
 4827SOL    HW215381   5.151   0.770   6.865
 4828SOL     OW15382   6.591   2.536   0.113
 4828SOL    HW115383   6.567   2.526   0.017
 4828SOL    HW215384   6.600   2.446   0.156
 4829SOL     OW15385   2.640   0.773   5.703
 4829SOL    HW115386   2.716   0.830   5.673
 4829SOL    HW215387   2.562   0.830   5.725
 4830SOL     OW15388   5.607   4.777   4.687
 4830SOL    HW115389   5.580   4.732   4.602
 4830SOL    HW215390   5.689   4.732   4.723
 4831SOL     OW15391   6.819   1.836   6.813
 4831SOL    HW115392   6.789   1.929   6.791
 4831SOL    HW215393   6.918   1.835   6.825
 4832SOL     OW15394   1.388   2.588   6.312
 4832SOL    HW115395   1.415   2.497   6.343
 4832SOL    HW215396   1.463   2.652   6.329
 4833SOL     OW15397   6.326   2.712   2.321
 4833SOL    HW115398   6.368   2.736   2.409
 4833SOL    HW215399   6.267   2.787   2.290
 4834SOL     OW15400   5.917   0.151   3.025
 4834SOL    HW115401   5.956   0.216   2.960
 4834SOL    HW215402   5.914   0.060   2.983
 4835SOL     OW15403   2.387   2.283   6.009
 4835SOL    HW115404   2.347   2.318   6.094
 4835SOL    HW215405   2.434   2.357   5.962
 4836SOL     OW15406   6.165   4.508   3.525
 4836SOL    HW115407   6.131   4.427   3.573
 4836SOL    HW215408   6.163   4.491   3.426
 4837SOL     OW15409   7.002   5.112   1.590
 4837SOL    HW115410   6.922   5.088   1.646
 4837SOL    HW215411   0.054   5.137   1.650
 4838SOL     OW15412   2.997   6.523   2.574
 4838SOL    HW115413   2.915   6.479   2.612
 4838SOL    HW215414   2.998   6.511   2.475
 4839SOL     OW15415   0.890   0.053   6.104
 4839SOL    HW115416   0.818   0.107   6.062
 4839SOL    HW215417   0.854   0.005   6.184
 4840SOL     OW15418   6.912   5.330   5.686
 4840SOL    HW115419   6.960   5.243   5.697
 4840SOL    HW215420   6.968   5.393   5.632
 4841SOL     OW15421   1.343   5.164   1.897
 4841SOL    HW115422   1.414   5.208   1.952
 4841SOL    HW215423   1.367   5.068   1.882
 4842SOL     OW15424   3.434   6.761   0.708
 4842SOL    HW115425   3.350   6.709   0.692
 4842SOL    HW215426   3.512   6.709   0.672
 4843SOL     OW15427   1.777   4.088   0.723
 4843SOL    HW115428   1.851   4.110   0.786
 4843SOL    HW215429   1.788   3.994   0.690
 4844SOL     OW15430   0.161   1.340   5.120
 4844SOL    HW115431   0.181   1.259   5.064
 4844SOL    HW215432   0.243   1.367   5.171
 4845SOL     OW15433   5.791   6.913   3.518
 4845SOL    HW115434   5.824   6.824   3.549
 4845SOL    HW215435   5.773   6.910   3.420
 4846SOL     OW15436   0.277   4.176   5.382
 4846SOL    HW115437   0.313   4.269   5.388
 4846SOL    HW215438   0.346   4.111   5.412
 4847SOL     OW15439   5.242   3.221   4.330
 4847SOL    HW115440   5.248   3.226   4.230
 4847SOL    HW215441   5.255   3.312   4.369
 4848SOL     OW15442   3.158   3.779   1.224
 4848SOL    HW115443   3.241   3.815   1.181
 4848SOL    HW215444   3.078   3.812   1.174
 4849SOL     OW15445   2.234   6.634   6.587
 4849SOL    HW115446   2.334   6.642   6.587
 4849SOL    HW215447   2.199   6.649   6.679
 4850SOL     OW15448   3.748   6.600   3.167
 4850SOL    HW115449   3.651   6.584   3.148
 4850SOL    HW215450   3.784   6.524   3.220
 4851SOL     OW15451   4.733   1.729   5.359
 4851SOL    HW115452   4.734   1.752   5.457
 4851SOL    HW215453   4.826   1.718   5.326
 4852SOL     OW15454   1.187   2.254   1.397
 4852SOL    HW115455   1.227   2.309   1.471
 4852SOL    HW215456   1.181   2.158   1.427
 4853SOL     OW15457   3.549   0.889   1.360
 4853SOL    HW115458   3.503   0.976   1.373
 4853SOL    HW215459   3.483   0.819   1.334
 4854SOL     OW15460   4.291   0.174   5.716
 4854SOL    HW115461   4.193   0.155   5.715
 4854SOL    HW215462   4.338   0.107   5.657
 4855SOL     OW15463   0.424   2.621   2.559
 4855SOL    HW115464   0.498   2.568   2.600
 4855SOL    HW215465   0.338   2.571   2.568
 4856SOL     OW15466   0.045   4.748   3.248
 4856SOL    HW115467   0.026   4.842   3.276
 4856SOL    HW215468   0.041   4.688   3.327
 4857SOL     OW15469   6.699   1.325   5.760
 4857SOL    HW115470   6.695   1.313   5.661
 4857SOL    HW215471   6.697   1.236   5.805
 4858SOL     OW15472   1.344   0.383   3.431
 4858SOL    HW115473   1.343   0.480   3.456
 4858SOL    HW215474   1.285   0.332   3.493
 4859SOL     OW15475   3.675   6.280   5.600
 4859SOL    HW115476   3.717   6.214   5.663
 4859SOL    HW215477   3.584   6.249   5.575
 4860SOL     OW15478   3.386   5.235   0.136
 4860SOL    HW115479   3.361   5.147   0.176
 4860SOL    HW215480   3.396   5.225   0.036
 4861SOL     OW15481   4.136   4.005   6.329
 4861SOL    HW115482   4.100   4.098   6.323
 4861SOL    HW215483   4.069   3.946   6.374
 4862SOL     OW15484   2.236   0.302   0.399
 4862SOL    HW115485   2.187   0.337   0.319
 4862SOL    HW215486   2.184   0.228   0.441
 4863SOL     OW15487   5.260   3.800   6.246
 4863SOL    HW115488   5.336   3.754   6.199
 4863SOL    HW215489   5.285   3.817   6.341
 4864SOL     OW15490   3.569   1.146   3.910
 4864SOL    HW115491   3.613   1.217   3.855
 4864SOL    HW215492   3.470   1.161   3.909
 4865SOL     OW15493   1.343   5.808   5.417
 4865SOL    HW115494   1.337   5.862   5.333
 4865SOL    HW215495   1.379   5.866   5.491
 4866SOL     OW15496   7.013   4.202   5.555
 4866SOL    HW115497   0.033   4.166   5.473
 4866SOL    HW215498   6.940   4.265   5.527
 4867SOL     OW15499   4.057   1.144   3.335
 4867SOL    HW115500   4.102   1.217   3.285
 4867SOL    HW215501   3.958   1.154   3.326
 4868SOL     OW15502   0.510   5.841   1.568
 4868SOL    HW115503   0.567   5.868   1.490
 4868SOL    HW215504   0.556   5.770   1.620
 4869SOL     OW15505   0.289   0.706   0.877
 4869SOL    HW115506   0.350   0.759   0.936
 4869SOL    HW215507   0.331   0.618   0.856
 4870SOL     OW15508   1.521   0.542   1.137
 4870SOL    HW115509   1.537   0.447   1.164
 4870SOL    HW215510   1.590   0.569   1.069
 4871SOL     OW15511   0.779   2.112   4.076
 4871SOL    HW115512   0.831   2.182   4.027
 4871SOL    HW215513   0.682   2.121   4.054
 4872SOL     OW15514   5.333   0.438   3.244
 4872SOL    HW115515   5.266   0.495   3.292
 4872SOL    HW215516   5.319   0.447   3.145
 4873SOL     OW15517   6.817   6.207   4.007
 4873SOL    HW115518   6.742   6.258   4.048
 4873SOL    HW215519   6.871   6.267   3.949
 4874SOL     OW15520   6.076   4.398   2.453
 4874SOL    HW115521   6.146   4.450   2.404
 4874SOL    HW215522   6.062   4.310   2.409
 4875SOL     OW15523   6.548   6.796   4.522
 4875SOL    HW115524   6.637   6.840   4.508
 4875SOL    HW215525   6.476   6.853   4.483
 4876SOL     OW15526   6.067   1.725   2.538
 4876SOL    HW115527   5.983   1.680   2.508
 4876SOL    HW215528   6.108   1.773   2.461
 4877SOL     OW15529   0.399   1.750   0.424
 4877SOL    HW115530   0.386   1.831   0.481
 4877SOL    HW215531   0.487   1.756   0.377
 4878SOL     OW15532   5.835   4.472   4.075
 4878SOL    HW115533   5.898   4.434   4.143
 4878SOL    HW215534   5.888   4.515   4.001
 4879SOL     OW15535   5.882   0.820   2.974
 4879SOL    HW115536   5.860   0.864   2.887
 4879SOL    HW215537   5.866   0.885   3.049
 4880SOL     OW15538   6.955   3.513   6.377
 4880SOL    HW115539   6.906   3.441   6.329
 4880SOL    HW215540   0.027   3.489   6.385
 4881SOL     OW15541   6.852   3.776   1.624
 4881SOL    HW115542   6.871   3.792   1.528
 4881SOL    HW215543   6.934   3.743   1.670
 4882SOL     OW15544   5.169   2.448   4.237
 4882SOL    HW115545   5.161   2.388   4.317
 4882SOL    HW215546   5.164   2.392   4.154
 4883SOL     OW15547   0.013   4.008   6.264
 4883SOL    HW115548   0.020   3.908   6.256
 4883SOL    HW215549   0.104   4.047   6.273
 4884SOL     OW15550   1.615   2.342   1.546
 4884SOL    HW115551   1.595   2.291   1.463
 4884SOL    HW215552   1.686   2.295   1.598
 4885SOL     OW15553   1.070   5.827   6.521
 4885SOL    HW115554   1.053   5.824   6.619
 4885SOL    HW215555   1.046   5.917   6.486
 4886SOL     OW15556   3.451   1.006   2.171
 4886SOL    HW115557   3.536   0.992   2.221
 4886SOL    HW215558   3.378   1.027   2.236
 4887SOL     OW15559   5.340   5.175   0.424
 4887SOL    HW115560   5.406   5.178   0.499
 4887SOL    HW215561   5.318   5.079   0.403
 4888SOL     OW15562   4.316   6.690   2.625
 4888SOL    HW115563   4.224   6.660   2.649
 4888SOL    HW215564   4.353   6.747   2.699
 4889SOL     OW15565   5.240   3.426   3.731
 4889SOL    HW115566   5.209   3.484   3.806
 4889SOL    HW215567   5.339   3.414   3.737
 4890SOL     OW15568   6.435   2.096   4.479
 4890SOL    HW115569   6.526   2.058   4.465
 4890SOL    HW215570   6.412   2.157   4.403
 4891SOL     OW15571   3.101   5.551   0.231
 4891SOL    HW115572   3.136   5.460   0.251
 4891SOL    HW215573   3.012   5.543   0.186
 4892SOL     OW15574   5.071   4.764   2.058
 4892SOL    HW115575   4.978   4.797   2.076
 4892SOL    HW215576   5.073   4.718   1.969
 4893SOL     OW15577   2.769   2.995   0.938
 4893SOL    HW115578   2.798   2.949   0.854
 4893SOL    HW215579   2.737   2.927   1.004
 4894SOL     OW15580   5.389   6.311   7.004
 4894SOL    HW115581   5.406   6.278   6.911
 4894SOL    HW215582   5.330   6.245   0.027
 4895SOL     OW15583   6.240   3.635   5.513
 4895SOL    HW115584   6.162   3.667   5.567
 4895SOL    HW215585   6.321   3.631   5.571
 4896SOL     OW15586   2.622   4.968   4.828
 4896SOL    HW115587   2.623   4.951   4.926
 4896SOL    HW215588   2.572   5.053   4.809
 4897SOL     OW15589   2.765   1.853   5.887
 4897SOL    HW115590   2.834   1.782   5.904
 4897SOL    HW215591   2.802   1.942   5.913
 4898SOL     OW15592   4.561   2.594   3.467
 4898SOL    HW115593   4.612   2.676   3.494
 4898SOL    HW215594   4.501   2.566   3.541
 4899SOL     OW15595   6.382   5.884   1.461
 4899SOL    HW115596   6.400   5.795   1.503
 4899SOL    HW215597   6.287   5.888   1.430
 4900SOL     OW15598   3.327   5.454   6.100
 4900SOL    HW115599   3.408   5.512   6.102
 4900SOL    HW215600   3.286   5.456   6.008
 4901SOL     OW15601   2.559   0.603   6.985
 4901SOL    HW115602   2.627   0.667   6.950
 4901SOL    HW215603   2.469   0.625   6.947
 4902SOL     OW15604   2.358   0.134   5.447
 4902SOL    HW115605   2.293   0.116   5.521
 4902SOL    HW215606   2.356   0.059   5.381
 4903SOL     OW15607   5.062   3.648   2.424
 4903SOL    HW115608   4.980   3.702   2.405
 4903SOL    HW215609   5.141   3.689   2.380
 4904SOL     OW15610   2.481   0.619   2.152
 4904SOL    HW115611   2.497   0.549   2.083
 4904SOL    HW215612   2.490   0.709   2.110
 4905SOL     OW15613   2.485   1.558   1.593
 4905SOL    HW115614   2.510   1.461   1.599
 4905SOL    HW215615   2.484   1.586   1.497
 4906SOL     OW15616   5.598   3.220   4.929
 4906SOL    HW115617   5.665   3.276   4.879
 4906SOL    HW215618   5.585   3.133   4.881
 4907SOL     OW15619   4.447   2.344   0.580
 4907SOL    HW115620   4.428   2.317   0.485
 4907SOL    HW215621   4.362   2.368   0.626
 4908SOL     OW15622   2.491   6.523   6.726
 4908SOL    HW115623   2.425   6.449   6.738
 4908SOL    HW215624   2.538   6.540   6.812
 4909SOL     OW15625   4.958   6.347   5.052
 4909SOL    HW115626   5.048   6.331   5.093
 4909SOL    HW215627   4.934   6.269   4.995
 4910SOL     OW15628   4.795   2.028   6.707
 4910SOL    HW115629   4.731   1.975   6.650
 4910SOL    HW215630   4.762   2.122   6.715
 4911SOL     OW15631   6.678   4.334   3.984
 4911SOL    HW115632   6.600   4.272   3.994
 4911SOL    HW215633   6.729   4.336   4.070
 4912SOL     OW15634   5.919   3.066   4.502
 4912SOL    HW115635   5.847   3.018   4.452
 4912SOL    HW215636   5.894   3.162   4.512
 4913SOL     OW15637   1.329   3.941   6.001
 4913SOL    HW115638   1.263   3.927   5.927
 4913SOL    HW215639   1.335   3.859   6.057
 4914SOL     OW15640   2.779   6.669   3.999
 4914SOL    HW115641   2.734   6.749   4.038
 4914SOL    HW215642   2.743   6.586   4.042
 4915SOL     OW15643   4.569   6.864   5.190
 4915SOL    HW115644   4.553   6.940   5.127
 4915SOL    HW215645   4.654   6.881   5.242
 4916SOL     OW15646   5.833   2.780   3.694
 4916SOL    HW115647   5.810   2.854   3.756
 4916SOL    HW215648   5.791   2.797   3.605
 4917SOL     OW15649   4.921   6.197   6.726
 4917SOL    HW115650   4.869   6.277   6.697
 4917SOL    HW215651   4.859   6.119   6.736
 4918SOL     OW15652   4.654   6.080   4.455
 4918SOL    HW115653   4.608   5.995   4.482
 4918SOL    HW215654   4.618   6.110   4.366
 4919SOL     OW15655   4.721   3.935   1.562
 4919SOL    HW115656   4.772   3.934   1.648
 4919SOL    HW215657   4.673   4.022   1.553
 4920SOL     OW15658   6.210   0.885   5.557
 4920SOL    HW115659   6.199   0.969   5.503
 4920SOL    HW215660   6.123   0.860   5.598
 4921SOL     OW15661   6.324   0.416   2.421
 4921SOL    HW115662   6.369   0.388   2.506
 4921SOL    HW215663   6.329   0.516   2.412
 4922SOL     OW15664   4.072   0.232   6.355
 4922SOL    HW115665   3.990   0.241   6.412
 4922SOL    HW215666   4.063   0.151   6.297
 4923SOL     OW15667   3.621   1.310   2.303
 4923SOL    HW115668   3.524   1.305   2.328
 4923SOL    HW215669   3.636   1.387   2.242
 4924SOL     OW15670   3.166   1.571   5.324
 4924SOL    HW115671   3.106   1.509   5.274
 4924SOL    HW215672   3.248   1.591   5.270
 4925SOL     OW15673   5.495   0.284   3.660
 4925SOL    HW115674   5.491   0.279   3.560
 4925SOL    HW215675   5.404   0.305   3.695
 4926SOL     OW15676   4.682   2.507   2.241
 4926SOL    HW115677   4.603   2.472   2.191
 4926SOL    HW215678   4.765   2.497   2.185
 4927SOL     OW15679   2.442   1.708   0.405
 4927SOL    HW115680   2.482   1.797   0.385
 4927SOL    HW215681   2.430   1.699   0.504
 4928SOL     OW15682   0.985   1.947   1.282
 4928SOL    HW115683   1.030   1.970   1.368
 4928SOL    HW215684   0.886   1.955   1.293
 4929SOL     OW15685   7.013   0.648   5.070
 4929SOL    HW115686   0.070   0.646   5.011
 4929SOL    HW215687   6.933   0.620   5.018
 4930SOL     OW15688   4.897   5.858   2.393
 4930SOL    HW115689   4.804   5.883   2.417
 4930SOL    HW215690   4.957   5.874   2.472
 4931SOL     OW15691   4.534   0.619   1.455
 4931SOL    HW115692   4.502   0.653   1.366
 4931SOL    HW215693   4.609   0.555   1.440
 4932SOL     OW15694   3.147   3.804   3.583
 4932SOL    HW115695   3.088   3.825   3.661
 4932SOL    HW215696   3.238   3.842   3.601
 4933SOL     OW15697   1.835   0.701   5.179
 4933SOL    HW115698   1.831   0.784   5.124
 4933SOL    HW215699   1.750   0.649   5.167
 4934SOL     OW15700   2.264   0.340   2.927
 4934SOL    HW115701   2.165   0.341   2.940
 4934SOL    HW215702   2.286   0.301   2.838
 4935SOL     OW15703   6.232   0.029   4.879
 4935SOL    HW115704   6.201   0.002   4.788
 4935SOL    HW215705   6.302   0.100   4.870
 4936SOL     OW15706   5.136   2.736   0.711
 4936SOL    HW115707   5.178   2.812   0.661
 4936SOL    HW215708   5.139   2.653   0.654
 4937SOL     OW15709   3.685   2.778   5.286
 4937SOL    HW115710   3.782   2.757   5.294
 4937SOL    HW215711   3.631   2.702   5.323
 4938SOL     OW15712   2.685   4.700   6.745
 4938SOL    HW115713   2.701   4.614   6.793
 4938SOL    HW215714   2.654   4.682   6.652
 4939SOL     OW15715   5.209   3.180   6.557
 4939SOL    HW115716   5.225   3.163   6.460
 4939SOL    HW215717   5.132   3.244   6.567
 4940SOL     OW15718   1.370   5.984   3.444
 4940SOL    HW115719   1.327   5.970   3.533
 4940SOL    HW215720   1.442   5.916   3.431
 4941SOL     OW15721   6.395   0.217   0.536
 4941SOL    HW115722   6.402   0.220   0.636
 4941SOL    HW215723   6.483   0.240   0.496
 4942SOL     OW15724   5.431   2.687   5.724
 4942SOL    HW115725   5.346   2.641   5.748
 4942SOL    HW215726   5.413   2.758   5.656
 4943SOL     OW15727   6.144   3.501   1.310
 4943SOL    HW115728   6.189   3.589   1.322
 4943SOL    HW215729   6.205   3.439   1.262
 4944SOL     OW15730   1.790   3.186   1.768
 4944SOL    HW115731   1.782   3.144   1.858
 4944SOL    HW215732   1.785   3.115   1.697
 4945SOL     OW15733   6.673   5.483   3.962
 4945SOL    HW115734   6.611   5.494   4.039
 4945SOL    HW215735   6.715   5.393   3.965
 4946SOL     OW15736   6.859   4.435   2.439
 4946SOL    HW115737   6.806   4.351   2.450
 4946SOL    HW215738   6.863   4.460   2.342
 4947SOL     OW15739   5.892   0.337   0.375
 4947SOL    HW115740   5.872   0.416   0.433
 4947SOL    HW215741   5.991   0.328   0.364
 4948SOL     OW15742   2.607   1.345   2.172
 4948SOL    HW115743   2.554   1.428   2.150
 4948SOL    HW215744   2.692   1.345   2.120
 4949SOL     OW15745   5.419   2.390   5.958
 4949SOL    HW115746   5.514   2.363   5.943
 4949SOL    HW215747   5.416   2.484   5.991
 4950SOL     OW15748   3.621   5.223   4.036
 4950SOL    HW115749   3.611   5.301   3.973
 4950SOL    HW215750   3.717   5.197   4.043
 4951SOL     OW15751   4.614   2.709   3.744
 4951SOL    HW115752   4.553   2.740   3.817
 4951SOL    HW215753   4.666   2.629   3.775
 4952SOL     OW15754   6.534   5.267   4.371
 4952SOL    HW115755   6.534   5.353   4.320
 4952SOL    HW215756   6.576   5.282   4.461
 4953SOL     OW15757   0.825   5.013   1.778
 4953SOL    HW115758   0.903   5.007   1.715
 4953SOL    HW215759   0.744   5.042   1.727
 4954SOL     OW15760   0.358   6.728   6.100
 4954SOL    HW115761   0.452   6.754   6.121
 4954SOL    HW215762   0.295   6.781   6.158
 4955SOL     OW15763   1.501   0.136   1.911
 4955SOL    HW115764   1.508   0.235   1.915
 4955SOL    HW215765   1.528   0.104   1.820
 4956SOL     OW15766   5.994   6.003   3.268
 4956SOL    HW115767   5.973   6.040   3.178
 4956SOL    HW215768   5.959   5.909   3.274
 4957SOL     OW15769   1.576   5.238   4.669
 4957SOL    HW115770   1.520   5.197   4.597
 4957SOL    HW215771   1.622   5.166   4.720
 4958SOL     OW15772   0.102   6.456   7.021
 4958SOL    HW115773   0.106   6.429   0.092
 4958SOL    HW215774   0.175   6.522   7.002
 4959SOL     OW15775   1.485   1.428   0.055
 4959SOL    HW115776   1.406   1.436   7.018
 4959SOL    HW215777   1.562   1.480   0.018
 4960SOL     OW15778   4.089   6.528   5.320
 4960SOL    HW115779   4.017   6.569   5.264
 4960SOL    HW215780   4.099   6.431   5.296
 4961SOL     OW15781   5.537   7.022   5.086
 4961SOL    HW115782   5.523   0.095   5.108
 4961SOL    HW215783   5.555   7.012   4.988
 4962SOL     OW15784   6.191   2.076   2.393
 4962SOL    HW115785   6.139   2.082   2.477
 4962SOL    HW215786   6.208   1.980   2.371
 4963SOL     OW15787   0.768   4.514   1.380
 4963SOL    HW115788   0.844   4.579   1.371
 4963SOL    HW215789   0.781   4.440   1.314
 4964SOL     OW15790   3.788   1.247   3.361
 4964SOL    HW115791   3.814   1.340   3.387
 4964SOL    HW215792   3.699   1.225   3.399
 4965SOL     OW15793   0.040   5.358   4.924
 4965SOL    HW115794   0.090   5.335   5.007
 4965SOL    HW215795   0.010   5.274   4.879
 4966SOL     OW15796   5.101   5.999   5.367
 4966SOL    HW115797   5.106   5.979   5.269
 4966SOL    HW215798   5.012   5.970   5.403
 4967SOL     OW15799   5.571   0.851   0.247
 4967SOL    HW115800   5.631   0.927   0.221
 4967SOL    HW215801   5.482   0.864   0.205
 4968SOL     OW15802   5.439   3.425   6.463
 4968SOL    HW115803   5.442   3.467   6.553
 4968SOL    HW215804   5.345   3.426   6.429
 4969SOL     OW15805   0.954   0.753   1.504
 4969SOL    HW115806   0.957   0.852   1.489
 4969SOL    HW215807   0.859   0.725   1.521
 4970SOL     OW15808   2.169   1.896   6.096
 4970SOL    HW115809   2.265   1.924   6.106
 4970SOL    HW215810   2.114   1.940   6.167
 4971SOL     OW15811   5.971   5.728   4.006
 4971SOL    HW115812   6.052   5.774   3.969
 4971SOL    HW215813   5.978   5.725   4.106
 4972SOL     OW15814   1.761   2.179   4.493
 4972SOL    HW115815   1.784   2.187   4.396
 4972SOL    HW215816   1.738   2.270   4.529
 4973SOL     OW15817   4.658   5.880   3.164
 4973SOL    HW115818   4.733   5.945   3.160
 4973SOL    HW215819   4.605   5.895   3.248
 4974SOL     OW15820   3.529   6.785   6.251
 4974SOL    HW115821   3.467   6.790   6.329
 4974SOL    HW215822   3.549   6.689   6.230
 4975SOL     OW15823   4.098   6.060   6.952
 4975SOL    HW115824   4.136   6.040   0.018
 4975SOL    HW215825   4.002   6.033   6.949
 4976SOL     OW15826   2.497   1.192   4.818
 4976SOL    HW115827   2.418   1.233   4.774
 4976SOL    HW215828   2.475   1.167   4.912
 4977SOL     OW15829   3.510   3.272   2.262
 4977SOL    HW115830   3.461   3.191   2.294
 4977SOL    HW215831   3.586   3.292   2.323
 4978SOL     OW15832   6.009   3.623   6.444
 4978SOL    HW115833   6.015   3.717   6.477
 4978SOL    HW215834   5.974   3.622   6.351
 4979SOL     OW15835   1.153   2.045   3.468
 4979SOL    HW115836   1.133   1.950   3.444
 4979SOL    HW215837   1.149   2.101   3.385
 4980SOL     OW15838   2.331   4.996   2.338
 4980SOL    HW115839   2.346   4.991   2.437
 4980SOL    HW215840   2.234   5.008   2.319
 4981SOL     OW15841   5.055   5.807   5.577
 4981SOL    HW115842   5.054   5.897   5.621
 4981SOL    HW215843   5.149   5.779   5.560
 4982SOL     OW15844   2.754   1.442   6.415
 4982SOL    HW115845   2.812   1.361   6.420
 4982SOL    HW215846   2.714   1.448   6.323
 4983SOL     OW15847   6.796   1.631   4.029
 4983SOL    HW115848   6.780   1.695   3.953
 4983SOL    HW215849   6.716   1.629   4.087
 4984SOL     OW15850   4.792   5.358   3.793
 4984SOL    HW115851   4.824   5.266   3.815
 4984SOL    HW215852   4.696   5.354   3.766
 4985SOL     OW15853   5.691   3.740   1.353
 4985SOL    HW115854   5.649   3.741   1.262
 4985SOL    HW215855   5.623   3.712   1.421
 4986SOL     OW15856   3.441   5.442   3.581
 4986SOL    HW115857   3.502   5.391   3.520
 4986SOL    HW215858   3.353   5.457   3.535
 4987SOL     OW15859   1.216   2.529   0.025
 4987SOL    HW115860   1.201   2.431   0.037
 4987SOL    HW215861   1.145   2.580   0.073
 4988SOL     OW15862   2.342   1.875   4.833
 4988SOL    HW115863   2.427   1.830   4.806
 4988SOL    HW215864   2.264   1.817   4.809
 4989SOL     OW15865   0.037   1.024   1.214
 4989SOL    HW115866   7.018   1.007   1.126
 4989SOL    HW215867   7.019   0.965   1.283
 4990SOL     OW15868   1.865   2.025   6.694
 4990SOL    HW115869   1.792   2.092   6.683
 4990SOL    HW215870   1.938   2.045   6.628
 4991SOL     OW15871   2.514   1.873   5.820
 4991SOL    HW115872   2.602   1.896   5.862
 4991SOL    HW215873   2.529   1.816   5.739
 4992SOL     OW15874   3.949   0.114   4.718
 4992SOL    HW115875   3.980   0.091   4.810
 4992SOL    HW215876   3.917   0.209   4.716
 4993SOL     OW15877   1.087   6.337   4.350
 4993SOL    HW115878   1.084   6.404   4.424
 4993SOL    HW215879   1.058   6.248   4.384
 4994SOL     OW15880   6.983   6.190   2.985
 4994SOL    HW115881   0.049   6.150   2.973
 4994SOL    HW215882   6.985   6.253   3.063
 4995SOL     OW15883   5.457   2.515   5.173
 4995SOL    HW115884   5.483   2.419   5.170
 4995SOL    HW215885   5.441   2.543   5.268
 4996SOL     OW15886   0.535   2.425   4.097
 4996SOL    HW115887   0.507   2.343   4.146
 4996SOL    HW215888   0.609   2.470   4.147
 4997SOL     OW15889   7.024   2.508   3.479
 4997SOL    HW115890   0.042   2.460   3.556
 4997SOL    HW215891   6.953   2.451   3.439
 4998SOL     OW15892   1.168   5.886   5.859
 4998SOL    HW115893   1.217   5.824   5.798
 4998SOL    HW215894   1.125   5.833   5.932
 4999SOL     OW15895   6.330   5.157   1.169
 4999SOL    HW115896   6.412   5.210   1.189
 4999SOL    HW215897   6.277   5.145   1.252
 5000SOL     OW15898   5.845   5.627   3.676
 5000SOL    HW115899   5.754   5.619   3.635
 5000SOL    HW215900   5.851   5.567   3.756
 5001SOL     OW15901   4.933   3.439   5.555
 5001SOL    HW115902   5.008   3.377   5.578
 5001SOL    HW215903   4.852   3.385   5.532
 5002SOL     OW15904   1.406   2.525   1.506
 5002SOL    HW115905   1.484   2.466   1.529
 5002SOL    HW215906   1.430   2.581   1.426
 5003SOL     OW15907   5.535   5.690   4.666
 5003SOL    HW115908   5.540   5.722   4.760
 5003SOL    HW215909   5.479   5.753   4.612
 5004SOL     OW15910   2.273   4.981   6.111
 5004SOL    HW115911   2.209   5.040   6.063
 5004SOL    HW215912   2.298   5.023   6.199
 5005SOL     OW15913   5.412   1.788   0.077
 5005SOL    HW115914   5.405   1.878   0.034
 5005SOL    HW215915   5.322   1.743   0.076
 5006SOL     OW15916   4.270   5.263   1.624
 5006SOL    HW115917   4.285   5.351   1.579
 5006SOL    HW215918   4.346   5.202   1.604
 5007SOL     OW15919   3.561   0.612   4.541
 5007SOL    HW115920   3.543   0.516   4.561
 5007SOL    HW215921   3.548   0.629   4.444
 5008SOL     OW15922   6.207   1.978   4.236
 5008SOL    HW115923   6.239   2.070   4.259
 5008SOL    HW215924   6.218   1.962   4.138
 5009SOL     OW15925   3.013   6.880   2.317
 5009SOL    HW115926   3.098   6.884   2.369
 5009SOL    HW215927   2.946   6.943   2.356
 5010SOL     OW15928   3.421   3.911   5.790
 5010SOL    HW115929   3.356   3.960   5.731
 5010SOL    HW215930   3.420   3.814   5.767
 5011SOL     OW15931   0.951   1.749   4.698
 5011SOL    HW115932   0.898   1.829   4.670
 5011SOL    HW215933   0.929   1.672   4.638
 5012SOL     OW15934   6.697   2.294   0.204
 5012SOL    HW115935   6.704   2.207   0.253
 5012SOL    HW215936   6.694   2.277   0.106
 5013SOL     OW15937   4.522   1.590   5.174
 5013SOL    HW115938   4.566   1.652   5.238
 5013SOL    HW215939   4.453   1.640   5.121
 5014SOL     OW15940   1.207   4.752   6.424
 5014SOL    HW115941   1.271   4.829   6.425
 5014SOL    HW215942   1.132   4.771   6.487
 5015SOL     OW15943   4.736   2.408   3.827
 5015SOL    HW115944   4.736   2.308   3.833
 5015SOL    HW215945   4.774   2.446   3.912
 5016SOL     OW15946   1.830   5.929   1.631
 5016SOL    HW115947   1.859   5.835   1.646
 5016SOL    HW215948   1.897   5.991   1.672
 5017SOL     OW15949   0.431   2.173   1.542
 5017SOL    HW115950   0.425   2.166   1.641
 5017SOL    HW215951   0.380   2.097   1.500
 5018SOL     OW15952   6.142   5.429   4.322
 5018SOL    HW115953   6.115   5.495   4.252
 5018SOL    HW215954   6.186   5.350   4.277
 5019SOL     OW15955   2.840   5.731   4.685
 5019SOL    HW115956   2.939   5.720   4.685
 5019SOL    HW215957   2.801   5.675   4.758
 5020SOL     OW15958   4.499   5.203   6.953
 5020SOL    HW115959   4.406   5.173   6.972
 5020SOL    HW215960   4.536   5.152   6.876
 5021SOL     OW15961   2.524   4.819   5.323
 5021SOL    HW115962   2.613   4.773   5.318
 5021SOL    HW215963   2.454   4.761   5.283
 5022SOL     OW15964   1.907   2.839   6.335
 5022SOL    HW115965   1.885   2.892   6.254
 5022SOL    HW215966   1.910   2.900   6.415
 5023SOL     OW15967   6.241   3.071   3.905
 5023SOL    HW115968   6.223   2.977   3.876
 5023SOL    HW215969   6.285   3.070   3.995
 5024SOL     OW15970   5.006   4.043   5.162
 5024SOL    HW115971   4.973   3.949   5.173
 5024SOL    HW215972   4.958   4.087   5.086
 5025SOL     OW15973   5.464   6.942   5.374
 5025SOL    HW115974   5.508   6.964   5.287
 5025SOL    HW215975   5.481   7.017   5.439
 5026SOL     OW15976   1.245   5.722   2.495
 5026SOL    HW115977   1.154   5.761   2.480
 5026SOL    HW215978   1.240   5.623   2.491
 5027SOL     OW15979   0.906   5.557   3.117
 5027SOL    HW115980   0.823   5.613   3.112
 5027SOL    HW215981   0.939   5.554   3.211
 5028SOL     OW15982   0.838   6.755   2.496
 5028SOL    HW115983   0.801   6.846   2.478
 5028SOL    HW215984   0.778   6.686   2.456
 5029SOL     OW15985   5.825   0.340   4.578
 5029SOL    HW115986   5.731   0.344   4.612
 5029SOL    HW215987   5.878   0.417   4.613
 5030SOL     OW15988   1.668   5.748   0.632
 5030SOL    HW115989   1.759   5.776   0.663
 5030SOL    HW215990   1.638   5.668   0.685
 5031SOL     OW15991   5.375   0.486   0.109
 5031SOL    HW115992   5.475   0.486   0.105
 5031SOL    HW215993   5.338   0.503   0.018
 5032SOL     OW15994   1.719   5.748   2.794
 5032SOL    HW115995   1.765   5.690   2.861
 5032SOL    HW215996   1.745   5.844   2.809
 5033SOL     OW15997   0.991   4.454   4.904
 5033SOL    HW115998   0.908   4.457   4.847
 5033SOL    HW215999   1.014   4.359   4.923
 5034SOL     OW16000   1.074   2.619   5.944
 5034SOL    HW116001   1.150   2.665   5.990
 5034SOL    HW216002   1.024   2.562   6.010
 5035SOL     OW16003   6.734   5.024   0.716
 5035SOL    HW116004   6.745   5.065   0.807
 5035SOL    HW216005   6.654   4.965   0.716
 5036SOL     OW16006   1.165   1.565   2.709
 5036SOL    HW116007   1.232   1.638   2.718
 5036SOL    HW216008   1.075   1.598   2.738
 5037SOL     OW16009   5.236   3.759   1.067
 5037SOL    HW116010   5.235   3.844   1.119
 5037SOL    HW216011   5.195   3.686   1.122
 5038SOL     OW16012   3.023   5.656   5.619
 5038SOL    HW116013   3.078   5.694   5.694
 5038SOL    HW216014   3.082   5.640   5.540
 5039SOL     OW16015   0.746   2.799   3.747
 5039SOL    HW116016   0.760   2.894   3.717
 5039SOL    HW216017   0.658   2.766   3.713
 5040SOL     OW16018   2.439   3.198   6.734
 5040SOL    HW116019   2.443   3.156   6.824
 5040SOL    HW216020   2.384   3.282   6.738
 5041SOL     OW16021   0.838   5.574   7.012
 5041SOL    HW116022   0.907   5.613   0.048
 5041SOL    HW216023   0.756   5.550   0.040
 5042SOL     OW16024   5.474   0.939   6.160
 5042SOL    HW116025   5.552   0.921   6.220
 5042SOL    HW216026   5.390   0.939   6.214
 5043SOL     OW16027   5.319   6.397   4.345
 5043SOL    HW116028   5.364   6.435   4.426
 5043SOL    HW216029   5.386   6.384   4.272
 5044SOL     OW16030   6.911   4.138   2.230
 5044SOL    HW116031   7.003   4.178   2.222
 5044SOL    HW216032   6.898   4.105   2.324
 5045SOL     OW16033   5.075   2.780   5.423
 5045SOL    HW116034   5.082   2.683   5.445
 5045SOL    HW216035   4.980   2.810   5.437
 5046SOL     OW16036   3.788   2.863   5.824
 5046SOL    HW116037   3.801   2.796   5.751
 5046SOL    HW216038   3.852   2.844   5.899
 5047SOL     OW16039   0.505   1.684   1.890
 5047SOL    HW116040   0.430   1.744   1.861
 5047SOL    HW216041   0.483   1.644   1.979
 5048SOL     OW16042   5.452   4.195   0.251
 5048SOL    HW116043   5.379   4.156   0.306
 5048SOL    HW216044   5.430   4.183   0.154
 5049SOL     OW16045   1.310   0.884   0.388
 5049SOL    HW116046   1.366   0.806   0.417
 5049SOL    HW216047   1.218   0.853   0.367
 5050SOL     OW16048   1.611   3.963   1.020
 5050SOL    HW116049   1.563   3.876   1.021
 5050SOL    HW216050   1.708   3.948   1.043
 5051SOL     OW16051   2.383   3.986   6.205
 5051SOL    HW116052   2.428   3.923   6.141
 5051SOL    HW216053   2.289   4.002   6.176
 5052SOL     OW16054   6.496   2.929   1.198
 5052SOL    HW116055   6.408   2.882   1.198
 5052SOL    HW216056   6.486   3.019   1.240
 5053SOL     OW16057   1.004   3.898   1.600
 5053SOL    HW116058   1.069   3.927   1.669
 5053SOL    HW216059   1.038   3.922   1.509
 5054SOL     OW16060   4.215   5.892   5.240
 5054SOL    HW116061   4.226   5.954   5.162
 5054SOL    HW216062   4.162   5.938   5.311
 5055SOL     OW16063   0.859   0.302   4.229
 5055SOL    HW116064   0.761   0.318   4.233
 5055SOL    HW216065   0.893   0.324   4.137
 5056SOL     OW16066   2.928   1.233   6.352
 5056SOL    HW116067   3.009   1.195   6.397
 5056SOL    HW216068   2.956   1.294   6.278
 5057SOL     OW16069   0.507   3.509   2.592
 5057SOL    HW116070   0.418   3.466   2.608
 5057SOL    HW216071   0.580   3.443   2.609
 5058SOL     OW16072   3.752   2.255   0.164
 5058SOL    HW116073   3.746   2.217   0.072
 5058SOL    HW216074   3.844   2.292   0.179
 5059SOL     OW16075   5.399   2.709   2.462
 5059SOL    HW116076   5.318   2.678   2.511
 5059SOL    HW216077   5.466   2.744   2.527
 5060SOL     OW16078   6.877   2.955   5.814
 5060SOL    HW116079   6.901   2.896   5.891
 5060SOL    HW216080   6.786   2.931   5.781
 5061SOL     OW16081   4.640   2.926   6.269
 5061SOL    HW116082   4.562   2.988   6.275
 5061SOL    HW216083   4.608   2.832   6.258
 5062SOL     OW16084   5.804   0.954   3.230
 5062SOL    HW116085   5.843   0.997   3.312
 5062SOL    HW216086   5.750   0.874   3.257
 5063SOL     OW16087   0.344   0.701   0.326
 5063SOL    HW116088   0.294   0.664   0.405
 5063SOL    HW216089   0.363   0.798   0.341
 5064SOL     OW16090   6.595   5.198   0.249
 5064SOL    HW116091   6.632   5.107   0.270
 5064SOL    HW216092   6.503   5.205   0.286
 5065SOL     OW16093   0.937   2.057   2.568
 5065SOL    HW116094   0.920   2.151   2.598
 5065SOL    HW216095   0.896   2.043   2.478
 5066SOL     OW16096   0.963   5.020   3.814
 5066SOL    HW116097   0.913   5.026   3.900
 5066SOL    HW216098   1.056   5.055   3.826
 5067SOL     OW16099   4.772   3.003   0.629
 5067SOL    HW116100   4.673   3.013   0.638
 5067SOL    HW216101   4.816   3.089   0.655
 5068SOL     OW16102   1.258   6.804   1.083
 5068SOL    HW116103   1.171   6.854   1.089
 5068SOL    HW216104   1.273   6.755   1.169
 5069SOL     OW16105   4.044   4.484   6.037
 5069SOL    HW116106   3.978   4.449   5.971
 5069SOL    HW216107   4.002   4.487   6.128
 5070SOL     OW16108   0.835   3.534   6.613
 5070SOL    HW116109   0.778   3.608   6.648
 5070SOL    HW216110   0.824   3.527   6.514
 5071SOL     OW16111   1.635   6.634   2.425
 5071SOL    HW116112   1.725   6.593   2.409
 5071SOL    HW216113   1.610   6.691   2.347
 5072SOL     OW16114   0.588   2.146   2.595
 5072SOL    HW116115   0.517   2.199   2.550
 5072SOL    HW216116   0.670   2.146   2.538
 5073SOL     OW16117   1.664   1.591   4.362
 5073SOL    HW116118   1.751   1.612   4.408
 5073SOL    HW216119   1.618   1.677   4.339
 5074SOL     OW16120   4.208   2.190   1.432
 5074SOL    HW116121   4.150   2.192   1.513
 5074SOL    HW216122   4.280   2.121   1.444
 5075SOL     OW16123   6.429   1.945   6.701
 5075SOL    HW116124   6.399   1.871   6.761
 5075SOL    HW216125   6.355   1.969   6.638
 5076SOL     OW16126   6.963   1.448   5.785
 5076SOL    HW116127   6.929   1.362   5.748
 5076SOL    HW216128   6.889   1.497   5.831
 5077SOL     OW16129   0.983   5.103   4.300
 5077SOL    HW116130   1.072   5.119   4.256
 5077SOL    HW216131   0.994   5.036   4.374
 5078SOL     OW16132   5.989   1.345   2.963
 5078SOL    HW116133   5.963   1.283   3.037
 5078SOL    HW216134   5.932   1.327   2.883
 5079SOL     OW16135   1.455   3.472   5.728
 5079SOL    HW116136   1.458   3.418   5.812
 5079SOL    HW216137   1.540   3.460   5.677
 5080SOL     OW16138   6.647   6.232   6.808
 5080SOL    HW116139   6.643   6.214   6.906
 5080SOL    HW216140   6.681   6.324   6.792
 5081SOL     OW16141   3.375   4.361   5.626
 5081SOL    HW116142   3.429   4.285   5.589
 5081SOL    HW216143   3.283   4.359   5.588
 5082SOL     OW16144   5.484   6.894   2.828
 5082SOL    HW116145   5.532   6.976   2.799
 5082SOL    HW216146   5.485   6.889   2.928
 5083SOL     OW16147   0.292   0.524   3.240
 5083SOL    HW116148   0.316   0.505   3.335
 5083SOL    HW216149   0.365   0.577   3.197
 5084SOL     OW16150   3.500   5.177   5.818
 5084SOL    HW116151   3.565   5.245   5.851
 5084SOL    HW216152   3.422   5.172   5.881
 5085SOL     OW16153   1.025   3.172   6.757
 5085SOL    HW116154   0.932   3.158   6.724
 5085SOL    HW216155   1.080   3.092   6.736
 5086SOL     OW16156   1.163   4.552   2.094
 5086SOL    HW116157   1.161   4.632   2.153
 5086SOL    HW216158   1.099   4.484   2.127
 5087SOL     OW16159   6.221   5.409   1.678
 5087SOL    HW116160   6.271   5.324   1.662
 5087SOL    HW216161   6.199   5.452   1.591
 5088SOL     OW16162   4.055   4.865   2.375
 5088SOL    HW116163   4.153   4.847   2.366
 5088SOL    HW216164   4.008   4.834   2.292
 5089SOL     OW16165   4.677   5.676   5.946
 5089SOL    HW116166   4.615   5.610   5.904
 5089SOL    HW216167   4.677   5.663   6.045
 5090SOL     OW16168   2.304   6.602   4.619
 5090SOL    HW116169   2.264   6.634   4.705
 5090SOL    HW216170   2.257   6.518   4.589
 5091SOL     OW16171   6.318   5.799   4.908
 5091SOL    HW116172   6.408   5.780   4.948
 5091SOL    HW216173   6.246   5.771   4.972
 5092SOL     OW16174   3.727   3.032   4.694
 5092SOL    HW116175   3.826   3.051   4.695
 5092SOL    HW216176   3.698   3.002   4.784
 5093SOL     OW16177   3.136   2.104   3.762
 5093SOL    HW116178   3.097   2.015   3.739
 5093SOL    HW216179   3.228   2.111   3.725
 5094SOL     OW16180   2.080   4.700   4.925
 5094SOL    HW116181   2.139   4.641   4.870
 5094SOL    HW216182   2.115   4.703   5.019
 5095SOL     OW16183   5.897   2.320   3.380
 5095SOL    HW116184   5.928   2.371   3.300
 5095SOL    HW216185   5.948   2.350   3.461
 5096SOL     OW16186   5.830   3.150   5.202
 5096SOL    HW116187   5.859   3.070   5.149
 5096SOL    HW216188   5.775   3.121   5.280
 5097SOL     OW16189   0.643   0.154   6.039
 5097SOL    HW116190   0.590   0.234   6.069
 5097SOL    HW216191   0.632   0.142   5.940
 5098SOL     OW16192   2.990   1.943   0.738
 5098SOL    HW116193   3.032   1.853   0.726
 5098SOL    HW216194   2.905   1.934   0.788
 5099SOL     OW16195   1.615   5.946   2.000
 5099SOL    HW116196   1.695   6.006   1.995
 5099SOL    HW216197   1.601   5.902   1.912
 5100SOL     OW16198   6.569   3.460   1.391
 5100SOL    HW116199   6.580   3.548   1.437
 5100SOL    HW216200   6.565   3.475   1.292
 5101SOL     OW16201   4.343   2.029   6.169
 5101SOL    HW116202   4.271   2.018   6.237
 5101SOL    HW216203   4.410   1.956   6.179
 5102SOL     OW16204   5.635   4.597   5.205
 5102SOL    HW116205   5.694   4.539   5.148
 5102SOL    HW216206   5.667   4.691   5.202
 5103SOL     OW16207   0.407   7.019   5.461
 5103SOL    HW116208   0.421   6.931   5.414
 5103SOL    HW216209   0.447   0.068   5.406
 5104SOL     OW16210   3.608   3.172   3.823
 5104SOL    HW116211   3.551   3.213   3.894
 5104SOL    HW216212   3.564   3.088   3.789
 5105SOL     OW16213   4.413   2.325   6.687
 5105SOL    HW116214   4.402   2.420   6.717
 5105SOL    HW216215   4.380   2.315   6.594
 5106SOL     OW16216   4.370   0.581   1.681
 5106SOL    HW116217   4.427   0.594   1.600
 5106SOL    HW216218   4.287   0.636   1.672
 5107SOL     OW16219   6.312   4.346   6.554
 5107SOL    HW116220   6.389   4.384   6.605
 5107SOL    HW216221   6.284   4.259   6.595
 5108SOL     OW16222   4.539   3.803   1.163
 5108SOL    HW116223   4.499   3.884   1.119
 5108SOL    HW216224   4.637   3.799   1.143
 5109SOL     OW16225   1.756   2.331   2.000
 5109SOL    HW116226   1.697   2.296   2.073
 5109SOL    HW216227   1.746   2.274   1.919
 5110SOL     OW16228   3.208   6.452   4.943
 5110SOL    HW116229   3.277   6.447   5.014
 5110SOL    HW216230   3.249   6.431   4.854
 5111SOL     OW16231   2.592   6.172   6.364
 5111SOL    HW116232   2.529   6.129   6.299
 5111SOL    HW216233   2.570   6.270   6.372
 5112SOL     OW16234   0.514   4.245   2.724
 5112SOL    HW116235   0.549   4.157   2.754
 5112SOL    HW216236   0.571   4.281   2.650
 5113SOL     OW16237   2.894   4.883   1.395
 5113SOL    HW116238   2.938   4.795   1.411
 5113SOL    HW216239   2.812   4.890   1.453
 5114SOL     OW16240   4.639   4.379   1.196
 5114SOL    HW116241   4.626   4.293   1.244
 5114SOL    HW216242   4.653   4.453   1.263
 5115SOL     OW16243   1.650   3.770   0.611
 5115SOL    HW116244   1.668   3.747   0.515
 5115SOL    HW216245   1.553   3.794   0.621
 5116SOL     OW16246   0.883   6.400   5.735
 5116SOL    HW116247   0.852   6.495   5.728
 5116SOL    HW216248   0.926   6.372   5.649
 5117SOL     OW16249   0.034   3.533   4.335
 5117SOL    HW116250   0.112   3.472   4.350
 5117SOL    HW216251   6.975   3.491   4.372
 5118SOL     OW16252   5.056   5.487   0.361
 5118SOL    HW116253   5.050   5.392   0.393
 5118SOL    HW216254   4.985   5.502   0.292
 5119SOL     OW16255   5.147   1.333   0.209
 5119SOL    HW116256   5.225   1.304   0.153
 5119SOL    HW216257   5.163   1.426   0.242
 5120SOL     OW16258   5.581   6.656   6.656
 5120SOL    HW116259   5.551   6.584   6.593
 5120SOL    HW216260   5.600   6.740   6.603
 5121SOL     OW16261   2.271   3.743   0.180
 5121SOL    HW116262   2.270   3.778   0.086
 5121SOL    HW216263   2.354   3.772   0.226
 5122SOL     OW16264   5.222   5.118   3.662
 5122SOL    HW116265   5.249   5.207   3.624
 5122SOL    HW216266   5.250   5.113   3.758
 5123SOL     OW16267   4.743   2.195   1.234
 5123SOL    HW116268   4.806   2.218   1.308
 5123SOL    HW216269   4.770   2.108   1.193
 5124SOL     OW16270   0.439   5.583   4.358
 5124SOL    HW116271   0.366   5.527   4.396
 5124SOL    HW216272   0.400   5.661   4.309
 5125SOL     OW16273   5.153   2.678   3.803
 5125SOL    HW116274   5.095   2.704   3.880
 5125SOL    HW216275   5.106   2.612   3.746
 5126SOL     OW16276   2.535   0.863   2.553
 5126SOL    HW116277   2.523   0.951   2.506
 5126SOL    HW216278   2.630   0.854   2.583
 5127SOL     OW16279   2.363   6.231   1.237
 5127SOL    HW116280   2.404   6.285   1.310
 5127SOL    HW216281   2.339   6.292   1.161
 5128SOL     OW16282   4.147   0.290   2.398
 5128SOL    HW116283   4.231   0.250   2.361
 5128SOL    HW216284   4.077   0.219   2.405
 5129SOL     OW16285   6.343   5.445   6.835
 5129SOL    HW116286   6.430   5.488   6.859
 5129SOL    HW216287   6.312   5.388   6.911
 5130SOL     OW16288   5.950   4.781   2.388
 5130SOL    HW116289   5.965   4.703   2.327
 5130SOL    HW216290   6.022   4.784   2.456
 5131SOL     OW16291   2.307   2.109   1.760
 5131SOL    HW116292   2.227   2.159   1.790
 5131SOL    HW216293   2.335   2.045   1.832
 5132SOL     OW16294   2.421   6.205   5.968
 5132SOL    HW116295   2.442   6.256   5.885
 5132SOL    HW216296   2.330   6.163   5.960
 5133SOL     OW16297   4.289   6.007   4.987
 5133SOL    HW116298   4.305   5.939   4.916
 5133SOL    HW216299   4.225   6.076   4.953
 5134SOL     OW16300   1.371   2.472   6.814
 5134SOL    HW116301   1.343   2.507   6.903
 5134SOL    HW216302   1.297   2.485   6.748
 5135SOL     OW16303   6.525   1.313   3.127
 5135SOL    HW116304   6.511   1.373   3.206
 5135SOL    HW216305   6.437   1.294   3.083
 5136SOL     OW16306   3.811   1.924   6.874
 5136SOL    HW116307   3.843   1.861   6.945
 5136SOL    HW216308   3.768   1.872   6.800
 5137SOL     OW16309   4.339   3.254   6.706
 5137SOL    HW116310   4.426   3.271   6.660
 5137SOL    HW216311   4.303   3.340   6.741
 5138SOL     OW16312   2.415   3.226   5.637
 5138SOL    HW116313   2.319   3.228   5.664
 5138SOL    HW216314   2.472   3.255   5.714
 5139SOL     OW16315   0.877   6.659   4.408
 5139SOL    HW116316   0.931   6.676   4.490
 5139SOL    HW216317   0.813   6.584   4.426
 5140SOL     OW16318   3.398   2.907   2.599
 5140SOL    HW116319   3.420   2.988   2.653
 5140SOL    HW216320   3.398   2.931   2.502
 5141SOL     OW16321   1.407   3.145   5.078
 5141SOL    HW116322   1.406   3.127   5.176
 5141SOL    HW216323   1.314   3.158   5.044
 5142SOL     OW16324   5.451   3.315   1.762
 5142SOL    HW116325   5.551   3.321   1.759
 5142SOL    HW216326   5.423   3.272   1.847
 5143SOL     OW16327   0.037   5.108   6.153
 5143SOL    HW116328   0.093   5.168   6.211
 5143SOL    HW216329   0.097   5.049   6.099
 5144SOL     OW16330   2.320   1.033   5.005
 5144SOL    HW116331   2.367   0.987   4.930
 5144SOL    HW216332   2.225   1.002   5.009
 5145SOL     OW16333   3.579   5.049   6.723
 5145SOL    HW116334   3.605   4.959   6.689
 5145SOL    HW216335   3.518   5.040   6.801
 5146SOL     OW16336   3.774   5.309   1.352
 5146SOL    HW116337   3.724   5.395   1.347
 5146SOL    HW216338   3.866   5.322   1.314
 5147SOL     OW16339   0.787   5.535   6.181
 5147SOL    HW116340   0.836   5.449   6.169
 5147SOL    HW216341   0.800   5.568   6.274
 5148SOL     OW16342   6.798   0.547   1.622
 5148SOL    HW116343   6.715   0.530   1.675
 5148SOL    HW216344   6.798   0.490   1.540
 5149SOL     OW16345   6.686   0.558   5.204
 5149SOL    HW116346   6.633   0.558   5.119
 5149SOL    HW216347   6.754   0.485   5.201
 5150SOL     OW16348   2.736   5.292   5.725
 5150SOL    HW116349   2.642   5.294   5.758
 5150SOL    HW216350   2.766   5.197   5.713
 5151SOL     OW16351   4.914   0.273   6.600
 5151SOL    HW116352   4.847   0.224   6.543
 5151SOL    HW216353   4.978   0.321   6.540
 5152SOL     OW16354   0.078   4.773   6.256
 5152SOL    HW116355   0.127   4.692   6.224
 5152SOL    HW216356   0.004   4.745   6.318
 5153SOL     OW16357   3.194   3.478   0.848
 5153SOL    HW116358   3.120   3.496   0.912
 5153SOL    HW216359   3.257   3.411   0.888
 5154SOL     OW16360   0.682   4.116   5.569
 5154SOL    HW116361   0.767   4.162   5.543
 5154SOL    HW216362   0.703   4.042   5.634
 5155SOL     OW16363   4.182   0.947   2.626
 5155SOL    HW116364   4.125   1.012   2.676
 5155SOL    HW216365   4.249   0.998   2.571
 5156SOL     OW16366   5.309   3.520   5.672
 5156SOL    HW116367   5.371   3.569   5.610
 5156SOL    HW216368   5.231   3.579   5.694
 5157SOL     OW16369   6.701   2.308   3.912
 5157SOL    HW116370   6.707   2.308   4.012
 5157SOL    HW216371   6.605   2.300   3.885
 5158SOL     OW16372   4.287   0.974   2.065
 5158SOL    HW116373   4.361   0.947   2.003
 5158SOL    HW216374   4.309   0.944   2.158
 5159SOL     OW16375   1.598   4.211   5.087
 5159SOL    HW116376   1.661   4.252   5.152
 5159SOL    HW216377   1.609   4.254   4.998
 5160SOL     OW16378   2.592   2.410   3.579
 5160SOL    HW116379   2.617   2.394   3.484
 5160SOL    HW216380   2.632   2.338   3.636
 5161SOL     OW16381   1.811   2.721   6.807
 5161SOL    HW116382   1.903   2.712   6.770
 5161SOL    HW216383   1.768   2.803   6.769
 5162SOL     OW16384   6.624   6.148   4.918
 5162SOL    HW116385   6.550   6.144   4.985
 5162SOL    HW216386   6.712   6.142   4.964
 5163SOL     OW16387   6.399   3.771   1.114
 5163SOL    HW116388   6.394   3.692   1.053
 5163SOL    HW216389   6.327   3.836   1.089
 5164SOL     OW16390   6.653   6.834   4.784
 5164SOL    HW116391   6.711   6.915   4.783
 5164SOL    HW216392   6.590   6.838   4.706
 5165SOL     OW16393   5.179   4.780   5.445
 5165SOL    HW116394   5.264   4.736   5.415
 5165SOL    HW216395   5.107   4.711   5.451
 5166SOL     OW16396   7.013   6.881   2.931
 5166SOL    HW116397   0.057   6.920   2.869
 5166SOL    HW216398   6.966   6.806   2.884
 5167SOL     OW16399   1.994   0.117   4.888
 5167SOL    HW116400   1.990   0.217   4.886
 5167SOL    HW216401   2.006   0.082   4.795
 5168SOL     OW16402   3.194   1.999   2.207
 5168SOL    HW116403   3.138   2.076   2.239
 5168SOL    HW216404   3.147   1.913   2.226
 5169SOL     OW16405   3.690   5.312   6.666
 5169SOL    HW116406   3.776   5.346   6.703
 5169SOL    HW216407   3.679   5.216   6.690
 5170SOL     OW16408   4.303   5.027   4.245
 5170SOL    HW116409   4.247   5.026   4.163
 5170SOL    HW216410   4.385   4.971   4.230
 5171SOL     OW16411   2.446   4.574   5.555
 5171SOL    HW116412   2.523   4.598   5.495
 5171SOL    HW216413   2.373   4.532   5.500
 5172SOL     OW16414   1.388   3.783   6.311
 5172SOL    HW116415   1.386   3.819   6.404
 5172SOL    HW216416   1.303   3.731   6.294
 5173SOL     OW16417   0.527   1.954   4.427
 5173SOL    HW116418   0.463   1.970   4.502
 5173SOL    HW216419   0.615   1.924   4.463
 5174SOL     OW16420   3.140   5.048   6.814
 5174SOL    HW116421   3.117   5.127   6.757
 5174SOL    HW216422   3.065   4.982   6.810
 5175SOL     OW16423   1.182   5.685   0.087
 5175SOL    HW116424   1.108   5.646   0.142
 5175SOL    HW216425   1.228   5.612   0.036
 5176SOL     OW16426   5.725   3.168   6.767
 5176SOL    HW116427   5.704   3.074   6.794
 5176SOL    HW216428   5.732   3.173   6.668
 5177SOL     OW16429   4.840   5.322   6.954
 5177SOL    HW116430   4.864   5.267   0.009
 5177SOL    HW216431   4.752   5.368   6.970
 5178SOL     OW16432   3.952   4.656   0.245
 5178SOL    HW116433   3.980   4.696   0.333
 5178SOL    HW216434   3.855   4.678   0.229
 5179SOL     OW16435   2.939   6.068   5.597
 5179SOL    HW116436   2.904   6.143   5.653
 5179SOL    HW216437   3.037   6.056   5.615
 5180SOL     OW16438   4.945   1.583   6.282
 5180SOL    HW116439   5.015   1.627   6.226
 5180SOL    HW216440   4.989   1.528   6.353
 5181SOL     OW16441   3.090   6.153   2.670
 5181SOL    HW116442   3.159   6.083   2.649
 5181SOL    HW216443   2.999   6.115   2.653
 5182SOL     OW16444   4.913   4.348   0.875
 5182SOL    HW116445   4.817   4.353   0.901
 5182SOL    HW216446   4.970   4.394   0.943
 5183SOL     OW16447   3.325   1.103   3.652
 5183SOL    HW116448   3.249   1.134   3.594
 5183SOL    HW216449   3.305   1.125   3.747
 5184SOL     OW16450   1.261   1.798   2.905
 5184SOL    HW116451   1.250   1.803   2.806
 5184SOL    HW216452   1.351   1.834   2.931
 5185SOL     OW16453   4.368   0.417   2.065
 5185SOL    HW116454   4.304   0.487   2.097
 5185SOL    HW216455   4.383   0.350   2.138
 5186SOL     OW16456   5.627   3.665   0.057
 5186SOL    HW116457   5.657   3.570   0.067
 5186SOL    HW216458   5.690   3.725   0.106
 5187SOL     OW16459   4.774   4.178   4.152
 5187SOL    HW116460   4.769   4.260   4.208
 5187SOL    HW216461   4.863   4.134   4.166
 5188SOL     OW16462   0.779   0.975   3.514
 5188SOL    HW116463   0.716   0.908   3.476
 5188SOL    HW216464   0.805   1.041   3.444
 5189SOL     OW16465   4.611   5.125   5.901
 5189SOL    HW116466   4.553   5.203   5.921
 5189SOL    HW216467   4.707   5.154   5.900
 5190SOL     OW16468   1.925   2.104   2.807
 5190SOL    HW116469   2.004   2.139   2.858
 5190SOL    HW216470   1.958   2.052   2.728
 5191SOL     OW16471   4.791   1.219   2.408
 5191SOL    HW116472   4.838   1.174   2.484
 5191SOL    HW216473   4.842   1.300   2.381
 5192SOL     OW16474   6.730   4.042   1.680
 5192SOL    HW116475   6.787   4.119   1.653
 5192SOL    HW216476   6.787   3.961   1.691
 5193SOL     OW16477   3.646   4.975   3.177
 5193SOL    HW116478   3.671   5.069   3.154
 5193SOL    HW216479   3.599   4.974   3.266
 5194SOL     OW16480   5.387   0.776   0.644
 5194SOL    HW116481   5.321   0.766   0.570
 5194SOL    HW216482   5.347   0.742   0.729
 5195SOL     OW16483   0.748   5.024   5.499
 5195SOL    HW116484   0.844   5.021   5.469
 5195SOL    HW216485   0.697   4.951   5.454
 5196SOL     OW16486   1.334   3.337   3.257
 5196SOL    HW116487   1.272   3.408   3.291
 5196SOL    HW216488   1.385   3.298   3.333
 5197SOL     OW16489   3.740   5.994   5.135
 5197SOL    HW116490   3.769   5.924   5.070
 5197SOL    HW216491   3.799   5.990   5.216
 5198SOL     OW16492   4.306   1.043   6.146
 5198SOL    HW116493   4.253   1.053   6.230
 5198SOL    HW216494   4.247   1.006   6.073
 5199SOL     OW16495   0.675   6.314   2.571
 5199SOL    HW116496   0.635   6.405   2.562
 5199SOL    HW216497   0.607   6.252   2.611
 5200SOL     OW16498   5.830   6.265   5.760
 5200SOL    HW116499   5.888   6.202   5.707
 5200SOL    HW216500   5.850   6.359   5.733
 5201SOL     OW16501   6.704   3.737   5.398
 5201SOL    HW116502   6.684   3.670   5.470
 5201SOL    HW216503   6.718   3.827   5.440
 5202SOL     OW16504   3.793   2.411   5.975
 5202SOL    HW116505   3.754   2.467   6.048
 5202SOL    HW216506   3.817   2.321   6.012
 5203SOL     OW16507   0.321   0.472   5.778
 5203SOL    HW116508   0.306   0.404   5.706
 5203SOL    HW216509   0.302   0.432   5.867
 5204SOL     OW16510   2.124   0.309   2.251
 5204SOL    HW116511   2.185   0.248   2.201
 5204SOL    HW216512   2.066   0.256   2.312
 5205SOL     OW16513   5.897   0.145   2.092
 5205SOL    HW116514   5.884   0.150   1.993
 5205SOL    HW216515   5.964   0.074   2.114
 5206SOL     OW16516   0.909   4.749   5.187
 5206SOL    HW116517   0.952   4.835   5.158
 5206SOL    HW216518   0.961   4.672   5.150
 5207SOL     OW16519   4.687   1.943   4.559
 5207SOL    HW116520   4.730   1.924   4.471
 5207SOL    HW216521   4.696   1.862   4.618
 5208SOL     OW16522   0.025   1.890   0.620
 5208SOL    HW116523   7.006   1.961   0.564
 5208SOL    HW216524   0.059   1.817   0.560
 5209SOL     OW16525   4.867   5.912   2.884
 5209SOL    HW116526   4.787   5.859   2.855
 5209SOL    HW216527   4.921   5.938   2.804
 5210SOL     OW16528   6.487   4.112   1.527
 5210SOL    HW116529   6.576   4.101   1.573
 5210SOL    HW216530   6.414   4.096   1.594
 5211SOL     OW16531   4.834   3.059   4.729
 5211SOL    HW116532   4.802   3.147   4.694
 5211SOL    HW216533   4.864   3.002   4.653
 5212SOL     OW16534   6.784   3.816   7.024
 5212SOL    HW116535   6.815   3.787   0.090
 5212SOL    HW216536   6.742   3.907   0.007
 5213SOL     OW16537   3.303   3.279   4.379
 5213SOL    HW116538   3.355   3.333   4.313
 5213SOL    HW216539   3.361   3.258   4.458
 5214SOL     OW16540   5.944   2.776   5.378
 5214SOL    HW116541   5.993   2.863   5.368
 5214SOL    HW216542   5.847   2.789   5.359
 5215SOL     OW16543   0.646   4.707   5.083
 5215SOL    HW116544   0.603   4.796   5.069
 5215SOL    HW216545   0.741   4.720   5.114
 5216SOL     OW16546   6.971   4.034   0.193
 5216SOL    HW116547   0.008   3.956   0.185
 5216SOL    HW216548   6.938   4.042   0.287
 5217SOL     OW16549   3.342   0.814   2.019
 5217SOL    HW116550   3.389   0.875   2.083
 5217SOL    HW216551   3.249   0.797   2.052
 5218SOL     OW16552   6.227   6.896   0.630
 5218SOL    HW116553   6.266   6.930   0.544
 5218SOL    HW216554   6.273   6.940   0.707
 5219SOL     OW16555   4.147   1.973   4.555
 5219SOL    HW116556   4.107   1.910   4.622
 5219SOL    HW216557   4.246   1.974   4.567
 5220SOL     OW16558   2.105   4.137   4.645
 5220SOL    HW116559   2.011   4.144   4.613
 5220SOL    HW216560   2.151   4.062   4.597
 5221SOL     OW16561   4.119   6.620   0.287
 5221SOL    HW116562   4.124   6.720   0.292
 5221SOL    HW216563   4.045   6.587   0.345
 5222SOL     OW16564   5.484   2.759   2.096
 5222SOL    HW116565   5.437   2.842   2.124
 5222SOL    HW216566   5.503   2.703   2.177
 5223SOL     OW16567   6.753   1.746   0.855
 5223SOL    HW116568   6.695   1.786   0.784
 5223SOL    HW216569   6.849   1.761   0.833
 5224SOL     OW16570   1.529   1.645   4.765
 5224SOL    HW116571   1.580   1.724   4.798
 5224SOL    HW216572   1.488   1.666   4.676
 5225SOL     OW16573   6.759   2.929   6.251
 5225SOL    HW116574   6.669   2.886   6.266
 5225SOL    HW216575   6.806   2.882   6.177
 5226SOL     OW16576   7.021   0.003   4.066
 5226SOL    HW116577   6.958   6.950   4.057
 5226SOL    HW216578   7.005   0.067   3.990
 5227SOL     OW16579   2.477   2.448   6.490
 5227SOL    HW116580   2.488   2.522   6.424
 5227SOL    HW216581   2.520   2.365   6.454
 5228SOL     OW16582   0.523   2.339   5.861
 5228SOL    HW116583   0.596   2.401   5.832
 5228SOL    HW216584   0.528   2.254   5.810
 5229SOL     OW16585   3.933   1.538   1.180
 5229SOL    HW116586   3.878   1.575   1.105
 5229SOL    HW216587   4.010   1.598   1.199
 5230SOL     OW16588   6.140   0.855   2.398
 5230SOL    HW116589   6.087   0.832   2.480
 5230SOL    HW216590   6.194   0.937   2.415
 5231SOL     OW16591   6.976   4.018   1.992
 5231SOL    HW116592   6.947   4.069   2.073
 5231SOL    HW216593   0.022   3.952   2.018
 5232SOL     OW16594   1.696   1.726   6.191
 5232SOL    HW116595   1.732   1.714   6.283
 5232SOL    HW216596   1.600   1.754   6.195
 5233SOL     OW16597   2.267   6.546   3.512
 5233SOL    HW116598   2.323   6.629   3.519
 5233SOL    HW216599   2.170   6.570   3.516
 5234SOL     OW16600   3.656   2.305   6.263
 5234SOL    HW116601   3.580   2.261   6.215
 5234SOL    HW216602   3.743   2.268   6.229
 5235SOL     OW16603   2.750   3.260   1.747
 5235SOL    HW116604   2.751   3.219   1.656
 5235SOL    HW216605   2.823   3.220   1.802
 5236SOL     OW16606   3.002   5.271   1.725
 5236SOL    HW116607   3.101   5.264   1.710
 5236SOL    HW216608   2.958   5.189   1.690
 5237SOL     OW16609   1.224   1.594   1.350
 5237SOL    HW116610   1.141   1.615   1.298
 5237SOL    HW216611   1.245   1.670   1.411
 5238SOL     OW16612   6.152   1.222   3.342
 5238SOL    HW116613   6.175   1.297   3.405
 5238SOL    HW216614   6.236   1.175   3.315
 5239SOL     OW16615   2.617   3.936   6.955
 5239SOL    HW116616   2.605   3.852   6.902
 5239SOL    HW216617   2.707   3.935   6.999
 5240SOL     OW16618   1.477   3.869   4.811
 5240SOL    HW116619   1.517   3.952   4.773
 5240SOL    HW216620   1.379   3.866   4.789
 5241SOL     OW16621   2.347   5.219   2.983
 5241SOL    HW116622   2.438   5.205   3.022
 5241SOL    HW216623   2.339   5.312   2.949
 5242SOL     OW16624   4.396   6.087   5.696
 5242SOL    HW116625   4.329   6.145   5.648
 5242SOL    HW216626   4.397   6.111   5.793
 5243SOL     OW16627   2.172   5.484   3.914
 5243SOL    HW116628   2.170   5.411   3.845
 5243SOL    HW216629   2.122   5.454   3.995
 5244SOL     OW16630   5.711   7.007   6.933
 5244SOL    HW116631   5.639   6.958   6.981
 5244SOL    HW216632   5.738   6.956   6.851
 5245SOL     OW16633   3.635   3.500   1.394
 5245SOL    HW116634   3.688   3.531   1.473
 5245SOL    HW216635   3.577   3.423   1.421
 5246SOL     OW16636   6.656   2.315   5.775
 5246SOL    HW116637   6.585   2.283   5.714
 5246SOL    HW216638   6.743   2.322   5.725
 5247SOL     OW16639   4.788   1.014   4.987
 5247SOL    HW116640   4.768   1.047   4.895
 5247SOL    HW216641   4.835   1.085   5.039
 5248SOL     OW16642   4.125   1.267   2.389
 5248SOL    HW116643   4.094   1.343   2.446
 5248SOL    HW216644   4.048   1.233   2.335
 5249SOL     OW16645   0.402   5.814   1.991
 5249SOL    HW116646   0.466   5.747   2.027
 5249SOL    HW216647   0.453   5.885   1.942
 5250SOL     OW16648   1.636   5.406   6.991
 5250SOL    HW116649   1.582   5.356   0.034
 5250SOL    HW216650   1.733   5.387   7.005
 5251SOL     OW16651   1.924   4.090   6.055
 5251SOL    HW116652   1.837   4.041   6.064
 5251SOL    HW216653   1.908   4.188   6.065
 5252SOL     OW16654   3.930   6.257   4.037
 5252SOL    HW116655   3.901   6.218   4.124
 5252SOL    HW216656   3.894   6.202   3.962
 5253SOL     OW16657   0.424   6.313   4.748
 5253SOL    HW116658   0.450   6.294   4.843
 5253SOL    HW216659   0.496   6.365   4.703
 5254SOL     OW16660   4.708   6.284   1.775
 5254SOL    HW116661   4.608   6.277   1.779
 5254SOL    HW216662   4.743   6.218   1.708
 5255SOL     OW16663   0.217   1.491   6.325
 5255SOL    HW116664   0.308   1.531   6.319
 5255SOL    HW216665   0.185   1.467   6.233
 5256SOL     OW16666   4.440   1.684   2.796
 5256SOL    HW116667   4.509   1.656   2.729
 5256SOL    HW216668   4.486   1.712   2.881
 5257SOL     OW16669   5.998   0.831   0.246
 5257SOL    HW116670   5.931   0.775   0.197
 5257SOL    HW216671   5.970   0.927   0.245
 5258SOL     OW16672   6.006   2.057   5.126
 5258SOL    HW116673   5.943   2.133   5.107
 5258SOL    HW216674   6.064   2.081   5.204
 5259SOL     OW16675   4.191   6.464   4.639
 5259SOL    HW116676   4.185   6.469   4.539
 5259SOL    HW216677   4.111   6.509   4.680
 5260SOL     OW16678   1.607   6.718   2.146
 5260SOL    HW116679   1.572   6.629   2.116
 5260SOL    HW216680   1.541   6.790   2.123
 5261SOL     OW16681   6.698   4.602   6.831
 5261SOL    HW116682   6.649   4.688   6.814
 5261SOL    HW216683   6.642   4.525   6.803
 5262SOL     OW16684   2.093   2.452   1.852
 5262SOL    HW116685   2.017   2.517   1.846
 5262SOL    HW216686   2.082   2.396   1.934
 5263SOL     OW16687   0.217   6.075   2.275
 5263SOL    HW116688   0.315   6.089   2.289
 5263SOL    HW216689   0.201   5.983   2.241
 5264SOL     OW16690   5.793   2.632   2.412
 5264SOL    HW116691   5.835   2.655   2.324
 5264SOL    HW216692   5.814   2.537   2.435
 5265SOL     OW16693   1.298   6.116   6.233
 5265SOL    HW116694   1.380   6.072   6.197
 5265SOL    HW216695   1.316   6.212   6.250
 5266SOL     OW16696   0.658   0.314   6.401
 5266SOL    HW116697   0.643   0.357   6.312
 5266SOL    HW216698   0.600   0.233   6.409
 5267SOL     OW16699   6.298   1.582   4.721
 5267SOL    HW116700   6.332   1.655   4.663
 5267SOL    HW216701   6.274   1.503   4.665
 5268SOL     OW16702   5.115   0.570   5.585
 5268SOL    HW116703   5.049   0.645   5.575
 5268SOL    HW216704   5.071   0.495   5.634
 5269SOL     OW16705   0.963   0.357   3.993
 5269SOL    HW116706   0.896   0.318   3.931
 5269SOL    HW216707   0.983   0.451   3.966
 5270SOL     OW16708   1.625   1.862   6.590
 5270SOL    HW116709   1.659   1.772   6.565
 5270SOL    HW216710   1.702   1.925   6.601
 5271SOL     OW16711   1.563   6.874   6.741
 5271SOL    HW116712   1.648   6.827   6.762
 5271SOL    HW216713   1.575   6.973   6.751
 5272SOL     OW16714   4.299   0.307   6.459
 5272SOL    HW116715   4.205   0.297   6.427
 5272SOL    HW216716   4.354   0.232   6.423
 5273SOL     OW16717   1.840   1.874   3.658
 5273SOL    HW116718   1.785   1.946   3.701
 5273SOL    HW216719   1.931   1.910   3.638
 5274SOL     OW16720   6.110   5.087   0.960
 5274SOL    HW116721   6.077   4.995   0.979
 5274SOL    HW216722   6.191   5.106   1.017
 5275SOL     OW16723   5.654   0.422   6.706
 5275SOL    HW116724   5.727   0.422   6.637
 5275SOL    HW216725   5.667   0.344   6.767
 5276SOL     OW16726   3.074   6.456   1.318
 5276SOL    HW116727   3.156   6.402   1.339
 5276SOL    HW216728   2.995   6.395   1.311
 5277SOL     OW16729   1.680   3.263   1.320
 5277SOL    HW116730   1.698   3.276   1.418
 5277SOL    HW216731   1.674   3.352   1.276
 5278SOL     OW16732   4.106   3.702   4.721
 5278SOL    HW116733   4.136   3.753   4.641
 5278SOL    HW216734   4.007   3.686   4.715
 5279SOL     OW16735   1.489   7.015   3.119
 5279SOL    HW116736   1.446   0.055   3.056
 5279SOL    HW216737   1.566   0.035   3.165
 5280SOL     OW16738   3.650   0.617   4.022
 5280SOL    HW116739   3.630   0.714   4.033
 5280SOL    HW216740   3.723   0.590   4.085
 5281SOL     OW16741   6.796   2.963   3.628
 5281SOL    HW116742   6.721   3.006   3.579
 5281SOL    HW216743   6.817   2.875   3.585
 5282SOL     OW16744   5.115   2.327   1.255
 5282SOL    HW116745   5.065   2.391   1.198
 5282SOL    HW216746   5.056   2.293   1.328
 5283SOL     OW16747   5.262   4.962   5.129
 5283SOL    HW116748   5.291   5.007   5.213
 5283SOL    HW216749   5.272   5.025   5.052
 5284SOL     OW16750   5.688   2.669   4.066
 5284SOL    HW116751   5.678   2.629   4.157
 5284SOL    HW216752   5.716   2.598   4.001
 5285SOL     OW16753   4.186   5.298   2.238
 5285SOL    HW116754   4.177   5.204   2.205
 5285SOL    HW216755   4.122   5.313   2.314
 5286SOL     OW16756   1.703   4.995   2.057
 5286SOL    HW116757   1.742   5.050   2.131
 5286SOL    HW216758   1.775   4.940   2.015
 5287SOL     OW16759   0.248   0.856   3.203
 5287SOL    HW116760   0.332   0.813   3.170
 5287SOL    HW216761   0.255   0.955   3.191
 5288SOL     OW16762   4.080   0.527   0.831
 5288SOL    HW116763   4.044   0.448   0.881
 5288SOL    HW216764   4.012   0.600   0.830
 5289SOL     OW16765   1.846   0.069   1.564
 5289SOL    HW116766   1.879   0.064   1.659
 5289SOL    HW216767   1.890   7.021   1.510
 5290SOL     OW16768   5.349   6.985   6.808
 5290SOL    HW116769   5.388   6.965   6.898
 5290SOL    HW216770   5.250   6.994   6.816
 5291SOL     OW16771   1.160   5.312   0.270
 5291SOL    HW116772   1.245   5.362   0.288
 5291SOL    HW216773   1.164   5.222   0.314
 5292SOL     OW16774   5.336   1.138   2.035
 5292SOL    HW116775   5.298   1.060   2.086
 5292SOL    HW216776   5.425   1.112   1.998
 5293SOL     OW16777   2.052   1.556   4.262
 5293SOL    HW116778   1.978   1.521   4.204
 5293SOL    HW216779   2.107   1.621   4.210
 5294SOL     OW16780   3.508   2.019   6.959
 5294SOL    HW116781   3.459   1.967   0.005
 5294SOL    HW216782   3.516   2.114   6.989
 5295SOL     OW16783   7.013   2.118   3.444
 5295SOL    HW116784   0.081   2.146   3.416
 5295SOL    HW216785   6.957   2.102   3.363
 5296SOL     OW16786   0.442   3.883   6.443
 5296SOL    HW116787   0.525   3.846   6.402
 5296SOL    HW216788   0.397   3.944   6.377
 5297SOL     OW16789   1.188   2.552   2.054
 5297SOL    HW116790   1.147   2.500   1.979
 5297SOL    HW216791   1.285   2.529   2.062
 5298SOL     OW16792   0.764   3.664   2.296
 5298SOL    HW116793   0.841   3.601   2.300
 5298SOL    HW216794   0.680   3.614   2.275
 5299SOL     OW16795   3.990   0.610   0.153
 5299SOL    HW116796   4.056   0.552   0.105
 5299SOL    HW216797   3.940   0.555   0.220
 5300SOL     OW16798   6.638   4.819   4.381
 5300SOL    HW116799   6.612   4.819   4.477
 5300SOL    HW216800   6.564   4.780   4.326
 5301SOL     OW16801   5.629   0.123   6.343
 5301SOL    HW116802   5.580   0.072   6.271
 5301SOL    HW216803   5.718   0.152   6.308
 5302SOL     OW16804   0.239   3.450   2.764
 5302SOL    HW116805   0.270   3.364   2.721
 5302SOL    HW216806   0.297   3.470   2.843
 5303SOL     OW16807   2.440   5.212   2.034
 5303SOL    HW116808   2.470   5.128   2.079
 5303SOL    HW216809   2.420   5.282   2.102
 5304SOL     OW16810   5.389   1.725   6.319
 5304SOL    HW116811   5.300   1.725   6.272
 5304SOL    HW216812   5.421   1.631   6.330
 5305SOL     OW16813   3.944   1.398   4.792
 5305SOL    HW116814   3.904   1.448   4.716
 5305SOL    HW216815   3.888   1.412   4.874
 5306SOL     OW16816   2.474   6.611   3.890
 5306SOL    HW116817   2.456   6.629   3.986
 5306SOL    HW216818   2.480   6.698   3.840
 5307SOL     OW16819   4.984   6.450   6.375
 5307SOL    HW116820   5.038   6.533   6.359
 5307SOL    HW216821   4.916   6.468   6.446
 5308SOL     OW16822   6.300   1.657   1.295
 5308SOL    HW116823   6.318   1.754   1.309
 5308SOL    HW216824   6.228   1.647   1.226
 5309SOL     OW16825   3.244   4.542   6.350
 5309SOL    HW116826   3.273   4.519   6.443
 5309SOL    HW216827   3.314   4.599   6.307
 5310SOL     OW16828   5.403   2.564   0.375
 5310SOL    HW116829   5.433   2.657   0.395
 5310SOL    HW216830   5.441   2.501   0.443
 5311SOL     OW16831   6.661   5.267   6.893
 5311SOL    HW116832   6.605   5.322   6.831
 5311SOL    HW216833   6.678   5.318   6.977
 5312SOL     OW16834   0.563   4.113   2.214
 5312SOL    HW116835   0.612   4.144   2.132
 5312SOL    HW216836   0.476   4.072   2.187
 5313SOL     OW16837   0.635   5.866   6.193
 5313SOL    HW116838   0.599   5.773   6.200
 5313SOL    HW216839   0.644   5.891   6.096
 5314SOL     OW16840   4.608   4.445   0.944
 5314SOL    HW116841   4.612   4.376   0.872
 5314SOL    HW216842   4.628   4.402   1.032
 5315SOL     OW16843   5.292   0.696   2.675
 5315SOL    HW116844   5.209   0.704   2.730
 5315SOL    HW216845   5.277   0.634   2.599
 5316SOL     OW16846   5.165   5.341   5.021
 5316SOL    HW116847   5.204   5.432   5.003
 5316SOL    HW216848   5.093   5.322   4.956
 5317SOL     OW16849   0.324   5.057   1.107
 5317SOL    HW116850   0.335   5.061   1.206
 5317SOL    HW216851   0.243   5.004   1.084
 5318SOL     OW16852   6.700   2.740   3.842
 5318SOL    HW116853   6.735   2.648   3.827
 5318SOL    HW216854   6.649   2.770   3.761
 5319SOL     OW16855   2.760   6.390   2.639
 5319SOL    HW116856   2.797   6.339   2.717
 5319SOL    HW216857   2.663   6.368   2.629
 5320SOL     OW16858   6.966   2.426   0.227
 5320SOL    HW116859   0.018   2.373   0.190
 5320SOL    HW216860   6.884   2.407   0.173
 5321SOL     OW16861   2.912   5.287   0.154
 5321SOL    HW116862   2.989   5.279   0.217
 5321SOL    HW216863   2.895   5.198   0.110
 5322SOL     OW16864   3.122   6.159   6.995
 5322SOL    HW116865   3.091   6.160   0.065
 5322SOL    HW216866   3.220   6.138   6.992
 5323SOL     OW16867   6.852   3.457   0.407
 5323SOL    HW116868   6.935   3.405   0.427
 5323SOL    HW216869   6.812   3.491   0.492
 5324SOL     OW16870   3.841   3.469   2.205
 5324SOL    HW116871   3.928   3.429   2.233
 5324SOL    HW216872   3.839   3.479   2.106
 5325SOL     OW16873   2.691   7.011   5.565
 5325SOL    HW116874   2.668   6.954   5.644
 5325SOL    HW216875   2.650   0.077   5.576
 5326SOL     OW16876   6.072   0.938   4.137
 5326SOL    HW116877   6.164   0.967   4.162
 5326SOL    HW216878   6.034   0.883   4.211
 5327SOL     OW16879   6.448   6.748   4.115
 5327SOL    HW116880   6.517   6.811   4.149
 5327SOL    HW216881   6.386   6.722   4.190
 5328SOL     OW16882   2.494   5.042   5.497
 5328SOL    HW116883   2.426   5.110   5.469
 5328SOL    HW216884   2.502   4.971   5.427
 5329SOL     OW16885   0.626   6.857   6.087
 5329SOL    HW116886   0.644   6.898   6.176
 5329SOL    HW216887   0.702   6.874   6.025
 5330SOL     OW16888   5.062   3.844   0.047
 5330SOL    HW116889   5.011   3.849   0.133
 5330SOL    HW216890   5.026   3.769   7.016
 5331SOL     OW16891   6.264   0.740   0.185
 5331SOL    HW116892   6.301   0.806   0.120
 5331SOL    HW216893   6.184   0.779   0.230
 5332SOL     OW16894   0.557   3.079   6.925
 5332SOL    HW116895   0.591   3.025   6.848
 5332SOL    HW216896   0.458   3.064   6.935
 5333SOL     OW16897   0.425   6.623   4.168
 5333SOL    HW116898   0.495   6.691   4.189
 5333SOL    HW216899   0.401   6.573   4.251
 5334SOL     OW16900   3.330   6.338   1.124
 5334SOL    HW116901   3.307   6.241   1.127
 5334SOL    HW216902   3.324   6.376   1.217
 5335SOL     OW16903   6.458   5.153   2.008
 5335SOL    HW116904   6.387   5.222   1.992
 5335SOL    HW216905   6.449   5.079   1.941
 5336SOL     OW16906   1.432   2.996   5.664
 5336SOL    HW116907   1.530   3.015   5.653
 5336SOL    HW216908   1.418   2.933   5.740
 5337SOL     OW16909   6.633   2.532   0.900
 5337SOL    HW116910   6.685   2.600   0.951
 5337SOL    HW216911   6.552   2.505   0.952
 5338SOL     OW16912   6.489   2.311   1.776
 5338SOL    HW116913   6.547   2.374   1.725
 5338SOL    HW216914   6.393   2.331   1.757
 5339SOL     OW16915   4.820   4.106   2.231
 5339SOL    HW116916   4.793   4.170   2.303
 5339SOL    HW216917   4.798   4.145   2.142
 5340SOL     OW16918   5.370   3.568   0.901
 5340SOL    HW116919   5.357   3.621   0.984
 5340SOL    HW216920   5.305   3.493   0.899
 5341SOL     OW16921   4.732   5.221   3.374
 5341SOL    HW116922   4.746   5.139   3.430
 5341SOL    HW216923   4.747   5.302   3.430
 5342SOL     OW16924   5.822   5.144   4.756
 5342SOL    HW116925   5.834   5.151   4.855
 5342SOL    HW216926   5.907   5.169   4.710
 5343SOL     OW16927   3.622   3.689   0.293
 5343SOL    HW116928   3.628   3.590   0.306
 5343SOL    HW216929   3.698   3.720   0.236
 5344SOL     OW16930   6.585   1.841   0.134
 5344SOL    HW116931   6.547   1.923   0.090
 5344SOL    HW216932   6.583   1.764   0.070
 5345SOL     OW16933   3.509   0.776   6.750
 5345SOL    HW116934   3.433   0.768   6.686
 5345SOL    HW216935   3.481   0.834   6.827
 5346SOL     OW16936   2.737   6.016   3.198
 5346SOL    HW116937   2.704   5.965   3.119
 5346SOL    HW216938   2.800   6.087   3.169
 5347SOL     OW16939   5.834   2.539   5.579
 5347SOL    HW116940   5.814   2.626   5.533
 5347SOL    HW216941   5.911   2.550   5.641
 5348SOL     OW16942   5.296   2.818   5.259
 5348SOL    HW116943   5.233   2.814   5.337
 5348SOL    HW216944   5.351   2.734   5.257
 5349SOL     OW16945   1.018   4.109   0.563
 5349SOL    HW116946   1.083   4.163   0.615
 5349SOL    HW216947   1.015   4.142   0.468
 5350SOL     OW16948   1.408   0.668   6.400
 5350SOL    HW116949   1.492   0.669   6.346
 5350SOL    HW216950   1.427   0.701   6.492
 5351SOL     OW16951   0.735   6.232   2.879
 5351SOL    HW116952   0.641   6.207   2.859
 5351SOL    HW216953   0.787   6.150   2.902
 5352SOL     OW16954   0.270   2.679   6.010
 5352SOL    HW116955   0.313   2.643   5.928
 5352SOL    HW216956   0.199   2.615   6.042
 5353SOL     OW16957   2.088   6.633   2.962
 5353SOL    HW116958   2.180   6.621   2.997
 5353SOL    HW216959   2.021   6.613   3.034
 5354SOL     OW16960   2.490   6.555   1.594
 5354SOL    HW116961   2.530   6.647   1.598
 5354SOL    HW216962   2.501   6.510   1.682
 5355SOL     OW16963   4.764   4.200   5.777
 5355SOL    HW116964   4.717   4.133   5.720
 5355SOL    HW216965   4.782   4.161   5.867
 5356SOL     OW16966   6.732   6.811   1.387
 5356SOL    HW116967   6.735   6.823   1.486
 5356SOL    HW216968   6.662   6.744   1.364
 5357SOL     OW16969   6.344   3.088   2.259
 5357SOL    HW116970   6.439   3.114   2.273
 5357SOL    HW216971   6.334   3.045   2.169
 5358SOL     OW16972   5.454   6.684   5.745
 5358SOL    HW116973   5.360   6.716   5.746
 5358SOL    HW216974   5.457   6.589   5.713
 5359SOL     OW16975   3.489   1.817   6.750
 5359SOL    HW116976   3.501   1.885   6.822
 5359SOL    HW216977   3.500   1.725   6.789
 5360SOL     OW16978   5.257   5.909   2.810
 5360SOL    HW116979   5.276   5.847   2.734
 5360SOL    HW216980   5.285   5.866   2.896
 5361SOL     OW16981   1.209   4.175   2.502
 5361SOL    HW116982   1.262   4.149   2.421
 5361SOL    HW216983   1.170   4.093   2.544
 5362SOL     OW16984   5.692   1.773   3.947
 5362SOL    HW116985   5.617   1.830   3.979
 5362SOL    HW216986   5.717   1.707   4.018
 5363SOL     OW16987   5.981   4.366   6.316
 5363SOL    HW116988   5.909   4.331   6.256
 5363SOL    HW216989   6.069   4.325   6.290
 5364SOL     OW16990   5.236   2.504   1.835
 5364SOL    HW116991   5.241   2.597   1.873
 5364SOL    HW216992   5.251   2.438   1.908
 5365SOL     OW16993   3.217   3.186   6.081
 5365SOL    HW116994   3.131   3.152   6.043
 5365SOL    HW216995   3.216   3.175   6.181
 5366SOL     OW16996   0.005   4.111   4.039
 5366SOL    HW116997   0.056   4.147   4.117
 5366SOL    HW216998   7.004   4.186   3.978
 5367SOL     OW16999   6.494   5.436   0.866
 5367SOL    HW117000   6.584   5.401   0.893
 5367SOL    HW217001   6.432   5.431   0.945
 5368SOL     OW17002   0.220   5.794   4.726
 5368SOL    HW117003   0.205   5.771   4.631
 5368SOL    HW217004   0.231   5.894   4.735
 5369SOL     OW17005   3.651   0.912   2.343
 5369SOL    HW117006   3.615   0.892   2.434
 5369SOL    HW217007   3.733   0.968   2.351
 5370SOL     OW17008   2.612   2.264   0.242
 5370SOL    HW117009   2.606   2.269   0.142
 5370SOL    HW217010   2.532   2.215   0.278
 5371SOL     OW17011   6.512   5.319   3.140
 5371SOL    HW117012   6.532   5.221   3.150
 5371SOL    HW217013   6.557   5.370   3.213
 5372SOL     OW17014   0.738   1.017   4.019
 5372SOL    HW117015   0.727   0.918   4.023
 5372SOL    HW217016   0.738   1.047   3.924
 5373SOL     OW17017   4.216   0.001   0.920
 5373SOL    HW117018   4.190   7.010   1.015
 5373SOL    HW217019   4.168   6.960   0.862
 5374SOL     OW17020   1.642   3.548   1.243
 5374SOL    HW117021   1.709   3.530   1.171
 5374SOL    HW217022   1.634   3.646   1.258
 5375SOL     OW17023   3.046   4.911   4.993
 5375SOL    HW117024   3.075   4.857   5.071
 5375SOL    HW217025   3.017   4.850   4.919
 5376SOL     OW17026   6.497   6.545   2.349
 5376SOL    HW117027   6.438   6.527   2.271
 5376SOL    HW217028   6.452   6.608   2.411
 5377SOL     OW17029   0.654   2.853   1.325
 5377SOL    HW117030   0.662   2.829   1.229
 5377SOL    HW217031   0.576   2.805   1.365
 5378SOL     OW17032   4.567   0.304   4.727
 5378SOL    HW117033   4.621   0.353   4.659
 5378SOL    HW217034   4.595   0.208   4.730
 5379SOL     OW17035   3.317   2.140   4.439
 5379SOL    HW117036   3.385   2.151   4.366
 5379SOL    HW217037   3.364   2.124   4.526
 5380SOL     OW17038   4.818   6.957   1.703
 5380SOL    HW117039   4.769   6.964   1.616
 5380SOL    HW217040   4.811   6.864   1.737
 5381SOL     OW17041   2.805   2.133   2.526
 5381SOL    HW117042   2.749   2.201   2.477
 5381SOL    HW217043   2.813   2.051   2.470
 5382SOL     OW17044   4.172   6.969   2.705
 5382SOL    HW117045   4.134   6.965   2.613
 5382SOL    HW217046   4.098   6.976   2.771
 5383SOL     OW17047   2.080   4.483   5.542
 5383SOL    HW117048   2.120   4.572   5.564
 5383SOL    HW217049   1.983   4.484   5.567
 5384SOL     OW17050   5.068   6.344   5.877
 5384SOL    HW117051   5.016   6.423   5.846
 5384SOL    HW217052   5.122   6.368   5.958
 5385SOL     OW17053   3.894   3.950   0.866
 5385SOL    HW117054   3.888   3.968   0.768
 5385SOL    HW217055   3.988   3.965   0.897
 5386SOL     OW17056   3.938   5.470   2.751
 5386SOL    HW117057   3.980   5.435   2.835
 5386SOL    HW217058   4.000   5.533   2.706
 5387SOL     OW17059   0.970   2.233   5.368
 5387SOL    HW117060   0.961   2.150   5.423
 5387SOL    HW217061   0.900   2.234   5.297
 5388SOL     OW17062   6.858   6.491   3.254
 5388SOL    HW117063   6.948   6.457   3.227
 5388SOL    HW217064   6.813   6.424   3.312
 5389SOL     OW17065   6.874   1.887   4.609
 5389SOL    HW117066   6.936   1.947   4.658
 5389SOL    HW217067   6.927   1.814   4.564
 5390SOL     OW17068   5.644   2.261   3.325
 5390SOL    HW117069   5.629   2.248   3.227
 5390SOL    HW217070   5.743   2.257   3.344
 5391SOL     OW17071   4.777   3.283   0.730
 5391SOL    HW117072   4.699   3.267   0.791
 5391SOL    HW217073   4.832   3.358   0.766
 5392SOL     OW17074   5.140   1.354   3.931
 5392SOL    HW117075   5.146   1.426   4.000
 5392SOL    HW217076   5.045   1.343   3.902
 5393SOL     OW17077   4.772   2.899   2.725
 5393SOL    HW117078   4.760   2.886   2.626
 5393SOL    HW217079   4.851   2.957   2.741
 5394SOL     OW17080   0.357   3.231   3.520
 5394SOL    HW117081   0.405   3.285   3.590
 5394SOL    HW217082   0.424   3.198   3.453
 5395SOL     OW17083   0.412   0.380   1.460
 5395SOL    HW117084   0.353   0.453   1.427
 5395SOL    HW217085   0.435   0.396   1.556
 5396SOL     OW17086   3.487   2.310   0.031
 5396SOL    HW117087   3.454   2.352   0.115
 5396SOL    HW217088   3.422   2.327   6.982
 5397SOL     OW17089   0.447   6.775   3.007
 5397SOL    HW117090   0.457   6.865   2.964
 5397SOL    HW217091   0.504   6.771   3.089
 5398SOL     OW17092   5.927   2.621   3.388
 5398SOL    HW117093   5.924   2.576   3.299
 5398SOL    HW217094   6.022   2.635   3.415
 5399SOL     OW17095   2.893   2.642   6.963
 5399SOL    HW117096   2.972   2.595   7.003
 5399SOL    HW217097   2.842   2.689   0.011
 5400SOL     OW17098   4.472   3.003   1.075
 5400SOL    HW117099   4.542   2.932   1.073
 5400SOL    HW217100   4.411   2.988   1.152
 5401SOL     OW17101   4.978   4.062   1.509
 5401SOL    HW117102   4.998   4.154   1.477
 5401SOL    HW217103   4.886   4.036   1.481
 5402SOL     OW17104   2.355   5.462   1.348
 5402SOL    HW117105   2.419   5.456   1.271
 5402SOL    HW217106   2.279   5.399   1.332
 5403SOL     OW17107   6.336   2.755   5.225
 5403SOL    HW117108   6.418   2.800   5.260
 5403SOL    HW217109   6.323   2.780   5.129
 5404SOL     OW17110   4.664   6.587   6.783
 5404SOL    HW117111   4.635   6.675   6.820
 5404SOL    HW217112   4.653   6.516   6.853
 5405SOL     OW17113   6.109   5.294   6.090
 5405SOL    HW117114   6.038   5.359   6.063
 5405SOL    HW217115   6.197   5.342   6.096
 5406SOL     OW17116   2.175   1.443   5.282
 5406SOL    HW117117   2.157   1.522   5.340
 5406SOL    HW217118   2.196   1.363   5.339
 5407SOL     OW17119   2.045   1.848   2.562
 5407SOL    HW117120   2.101   1.929   2.543
 5407SOL    HW217121   1.954   1.860   2.524
 5408SOL     OW17122   2.496   2.511   4.123
 5408SOL    HW117123   2.547   2.475   4.202
 5408SOL    HW217124   2.398   2.500   4.138
 5409SOL     OW17125   0.316   4.596   3.618
 5409SOL    HW117126   0.320   4.594   3.718
 5409SOL    HW217127   0.327   4.690   3.587
 5410SOL     OW17128   5.997   1.263   0.088
 5410SOL    HW117129   6.001   1.363   0.084
 5410SOL    HW217130   5.966   1.235   0.179
 5411SOL     OW17131   3.054   6.590   2.101
 5411SOL    HW117132   3.065   6.584   2.002
 5411SOL    HW217133   3.044   6.686   2.127
 5412SOL     OW17134   2.612   2.594   5.659
 5412SOL    HW117135   2.564   2.514   5.622
 5412SOL    HW217136   2.608   2.591   5.759
 5413SOL     OW17137   6.954   5.305   5.303
 5413SOL    HW117138   6.921   5.244   5.231
 5413SOL    HW217139   7.010   5.252   5.368
 5414SOL     OW17140   6.312   5.964   5.743
 5414SOL    HW117141   6.363   5.883   5.716
 5414SOL    HW217142   6.215   5.951   5.722
 5415SOL     OW17143   2.480   0.243   6.989
 5415SOL    HW117144   2.550   0.296   0.012
 5415SOL    HW217145   2.514   0.150   6.974
 5416SOL     OW17146   4.246   4.812   5.988
 5416SOL    HW117147   4.170   4.803   6.053
 5416SOL    HW217148   4.329   4.834   6.039
 5417SOL     OW17149   5.204   0.455   2.514
 5417SOL    HW117150   5.241   0.403   2.438
 5417SOL    HW217151   5.133   0.518   2.481
 5418SOL     OW17152   0.167   2.883   6.151
 5418SOL    HW117153   0.205   2.812   6.092
 5418SOL    HW217154   0.175   2.855   6.246
 5419SOL     OW17155   4.308   2.349   5.910
 5419SOL    HW117156   4.312   2.443   5.945
 5419SOL    HW217157   4.215   2.315   5.916
 5420SOL     OW17158   1.458   2.004   1.062
 5420SOL    HW117159   1.510   1.920   1.076
 5420SOL    HW217160   1.364   1.992   1.091
 5421SOL     OW17161   3.495   5.516   1.033
 5421SOL    HW117162   3.513   5.597   0.978
 5421SOL    HW217163   3.524   5.533   1.128
 5422SOL     OW17164   2.404   6.774   3.162
 5422SOL    HW117165   2.464   6.704   3.125
 5422SOL    HW217166   2.337   6.732   3.224
 5423SOL     OW17167   4.205   6.182   2.859
 5423SOL    HW117168   4.138   6.251   2.883
 5423SOL    HW217169   4.289   6.196   2.912
 5424SOL     OW17170   4.426   3.330   5.637
 5424SOL    HW117171   4.448   3.356   5.731
 5424SOL    HW217172   4.343   3.376   5.608
 5425SOL     OW17173   2.010   5.765   4.386
 5425SOL    HW117174   2.011   5.817   4.471
 5425SOL    HW217175   2.092   5.787   4.332
 5426SOL     OW17176   1.587   3.964   6.952
 5426SOL    HW117177   1.489   3.946   6.951
 5426SOL    HW217178   1.636   3.882   6.983
 5427SOL     OW17179   4.752   1.517   0.070
 5427SOL    HW117180   4.848   1.543   0.058
 5427SOL    HW217181   4.734   1.432   0.020
 5428SOL     OW17182   5.087   5.580   2.576
 5428SOL    HW117183   5.143   5.502   2.546
 5428SOL    HW217184   5.130   5.665   2.547
 5429SOL     OW17185   2.576   6.512   2.994
 5429SOL    HW117186   2.562   6.413   2.991
 5429SOL    HW217187   2.608   6.543   2.905
 5430SOL     OW17188   1.117   3.608   5.481
 5430SOL    HW117189   1.019   3.627   5.483
 5430SOL    HW217190   1.163   3.677   5.425
 5431SOL     OW17191   5.225   4.261   1.090
 5431SOL    HW117192   5.129   4.280   1.071
 5431SOL    HW217193   5.279   4.277   1.007
 5432SOL     OW17194   1.748   5.333   5.758
 5432SOL    HW117195   1.738   5.324   5.659
 5432SOL    HW217196   1.665   5.300   5.803
 5433SOL     OW17197   3.479   0.223   2.234
 5433SOL    HW117198   3.429   0.305   2.206
 5433SOL    HW217199   3.569   0.223   2.192
 5434SOL     OW17200   5.133   6.327   4.059
 5434SOL    HW117201   5.202   6.387   4.019
 5434SOL    HW217202   5.082   6.376   4.130
 5435SOL     OW17203   1.078   3.094   0.234
 5435SOL    HW117204   1.136   3.103   0.154
 5435SOL    HW217205   1.035   3.004   0.235
 5436SOL     OW17206   1.369   4.332   1.074
 5436SOL    HW117207   1.284   4.374   1.041
 5436SOL    HW217208   1.443   4.352   1.010
 5437SOL     OW17209   2.937   6.888   5.573
 5437SOL    HW117210   2.912   6.835   5.654
 5437SOL    HW217211   2.877   6.967   5.565
 5438SOL     OW17212   4.583   6.720   3.732
 5438SOL    HW117213   4.531   6.660   3.671
 5438SOL    HW217214   4.556   6.815   3.717
 5439SOL     OW17215   1.190   3.760   1.934
 5439SOL    HW117216   1.112   3.779   1.875
 5439SOL    HW217217   1.275   3.764   1.880
 5440SOL     OW17218   5.046   6.652   3.195
 5440SOL    HW117219   5.095   6.643   3.108
 5440SOL    HW217220   5.090   6.593   3.264
 5441SOL     OW17221   5.975   0.170   4.893
 5441SOL    HW117222   5.960   0.180   4.992
 5441SOL    HW217223   6.062   0.212   4.868
 5442SOL     OW17224   2.639   5.753   0.197
 5442SOL    HW117225   2.643   5.786   0.103
 5442SOL    HW217226   2.703   5.678   0.208
 5443SOL     OW17227   5.933   1.177   3.148
 5443SOL    HW117228   6.004   1.213   3.210
 5443SOL    HW217229   5.876   1.112   3.198
 5444SOL     OW17230   2.138   1.613   6.101
 5444SOL    HW117231   2.069   1.577   6.039
 5444SOL    HW217232   2.130   1.712   6.106
 5445SOL     OW17233   6.772   6.376   5.353
 5445SOL    HW117234   6.747   6.338   5.442
 5445SOL    HW217235   6.821   6.462   5.367
 5446SOL     OW17236   2.248   4.132   0.014
 5446SOL    HW117237   2.152   4.151   0.033
 5446SOL    HW217238   2.278   4.187   6.960
 5447SOL     OW17239   5.467   2.701   1.522
 5447SOL    HW117240   5.551   2.675   1.569
 5447SOL    HW217241   5.488   2.730   1.429
 5448SOL     OW17242   6.216   5.913   0.874
 5448SOL    HW117243   6.314   5.932   0.882
 5448SOL    HW217244   6.171   5.988   0.826
 5449SOL     OW17245   2.076   0.009   2.662
 5449SOL    HW117246   2.021   6.950   2.668
 5449SOL    HW217247   2.162   7.021   2.711
 5450SOL     OW17248   4.325   4.671   1.873
 5450SOL    HW117249   4.384   4.694   1.795
 5450SOL    HW217250   4.288   4.579   1.860
 5451SOL     OW17251   0.239   5.707   3.288
 5451SOL    HW117252   0.276   5.686   3.198
 5451SOL    HW217253   0.145   5.673   3.295
 5452SOL     OW17254   2.261   4.007   3.285
 5452SOL    HW117255   2.275   3.927   3.226
 5452SOL    HW217256   2.222   4.082   3.232
 5453SOL     OW17257   5.998   5.243   4.576
 5453SOL    HW117258   5.949   5.313   4.524
 5453SOL    HW217259   6.068   5.286   4.632
 5454SOL     OW17260   6.391   3.883   1.948
 5454SOL    HW117261   6.389   3.801   2.006
 5454SOL    HW217262   6.353   3.960   1.998
 5455SOL     OW17263   1.763   2.302   2.899
 5455SOL    HW117264   1.802   2.216   2.864
 5455SOL    HW217265   1.664   2.302   2.885
 5456SOL     OW17266   5.949   3.098   7.012
 5456SOL    HW117267   5.954   3.194   6.986
 5456SOL    HW217268   5.980   3.041   6.935
 5457SOL     OW17269   6.175   0.690   0.675
 5457SOL    HW117270   6.135   0.633   0.746
 5457SOL    HW217271   6.117   0.689   0.594
 5458SOL     OW17272   5.888   4.625   6.296
 5458SOL    HW117273   5.912   4.528   6.306
 5458SOL    HW217274   5.968   4.682   6.313
 5459SOL     OW17275   1.892   3.871   5.419
 5459SOL    HW117276   1.799   3.844   5.395
 5459SOL    HW217277   1.921   3.822   5.502
 5460SOL     OW17278   6.718   1.571   1.160
 5460SOL    HW117279   6.622   1.544   1.158
 5460SOL    HW217280   6.745   1.592   1.254
 5461SOL     OW17281   5.506   0.447   5.653
 5461SOL    HW117282   5.431   0.456   5.717
 5461SOL    HW217283   5.593   0.446   5.703
 5462SOL     OW17284   5.869   4.964   0.541
 5462SOL    HW117285   5.819   4.930   0.462
 5462SOL    HW217286   5.836   4.919   0.624
 5463SOL     OW17287   3.281   4.726   0.108
 5463SOL    HW117288   3.272   4.634   0.145
 5463SOL    HW217289   3.290   4.792   0.182
 5464SOL     OW17290   2.494   5.758   4.222
 5464SOL    HW117291   2.539   5.842   4.194
 5464SOL    HW217292   2.514   5.685   4.157
 5465SOL     OW17293   0.640   1.461   4.657
 5465SOL    HW117294   0.579   1.489   4.732
 5465SOL    HW217295   0.607   1.375   4.619
 5466SOL     OW17296   5.325   2.120   4.728
 5466SOL    HW117297   5.234   2.121   4.769
 5466SOL    HW217298   5.318   2.132   4.629
 5467SOL     OW17299   4.792   4.737   3.327
 5467SOL    HW117300   4.759   4.820   3.281
 5467SOL    HW217301   4.843   4.681   3.261
 5468SOL     OW17302   0.138   2.712   1.546
 5468SOL    HW117303   0.066   2.753   1.603
 5468SOL    HW217304   0.227   2.747   1.576
 5469SOL     OW17305   4.512   0.639   3.053
 5469SOL    HW117306   4.475   0.610   3.141
 5469SOL    HW217307   4.437   0.671   2.995
 5470SOL     OW17308   2.531   4.532   3.212
 5470SOL    HW117309   2.471   4.452   3.211
 5470SOL    HW217310   2.614   4.511   3.264
 5471SOL     OW17311   5.549   0.606   4.146
 5471SOL    HW117312   5.559   0.522   4.092
 5471SOL    HW217313   5.458   0.645   4.132
 5472SOL     OW17314   2.474   4.687   0.663
 5472SOL    HW117315   2.415   4.618   0.620
 5472SOL    HW217316   2.508   4.652   0.750
 5473SOL     OW17317   2.980   4.828   1.956
 5473SOL    HW117318   2.943   4.736   1.969
 5473SOL    HW217319   3.078   4.822   1.936
 5474SOL     OW17320   1.167   5.372   1.819
 5474SOL    HW117321   1.229   5.313   1.871
 5474SOL    HW217322   1.100   5.412   1.882
 5475SOL     OW17323   0.225   1.220   5.478
 5475SOL    HW117324   0.256   1.127   5.496
 5475SOL    HW217325   0.302   1.283   5.481
 5476SOL     OW17326   3.184   1.438   4.344
 5476SOL    HW117327   3.207   1.536   4.336
 5476SOL    HW217328   3.181   1.413   4.441
 5477SOL     OW17329   1.895   4.189   2.697
 5477SOL    HW117330   1.845   4.135   2.629
 5477SOL    HW217331   1.916   4.132   2.776
 5478SOL     OW17332   6.492   3.033   5.570
 5478SOL    HW117333   6.482   2.978   5.487
 5478SOL    HW217334   6.402   3.061   5.602
 5479SOL     OW17335   5.220   4.154   4.961
 5479SOL    HW117336   5.152   4.112   4.900
 5479SOL    HW217337   5.175   4.221   5.020
 5480SOL     OW17338   2.241   2.403   6.211
 5480SOL    HW117339   2.290   2.346   6.277
 5480SOL    HW217340   2.201   2.482   6.259
 5481SOL     OW17341   3.710   0.573   0.725
 5481SOL    HW117342   3.784   0.638   0.743
 5481SOL    HW217343   3.747   0.493   0.677
 5482SOL     OW17344   5.269   4.524   2.442
 5482SOL    HW117345   5.323   4.442   2.424
 5482SOL    HW217346   5.327   4.605   2.429
 5483SOL     OW17347   5.956   1.562   0.432
 5483SOL    HW117348   5.903   1.647   0.436
 5483SOL    HW217349   6.047   1.578   0.468
 5484SOL     OW17350   6.083   0.200   5.816
 5484SOL    HW117351   6.031   0.250   5.746
 5484SOL    HW217352   6.134   0.126   5.772
 5485SOL     OW17353   2.630   1.233   4.035
 5485SOL    HW117354   2.612   1.317   4.086
 5485SOL    HW217355   2.727   1.210   4.043
 5486SOL     OW17356   6.863   1.060   3.756
 5486SOL    HW117357   6.774   1.051   3.799
 5486SOL    HW217358   6.903   0.970   3.741
 5487SOL     OW17359   4.157   5.723   1.304
 5487SOL    HW117360   4.085   5.790   1.323
 5487SOL    HW217361   4.241   5.749   1.352
 5488SOL     OW17362   4.660   6.926   6.407
 5488SOL    HW117363   4.566   6.895   6.398
 5488SOL    HW217364   4.691   6.912   6.501
 5489SOL     OW17365   6.473   3.358   2.806
 5489SOL    HW117366   6.408   3.430   2.780
 5489SOL    HW217367   6.506   3.312   2.723
 5490SOL     OW17368   3.077   1.294   6.735
 5490SOL    HW117369   3.102   1.316   6.640
 5490SOL    HW217370   3.119   1.208   6.761
 5491SOL     OW17371   6.021   6.696   1.807
 5491SOL    HW117372   6.051   6.699   1.712
 5491SOL    HW217373   6.098   6.717   1.867
 5492SOL     OW17374   1.796   1.086   5.243
 5492SOL    HW117375   1.835   1.174   5.218
 5492SOL    HW217376   1.736   1.054   5.168
 5493SOL     OW17377   3.976   1.182   6.976
 5493SOL    HW117378   4.053   1.246   6.973
 5493SOL    HW217379   3.990   1.117   0.026
 5494SOL     OW17380   5.516   3.241   2.303
 5494SOL    HW117381   5.584   3.176   2.339
 5494SOL    HW217382   5.557   3.296   2.230
 5495SOL     OW17383   3.645   3.213   5.051
 5495SOL    HW117384   3.566   3.266   5.022
 5495SOL    HW217385   3.617   3.120   5.074
 5496SOL     OW17386   4.572   5.041   2.096
 5496SOL    HW117387   4.476   5.065   2.086
 5496SOL    HW217388   4.613   5.098   2.168
 5497SOL     OW17389   5.786   6.560   0.060
 5497SOL    HW117390   5.719   6.602   0.120
 5497SOL    HW217391   5.875   6.556   0.106
 5498SOL     OW17392   3.834   0.985   3.830
 5498SOL    HW117393   3.908   1.035   3.786
 5498SOL    HW217394   3.750   0.994   3.777
 5499SOL     OW17395   0.665   0.476   4.933
 5499SOL    HW117396   0.678   0.461   5.031
 5499SOL    HW217397   0.686   0.392   4.883
 5500SOL     OW17398   1.627   6.199   0.767
 5500SOL    HW117399   1.616   6.120   0.707
 5500SOL    HW217400   1.710   6.187   0.822
 5501SOL     OW17401   2.131   1.234   2.243
 5501SOL    HW117402   2.152   1.304   2.174
 5501SOL    HW217403   2.061   1.268   2.306
 5502SOL     OW17404   5.353   4.710   0.879
 5502SOL    HW117405   5.267   4.659   0.870
 5502SOL    HW217406   5.373   4.757   0.793
 5503SOL     OW17407   6.760   0.962   4.093
 5503SOL    HW117408   6.809   1.049   4.104
 5503SOL    HW217409   6.702   0.967   4.011
 5504SOL     OW17410   2.267   2.168   4.864
 5504SOL    HW117411   2.304   2.079   4.838
 5504SOL    HW217412   2.333   2.239   4.843
 5505SOL     OW17413   3.628   5.365   0.656
 5505SOL    HW117414   3.664   5.449   0.614
 5505SOL    HW217415   3.556   5.389   0.722
 5506SOL     OW17416   1.003   6.660   5.047
 5506SOL    HW117417   0.996   6.623   4.954
 5506SOL    HW217418   1.092   6.636   5.085
 5507SOL     OW17419   2.366   5.349   5.124
 5507SOL    HW117420   2.340   5.362   5.028
 5507SOL    HW217421   2.343   5.256   5.152
 5508SOL     OW17422   2.615   1.452   5.688
 5508SOL    HW117423   2.593   1.369   5.637
 5508SOL    HW217424   2.644   1.524   5.625
 5509SOL     OW17425   6.846   0.107   6.377
 5509SOL    HW117426   6.835   0.008   6.374
 5509SOL    HW217427   6.802   0.143   6.459
 5510SOL     OW17428   0.926   0.684   5.425
 5510SOL    HW117429   0.881   0.621   5.488
 5510SOL    HW217430   0.859   0.717   5.358
 5511SOL     OW17431   0.597   2.479   0.883
 5511SOL    HW117432   0.559   2.387   0.883
 5511SOL    HW217433   0.525   2.545   0.861
 5512SOL     OW17434   6.757   6.494   0.257
 5512SOL    HW117435   6.813   6.573   0.284
 5512SOL    HW217436   6.802   6.445   0.182
 5513SOL     OW17437   2.521   6.300   4.530
 5513SOL    HW117438   2.471   6.262   4.608
 5513SOL    HW217439   2.479   6.386   4.502
 5514SOL     OW17440   5.400   5.832   3.680
 5514SOL    HW117441   5.338   5.785   3.618
 5514SOL    HW217442   5.349   5.898   3.735
 5515SOL     OW17443   1.173   4.211   3.866
 5515SOL    HW117444   1.096   4.149   3.850
 5515SOL    HW217445   1.254   4.176   3.820
 5516SOL     OW17446   2.237   2.926   0.063
 5516SOL    HW117447   2.200   3.019   0.050
 5516SOL    HW217448   2.197   2.885   0.145
 5517SOL     OW17449   3.042   0.597   2.516
 5517SOL    HW117450   2.943   0.579   2.519
 5517SOL    HW217451   3.058   0.689   2.478
 5518SOL     OW17452   5.562   3.972   6.275
 5518SOL    HW117453   5.610   4.051   6.313
 5518SOL    HW217454   5.550   3.985   6.176
 5519SOL     OW17455   5.116   3.947   2.325
 5519SOL    HW117456   5.123   3.971   2.422
 5519SOL    HW217457   5.036   3.888   2.311
 5520SOL     OW17458   1.500   2.845   0.976
 5520SOL    HW117459   1.465   2.870   1.065
 5520SOL    HW217460   1.453   2.762   0.944
 5521SOL     OW17461   5.348   4.607   6.523
 5521SOL    HW117462   5.280   4.557   6.469
 5521SOL    HW217463   5.318   4.702   6.535
 5522SOL     OW17464   1.875   3.100   1.243
 5522SOL    HW117465   1.837   3.008   1.240
 5522SOL    HW217466   1.800   3.167   1.250
 5523SOL     OW17467   2.242   6.646   1.726
 5523SOL    HW117468   2.303   6.615   1.799
 5523SOL    HW217469   2.289   6.712   1.669
 5524SOL     OW17470   6.177   6.268   5.853
 5524SOL    HW117471   6.152   6.311   5.940
 5524SOL    HW217472   6.272   6.289   5.832
 5525SOL     OW17473   6.771   6.574   3.019
 5525SOL    HW117474   6.799   6.550   3.112
 5525SOL    HW217475   6.752   6.491   2.967
 5526SOL     OW17476   5.519   3.791   4.685
 5526SOL    HW117477   5.450   3.822   4.619
 5526SOL    HW217478   5.601   3.761   4.636
 5527SOL     OW17479   3.286   3.213   0.262
 5527SOL    HW117480   3.374   3.239   0.223
 5527SOL    HW217481   3.261   3.277   0.334
 5528SOL     OW17482   5.981   2.836   2.528
 5528SOL    HW117483   6.025   2.874   2.447
 5528SOL    HW217484   5.896   2.886   2.545
 5529SOL     OW17485   1.242   0.835   4.395
 5529SOL    HW117486   1.336   0.854   4.367
 5529SOL    HW217487   1.182   0.906   4.360
 5530SOL     OW17488   0.120   3.230   7.014
 5530SOL    HW117489   0.070   3.316   7.001
 5530SOL    HW217490   0.073   3.157   6.964
 5531SOL     OW17491   3.030   3.137   0.950
 5531SOL    HW117492   2.944   3.132   1.001
 5531SOL    HW217493   3.101   3.179   1.008
 5532SOL     OW17494   2.499   2.763   1.775
 5532SOL    HW117495   2.457   2.685   1.729
 5532SOL    HW217496   2.486   2.754   1.874
 5533SOL     OW17497   2.889   0.303   0.930
 5533SOL    HW117498   2.887   0.204   0.946
 5533SOL    HW217499   2.975   0.340   0.962
 5534SOL     OW17500   0.744   3.448   5.360
 5534SOL    HW117501   0.771   3.382   5.430
 5534SOL    HW217502   0.776   3.539   5.387
 5535SOL     OW17503   5.121   4.767   3.673
 5535SOL    HW117504   5.023   4.750   3.681
 5535SOL    HW217505   5.137   4.845   3.614
 5536SOL     OW17506   2.455   1.558   4.680
 5536SOL    HW117507   2.416   1.637   4.634
 5536SOL    HW217508   2.409   1.475   4.647
 5537SOL     OW17509   3.888   1.659   3.580
 5537SOL    HW117510   3.960   1.623   3.639
 5537SOL    HW217511   3.845   1.738   3.624
 5538SOL     OW17512   4.741   2.283   2.647
 5538SOL    HW117513   4.787   2.304   2.560
 5538SOL    HW217514   4.645   2.309   2.640
 5539SOL     OW17515   1.152   0.772   6.391
 5539SOL    HW117516   1.102   0.786   6.306
 5539SOL    HW217517   1.237   0.723   6.373
 5540SOL     OW17518   5.068   0.150   5.166
 5540SOL    HW117519   5.104   0.063   5.132
 5540SOL    HW217520   5.113   0.173   5.253
 5541SOL     OW17521   4.783   2.854   5.503
 5541SOL    HW117522   4.831   2.907   5.573
 5541SOL    HW217523   4.786   2.757   5.526
 5542SOL     OW17524   4.981   4.440   6.824
 5542SOL    HW117525   5.019   4.525   6.862
 5542SOL    HW217526   5.054   4.372   6.815
 5543SOL     OW17527   0.254   0.368   6.020
 5543SOL    HW117528   0.264   0.280   6.066
 5543SOL    HW217529   0.157   0.387   6.004
 5544SOL     OW17530   4.067   4.865   6.916
 5544SOL    HW117531   4.159   4.901   6.934
 5544SOL    HW217532   4.075   4.773   6.876
 5545SOL     OW17533   5.381   2.001   3.125
 5545SOL    HW117534   5.426   2.037   3.207
 5545SOL    HW217535   5.445   1.944   3.074
 5546SOL     OW17536   0.731   6.147   4.438
 5546SOL    HW117537   0.661   6.087   4.398
 5546SOL    HW217538   0.815   6.141   4.384
 5547SOL     OW17539   4.839   1.395   4.675
 5547SOL    HW117540   4.869   1.380   4.581
 5547SOL    HW217541   4.796   1.485   4.682
 5548SOL     OW17542   1.171   3.773   4.633
 5548SOL    HW117543   1.128   3.749   4.720
 5548SOL    HW217544   1.105   3.760   4.559
 5549SOL     OW17545   4.181   3.393   0.183
 5549SOL    HW117546   4.224   3.303   0.176
 5549SOL    HW217547   4.217   3.454   0.113
 5550SOL     OW17548   3.129   3.865   1.495
 5550SOL    HW117549   3.219   3.890   1.531
 5550SOL    HW217550   3.138   3.833   1.401
 5551SOL     OW17551   1.229   4.509   2.421
 5551SOL    HW117552   1.207   4.414   2.441
 5551SOL    HW217553   1.145   4.563   2.415
 5552SOL     OW17554   0.673   0.454   0.736
 5552SOL    HW117555   0.685   0.506   0.651
 5552SOL    HW217556   0.690   0.515   0.814
 5553SOL     OW17557   5.988   5.783   0.853
 5553SOL    HW117558   5.962   5.732   0.771
 5553SOL    HW217559   6.084   5.810   0.846
 5554SOL     OW17560   0.027   2.287   1.799
 5554SOL    HW117561   0.032   2.340   1.883
 5554SOL    HW217562   0.109   2.230   1.790
 5555SOL     OW17563   1.104   4.838   1.857
 5555SOL    HW117564   1.165   4.858   1.934
 5555SOL    HW217565   1.013   4.814   1.891
 5556SOL     OW17566   6.713   1.929   5.065
 5556SOL    HW117567   6.631   1.924   5.122
 5556SOL    HW217568   6.688   1.924   4.969
 5557SOL     OW17569   3.578   0.045   2.923
 5557SOL    HW117570   3.516   7.004   2.880
 5557SOL    HW217571   3.616   0.106   2.853
 5558SOL     OW17572   3.686   3.494   6.156
 5558SOL    HW117573   3.736   3.559   6.214
 5558SOL    HW217574   3.733   3.484   6.069
 5559SOL     OW17575   3.349   0.871   2.903
 5559SOL    HW117576   3.332   0.778   2.869
 5559SOL    HW217577   3.416   0.867   2.977
 5560SOL     OW17578   0.100   5.273   3.341
 5560SOL    HW117579   0.111   5.268   3.440
 5560SOL    HW217580   0.166   5.337   3.303
 5561SOL     OW17581   3.149   0.895   3.551
 5561SOL    HW117582   3.055   0.930   3.560
 5561SOL    HW217583   3.212   0.959   3.595
 5562SOL     OW17584   5.024   3.111   0.931
 5562SOL    HW117585   5.038   3.020   0.969
 5562SOL    HW217586   4.941   3.152   0.971
 5563SOL     OW17587   1.687   4.139   2.239
 5563SOL    HW117588   1.704   4.230   2.202
 5563SOL    HW217589   1.762   4.078   2.213
 5564SOL     OW17590   4.389   7.015   7.022
 5564SOL    HW117591   4.402   0.049   6.941
 5564SOL    HW217592   4.295   6.981   7.023
 5565SOL     OW17593   2.944   1.788   6.422
 5565SOL    HW117594   3.008   1.711   6.414
 5565SOL    HW217595   2.860   1.757   6.466
 5566SOL     OW17596   1.321   5.408   5.393
 5566SOL    HW117597   1.289   5.496   5.357
 5566SOL    HW217598   1.394   5.424   5.460
 5567SOL     OW17599   1.269   5.256   6.670
 5567SOL    HW117600   1.248   5.348   6.638
 5567SOL    HW217601   1.343   5.261   6.738
 5568SOL     OW17602   5.262   5.408   2.012
 5568SOL    HW117603   5.169   5.378   2.035
 5568SOL    HW217604   5.313   5.423   2.097
 5569SOL     OW17605   1.756   2.548   2.806
 5569SOL    HW117606   1.772   2.463   2.857
 5569SOL    HW217607   1.665   2.582   2.826
 5570SOL     OW17608   0.162   3.092   1.148
 5570SOL    HW117609   0.160   3.179   1.196
 5570SOL    HW217610   0.126   3.104   1.055
 5571SOL     OW17611   6.834   4.383   6.542
 5571SOL    HW117612   6.801   4.435   6.621
 5571SOL    HW217613   6.910   4.324   6.570
 5572SOL     OW17614   1.133   4.518   5.452
 5572SOL    HW117615   1.094   4.484   5.366
 5572SOL    HW217616   1.087   4.473   5.529
 5573SOL     OW17617   3.163   4.890   3.286
 5573SOL    HW117618   3.205   4.875   3.376
 5573SOL    HW217619   3.233   4.879   3.215
 5574SOL     OW17620   1.165   1.052   6.066
 5574SOL    HW117621   1.144   1.123   5.998
 5574SOL    HW217622   1.175   1.094   6.156
 5575SOL     OW17623   0.036   0.618   1.635
 5575SOL    HW117624   6.962   0.605   1.619
 5575SOL    HW217625   0.052   0.625   1.734
 5576SOL     OW17626   1.919   4.885   3.211
 5576SOL    HW117627   2.015   4.873   3.236
 5576SOL    HW217628   1.892   4.813   3.147
 5577SOL     OW17629   3.335   2.267   6.474
 5577SOL    HW117630   3.393   2.349   6.480
 5577SOL    HW217631   3.330   2.224   6.564
 5578SOL     OW17632   3.809   3.990   3.758
 5578SOL    HW117633   3.736   4.031   3.812
 5578SOL    HW217634   3.892   4.046   3.765
 5579SOL     OW17635   6.150   2.817   1.482
 5579SOL    HW117636   6.115   2.813   1.575
 5579SOL    HW217637   6.077   2.790   1.418
 5580SOL     OW17638   5.773   1.867   6.453
 5580SOL    HW117639   5.799   1.786   6.400
 5580SOL    HW217640   5.677   1.859   6.481
 5581SOL     OW17641   1.590   0.990   5.391
 5581SOL    HW117642   1.659   1.043   5.342
 5581SOL    HW217643   1.560   1.041   5.472
 5582SOL     OW17644   2.537   2.950   5.884
 5582SOL    HW117645   2.507   2.901   5.802
 5582SOL    HW217646   2.628   2.989   5.868
 5583SOL     OW17647   5.962   6.824   1.308
 5583SOL    HW117648   5.979   6.873   1.223
 5583SOL    HW217649   5.899   6.748   1.292
 5584SOL     OW17650   0.599   3.548   4.836
 5584SOL    HW117651   0.697   3.538   4.819
 5584SOL    HW217652   0.555   3.588   4.756
 5585SOL     OW17653   6.185   5.143   1.441
 5585SOL    HW117654   6.119   5.098   1.500
 5585SOL    HW217655   6.275   5.142   1.484
 5586SOL     OW17656   1.333   6.162   1.773
 5586SOL    HW117657   1.303   6.228   1.842
 5586SOL    HW217658   1.433   6.164   1.767
 5587SOL     OW17659   5.704   0.977   4.994
 5587SOL    HW117660   5.694   0.963   4.896
 5587SOL    HW217661   5.655   1.059   5.022
 5588SOL     OW17662   3.312   6.777   1.020
 5588SOL    HW117663   3.282   6.814   1.108
 5588SOL    HW217664   3.411   6.788   1.013
 5589SOL     OW17665   0.647   4.750   5.837
 5589SOL    HW117666   0.617   4.742   5.933
 5589SOL    HW217667   0.576   4.797   5.784
 5590SOL     OW17668   5.878   5.447   3.166
 5590SOL    HW117669   5.919   5.358   3.147
 5590SOL    HW217670   5.806   5.466   3.098
 5591SOL     OW17671   5.027   1.222   2.946
 5591SOL    HW117672   5.050   1.248   3.040
 5591SOL    HW217673   4.931   1.194   2.942
 5592SOL     OW17674   0.005   5.479   4.588
 5592SOL    HW117675   6.983   5.401   4.545
 5592SOL    HW217676   0.025   5.457   4.684
 5593SOL     OW17677   2.005   4.103   0.868
 5593SOL    HW117678   2.070   4.147   0.930
 5593SOL    HW217679   2.052   4.031   0.816
 5594SOL     OW17680   6.042   6.930   5.755
 5594SOL    HW117681   6.115   6.906   5.819
 5594SOL    HW217682   6.076   6.924   5.662
 5595SOL     OW17683   0.005   1.788   0.864
 5595SOL    HW117684   0.048   1.831   0.943
 5595SOL    HW217685   0.033   1.835   0.780
 5596SOL     OW17686   4.070   6.327   3.359
 5596SOL    HW117687   4.074   6.250   3.296
 5596SOL    HW217688   3.982   6.374   3.348
 5597SOL     OW17689   4.992   3.397   2.204
 5597SOL    HW117690   4.957   3.354   2.121
 5597SOL    HW217691   5.020   3.491   2.184
 5598SOL     OW17692   3.238   0.585   4.125
 5598SOL    HW117693   3.238   0.485   4.133
 5598SOL    HW217694   3.163   0.614   4.066
 5599SOL     OW17695   1.118   1.768   3.458
 5599SOL    HW117696   1.206   1.721   3.457
 5599SOL    HW217697   1.056   1.721   3.522
 5600SOL     OW17698   2.569   2.785   5.321
 5600SOL    HW117699   2.567   2.871   5.271
 5600SOL    HW217700   2.489   2.730   5.298
 5601SOL     OW17701   1.734   0.470   6.496
 5601SOL    HW117702   1.724   0.556   6.447
 5601SOL    HW217703   1.647   0.420   6.495
 5602SOL     OW17704   2.067   1.238   0.287
 5602SOL    HW117705   2.018   1.158   0.323
 5602SOL    HW217706   2.002   1.297   0.239
 5603SOL     OW17707   6.758   3.405   5.201
 5603SOL    HW117708   6.794   3.408   5.107
 5603SOL    HW217709   6.832   3.381   5.264
 5604SOL     OW17710   5.244   0.699   6.420
 5604SOL    HW117711   5.295   0.679   6.504
 5604SOL    HW217712   5.276   0.640   6.346
 5605SOL     OW17713   1.409   1.490   6.738
 5605SOL    HW117714   1.320   1.450   6.720
 5605SOL    HW217715   1.401   1.590   6.740
 5606SOL     OW17716   5.949   6.696   3.033
 5606SOL    HW117717   5.890   6.747   2.970
 5606SOL    HW217718   6.041   6.734   3.030
 5607SOL     OW17719   4.909   0.066   0.998
 5607SOL    HW117720   4.906   0.064   1.097
 5607SOL    HW217721   4.819   0.090   0.961
 5608SOL     OW17722   3.764   6.288   5.297
 5608SOL    HW117723   3.700   6.271   5.222
 5608SOL    HW217724   3.725   6.251   5.382
 5609SOL     OW17725   1.266   5.961   4.741
 5609SOL    HW117726   1.292   5.946   4.645
 5609SOL    HW217727   1.240   5.873   4.782
 5610SOL     OW17728   5.384   0.262   6.625
 5610SOL    HW117729   5.460   0.326   6.641
 5610SOL    HW217730   5.311   0.280   6.690
 5611SOL     OW17731   2.043   4.294   4.089
 5611SOL    HW117732   2.002   4.325   4.175
 5611SOL    HW217733   2.139   4.271   4.105
 5612SOL     OW17734   3.671   6.412   4.471
 5612SOL    HW117735   3.593   6.440   4.528
 5612SOL    HW217736   3.680   6.312   4.474
 5613SOL     OW17737   2.643   5.102   2.536
 5613SOL    HW117738   2.695   5.143   2.460
 5613SOL    HW217739   2.667   5.149   2.621
 5614SOL     OW17740   5.077   2.286   4.019
 5614SOL    HW117741   4.979   2.279   4.034
 5614SOL    HW217742   5.096   2.282   3.921
 5615SOL     OW17743   1.042   1.453   1.952
 5615SOL    HW117744   0.960   1.395   1.956
 5615SOL    HW217745   1.105   1.427   2.026
 5616SOL     OW17746   2.520   6.776   4.650
 5616SOL    HW117747   2.440   6.718   4.639
 5616SOL    HW217748   2.594   6.742   4.592
 5617SOL     OW17749   0.273   1.154   5.909
 5617SOL    HW117750   0.309   1.104   5.831
 5617SOL    HW217751   0.176   1.171   5.897
 5618SOL     OW17752   6.620   4.875   3.915
 5618SOL    HW117753   6.623   4.793   3.973
 5618SOL    HW217754   6.554   4.940   3.953
 5619SOL     OW17755   2.136   3.159   4.571
 5619SOL    HW117756   2.166   3.064   4.584
 5619SOL    HW217757   2.122   3.176   4.474
 5620SOL     OW17758   5.301   1.796   6.562
 5620SOL    HW117759   5.209   1.835   6.565
 5620SOL    HW217760   5.323   1.768   6.468
 5621SOL     OW17761   2.817   1.404   5.880
 5621SOL    HW117762   2.745   1.419   5.813
 5621SOL    HW217763   2.841   1.492   5.923
 5622SOL     OW17764   5.428   1.454   5.024
 5622SOL    HW117765   5.336   1.419   5.004
 5622SOL    HW217766   5.478   1.385   5.077
 5623SOL     OW17767   0.262   6.315   6.487
 5623SOL    HW117768   0.179   6.312   6.542
 5623SOL    HW217769   0.239   6.297   6.391
 5624SOL     OW17770   1.132   4.300   2.750
 5624SOL    HW117771   1.162   4.247   2.830
 5624SOL    HW217772   1.161   4.254   2.666
 5625SOL     OW17773   6.437   1.775   5.755
 5625SOL    HW117774   6.480   1.685   5.756
 5625SOL    HW217775   6.465   1.824   5.672
 5626SOL     OW17776   5.875   6.690   5.394
 5626SOL    HW117777   5.859   6.611   5.335
 5626SOL    HW217778   5.798   6.702   5.456
 5627SOL     OW17779   1.190   0.454   1.855
 5627SOL    HW117780   1.186   0.538   1.800
 5627SOL    HW217781   1.120   0.390   1.822
 5628SOL     OW17782   1.477   1.819   4.020
 5628SOL    HW117783   1.493   1.886   3.948
 5628SOL    HW217784   1.564   1.788   4.057
 5629SOL     OW17785   3.836   3.529   3.658
 5629SOL    HW117786   3.773   3.591   3.611
 5629SOL    HW217787   3.889   3.478   3.590
 5630SOL     OW17788   6.717   3.812   0.846
 5630SOL    HW117789   6.720   3.901   0.891
 5630SOL    HW217790   6.730   3.740   0.914
 5631SOL     OW17791   5.744   1.134   6.144
 5631SOL    HW117792   5.679   1.112   6.071
 5631SOL    HW217793   5.794   1.052   6.171
 5632SOL     OW17794   3.487   2.531   0.885
 5632SOL    HW117795   3.553   2.528   0.810
 5632SOL    HW217796   3.509   2.607   0.947
 5633SOL     OW17797   0.151   2.972   5.815
 5633SOL    HW117798   0.150   2.873   5.835
 5633SOL    HW217799   0.057   3.005   5.811
 5634SOL     OW17800   4.781   6.017   5.454
 5634SOL    HW117801   4.728   5.934   5.472
 5634SOL    HW217802   4.783   6.033   5.355
 5635SOL     OW17803   2.904   1.567   6.601
 5635SOL    HW117804   2.983   1.565   6.540
 5635SOL    HW217805   2.825   1.527   6.554
 5636SOL     OW17806   4.482   0.807   3.928
 5636SOL    HW117807   4.404   0.861   3.960
 5636SOL    HW217808   4.490   0.724   3.983
 5637SOL     OW17809   5.870   6.763   2.550
 5637SOL    HW117810   5.904   6.702   2.621
 5637SOL    HW217811   5.770   6.760   2.548
 5638SOL     OW17812   0.395   3.523   6.943
 5638SOL    HW117813   0.357   3.562   6.859
 5638SOL    HW217814   0.476   3.469   6.920
 5639SOL     OW17815   4.245   7.018   6.674
 5639SOL    HW117816   4.146   7.004   6.675
 5639SOL    HW217817   4.267   0.081   6.716
 5640SOL     OW17818   1.464   6.911   3.652
 5640SOL    HW117819   1.481   6.977   3.725
 5640SOL    HW217820   1.365   6.897   3.642
 5641SOL     OW17821   6.897   6.051   4.746
 5641SOL    HW117822   6.931   5.995   4.821
 5641SOL    HW217823   6.836   5.996   4.689
 5642SOL     OW17824   1.686   0.674   0.060
 5642SOL    HW117825   1.668   0.731   0.140
 5642SOL    HW217826   1.737   0.727   7.017
 5643SOL     OW17827   4.986   2.195   6.856
 5643SOL    HW117828   4.912   2.222   6.918
 5643SOL    HW217829   4.950   2.139   6.782
 5644SOL     OW17830   2.735   0.221   5.728
 5644SOL    HW117831   2.749   0.171   5.814
 5644SOL    HW217832   2.690   0.308   5.747
 5645SOL     OW17833   4.953   3.789   4.084
 5645SOL    HW117834   4.984   3.844   4.006
 5645SOL    HW217835   4.977   3.693   4.069
 5646SOL     OW17836   0.943   4.422   2.375
 5646SOL    HW117837   0.921   4.513   2.340
 5646SOL    HW217838   0.956   4.427   2.474
 5647SOL     OW17839   4.183   5.534   2.417
 5647SOL    HW117840   4.107   5.469   2.416
 5647SOL    HW217841   4.261   5.494   2.370
 5648SOL     OW17842   5.442   6.540   3.228
 5648SOL    HW117843   5.522   6.486   3.203
 5648SOL    HW217844   5.392   6.566   3.146
 5649SOL     OW17845   0.365   0.448   5.015
 5649SOL    HW117846   0.352   0.476   5.110
 5649SOL    HW217847   0.462   0.448   4.993
 5650SOL     OW17848   0.585   3.843   6.072
 5650SOL    HW117849   0.494   3.884   6.077
 5650SOL    HW217850   0.577   3.749   6.040
 5651SOL     OW17851   2.943   1.016   1.860
 5651SOL    HW117852   2.855   0.968   1.854
 5651SOL    HW217853   3.009   0.972   1.800
 5652SOL     OW17854   0.526   6.117   2.382
 5652SOL    HW117855   0.618   6.081   2.400
 5652SOL    HW217856   0.487   6.152   2.467
 5653SOL     OW17857   6.908   0.247   2.825
 5653SOL    HW117858   6.888   0.171   2.887
 5653SOL    HW217859   6.834   0.257   2.759
 5654SOL     OW17860   3.177   6.096   5.739
 5654SOL    HW117861   3.268   6.113   5.775
 5654SOL    HW217862   3.113   6.163   5.777
 5655SOL     OW17863   6.253   3.487   4.248
 5655SOL    HW117864   6.196   3.508   4.169
 5655SOL    HW217865   6.326   3.424   4.221
 5656SOL     OW17866   0.424   4.825   1.514
 5656SOL    HW117867   0.327   4.807   1.528
 5656SOL    HW217868   0.474   4.804   1.598
 5657SOL     OW17869   6.028   6.094   5.666
 5657SOL    HW117870   6.103   6.122   5.724
 5657SOL    HW217871   5.998   6.002   5.692
 5658SOL     OW17872   2.997   2.525   5.321
 5658SOL    HW117873   3.072   2.478   5.274
 5658SOL    HW217874   2.912   2.512   5.270
 5659SOL     OW17875   2.639   4.105   5.782
 5659SOL    HW117876   2.632   4.202   5.803
 5659SOL    HW217877   2.627   4.091   5.683
 5660SOL     OW17878   4.230   0.851   4.371
 5660SOL    HW117879   4.177   0.859   4.455
 5660SOL    HW217880   4.172   0.815   4.298
 5661SOL     OW17881   0.255   5.850   5.711
 5661SOL    HW117882   0.297   5.777   5.657
 5661SOL    HW217883   0.326   5.898   5.762
 5662SOL     OW17884   2.626   6.000   0.977
 5662SOL    HW117885   2.537   5.962   0.953
 5662SOL    HW217886   2.697   5.958   0.921
 5663SOL     OW17887   3.374   1.811   6.473
 5663SOL    HW117888   3.368   1.895   6.418
 5663SOL    HW217889   3.403   1.834   6.566
 5664SOL     OW17890   5.067   5.872   5.099
 5664SOL    HW117891   5.114   5.890   5.012
 5664SOL    HW217892   4.968   5.877   5.084
 5665SOL     OW17893   2.381   0.846   0.651
 5665SOL    HW117894   2.404   0.812   0.743
 5665SOL    HW217895   2.453   0.819   0.587
 5666SOL     OW17896   5.829   3.322   4.864
 5666SOL    HW117897   5.885   3.241   4.845
 5666SOL    HW217898   5.831   3.341   4.962
 5667SOL     OW17899   2.712   4.866   4.023
 5667SOL    HW117900   2.641   4.798   4.007
 5667SOL    HW217901   2.773   4.870   3.944
 5668SOL     OW17902   4.547   4.578   3.963
 5668SOL    HW117903   4.484   4.595   4.039
 5668SOL    HW217904   4.505   4.607   3.877
 5669SOL     OW17905   5.634   3.860   5.747
 5669SOL    HW117906   5.647   3.779   5.804
 5669SOL    HW217907   5.720   3.910   5.740
 5670SOL     OW17908   1.016   3.422   4.000
 5670SOL    HW117909   1.071   3.426   4.084
 5670SOL    HW217910   1.009   3.328   3.969
 5671SOL     OW17911   6.126   5.735   2.689
 5671SOL    HW117912   6.041   5.749   2.741
 5671SOL    HW217913   6.204   5.768   2.742
 5672SOL     OW17914   5.896   2.863   4.791
 5672SOL    HW117915   5.802   2.832   4.776
 5672SOL    HW217916   5.958   2.809   4.735
 5673SOL     OW17917   1.037   2.129   0.413
 5673SOL    HW117918   0.996   2.150   0.502
 5673SOL    HW217919   1.020   2.034   0.390
 5674SOL     OW17920   3.142   5.632   5.002
 5674SOL    HW117921   3.126   5.712   5.060
 5674SOL    HW217922   3.240   5.610   5.003
 5675SOL     OW17923   3.549   1.996   0.797
 5675SOL    HW117924   3.519   2.060   0.868
 5675SOL    HW217925   3.495   2.009   0.714
 5676SOL     OW17926   3.877   1.475   1.918
 5676SOL    HW117927   3.927   1.395   1.884
 5676SOL    HW217928   3.831   1.451   2.003
 5677SOL     OW17929   1.583   1.027   5.969
 5677SOL    HW117930   1.519   1.102   5.987
 5677SOL    HW217931   1.645   1.052   5.895
 5678SOL     OW17932   4.011   1.703   1.805
 5678SOL    HW117933   3.964   1.641   1.868
 5678SOL    HW217934   3.988   1.680   1.711
 5679SOL     OW17935   0.900   3.817   5.849
 5679SOL    HW117936   0.959   3.795   5.771
 5679SOL    HW217937   0.954   3.862   5.920
 5680SOL     OW17938   0.751   5.666   4.280
 5680SOL    HW117939   0.760   5.695   4.185
 5680SOL    HW217940   0.656   5.680   4.309
 5681SOL     OW17941   1.529   3.493   3.141
 5681SOL    HW117942   1.444   3.444   3.158
 5681SOL    HW217943   1.606   3.431   3.156
 5682SOL     OW17944   1.750   4.553   0.305
 5682SOL    HW117945   1.706   4.557   0.395
 5682SOL    HW217946   1.839   4.598   0.309
 5683SOL     OW17947   0.081   6.524   5.760
 5683SOL    HW117948   0.098   6.436   5.717
 5683SOL    HW217949   0.151   6.542   5.829
 5684SOL     OW17950   1.752   3.384   4.666
 5684SOL    HW117951   1.745   3.479   4.636
 5684SOL    HW217952   1.662   3.342   4.664
 5685SOL     OW17953   1.813   2.175   1.665
 5685SOL    HW117954   1.809   2.077   1.647
 5685SOL    HW217955   1.896   2.213   1.624
 5686SOL     OW17956   6.036   5.551   5.612
 5686SOL    HW117957   5.939   5.535   5.631
 5686SOL    HW217958   6.084   5.571   5.697
 5687SOL     OW17959   1.202   0.643   6.765
 5687SOL    HW117960   1.240   0.550   6.763
 5687SOL    HW217961   1.116   0.645   6.714
 5688SOL     OW17962   1.193   2.731   2.544
 5688SOL    HW117963   1.273   2.764   2.595
 5688SOL    HW217964   1.212   2.735   2.446
 5689SOL     OW17965   0.194   1.653   1.174
 5689SOL    HW117966   0.259   1.660   1.098
 5689SOL    HW217967   0.110   1.611   1.141
 5690SOL     OW17968   3.153   5.271   0.291
 5690SOL    HW117969   3.241   5.267   0.244
 5690SOL    HW217970   3.144   5.192   0.351
 5691SOL     OW17971   5.151   3.257   3.324
 5691SOL    HW117972   5.159   3.172   3.376
 5691SOL    HW217973   5.070   3.307   3.354
 5692SOL     OW17974   6.458   4.719   1.842
 5692SOL    HW117975   6.535   4.697   1.902
 5692SOL    HW217976   6.450   4.649   1.771
 5693SOL     OW17977   3.066   0.883   2.461
 5693SOL    HW117978   3.107   0.945   2.527
 5693SOL    HW217979   2.971   0.910   2.444
 5694SOL     OW17980   0.201   6.425   1.066
 5694SOL    HW117981   0.282   6.378   1.101
 5694SOL    HW217982   0.203   6.520   1.095
 5695SOL     OW17983   1.723   0.923   2.194
 5695SOL    HW117984   1.781   0.956   2.268
 5695SOL    HW217985   1.628   0.948   2.213
 5696SOL     OW17986   6.953   0.811   3.697
 5696SOL    HW117987   6.966   0.716   3.670
 5696SOL    HW217988   7.003   0.870   3.633
 5697SOL     OW17989   6.047   1.974   0.404
 5697SOL    HW117990   6.039   2.073   0.399
 5697SOL    HW217991   5.978   1.937   0.465
 5698SOL     OW17992   3.010   2.161   3.151
 5698SOL    HW117993   2.991   2.063   3.143
 5698SOL    HW217994   3.093   2.183   3.099
 5699SOL     OW17995   2.375   2.729   2.564
 5699SOL    HW117996   2.347   2.796   2.633
 5699SOL    HW217997   2.308   2.656   2.559
 5700SOL     OW17998   5.646   0.630   2.193
 5700SOL    HW117999   5.628   0.540   2.154
 5700SOL    HW218000   5.687   0.689   2.124
 5701SOL     OW18001   1.902   0.710   0.808
 5701SOL    HW118002   1.989   0.750   0.836
 5701SOL    HW218003   1.915   0.657   0.724
 5702SOL     OW18004   1.385   6.250   4.828
 5702SOL    HW118005   1.352   6.156   4.825
 5702SOL    HW218006   1.408   6.281   4.736
 5703SOL     OW18007   0.841   3.246   6.317
 5703SOL    HW118008   0.853   3.155   6.276
 5703SOL    HW218009   0.827   3.236   6.416
 5704SOL     OW18010   4.319   5.827   4.745
 5704SOL    HW118011   4.316   5.759   4.818
 5704SOL    HW218012   4.237   5.819   4.689
 5705SOL     OW18013   5.731   1.368   4.964
 5705SOL    HW118014   5.655   1.353   4.900
 5705SOL    HW218015   5.811   1.401   4.914
 5706SOL     OW18016   5.430   0.829   1.257
 5706SOL    HW118017   5.494   0.904   1.272
 5706SOL    HW218018   5.336   0.864   1.258
 5707SOL     OW18019   6.120   5.746   1.594
 5707SOL    HW118020   6.028   5.726   1.629
 5707SOL    HW218021   6.180   5.770   1.671
 5708SOL     OW18022   5.015   6.564   2.059
 5708SOL    HW118023   4.958   6.488   2.029
 5708SOL    HW218024   5.111   6.538   2.051
 5709SOL     OW18025   6.449   2.089   2.453
 5709SOL    HW118026   6.484   2.180   2.476
 5709SOL    HW218027   6.354   2.096   2.424
 5710SOL     OW18028   5.534   1.287   0.773
 5710SOL    HW118029   5.437   1.262   0.780
 5710SOL    HW218030   5.561   1.289   0.676
 5711SOL     OW18031   4.066   1.461   2.577
 5711SOL    HW118032   3.973   1.498   2.579
 5711SOL    HW218033   4.109   1.476   2.666
 5712SOL     OW18034   6.730   6.180   6.443
 5712SOL    HW118035   6.771   6.097   6.480
 5712SOL    HW218036   6.636   6.190   6.477
 5713SOL     OW18037   1.307   1.113   0.622
 5713SOL    HW118038   1.379   1.097   0.555
 5713SOL    HW218039   1.347   1.125   0.713
 5714SOL     OW18040   5.496   0.118   1.478
 5714SOL    HW118041   5.521   0.062   1.557
 5714SOL    HW218042   5.495   0.061   1.396
 5715SOL     OW18043   0.441   5.976   0.983
 5715SOL    HW118044   0.391   5.901   0.939
 5715SOL    HW218045   0.407   5.988   1.076
 5716SOL     OW18046   0.086   4.703   5.726
 5716SOL    HW118047   0.097   4.774   5.795
 5716SOL    HW218048   0.015   4.639   5.755
 5717SOL     OW18049   0.112   5.971   2.764
 5717SOL    HW118050   0.094   6.068   2.751
 5717SOL    HW218051   0.106   5.924   2.676
 5718SOL     OW18052   1.604   4.439   6.553
 5718SOL    HW118053   1.558   4.415   6.468
 5718SOL    HW218054   1.693   4.481   6.532
 5719SOL     OW18055   3.621   3.718   1.248
 5719SOL    HW118056   3.709   3.761   1.268
 5719SOL    HW218057   3.611   3.636   1.306
 5720SOL     OW18058   2.551   4.056   6.726
 5720SOL    HW118059   2.614   4.010   6.664
 5720SOL    HW218060   2.580   4.041   6.821
 5721SOL     OW18061   0.835   3.175   0.314
 5721SOL    HW118062   0.931   3.179   0.286
 5721SOL    HW218063   0.781   3.132   0.242
 5722SOL     OW18064   1.897   0.759   5.998
 5722SOL    HW118065   1.977   0.760   5.937
 5722SOL    HW218066   1.822   0.808   5.954
 5723SOL     OW18067   4.407   4.071   0.482
 5723SOL    HW118068   4.422   4.169   0.470
 5723SOL    HW218069   4.387   4.029   0.393
 5724SOL     OW18070   6.545   1.568   6.270
 5724SOL    HW118071   6.458   1.548   6.224
 5724SOL    HW218072   6.618   1.573   6.202
 5725SOL     OW18073   6.661   4.026   4.600
 5725SOL    HW118074   6.690   4.091   4.670
 5725SOL    HW218075   6.586   4.065   4.546
 5726SOL     OW18076   4.190   4.813   2.108
 5726SOL    HW118077   4.246   4.749   2.160
 5726SOL    HW218078   4.220   4.814   2.013
 5727SOL     OW18079   1.247   3.064   6.428
 5727SOL    HW118080   1.260   3.163   6.432
 5727SOL    HW218081   1.236   3.028   6.521
 5728SOL     OW18082   2.084   6.176   3.927
 5728SOL    HW118083   2.111   6.257   3.980
 5728SOL    HW218084   2.143   6.168   3.847
 5729SOL     OW18085   2.722   1.908   5.126
 5729SOL    HW118086   2.751   1.924   5.220
 5729SOL    HW218087   2.699   1.996   5.084
 5730SOL     OW18088   6.183   4.783   4.388
 5730SOL    HW118089   6.091   4.769   4.424
 5730SOL    HW218090   6.224   4.863   4.433
 5731SOL     OW18091   0.060   6.534   2.339
 5731SOL    HW118092   6.993   6.540   2.300
 5731SOL    HW218093   0.128   6.531   2.264
 5732SOL     OW18094   5.241   0.644   3.849
 5732SOL    HW118095   5.253   0.686   3.760
 5732SOL    HW218096   5.151   0.667   3.885
 5733SOL     OW18097   2.713   0.999   5.289
 5733SOL    HW118098   2.625   1.044   5.273
 5733SOL    HW218099   2.703   0.900   5.276
 5734SOL     OW18100   1.801   6.412   3.915
 5734SOL    HW118101   1.808   6.313   3.923
 5734SOL    HW218102   1.723   6.444   3.970
 5735SOL     OW18103   2.281   0.735   1.543
 5735SOL    HW118104   2.229   0.814   1.510
 5735SOL    HW218105   2.219   0.657   1.557
 5736SOL     OW18106   1.782   4.623   1.245
 5736SOL    HW118107   1.770   4.530   1.280
 5736SOL    HW218108   1.697   4.653   1.201
 5737SOL     OW18109   5.943   3.826   6.952
 5737SOL    HW118110   5.882   3.822   0.007
 5737SOL    HW218111   5.990   3.914   6.950
 5738SOL     OW18112   1.097   5.730   4.414
 5738SOL    HW118113   1.003   5.763   4.402
 5738SOL    HW218114   1.116   5.719   4.511
 5739SOL     OW18115   1.041   2.359   0.952
 5739SOL    HW118116   1.115   2.362   1.018
 5739SOL    HW218117   0.955   2.386   0.997
 5740SOL     OW18118   4.500   4.891   0.666
 5740SOL    HW118119   4.470   4.953   0.593
 5740SOL    HW218120   4.558   4.820   0.628
 5741SOL     OW18121   0.035   2.704   2.245
 5741SOL    HW118122   0.101   2.631   2.223
 5741SOL    HW218123   6.969   2.677   2.211
 5742SOL     OW18124   0.098   5.274   3.651
 5742SOL    HW118125   0.018   5.304   3.702
 5742SOL    HW218126   0.170   5.343   3.659
 5743SOL     OW18127   0.811   0.823   5.021
 5743SOL    HW118128   0.813   0.758   4.945
 5743SOL    HW218129   0.863   0.905   4.996
 5744SOL     OW18130   5.975   0.223   2.404
 5744SOL    HW118131   6.056   0.228   2.347
 5744SOL    HW218132   5.965   0.130   2.441
 5745SOL     OW18133   6.757   3.548   2.076
 5745SOL    HW118134   6.756   3.448   2.085
 5745SOL    HW218135   6.663   3.581   2.062
 5746SOL     OW18136   0.609   3.595   5.958
 5746SOL    HW118137   0.615   3.520   6.024
 5746SOL    HW218138   0.524   3.588   5.906
 5747SOL     OW18139   6.798   5.956   4.107
 5747SOL    HW118140   6.785   5.884   4.039
 5747SOL    HW218141   6.789   6.045   4.063
 5748SOL     OW18142   1.730   1.435   4.135
 5748SOL    HW118143   1.676   1.355   4.112
 5748SOL    HW218144   1.676   1.495   4.194
 5749SOL     OW18145   0.337   1.537   2.948
 5749SOL    HW118146   0.380   1.558   3.036
 5749SOL    HW218147   0.404   1.495   2.887
 5750SOL     OW18148   4.391   6.042   2.688
 5750SOL    HW118149   4.489   6.048   2.707
 5750SOL    HW218150   4.340   6.080   2.765
 5751SOL     OW18151   1.341   1.747   6.744
 5751SOL    HW118152   1.417   1.786   6.796
 5751SOL    HW218153   1.344   1.782   6.650
 5752SOL     OW18154   2.018   0.991   6.770
 5752SOL    HW118155   2.016   1.077   6.719
 5752SOL    HW218156   2.023   1.010   6.868
 5753SOL     OW18157   3.942   1.740   6.408
 5753SOL    HW118158   3.949   1.642   6.422
 5753SOL    HW218159   3.846   1.768   6.411
 5754SOL     OW18160   6.435   5.845   0.482
 5754SOL    HW118161   6.464   5.779   0.412
 5754SOL    HW218162   6.340   5.870   0.466
 5755SOL     OW18163   3.279   4.029   2.098
 5755SOL    HW118164   3.320   4.080   2.173
 5755SOL    HW218165   3.341   3.957   2.068
 5756SOL     OW18166   6.096   0.026   3.955
 5756SOL    HW118167   6.167   7.004   4.006
 5756SOL    HW218168   6.120   0.027   3.858
 5757SOL     OW18169   6.714   6.795   1.974
 5757SOL    HW118170   6.764   6.709   1.962
 5757SOL    HW218171   6.774   6.871   1.948
 5758SOL     OW18172   2.960   0.402   5.977
 5758SOL    HW118173   2.988   0.471   6.044
 5758SOL    HW218174   3.022   0.324   5.983
 5759SOL     OW18175   0.615   1.075   5.607
 5759SOL    HW118176   0.621   1.006   5.535
 5759SOL    HW218177   0.707   1.103   5.635
 5760SOL     OW18178   6.553   5.625   1.871
 5760SOL    HW118179   6.459   5.613   1.904
 5760SOL    HW218180   6.578   5.721   1.879
 5761SOL     OW18181   3.808   0.586   4.248
 5761SOL    HW118182   3.888   0.602   4.305
 5761SOL    HW218183   3.822   0.504   4.192
 5762SOL     OW18184   4.912   0.069   1.275
 5762SOL    HW118185   4.913   7.006   1.324
 5762SOL    HW218186   4.987   0.126   1.307
 5763SOL     OW18187   3.895   0.739   0.810
 5763SOL    HW118188   3.872   0.742   0.908
 5763SOL    HW218189   3.903   0.833   0.775
 5764SOL     OW18190   3.407   2.923   6.660
 5764SOL    HW118191   3.374   3.002   6.609
 5764SOL    HW218192   3.332   2.857   6.671
 5765SOL     OW18193   6.643   4.684   6.134
 5765SOL    HW118194   6.550   4.703   6.165
 5765SOL    HW218195   6.698   4.768   6.139
 5766SOL     OW18196   2.317   1.694   3.457
 5766SOL    HW118197   2.269   1.700   3.369
 5766SOL    HW218198   2.309   1.601   3.493
 5767SOL     OW18199   5.043   6.438   0.215
 5767SOL    HW118200   5.012   6.393   0.132
 5767SOL    HW218201   5.093   6.521   0.191
 5768SOL     OW18202   5.486   6.903   2.311
 5768SOL    HW118203   5.467   6.942   2.401
 5768SOL    HW218204   5.513   6.976   2.249
 5769SOL     OW18205   6.684   4.788   3.308
 5769SOL    HW118206   6.708   4.829   3.396
 5769SOL    HW218207   6.586   4.796   3.293
 5770SOL     OW18208   4.899   2.450   0.986
 5770SOL    HW118209   4.853   2.473   0.900
 5770SOL    HW218210   4.885   2.524   1.051
 5771SOL     OW18211   0.751   0.464   1.325
 5771SOL    HW118212   0.805   0.390   1.285
 5771SOL    HW218213   0.656   0.435   1.334
 5772SOL     OW18214   6.101   5.082   5.533
 5772SOL    HW118215   6.093   5.176   5.501
 5772SOL    HW218216   6.011   5.047   5.558
 5773SOL     OW18217   5.175   6.237   5.176
 5773SOL    HW118218   5.192   6.250   5.274
 5773SOL    HW218219   5.219   6.152   5.147
 5774SOL     OW18220   1.886   4.578   1.571
 5774SOL    HW118221   1.850   4.488   1.544
 5774SOL    HW218222   1.946   4.612   1.498
 5775SOL     OW18223   1.160   0.949   0.932
 5775SOL    HW118224   1.206   0.976   1.017
 5775SOL    HW218225   1.215   0.879   0.886
 5776SOL     OW18226   4.896   0.747   5.574
 5776SOL    HW118227   4.904   0.780   5.668
 5776SOL    HW218228   4.816   0.687   5.567
 5777SOL     OW18229   5.184   6.624   4.893
 5777SOL    HW118230   5.220   6.553   4.954
 5777SOL    HW218231   5.201   6.599   4.798
 5778SOL     OW18232   2.551   6.592   3.429
 5778SOL    HW118233   2.481   6.664   3.429
 5778SOL    HW218234   2.579   6.574   3.524
 5779SOL     OW18235   3.615   6.803   2.224
 5779SOL    HW118236   3.668   6.857   2.158
 5779SOL    HW218237   3.533   6.855   2.251
 5780SOL     OW18238   6.964   4.594   6.905
 5780SOL    HW118239   7.016   4.553   6.831
 5780SOL    HW218240   6.866   4.591   6.883
 5781SOL     OW18241   4.694   4.487   5.511
 5781SOL    HW118242   4.646   4.403   5.487
 5781SOL    HW218243   4.630   4.549   5.557
 5782SOL     OW18244   4.818   1.625   2.894
 5782SOL    HW118245   4.880   1.550   2.920
 5782SOL    HW218246   4.766   1.598   2.813
 5783SOL     OW18247   3.071   6.244   3.412
 5783SOL    HW118248   3.131   6.323   3.393
 5783SOL    HW218249   3.073   6.224   3.510
 5784SOL     OW18250   0.077   6.715   2.019
 5784SOL    HW118251   0.119   6.630   2.052
 5784SOL    HW218252   0.082   6.784   2.091
 5785SOL     OW18253   2.766   0.788   6.107
 5785SOL    HW118254   2.861   0.819   6.098
 5785SOL    HW218255   2.704   0.858   6.073
 5786SOL     OW18256   2.333   1.412   6.160
 5786SOL    HW118257   2.268   1.476   6.119
 5786SOL    HW218258   2.295   1.320   6.160
 5787SOL     OW18259   0.344   2.169   6.317
 5787SOL    HW118260   0.433   2.204   6.288
 5787SOL    HW218261   0.304   2.231   6.384
 5788SOL     OW18262   0.464   2.429   1.943
 5788SOL    HW118263   0.516   2.435   1.858
 5788SOL    HW218264   0.384   2.489   1.937
 5789SOL     OW18265   3.346   1.383   0.123
 5789SOL    HW118266   3.375   1.411   0.215
 5789SOL    HW218267   3.271   1.442   0.093
 5790SOL     OW18268   6.174   6.047   2.154
 5790SOL    HW118269   6.241   6.112   2.188
 5790SOL    HW218270   6.083   6.073   2.186
 5791SOL     OW18271   3.986   0.924   1.547
 5791SOL    HW118272   3.905   0.869   1.569
 5791SOL    HW218273   3.964   1.021   1.555
 5792SOL     OW18274   4.689   1.938   2.260
 5792SOL    HW118275   4.722   1.893   2.343
 5792SOL    HW218276   4.739   2.023   2.245
 5793SOL     OW18277   4.346   2.091   0.641
 5793SOL    HW118278   4.303   2.143   0.715
 5793SOL    HW218279   4.436   2.129   0.621
 5794SOL     OW18280   3.462   6.181   6.780
 5794SOL    HW118281   3.545   6.131   6.758
 5794SOL    HW218282   3.396   6.170   6.706
 5795SOL     OW18283   0.525   0.164   1.306
 5795SOL    HW118284   0.519   0.075   1.353
 5795SOL    HW218285   0.474   0.232   1.358
 5796SOL     OW18286   4.529   1.156   6.071
 5796SOL    HW118287   4.562   1.119   5.984
 5796SOL    HW218288   4.450   1.103   6.101
 5797SOL     OW18289   5.980   1.380   6.466
 5797SOL    HW118290   6.022   1.290   6.474
 5797SOL    HW218291   5.880   1.371   6.471
 5798SOL     OW18292   2.181   2.900   4.670
 5798SOL    HW118293   2.185   2.953   4.754
 5798SOL    HW218294   2.087   2.895   4.637
 5799SOL     OW18295   2.974   0.906   3.926
 5799SOL    HW118296   2.890   0.910   3.872
 5799SOL    HW218297   2.997   0.810   3.944
 5800SOL     OW18298   1.595   6.144   1.720
 5800SOL    HW118299   1.687   6.182   1.725
 5800SOL    HW218300   1.587   6.086   1.639
 5801SOL     OW18301   1.375   2.195   3.028
 5801SOL    HW118302   1.376   2.295   3.016
 5801SOL    HW218303   1.308   2.171   3.098
 5802SOL     OW18304   0.275   6.578   2.504
 5802SOL    HW118305   0.241   6.570   2.598
 5802SOL    HW218306   0.207   6.542   2.440
 5803SOL     OW18307   7.004   6.831   4.429
 5803SOL    HW118308   0.017   6.871   4.513
 5803SOL    HW218309   0.024   6.743   4.411
 5804SOL     OW18310   6.375   2.590   3.293
 5804SOL    HW118311   6.338   2.653   3.226
 5804SOL    HW218312   6.319   2.594   3.377
 5805SOL     OW18313   0.805   1.803   1.736
 5805SOL    HW118314   0.717   1.825   1.694
 5805SOL    HW218315   0.830   1.875   1.800
 5806SOL     OW18316   6.649   4.100   1.264
 5806SOL    HW118317   6.613   4.093   1.357
 5806SOL    HW218318   6.594   4.165   1.212
 5807SOL     OW18319   0.983   0.866   2.955
 5807SOL    HW118320   1.041   0.929   2.902
 5807SOL    HW218321   1.009   0.772   2.934
 5808SOL     OW18322   6.164   5.572   5.846
 5808SOL    HW118323   6.213   5.645   5.894
 5808SOL    HW218324   6.087   5.541   5.902
 5809SOL     OW18325   6.621   3.188   5.340
 5809SOL    HW118326   6.635   3.183   5.439
 5809SOL    HW218327   6.687   3.253   5.301
 5810SOL     OW18328   0.612   6.063   4.936
 5810SOL    HW118329   0.544   6.136   4.947
 5810SOL    HW218330   0.698   6.092   4.978
 5811SOL     OW18331   3.285   4.988   0.242
 5811SOL    HW118332   3.360   4.980   0.307
 5811SOL    HW218333   3.200   5.007   0.292
 5812SOL     OW18334   6.325   2.038   5.986
 5812SOL    HW118335   6.286   1.946   5.982
 5812SOL    HW218336   6.399   2.039   6.053
 5813SOL     OW18337   6.556   5.786   0.719
 5813SOL    HW118338   6.505   5.769   0.803
 5813SOL    HW218339   6.493   5.806   0.644
 5814SOL     OW18340   4.833   1.844   2.482
 5814SOL    HW118341   4.810   1.865   2.577
 5814SOL    HW218342   4.798   1.753   2.458
 5815SOL     OW18343   0.296   4.509   4.801
 5815SOL    HW118344   0.365   4.463   4.858
 5815SOL    HW218345   0.223   4.444   4.780
 5816SOL     OW18346   6.962   3.860   1.137
 5816SOL    HW118347   6.955   3.933   1.205
 5816SOL    HW218348   6.882   3.800   1.144
 5817SOL     OW18349   6.839   2.485   3.772
 5817SOL    HW118350   6.855   2.450   3.679
 5817SOL    HW218351   6.789   2.417   3.825
 5818SOL     OW18352   2.876   1.147   4.063
 5818SOL    HW118353   2.923   1.082   4.003
 5818SOL    HW218354   2.934   1.169   4.141
 5819SOL     OW18355   4.529   4.482   1.519
 5819SOL    HW118356   4.551   4.386   1.536
 5819SOL    HW218357   4.611   4.538   1.531
 5820SOL     OW18358   0.899   6.444   2.224
 5820SOL    HW118359   0.828   6.501   2.266
 5820SOL    HW218360   0.925   6.371   2.288
 5821SOL     OW18361   4.705   6.064   1.606
 5821SOL    HW118362   4.650   6.009   1.668
 5821SOL    HW218363   4.764   6.004   1.552
 5822SOL     OW18364   1.315   4.171   3.191
 5822SOL    HW118365   1.365   4.090   3.219
 5822SOL    HW218366   1.361   4.253   3.225
 5823SOL     OW18367   2.049   6.552   5.114
 5823SOL    HW118368   1.972   6.490   5.133
 5823SOL    HW218369   2.015   6.633   5.065
 5824SOL     OW18370   1.712   5.653   2.413
 5824SOL    HW118371   1.639   5.622   2.474
 5824SOL    HW218372   1.700   5.750   2.394
 5825SOL     OW18373   3.470   2.045   4.668
 5825SOL    HW118374   3.557   1.996   4.673
 5825SOL    HW218375   3.444   2.077   4.759
 5826SOL     OW18376   1.372   6.383   6.097
 5826SOL    HW118377   1.296   6.343   6.047
 5826SOL    HW218378   1.345   6.474   6.131
 5827SOL     OW18379   1.409   4.730   4.060
 5827SOL    HW118380   1.333   4.784   4.095
 5827SOL    HW218381   1.415   4.644   4.110
 5828SOL     OW18382   4.633   0.376   5.180
 5828SOL    HW118383   4.690   0.444   5.226
 5828SOL    HW218384   4.690   0.320   5.120
 5829SOL     OW18385   1.855   1.327   2.695
 5829SOL    HW118386   1.793   1.378   2.755
 5829SOL    HW218387   1.827   1.231   2.692
 5830SOL     OW18388   4.908   5.095   4.173
 5830SOL    HW118389   4.961   5.169   4.130
 5830SOL    HW218390   4.968   5.019   4.196
 5831SOL     OW18391   2.536   1.740   3.968
 5831SOL    HW118392   2.485   1.658   3.941
 5831SOL    HW218393   2.483   1.822   3.945
 5832SOL     OW18394   2.881   5.404   3.318
 5832SOL    HW118395   2.923   5.454   3.393
 5832SOL    HW218396   2.897   5.306   3.329
 5833SOL     OW18397   2.316   4.674   1.541
 5833SOL    HW118398   2.369   4.711   1.617
 5833SOL    HW218399   2.221   4.703   1.549
 5834SOL     OW18400   6.309   1.156   6.776
 5834SOL    HW118401   6.309   1.166   6.876
 5834SOL    HW218402   6.275   1.064   6.753
 5835SOL     OW18403   3.698   0.863   3.452
 5835SOL    HW118404   3.783   0.898   3.414
 5835SOL    HW218405   3.681   0.906   3.541
 5836SOL     OW18406   5.971   4.777   1.266
 5836SOL    HW118407   5.901   4.706   1.264
 5836SOL    HW218408   5.968   4.830   1.181
 5837SOL     OW18409   1.967   4.017   6.837
 5837SOL    HW118410   1.939   4.108   6.867
 5837SOL    HW218411   1.901   3.982   6.771
 5838SOL     OW18412   3.114   3.392   0.578
 5838SOL    HW118413   3.094   3.433   0.668
 5838SOL    HW218414   3.094   3.294   0.581
 5839SOL     OW18415   2.768   2.009   0.849
 5839SOL    HW118416   2.735   1.916   0.831
 5839SOL    HW218417   2.744   2.068   0.772
 5840SOL     OW18418   6.101   3.731   2.461
 5840SOL    HW118419   6.036   3.753   2.534
 5840SOL    HW218420   6.051   3.704   2.379
 5841SOL     OW18421   4.972   1.189   7.014
 5841SOL    HW118422   5.028   1.270   0.004
 5841SOL    HW218423   4.886   1.215   6.970
 5842SOL     OW18424   3.725   1.941   2.310
 5842SOL    HW118425   3.731   1.955   2.409
 5842SOL    HW218426   3.645   1.988   2.274
 5843SOL     OW18427   3.056   2.475   1.430
 5843SOL    HW118428   3.098   2.479   1.520
 5843SOL    HW218429   3.070   2.385   1.389
 5844SOL     OW18430   6.320   5.452   5.013
 5844SOL    HW118431   6.393   5.503   5.059
 5844SOL    HW218432   6.360   5.383   4.953
 5845SOL     OW18433   2.003   6.157   3.093
 5845SOL    HW118434   1.962   6.075   3.133
 5845SOL    HW218435   2.040   6.215   3.166
 5846SOL     OW18436   0.412   4.032   5.593
 5846SOL    HW118437   0.423   3.933   5.604
 5846SOL    HW218438   0.500   4.077   5.609
 5847SOL     OW18439   1.820   3.667   5.631
 5847SOL    HW118440   1.761   3.588   5.646
 5847SOL    HW218441   1.908   3.638   5.593
 5848SOL     OW18442   3.256   6.718   1.902
 5848SOL    HW118443   3.343   6.673   1.925
 5848SOL    HW218444   3.240   6.794   1.965
 5849SOL     OW18445   2.893   6.472   6.470
 5849SOL    HW118446   2.900   6.571   6.479
 5849SOL    HW218447   2.985   6.432   6.465
 5850SOL     OW18448   5.434   2.443   1.004
 5850SOL    HW118449   5.349   2.480   0.968
 5850SOL    HW218450   5.414   2.364   1.062
 5851SOL     OW18451   1.307   2.693   6.066
 5851SOL    HW118452   1.377   2.706   5.996
 5851SOL    HW218453   1.343   2.631   6.136
 5852SOL     OW18454   4.103   4.968   3.385
 5852SOL    HW118455   4.098   4.924   3.295
 5852SOL    HW218456   4.064   4.906   3.454
 5853SOL     OW18457   4.533   4.808   6.754
 5853SOL    HW118458   4.584   4.749   6.817
 5853SOL    HW218459   4.583   4.893   6.740
 5854SOL     OW18460   2.401   4.224   5.334
 5854SOL    HW118461   2.386   4.171   5.251
 5854SOL    HW218462   2.498   4.250   5.340
 5855SOL     OW18463   1.098   2.342   4.483
 5855SOL    HW118464   1.162   2.266   4.495
 5855SOL    HW218465   1.149   2.429   4.480
 5856SOL     OW18466   0.249   0.685   2.232
 5856SOL    HW118467   0.325   0.697   2.295
 5856SOL    HW218468   0.284   0.675   2.139
 5857SOL     OW18469   6.444   6.054   6.800
 5857SOL    HW118470   6.501   6.136   6.806
 5857SOL    HW218471   6.426   6.033   6.703
 5858SOL     OW18472   2.802   1.507   1.107
 5858SOL    HW118473   2.754   1.542   1.187
 5858SOL    HW218474   2.762   1.419   1.080
 5859SOL     OW18475   6.263   4.835   1.349
 5859SOL    HW118476   6.341   4.864   1.404
 5859SOL    HW218477   6.192   4.906   1.352
 5860SOL     OW18478   1.790   2.949   1.645
 5860SOL    HW118479   1.851   2.882   1.686
 5860SOL    HW218480   1.788   2.937   1.546
 5861SOL     OW18481   4.986   6.297   4.742
 5861SOL    HW118482   4.901   6.347   4.758
 5861SOL    HW218483   4.982   6.254   4.651
 5862SOL     OW18484   0.325   5.042   1.377
 5862SOL    HW118485   0.366   4.965   1.426
 5862SOL    HW218486   0.318   5.121   1.438
 5863SOL     OW18487   4.100   0.068   6.037
 5863SOL    HW118488   4.164   0.144   6.027
 5863SOL    HW218489   4.144   7.019   6.088
 5864SOL     OW18490   3.677   3.967   3.499
 5864SOL    HW118491   3.740   3.989   3.574
 5864SOL    HW218492   3.589   4.012   3.515
 5865SOL     OW18493   6.988   6.136   1.341
 5865SOL    HW118494   0.047   6.127   1.394
 5865SOL    HW218495   6.917   6.078   1.380
 5866SOL     OW18496   2.986   3.300   3.537
 5866SOL    HW118497   3.017   3.260   3.623
 5866SOL    HW218498   3.028   3.252   3.461
 5867SOL     OW18499   4.687   1.243   0.247
 5867SOL    HW118500   4.719   1.155   0.212
 5867SOL    HW218501   4.765   1.296   0.280
 5868SOL     OW18502   1.628   0.779   0.318
 5868SOL    HW118503   1.584   0.711   0.376
 5868SOL    HW218504   1.560   0.821   0.258
 5869SOL     OW18505   2.168   5.270   3.737
 5869SOL    HW118506   2.266   5.252   3.737
 5869SOL    HW218507   2.118   5.184   3.747
 5870SOL     OW18508   3.841   6.042   3.882
 5870SOL    HW118509   3.815   5.956   3.927
 5870SOL    HW218510   3.777   6.061   3.808
 5871SOL     OW18511   3.865   3.937   3.291
 5871SOL    HW118512   3.948   3.966   3.338
 5871SOL    HW218513   3.785   3.966   3.344
 5872SOL     OW18514   4.052   4.989   1.509
 5872SOL    HW118515   4.107   5.071   1.497
 5872SOL    HW218516   3.956   5.010   1.490
 5873SOL     OW18517   4.102   7.008   2.388
 5873SOL    HW118518   4.066   6.950   2.315
 5873SOL    HW218519   4.032   0.050   2.415
 5874SOL     OW18520   0.488   3.484   4.331
 5874SOL    HW118521   0.541   3.529   4.259
 5874SOL    HW218522   0.394   3.472   4.300
 5875SOL     OW18523   4.186   2.509   1.383
 5875SOL    HW118524   4.190   2.539   1.288
 5875SOL    HW218525   4.245   2.429   1.395
 5876SOL     OW18526   3.795   3.799   2.724
 5876SOL    HW118527   3.783   3.886   2.676
 5876SOL    HW218528   3.759   3.808   2.817
 5877SOL     OW18529   4.587   4.915   1.804
 5877SOL    HW118530   4.537   4.913   1.717
 5877SOL    HW218531   4.522   4.915   1.880
 5878SOL     OW18532   0.481   3.569   2.266
 5878SOL    HW118533   0.475   3.557   2.365
 5878SOL    HW218534   0.503   3.481   2.224
 5879SOL     OW18535   1.946   4.222   4.987
 5879SOL    HW118536   2.042   4.218   4.957
 5879SOL    HW218537   1.942   4.205   5.086
 5880SOL     OW18538   2.433   5.235   0.211
 5880SOL    HW118539   2.480   5.218   0.125
 5880SOL    HW218540   2.470   5.174   0.282
 5881SOL     OW18541   1.538   6.107   4.473
 5881SOL    HW118542   1.627   6.102   4.519
 5881SOL    HW218543   1.548   6.073   4.379
 5882SOL     OW18544   5.033   0.327   3.482
 5882SOL    HW118545   5.002   0.232   3.487
 5882SOL    HW218546   5.048   0.352   3.387
 5883SOL     OW18547   0.844   3.261   5.526
 5883SOL    HW118548   0.899   3.256   5.443
 5883SOL    HW218549   0.903   3.244   5.606
 5884SOL     OW18550   0.230   1.165   3.382
 5884SOL    HW118551   0.299   1.189   3.450
 5884SOL    HW218552   0.199   1.248   3.335
 5885SOL     OW18553   6.420   5.444   0.168
 5885SOL    HW118554   6.385   5.351   0.157
 5885SOL    HW218555   6.461   5.475   0.082
 5886SOL     OW18556   5.771   1.741   5.686
 5886SOL    HW118557   5.798   1.832   5.718
 5886SOL    HW218558   5.848   1.678   5.694
 5887SOL     OW18559   3.699   6.985   2.552
 5887SOL    HW118560   3.661   6.929   2.625
 5887SOL    HW218561   3.632   0.029   2.523
 5888SOL     OW18562   6.978   6.109   1.653
 5888SOL    HW118563   6.933   6.144   1.735
 5888SOL    HW218564   6.946   6.015   1.636
 5889SOL     OW18565   2.976   0.079   1.187
 5889SOL    HW118566   3.058   0.056   1.134
 5889SOL    HW218567   2.896   0.035   1.145
 5890SOL     OW18568   4.185   5.193   5.965
 5890SOL    HW118569   4.203   5.118   5.901
 5890SOL    HW218570   4.111   5.167   6.027
 5891SOL     OW18571   2.205   2.950   6.514
 5891SOL    HW118572   2.223   3.049   6.509
 5891SOL    HW218573   2.159   2.929   6.600
 5892SOL     OW18574   3.167   5.406   1.330
 5892SOL    HW118575   3.225   5.377   1.254
 5892SOL    HW218576   3.112   5.328   1.362
 5893SOL     OW18577   0.339   3.000   2.395
 5893SOL    HW118578   0.357   3.097   2.383
 5893SOL    HW218579   0.411   2.960   2.452
 5894SOL     OW18580   1.821   3.995   3.533
 5894SOL    HW118581   1.908   4.037   3.509
 5894SOL    HW218582   1.803   4.007   3.631
 5895SOL     OW18583   4.654   5.203   2.902
 5895SOL    HW118584   4.632   5.301   2.900
 5895SOL    HW218585   4.713   5.184   2.980
 5896SOL     OW18586   5.688   2.134   5.810
 5896SOL    HW118587   5.644   2.061   5.863
 5896SOL    HW218588   5.673   2.118   5.712
 5897SOL     OW18589   4.579   4.295   0.267
 5897SOL    HW118590   4.531   4.308   0.353
 5897SOL    HW218591   4.513   4.289   0.192
 5898SOL     OW18592   1.495   5.352   2.676
 5898SOL    HW118593   1.449   5.396   2.753
 5898SOL    HW218594   1.498   5.415   2.598
 5899SOL     OW18595   5.039   0.852   3.825
 5899SOL    HW118596   4.953   0.837   3.776
 5899SOL    HW218597   5.070   0.946   3.809
 5900SOL     OW18598   3.634   5.194   1.985
 5900SOL    HW118599   3.548   5.241   2.001
 5900SOL    HW218600   3.697   5.254   1.935
 5901SOL     OW18601   2.708   6.414   3.290
 5901SOL    HW118602   2.669   6.404   3.199
 5901SOL    HW218603   2.654   6.480   3.343
 5902SOL     OW18604   6.908   2.088   0.488
 5902SOL    HW118605   6.982   2.106   0.423
 5902SOL    HW218606   6.824   2.068   0.438
 5903SOL     OW18607   0.891   1.641   6.443
 5903SOL    HW118608   0.930   1.732   6.457
 5903SOL    HW218609   0.810   1.630   6.500
 5904SOL     OW18610   0.063   2.902   2.036
 5904SOL    HW118611   0.091   2.816   2.079
 5904SOL    HW218612   0.008   2.955   2.100
 5905SOL     OW18613   6.971   3.702   2.160
 5905SOL    HW118614   6.935   3.768   2.227
 5905SOL    HW218615   6.897   3.646   2.125
 5906SOL     OW18616   6.427   1.481   3.333
 5906SOL    HW118617   6.499   1.540   3.371
 5906SOL    HW218618   6.347   1.484   3.393
 5907SOL     OW18619   1.501   0.740   1.922
 5907SOL    HW118620   1.485   0.833   1.955
 5907SOL    HW218621   1.513   0.678   2.000
 5908SOL     OW18622   0.346   2.705   5.281
 5908SOL    HW118623   0.444   2.717   5.298
 5908SOL    HW218624   0.309   2.790   5.243
 5909SOL     OW18625   6.867   4.395   6.218
 5909SOL    HW118626   6.888   4.297   6.222
 5909SOL    HW218627   6.868   4.425   6.123
 5910SOL     OW18628   1.758   1.853   3.342
 5910SOL    HW118629   1.680   1.808   3.385
 5910SOL    HW218630   1.841   1.803   3.362
 5911SOL     OW18631   5.889   4.962   6.653
 5911SOL    HW118632   5.984   4.956   6.624
 5911SOL    HW218633   5.842   4.877   6.629
 5912SOL     OW18634   0.894   1.799   2.216
 5912SOL    HW118635   0.856   1.891   2.204
 5912SOL    HW218636   0.938   1.793   2.306
 5913SOL     OW18637   0.044   3.543   1.113
 5913SOL    HW118638   0.090   3.580   1.033
 5913SOL    HW218639   0.111   3.503   1.175
 5914SOL     OW18640   1.507   6.653   0.568
 5914SOL    HW118641   1.480   6.564   0.605
 5914SOL    HW218642   1.481   6.658   0.472
 5915SOL     OW18643   4.718   0.689   5.242
 5915SOL    HW118644   4.693   0.780   5.276
 5915SOL    HW218645   4.813   0.690   5.210
 5916SOL     OW18646   0.690   0.878   2.928
 5916SOL    HW118647   0.781   0.879   2.970
 5916SOL    HW218648   0.685   0.805   2.860
 5917SOL     OW18649   3.862   3.496   0.440
 5917SOL    HW118650   3.941   3.546   0.402
 5917SOL    HW218651   3.880   3.398   0.437
 5918SOL     OW18652   3.598   6.246   5.096
 5918SOL    HW118653   3.596   6.148   5.116
 5918SOL    HW218654   3.610   6.260   4.998
 5919SOL     OW18655   2.896   3.762   4.546
 5919SOL    HW118656   2.810   3.792   4.587
 5919SOL    HW218657   2.911   3.665   4.567
 5920SOL     OW18658   1.792   0.298   5.468
 5920SOL    HW118659   1.825   0.205   5.485
 5920SOL    HW218660   1.848   0.363   5.517
 5921SOL     OW18661   3.023   4.635   1.349
 5921SOL    HW118662   3.063   4.666   1.263
 5921SOL    HW218663   3.040   4.537   1.361
 5922SOL     OW18664   5.194   2.580   2.294
 5922SOL    HW118665   5.119   2.584   2.361
 5922SOL    HW218666   5.221   2.673   2.269
 5923SOL     OW18667   5.727   0.941   2.339
 5923SOL    HW118668   5.773   1.010   2.396
 5923SOL    HW218669   5.716   0.857   2.391
 5924SOL     OW18670   0.248   5.953   3.153
 5924SOL    HW118671   0.299   5.951   3.066
 5924SOL    HW218672   0.264   5.868   3.202
 5925SOL     OW18673   4.289   0.834   0.949
 5925SOL    HW118674   4.319   0.929   0.959
 5925SOL    HW218675   4.226   0.810   1.023
 5926SOL     OW18676   4.931   3.402   3.135
 5926SOL    HW118677   4.887   3.363   3.216
 5926SOL    HW218678   4.908   3.346   3.055
 5927SOL     OW18679   1.282   0.045   1.681
 5927SOL    HW118680   1.217   0.080   1.749
 5927SOL    HW218681   1.375   0.066   1.710
 5928SOL     OW18682   3.387   0.052   6.618
 5928SOL    HW118683   3.368   0.129   6.679
 5928SOL    HW218684   3.481   0.021   6.632
 5929SOL     OW18685   1.375   0.868   1.294
 5929SOL    HW118686   1.291   0.813   1.288
 5929SOL    HW218687   1.449   0.811   1.329
 5930SOL     OW18688   0.093   4.867   1.775
 5930SOL    HW118689   0.092   4.869   1.675
 5930SOL    HW218690   0.110   4.773   1.806
 5931SOL     OW18691   4.648   0.637   4.949
 5931SOL    HW118692   4.652   0.634   5.049
 5931SOL    HW218693   4.561   0.600   4.917
 5932SOL     OW18694   2.880   5.344   0.937
 5932SOL    HW118695   2.953   5.282   0.907
 5932SOL    HW218696   2.878   5.424   0.877
 5933SOL     OW18697   6.967   5.537   4.277
 5933SOL    HW118698   6.883   5.589   4.297
 5933SOL    HW218699   6.995   5.486   4.359
 5934SOL     OW18700   2.841   4.650   0.036
 5934SOL    HW118701   2.925   4.696   0.007
 5934SOL    HW218702   2.850   4.620   0.131
 5935SOL     OW18703   1.457   0.540   5.450
 5935SOL    HW118704   1.360   0.543   5.475
 5935SOL    HW218705   1.509   0.601   5.510
 5936SOL     OW18706   4.070   3.074   2.216
 5936SOL    HW118707   4.089   3.143   2.146
 5936SOL    HW218708   4.048   2.987   2.171
 5937SOL     OW18709   0.959   2.821   0.797
 5937SOL    HW118710   1.012   2.899   0.830
 5937SOL    HW218711   0.863   2.833   0.820
 5938SOL     OW18712   0.255   3.349   4.358
 5938SOL    HW118713   0.228   3.337   4.263
 5938SOL    HW218714   0.316   3.274   4.385
 5939SOL     OW18715   4.860   1.887   5.931
 5939SOL    HW118716   4.797   1.964   5.923
 5939SOL    HW218717   4.954   1.919   5.920
 5940SOL     OW18718   4.729   5.189   0.931
 5940SOL    HW118719   4.797   5.242   0.881
 5940SOL    HW218720   4.654   5.164   0.870
 5941SOL     OW18721   1.634   2.099   3.406
 5941SOL    HW118722   1.559   2.073   3.466
 5941SOL    HW218723   1.680   2.017   3.372
 5942SOL     OW18724   4.681   2.262   6.678
 5942SOL    HW118725   4.727   2.321   6.745
 5942SOL    HW218726   4.585   2.287   6.671
 5943SOL     OW18727   1.983   4.641   2.260
 5943SOL    HW118728   1.923   4.628   2.340
 5943SOL    HW218729   2.074   4.606   2.282
 5944SOL     OW18730   6.825   3.317   5.909
 5944SOL    HW118731   6.774   3.290   5.828
 5944SOL    HW218732   6.888   3.391   5.886
 5945SOL     OW18733   0.454   6.504   4.468
 5945SOL    HW118734   0.409   6.416   4.453
 5945SOL    HW218735   0.553   6.491   4.465
 5946SOL     OW18736   3.180   2.759   6.635
 5946SOL    HW118737   3.114   2.830   6.658
 5946SOL    HW218738   3.150   2.672   6.674
 5947SOL     OW18739   3.363   3.670   5.666
 5947SOL    HW118740   3.447   3.622   5.692
 5947SOL    HW218741   3.284   3.613   5.689
 5948SOL     OW18742   4.852   3.213   1.136
 5948SOL    HW118743   4.769   3.209   1.191
 5948SOL    HW218744   4.931   3.228   1.196
 5949SOL     OW18745   1.389   5.120   4.486
 5949SOL    HW118746   1.438   5.156   4.407
 5949SOL    HW218747   1.399   5.020   4.490
 5950SOL     OW18748   1.802   6.451   5.074
 5950SOL    HW118749   1.765   6.499   4.994
 5950SOL    HW218750   1.731   6.444   5.144
 5951SOL     OW18751   6.915   3.139   6.332
 5951SOL    HW118752   6.899   3.211   6.264
 5951SOL    HW218753   6.876   3.053   6.300
 5952SOL     OW18754   3.754   4.132   1.722
 5952SOL    HW118755   3.664   4.098   1.696
 5952SOL    HW218756   3.770   4.113   1.819
 5953SOL     OW18757   0.022   3.048   6.846
 5953SOL    HW118758   0.046   2.967   6.793
 5953SOL    HW218759   6.954   3.037   6.883
 5954SOL     OW18760   2.481   5.413   3.616
 5954SOL    HW118761   2.434   5.381   3.534
 5954SOL    HW218762   2.475   5.343   3.687
 5955SOL     OW18763   4.596   2.994   0.285
 5955SOL    HW118764   4.671   2.929   0.278
 5955SOL    HW218765   4.627   3.076   0.333
 5956SOL     OW18766   4.178   2.057   6.867
 5956SOL    HW118767   4.268   2.049   6.826
 5956SOL    HW218768   4.127   1.972   6.854
 5957SOL     OW18769   0.107   2.839   3.824
 5957SOL    HW118770   0.060   2.771   3.881
 5957SOL    HW218771   0.112   2.806   3.730
 5958SOL     OW18772   2.411   6.510   1.912
 5958SOL    HW118773   2.445   6.420   1.889
 5958SOL    HW218774   2.344   6.502   1.987
 5959SOL     OW18775   4.934   4.340   3.270
 5959SOL    HW118776   4.899   4.253   3.237
 5959SOL    HW218777   4.880   4.370   3.349
 5960SOL     OW18778   6.430   6.613   6.500
 5960SOL    HW118779   6.525   6.583   6.501
 5960SOL    HW218780   6.379   6.560   6.433
 5961SOL     OW18781   1.560   2.295   3.228
 5961SOL    HW118782   1.527   2.246   3.148
 5961SOL    HW218783   1.602   2.230   3.292
 5962SOL     OW18784   5.571   5.477   0.724
 5962SOL    HW118785   5.514   5.505   0.646
 5962SOL    HW218786   5.666   5.469   0.694
 5963SOL     OW18787   2.361   3.839   1.507
 5963SOL    HW118788   2.343   3.793   1.421
 5963SOL    HW218789   2.440   3.797   1.552
 5964SOL     OW18790   1.297   6.397   4.194
 5964SOL    HW118791   1.273   6.472   4.132
 5964SOL    HW218792   1.217   6.368   4.245
 5965SOL     OW18793   2.204   0.087   1.345
 5965SOL    HW118794   2.193   0.181   1.310
 5965SOL    HW218795   2.116   0.039   1.337
 5966SOL     OW18796   2.767   1.872   5.393
 5966SOL    HW118797   2.787   1.777   5.419
 5966SOL    HW218798   2.797   1.934   5.465
 5967SOL     OW18799   4.815   2.207   5.643
 5967SOL    HW118800   4.772   2.148   5.576
 5967SOL    HW218801   4.768   2.296   5.645
 5968SOL     OW18802   6.322   1.572   2.876
 5968SOL    HW118803   6.250   1.624   2.830
 5968SOL    HW218804   6.333   1.483   2.831
 5969SOL     OW18805   5.477   6.300   1.663
 5969SOL    HW118806   5.477   6.387   1.613
 5969SOL    HW218807   5.531   6.310   1.747
 5970SOL     OW18808   6.599   1.456   0.349
 5970SOL    HW118809   6.537   1.535   0.354
 5970SOL    HW218810   6.640   1.441   0.439
 5971SOL     OW18811   6.682   5.199   3.899
 5971SOL    HW118812   6.744   5.216   3.823
 5971SOL    HW218813   6.589   5.188   3.865
 5972SOL     OW18814   6.716   5.385   0.100
 5972SOL    HW118815   6.675   5.305   0.144
 5972SOL    HW218816   6.796   5.414   0.151
 5973SOL     OW18817   3.614   0.560   2.012
 5973SOL    HW118818   3.523   0.550   2.053
 5973SOL    HW218819   3.655   0.646   2.042
 5974SOL     OW18820   5.752   0.979   4.436
 5974SOL    HW118821   5.773   0.885   4.407
 5974SOL    HW218822   5.728   1.034   4.357
 5975SOL     OW18823   3.895   4.413   0.388
 5975SOL    HW118824   3.849   4.443   0.472
 5975SOL    HW218825   3.904   4.490   0.325
 5976SOL     OW18826   0.493   1.969   6.517
 5976SOL    HW118827   0.452   2.060   6.520
 5976SOL    HW218828   0.421   1.900   6.510
 5977SOL     OW18829   0.570   5.620   1.764
 5977SOL    HW118830   0.613   5.628   1.854
 5977SOL    HW218831   0.476   5.587   1.775
 5978SOL     OW18832   2.972   3.672   6.149
 5978SOL    HW118833   2.990   3.674   6.051
 5978SOL    HW218834   3.052   3.634   6.197
 5979SOL     OW18835   5.981   1.258   1.767
 5979SOL    HW118836   5.974   1.219   1.676
 5979SOL    HW218837   5.901   1.315   1.786
 5980SOL     OW18838   3.946   2.745   0.403
 5980SOL    HW118839   3.989   2.691   0.331
 5980SOL    HW218840   3.985   2.718   0.492
 5981SOL     OW18841   4.096   2.089   0.816
 5981SOL    HW118842   4.143   2.076   0.904
 5981SOL    HW218843   3.999   2.067   0.826
 5982SOL     OW18844   6.011   2.875   1.225
 5982SOL    HW118845   5.969   2.957   1.187
 5982SOL    HW218846   5.984   2.795   1.171
 5983SOL     OW18847   0.329   1.764   3.601
 5983SOL    HW118848   0.258   1.717   3.653
 5983SOL    HW218849   0.418   1.725   3.623
 5984SOL     OW18850   6.285   5.667   1.849
 5984SOL    HW118851   6.233   5.583   1.866
 5984SOL    HW218852   6.238   5.744   1.892
 5985SOL     OW18853   0.205   4.427   2.458
 5985SOL    HW118854   0.143   4.430   2.536
 5985SOL    HW218855   0.163   4.473   2.380
 5986SOL     OW18856   4.091   3.768   3.239
 5986SOL    HW118857   4.108   3.704   3.313
 5986SOL    HW218858   4.160   3.756   3.167
 5987SOL     OW18859   0.095   5.883   3.986
 5987SOL    HW118860   0.167   5.932   4.036
 5987SOL    HW218861   0.015   5.872   4.044
 5988SOL     OW18862   1.938   1.998   0.716
 5988SOL    HW118863   1.865   2.063   0.741
 5988SOL    HW218864   2.015   2.009   0.779
 5989SOL     OW18865   2.648   6.336   5.997
 5989SOL    HW118866   2.565   6.283   5.983
 5989SOL    HW218867   2.628   6.415   6.055
 5990SOL     OW18868   2.495   4.069   1.757
 5990SOL    HW118869   2.579   4.033   1.717
 5990SOL    HW218870   2.494   4.050   1.855
 5991SOL     OW18871   5.254   1.227   0.805
 5991SOL    HW118872   5.277   1.178   0.889
 5991SOL    HW218873   5.203   1.165   0.744
 5992SOL     OW18874   2.513   4.643   2.492
 5992SOL    HW118875   2.553   4.661   2.402
 5992SOL    HW218876   2.475   4.728   2.530
 5993SOL     OW18877   5.740   1.035   0.103
 5993SOL    HW118878   5.819   1.013   0.045
 5993SOL    HW218879   5.771   1.069   0.191
 5994SOL     OW18880   0.834   4.965   1.022
 5994SOL    HW118881   0.824   4.904   1.101
 5994SOL    HW218882   0.911   4.934   0.966
 5995SOL     OW18883   5.358   4.477   1.207
 5995SOL    HW118884   5.396   4.551   1.152
 5995SOL    HW218885   5.304   4.416   1.149
 5996SOL     OW18886   2.541   0.869   2.033
 5996SOL    HW118887   2.614   0.860   1.965
 5996SOL    HW218888   2.517   0.965   2.044
 5997SOL     OW18889   6.844   0.849   4.820
 5997SOL    HW118890   6.910   0.920   4.798
 5997SOL    HW218891   6.821   0.854   4.917
 5998SOL     OW18892   5.793   6.279   0.333
 5998SOL    HW118893   5.738   6.241   0.408
 5998SOL    HW218894   5.733   6.324   0.267
 5999SOL     OW18895   5.743   3.251   0.735
 5999SOL    HW118896   5.653   3.292   0.752
 5999SOL    HW218897   5.812   3.322   0.730
 6000SOL     OW18898   0.251   5.252   1.927
 6000SOL    HW118899   0.211   5.318   1.863
 6000SOL    HW218900   0.187   5.176   1.941
 6001SOL     OW18901   0.327   6.562   5.897
 6001SOL    HW118902   0.374   6.495   5.955
 6001SOL    HW218903   0.311   6.646   5.948
 6002SOL     OW18904   5.633   5.039   4.605
 6002SOL    HW118905   5.701   5.063   4.675
 6002SOL    HW218906   5.606   4.944   4.618
 6003SOL     OW18907   2.270   0.752   4.581
 6003SOL    HW118908   2.206   0.693   4.631
 6003SOL    HW218909   2.228   0.780   4.495
 6004SOL     OW18910   5.137   2.867   5.039
 6004SOL    HW118911   5.107   2.959   5.014
 6004SOL    HW218912   5.211   2.873   5.106
 6005SOL     OW18913   3.712   4.021   0.359
 6005SOL    HW118914   3.612   4.019   0.353
 6005SOL    HW218915   3.744   3.945   0.415
 6006SOL     OW18916   2.830   6.257   5.790
 6006SOL    HW118917   2.783   6.322   5.851
 6006SOL    HW218918   2.919   6.233   5.829
 6007SOL     OW18919   3.215   6.747   4.197
 6007SOL    HW118920   3.126   6.712   4.225
 6007SOL    HW218921   3.219   6.753   4.097
 6008SOL     OW18922   2.302   3.708   6.771
 6008SOL    HW118923   2.211   3.701   6.730
 6008SOL    HW218924   2.296   3.759   6.857
 6009SOL     OW18925   2.182   5.898   2.092
 6009SOL    HW118926   2.089   5.868   2.075
 6009SOL    HW218927   2.182   5.978   2.152
 6010SOL     OW18928   0.188   5.308   5.951
 6010SOL    HW118929   0.252   5.270   6.018
 6010SOL    HW218930   0.235   5.324   5.865
 6011SOL     OW18931   5.836   1.546   3.412
 6011SOL    HW118932   5.810   1.601   3.491
 6011SOL    HW218933   5.927   1.573   3.381
 6012SOL     OW18934   6.462   1.177   5.463
 6012SOL    HW118935   6.548   1.127   5.456
 6012SOL    HW218936   6.452   1.238   5.384
 6013SOL     OW18937   5.861   1.823   3.091
 6013SOL    HW118938   5.900   1.732   3.079
 6013SOL    HW218939   5.915   1.890   3.041
 6014SOL     OW18940   4.058   3.857   4.371
 6014SOL    HW118941   4.086   3.952   4.354
 6014SOL    HW218942   4.027   3.816   4.285
 6015SOL     OW18943   6.856   0.088   3.434
 6015SOL    HW118944   6.947   0.122   3.459
 6015SOL    HW218945   6.838   0.002   3.480
 6016SOL     OW18946   4.205   1.909   4.073
 6016SOL    HW118947   4.287   1.887   4.125
 6016SOL    HW218948   4.232   1.954   3.987
 6017SOL     OW18949   1.336   2.489   5.317
 6017SOL    HW118950   1.366   2.505   5.223
 6017SOL    HW218951   1.352   2.571   5.372
 6018SOL     OW18952   2.456   1.072   3.899
 6018SOL    HW118953   2.400   1.131   3.841
 6018SOL    HW218954   2.510   1.128   3.961
 6019SOL     OW18955   6.517   3.110   6.457
 6019SOL    HW118956   6.466   3.038   6.504
 6019SOL    HW218957   6.615   3.093   6.465
 6020SOL     OW18958   0.388   5.254   4.667
 6020SOL    HW118959   0.334   5.209   4.739
 6020SOL    HW218960   0.472   5.203   4.651
 6021SOL     OW18961   5.239   0.321   4.116
 6021SOL    HW118962   5.320   0.274   4.150
 6021SOL    HW218963   5.181   0.348   4.192
 6022SOL     OW18964   6.481   3.811   1.506
 6022SOL    HW118965   6.523   3.779   1.591
 6022SOL    HW218966   6.498   3.909   1.497
 6023SOL     OW18967   3.966   0.782   3.147
 6023SOL    HW118968   4.041   0.715   3.148
 6023SOL    HW218969   3.960   0.826   3.237
 6024SOL     OW18970   0.422   6.521   6.783
 6024SOL    HW118971   0.465   6.436   6.752
 6024SOL    HW218972   0.448   6.596   6.723
 6025SOL     OW18973   3.486   0.482   5.609
 6025SOL    HW118974   3.521   0.479   5.515
 6025SOL    HW218975   3.388   0.459   5.609
 6026SOL     OW18976   5.167   6.423   3.603
 6026SOL    HW118977   5.242   6.376   3.648
 6026SOL    HW218978   5.109   6.467   3.671
 6027SOL     OW18979   5.970   4.153   5.923
 6027SOL    HW118980   6.015   4.240   5.905
 6027SOL    HW218981   6.024   4.101   5.989
 6028SOL     OW18982   6.234   5.383   6.384
 6028SOL    HW118983   6.161   5.314   6.387
 6028SOL    HW218984   6.268   5.401   6.477
 6029SOL     OW18985   2.505   1.586   2.056
 6029SOL    HW118986   2.558   1.653   2.004
 6029SOL    HW218987   2.443   1.633   2.119
 6030SOL     OW18988   5.893   2.914   5.059
 6030SOL    HW118989   5.876   2.896   4.962
 6030SOL    HW218990   5.985   2.952   5.070
 6031SOL     OW18991   0.108   0.382   3.657
 6031SOL    HW118992   0.052   0.465   3.653
 6031SOL    HW218993   0.084   0.322   3.581
 6032SOL     OW18994   3.218   0.295   2.867
 6032SOL    HW118995   3.131   0.339   2.847
 6032SOL    HW218996   3.218   0.202   2.828
 6033SOL     OW18997   0.521   1.692   2.637
 6033SOL    HW118998   0.522   1.604   2.686
 6033SOL    HW218999   0.537   1.766   2.703
 6034SOL     OW19000   0.729   0.671   0.887
 6034SOL    HW119001   0.781   0.662   0.972
 6034SOL    HW219002   0.683   0.760   0.885
 6035SOL     OW19003   2.148   1.389   2.717
 6035SOL    HW119004   2.142   1.466   2.654
 6035SOL    HW219005   2.072   1.393   2.782
 6036SOL     OW19006   0.166   3.520   0.294
 6036SOL    HW119007   0.199   3.455   0.225
 6036SOL    HW219008   0.158   3.475   0.382
 6037SOL     OW19009   4.388   0.198   6.818
 6037SOL    HW119010   4.303   0.245   6.842
 6037SOL    HW219011   4.465   0.262   6.824
 6038SOL     OW19012   2.758   1.621   0.134
 6038SOL    HW119013   2.779   1.648   0.041
 6038SOL    HW219014   2.830   1.559   0.168
 6039SOL     OW19015   3.440   2.999   4.190
 6039SOL    HW119016   3.510   3.007   4.262
 6039SOL    HW219017   3.351   3.026   4.226
 6040SOL     OW19018   6.823   0.860   0.764
 6040SOL    HW119019   6.876   0.940   0.736
 6040SOL    HW219020   6.846   0.835   0.858
 6041SOL     OW19021   0.670   3.283   4.353
 6041SOL    HW119022   0.616   3.366   4.365
 6041SOL    HW219023   0.688   3.269   4.256
 6042SOL     OW19024   3.104   5.891   2.883
 6042SOL    HW119025   3.163   5.828   2.933
 6042SOL    HW219026   3.114   5.983   2.921
 6043SOL     OW19027   2.000   4.743   1.048
 6043SOL    HW119028   2.053   4.809   1.100
 6043SOL    HW219029   1.955   4.679   1.110
 6044SOL     OW19030   6.646   4.058   6.983
 6044SOL    HW119031   6.558   4.094   7.014
 6044SOL    HW219032   6.657   4.078   6.885
 6045SOL     OW19033   4.488   1.237   4.088
 6045SOL    HW119034   4.397   1.269   4.064
 6045SOL    HW219035   4.482   1.145   4.127
 6046SOL     OW19036   3.509   3.599   2.584
 6046SOL    HW119037   3.562   3.544   2.648
 6046SOL    HW219038   3.571   3.653   2.527
 6047SOL     OW19039   0.264   1.506   0.732
 6047SOL    HW119040   0.177   1.489   0.777
 6047SOL    HW219041   0.325   1.556   0.794
 6048SOL     OW19042   6.201   5.820   3.836
 6048SOL    HW119043   6.158   5.745   3.786
 6048SOL    HW219044   6.166   5.907   3.803
 6049SOL     OW19045   5.431   5.040   0.056
 6049SOL    HW119046   5.436   4.953   0.105
 6049SOL    HW219047   5.520   5.086   0.063
 6050SOL     OW19048   2.093   5.491   3.336
 6050SOL    HW119049   2.010   5.538   3.306
 6050SOL    HW219050   2.104   5.501   3.434
 6051SOL     OW19051   0.365   1.836   2.941
 6051SOL    HW119052   0.419   1.878   2.868
 6051SOL    HW219053   0.379   1.737   2.940
 6052SOL     OW19054   5.177   5.902   6.834
 6052SOL    HW119055   5.233   5.908   6.752
 6052SOL    HW219056   5.086   5.939   6.815
 6053SOL     OW19057   3.809   1.783   5.741
 6053SOL    HW119058   3.904   1.813   5.728
 6053SOL    HW219059   3.764   1.777   5.652
 6054SOL     OW19060   4.067   3.710   6.400
 6054SOL    HW119061   4.089   3.703   6.303
 6054SOL    HW219062   4.147   3.744   6.450
 6055SOL     OW19063   3.087   4.644   1.654
 6055SOL    HW119064   3.060   4.605   1.742
 6055SOL    HW219065   3.008   4.643   1.591
 6056SOL     OW19066   5.264   6.574   2.986
 6056SOL    HW119067   5.268   6.645   2.916
 6056SOL    HW219068   5.273   6.484   2.943
 6057SOL     OW19069   5.704   1.099   4.189
 6057SOL    HW119070   5.626   1.135   4.239
 6057SOL    HW219071   5.700   1.128   4.094
 6058SOL     OW19072   6.502   3.334   6.322
 6058SOL    HW119073   6.509   3.258   6.387
 6058SOL    HW219074   6.406   3.351   6.300
 6059SOL     OW19075   4.272   2.296   6.431
 6059SOL    HW119076   4.216   2.213   6.426
 6059SOL    HW219077   4.307   2.318   6.340
 6060SOL     OW19078   2.597   2.096   1.189
 6060SOL    HW119079   2.516   2.156   1.191
 6060SOL    HW219080   2.674   2.142   1.232
 6061SOL     OW19081   2.459   4.645   6.580
 6061SOL    HW119082   2.424   4.658   6.672
 6061SOL    HW219083   2.383   4.625   6.518
 6062SOL     OW19084   1.948   2.393   5.151
 6062SOL    HW119085   1.904   2.441   5.227
 6062SOL    HW219086   1.881   2.379   5.078
 6063SOL     OW19087   4.614   3.725   6.042
 6063SOL    HW119088   4.666   3.807   6.014
 6063SOL    HW219089   4.613   3.660   5.966
 6064SOL     OW19090   5.709   5.840   6.947
 6064SOL    HW119091   5.696   5.921   7.005
 6064SOL    HW219092   5.687   5.863   6.853
 6065SOL     OW19093   1.492   5.568   1.619
 6065SOL    HW119094   1.518   5.629   1.543
 6065SOL    HW219095   1.488   5.621   1.704
 6066SOL     OW19096   5.054   5.696   2.997
 6066SOL    HW119097   4.980   5.762   3.008
 6066SOL    HW219098   5.034   5.634   2.921
 6067SOL     OW19099   6.608   4.603   5.390
 6067SOL    HW119100   6.567   4.680   5.341
 6067SOL    HW219101   6.545   4.570   5.460
 6068SOL     OW19102   4.771   1.965   3.371
 6068SOL    HW119103   4.776   2.064   3.355
 6068SOL    HW219104   4.765   1.948   3.469
 6069SOL     OW19105   1.171   5.228   5.536
 6069SOL    HW119106   1.089   5.274   5.572
 6069SOL    HW219107   1.214   5.286   5.467
 6070SOL     OW19108   2.536   0.751   1.283
 6070SOL    HW119109   2.475   0.786   1.355
 6070SOL    HW219110   2.487   0.683   1.229
 6071SOL     OW19111   6.359   6.860   6.546
 6071SOL    HW119112   6.383   6.766   6.523
 6071SOL    HW219113   6.338   6.866   6.643
 6072SOL     OW19114   0.456   2.792   6.925
 6072SOL    HW119115   0.394   2.855   6.970
 6072SOL    HW219116   0.465   2.817   6.829
 6073SOL     OW19117   4.487   4.354   6.979
 6073SOL    HW119118   4.458   4.450   6.973
 6073SOL    HW219119   4.536   4.329   6.896
 6074SOL     OW19120   1.618   6.187   2.254
 6074SOL    HW119121   1.537   6.129   2.245
 6074SOL    HW219122   1.624   6.222   2.348
 6075SOL     OW19123   6.837   6.699   6.887
 6075SOL    HW119124   6.841   6.728   6.982
 6075SOL    HW219125   6.879   6.769   6.829
 6076SOL     OW19126   0.087   6.411   3.152
 6076SOL    HW119127   0.134   6.497   3.129
 6076SOL    HW219128   0.155   6.338   3.161
 6077SOL     OW19129   5.001   6.296   2.911
 6077SOL    HW119130   5.099   6.314   2.904
 6077SOL    HW219131   4.954   6.380   2.938
 6078SOL     OW19132   5.562   4.100   0.643
 6078SOL    HW119133   5.495   4.066   0.709
 6078SOL    HW219134   5.560   4.200   0.642
 6079SOL     OW19135   3.298   1.895   0.082
 6079SOL    HW119136   3.216   1.946   0.109
 6079SOL    HW219137   3.328   1.837   0.158
 6080SOL     OW19138   5.984   3.421   5.476
 6080SOL    HW119139   5.984   3.321   5.482
 6080SOL    HW219140   6.043   3.449   5.401
 6081SOL     OW19141   2.321   4.192   4.085
 6081SOL    HW119142   2.357   4.277   4.125
 6081SOL    HW219143   2.361   4.179   3.994
 6082SOL     OW19144   4.143   1.279   1.141
 6082SOL    HW119145   4.185   1.338   1.072
 6082SOL    HW219146   4.122   1.333   1.222
 6083SOL     OW19147   4.648   0.930   5.524
 6083SOL    HW119148   4.742   0.932   5.492
 6083SOL    HW219149   4.633   1.004   5.590
 6084SOL     OW19150   6.451   4.782   3.454
 6084SOL    HW119151   6.408   4.726   3.384
 6084SOL    HW219152   6.433   4.743   3.545
 6085SOL     OW19153   0.754   6.230   1.063
 6085SOL    HW119154   0.820   6.202   1.133
 6085SOL    HW219155   0.780   6.319   1.026
 6086SOL     OW19156   4.926   3.212   0.370
 6086SOL    HW119157   4.838   3.247   0.403
 6086SOL    HW219158   4.979   3.179   0.448
 6087SOL     OW19159   3.817   1.071   6.763
 6087SOL    HW119160   3.846   1.113   6.849
 6087SOL    HW219161   3.802   0.973   6.778
 6088SOL     OW19162   4.040   6.412   2.512
 6088SOL    HW119163   4.118   6.350   2.509
 6088SOL    HW219164   3.974   6.385   2.442
 6089SOL     OW19165   6.304   5.367   2.938
 6089SOL    HW119166   6.377   5.319   2.986
 6089SOL    HW219167   6.314   5.465   2.951
 6090SOL     OW19168   4.041   5.742   4.409
 6090SOL    HW119169   4.045   5.841   4.392
 6090SOL    HW219170   3.949   5.709   4.390
 6091SOL     OW19171   0.357   2.815   2.162
 6091SOL    HW119172   0.432   2.850   2.107
 6091SOL    HW219173   0.357   2.862   2.251
 6092SOL     OW19174   1.915   6.729   0.877
 6092SOL    HW119175   1.836   6.729   0.817
 6092SOL    HW219176   1.944   6.635   0.894
 6093SOL     OW19177   3.714   3.314   2.428
 6093SOL    HW119178   3.744   3.355   2.514
 6093SOL    HW219179   3.762   3.358   2.351
 6094SOL     OW19180   0.263   0.016   5.717
 6094SOL    HW119181   0.355   7.018   5.751
 6094SOL    HW219182   0.270   0.042   5.621
 6095SOL     OW19183   5.508   5.098   2.147
 6095SOL    HW119184   5.538   5.024   2.087
 6095SOL    HW219185   5.411   5.087   2.167
 6096SOL     OW19186   4.652   6.281   3.111
 6096SOL    HW119187   4.639   6.288   3.210
 6096SOL    HW219188   4.714   6.354   3.081
 6097SOL     OW19189   1.953   5.222   0.974
 6097SOL    HW119190   1.899   5.152   0.929
 6097SOL    HW219191   2.050   5.210   0.949
 6098SOL     OW19192   5.940   1.622   5.384
 6098SOL    HW119193   6.033   1.635   5.350
 6098SOL    HW219194   5.881   1.597   5.308
 6099SOL     OW19195   3.401   6.920   5.534
 6099SOL    HW119196   3.448   6.974   5.465
 6099SOL    HW219197   3.307   6.954   5.545
 6100SOL     OW19198   0.069   5.457   6.143
 6100SOL    HW119199   0.098   5.399   6.218
 6100SOL    HW219200   0.102   5.420   6.057
 6101SOL     OW19201   1.047   2.728   0.512
 6101SOL    HW119202   1.088   2.806   0.558
 6101SOL    HW219203   0.948   2.728   0.528
 6102SOL     OW19204   2.632   0.417   2.909
 6102SOL    HW119205   2.711   0.477   2.899
 6102SOL    HW219206   2.643   0.362   2.992
 6103SOL     OW19207   5.745   0.367   2.718
 6103SOL    HW119208   5.680   0.434   2.683
 6103SOL    HW219209   5.803   0.409   2.787
 6104SOL     OW19210   7.019   0.676   5.436
 6104SOL    HW119211   0.018   0.602   5.498
 6104SOL    HW219212   6.941   0.649   5.379
 6105SOL     OW19213   3.819   4.899   6.572
 6105SOL    HW119214   3.793   4.809   6.608
 6105SOL    HW219215   3.844   4.959   6.648
 6106SOL     OW19216   6.390   3.716   5.292
 6106SOL    HW119217   6.345   3.660   5.362
 6106SOL    HW219218   6.416   3.658   5.215
 6107SOL     OW19219   6.601   4.494   4.990
 6107SOL    HW119220   6.529   4.440   4.949
 6107SOL    HW219221   6.569   4.588   5.005
 6108SOL     OW19222   3.113   0.170   6.024
 6108SOL    HW119223   3.185   0.101   6.034
 6108SOL    HW219224   3.054   0.169   6.105
 6109SOL     OW19225   6.484   6.330   3.703
 6109SOL    HW119226   6.580   6.319   3.730
 6109SOL    HW219227   6.473   6.414   3.651
 6110SOL     OW19228   0.853   1.856   4.084
 6110SOL    HW119229   0.867   1.839   4.181
 6110SOL    HW219230   0.849   1.955   4.068
 6111SOL     OW19231   2.960   3.160   1.276
 6111SOL    HW119232   2.927   3.230   1.213
 6111SOL    HW219233   3.059   3.155   1.272
 6112SOL     OW19234   4.752   6.123   4.049
 6112SOL    HW119235   4.757   6.037   4.100
 6112SOL    HW219236   4.674   6.176   4.083
 6113SOL     OW19237   3.589   5.151   1.222
 6113SOL    HW119238   3.616   5.087   1.151
 6113SOL    HW219239   3.660   5.221   1.234
 6114SOL     OW19240   4.751   3.541   1.290
 6114SOL    HW119241   4.701   3.481   1.227
 6114SOL    HW219242   4.847   3.548   1.260
 6115SOL     OW19243   6.156   1.168   4.365
 6115SOL    HW119244   6.229   1.132   4.307
 6115SOL    HW219245   6.116   1.249   4.322
 6116SOL     OW19246   6.023   2.508   0.574
 6116SOL    HW119247   6.102   2.548   0.527
 6116SOL    HW219248   5.945   2.507   0.511
 6117SOL     OW19249   3.265   2.313   1.103
 6117SOL    HW119250   3.183   2.301   1.159
 6117SOL    HW219251   3.263   2.404   1.061
 6118SOL     OW19252   6.164   0.250   1.541
 6118SOL    HW119253   6.111   0.172   1.508
 6118SOL    HW219254   6.211   0.294   1.464
 6119SOL     OW19255   0.480   1.013   6.037
 6119SOL    HW119256   0.504   1.049   6.127
 6119SOL    HW219257   0.399   1.061   6.002
 6120SOL     OW19258   3.148   1.450   3.529
 6120SOL    HW119259   3.074   1.475   3.466
 6120SOL    HW219260   3.150   1.514   3.605
 6121SOL     OW19261   3.833   0.796   5.453
 6121SOL    HW119262   3.901   0.834   5.391
 6121SOL    HW219263   3.844   0.696   5.457
 6122SOL     OW19264   4.583   4.453   4.865
 6122SOL    HW119265   4.574   4.440   4.766
 6122SOL    HW219266   4.503   4.501   4.900
 6123SOL     OW19267   6.496   1.643   5.258
 6123SOL    HW119268   6.420   1.605   5.311
 6123SOL    HW219269   6.461   1.690   5.177
 6124SOL     OW19270   2.084   5.882   3.812
 6124SOL    HW119271   2.051   5.934   3.891
 6124SOL    HW219272   2.160   5.932   3.768
 6125SOL     OW19273   2.978   0.924   6.004
 6125SOL    HW119274   2.927   1.008   5.983
 6125SOL    HW219275   3.060   0.948   6.057
 6126SOL     OW19276   6.231   3.074   6.776
 6126SOL    HW119277   6.278   2.987   6.787
 6126SOL    HW219278   6.150   3.062   6.719
 6127SOL     OW19279   5.052   1.987   2.837
 6127SOL    HW119280   4.990   1.910   2.819
 6127SOL    HW219281   4.998   2.069   2.857
 6128SOL     OW19282   6.075   5.272   4.913
 6128SOL    HW119283   6.019   5.233   4.986
 6128SOL    HW219284   6.084   5.370   4.927
 6129SOL     OW19285   2.278   5.819   3.039
 6129SOL    HW119286   2.187   5.824   2.999
 6129SOL    HW219287   2.345   5.802   2.967
 6130SOL     OW19288   6.637   2.187   6.941
 6130SOL    HW119289   6.680   2.134   6.868
 6130SOL    HW219290   6.553   2.141   6.969
 6131SOL     OW19291   5.779   3.158   2.361
 6131SOL    HW119292   5.776   3.239   2.419
 6131SOL    HW219293   5.870   3.116   2.366
 6132SOL     OW19294   4.456   5.914   6.758
 6132SOL    HW119295   4.363   5.923   6.793
 6132SOL    HW219296   4.456   5.859   6.675
 6133SOL     OW19297   0.272   2.553   3.779
 6133SOL    HW119298   0.230   2.467   3.753
 6133SOL    HW219299   0.370   2.549   3.760
 6134SOL     OW19300   0.963   0.043   5.198
 6134SOL    HW119301   0.869   0.012   5.193
 6134SOL    HW219302   0.965   0.137   5.232
 6135SOL     OW19303   6.200   6.278   0.139
 6135SOL    HW119304   6.268   6.342   0.175
 6135SOL    HW219305   6.150   6.236   0.214
 6136SOL     OW19306   0.806   2.198   2.924
 6136SOL    HW119307   0.734   2.263   2.950
 6136SOL    HW219308   0.848   2.228   2.838
 6137SOL     OW19309   7.005   4.789   0.800
 6137SOL    HW119310   6.923   4.770   0.854
 6137SOL    HW219311   6.978   4.826   0.712
 6138SOL     OW19312   5.054   0.748   2.861
 6138SOL    HW119313   5.020   0.671   2.915
 6138SOL    HW219314   5.065   0.828   2.920
 6139SOL     OW19315   1.959   2.132   5.388
 6139SOL    HW119316   1.934   2.222   5.424
 6139SOL    HW219317   1.909   2.062   5.438
 6140SOL     OW19318   2.354   0.162   3.807
 6140SOL    HW119319   2.269   0.127   3.767
 6140SOL    HW219320   2.393   0.231   3.746
 6141SOL     OW19321   1.225   0.270   0.660
 6141SOL    HW119322   1.153   0.221   0.709
 6141SOL    HW219323   1.314   0.233   0.687
 6142SOL     OW19324   0.051   0.290   1.555
 6142SOL    HW119325   7.023   0.355   1.611
 6142SOL    HW219326   0.072   0.332   1.467
 6143SOL     OW19327   1.470   3.020   5.349
 6143SOL    HW119328   1.564   3.044   5.324
 6143SOL    HW219329   1.435   3.088   5.413
 6144SOL     OW19330   3.324   5.961   2.659
 6144SOL    HW119331   3.316   5.862   2.648
 6144SOL    HW219332   3.362   6.001   2.575
 6145SOL     OW19333   5.557   3.411   4.270
 6145SOL    HW119334   5.470   3.430   4.315
 6145SOL    HW219335   5.578   3.313   4.279
 6146SOL     OW19336   6.100   1.474   5.574
 6146SOL    HW119337   6.034   1.467   5.499
 6146SOL    HW219338   6.093   1.565   5.616
 6147SOL     OW19339   1.208   1.508   5.634
 6147SOL    HW119340   1.301   1.503   5.672
 6147SOL    HW219341   1.189   1.603   5.607
 6148SOL     OW19342   3.893   5.094   6.787
 6148SOL    HW119343   3.859   5.106   6.880
 6148SOL    HW219344   3.991   5.078   6.789
 6149SOL     OW19345   4.192   1.843   1.601
 6149SOL    HW119346   4.157   1.764   1.650
 6149SOL    HW219347   4.270   1.817   1.545
 6150SOL     OW19348   0.800   4.793   3.929
 6150SOL    HW119349   0.713   4.763   3.889
 6150SOL    HW219350   0.782   4.847   4.011
 6151SOL     OW19351   3.891   5.413   2.255
 6151SOL    HW119352   3.859   5.380   2.165
 6151SOL    HW219353   3.946   5.495   2.243
 6152SOL     OW19354   0.303   3.710   3.138
 6152SOL    HW119355   0.291   3.692   3.236
 6152SOL    HW219356   0.219   3.689   3.089
 6153SOL     OW19357   5.837   6.237   1.267
 6153SOL    HW119358   5.835   6.154   1.323
 6153SOL    HW219359   5.929   6.251   1.231
 6154SOL     OW19360   3.989   5.141   2.660
 6154SOL    HW119361   4.013   5.045   2.675
 6154SOL    HW219362   3.891   5.154   2.679
 6155SOL     OW19363   1.421   1.686   4.504
 6155SOL    HW119364   1.356   1.742   4.453
 6155SOL    HW219365   1.508   1.683   4.454
 6156SOL     OW19366   4.440   4.475   2.846
 6156SOL    HW119367   4.447   4.427   2.933
 6156SOL    HW219368   4.382   4.556   2.857
 6157SOL     OW19369   0.436   2.422   1.426
 6157SOL    HW119370   0.408   2.340   1.474
 6157SOL    HW219371   0.522   2.406   1.378
 6158SOL     OW19372   3.309   0.513   6.426
 6158SOL    HW119373   3.311   0.436   6.489
 6158SOL    HW219374   3.214   0.541   6.411
 6159SOL     OW19375   6.494   1.705   0.942
 6159SOL    HW119376   6.579   1.676   0.986
 6159SOL    HW219377   6.511   1.718   0.844
 6160SOL     OW19378   1.298   0.036   0.808
 6160SOL    HW119379   1.200   0.019   0.815
 6160SOL    HW219380   1.334   7.018   0.724
 6161SOL     OW19381   6.357   4.000   7.008
 6161SOL    HW119382   6.259   4.016   7.002
 6161SOL    HW219383   6.382   3.978   0.078
 6162SOL     OW19384   6.116   6.160   1.288
 6162SOL    HW119385   6.149   6.076   1.331
 6162SOL    HW219386   6.090   6.140   1.193
 6163SOL     OW19387   5.499   5.775   2.961
 6163SOL    HW119388   5.551   5.698   2.923
 6163SOL    HW219389   5.447   5.744   3.041
 6164SOL     OW19390   3.589   4.101   4.277
 6164SOL    HW119391   3.636   4.054   4.202
 6164SOL    HW219392   3.657   4.130   4.345
 6165SOL     OW19393   3.402   0.445   0.203
 6165SOL    HW119394   3.457   0.529   0.209
 6165SOL    HW219395   3.460   0.369   0.173
 6166SOL     OW19396   3.189   1.343   5.816
 6166SOL    HW119397   3.115   1.393   5.862
 6166SOL    HW219398   3.230   1.278   5.879
 6167SOL     OW19399   1.316   3.082   2.583
 6167SOL    HW119400   1.406   3.124   2.582
 6167SOL    HW219401   1.283   3.070   2.490
 6168SOL     OW19402   0.758   3.984   3.915
 6168SOL    HW119403   0.851   3.991   3.952
 6168SOL    HW219404   0.740   4.061   3.855
 6169SOL     OW19405   2.672   1.258   1.012
 6169SOL    HW119406   2.746   1.194   1.035
 6169SOL    HW219407   2.620   1.223   0.935
 6170SOL     OW19408   2.625   4.674   0.891
 6170SOL    HW119409   2.639   4.770   0.865
 6170SOL    HW219410   2.645   4.663   0.988
 6171SOL     OW19411   2.254   4.036   2.247
 6171SOL    HW119412   2.336   4.005   2.295
 6171SOL    HW219413   2.275   4.048   2.150
 6172SOL     OW19414   2.340   5.023   1.761
 6172SOL    HW119415   2.353   5.122   1.767
 6172SOL    HW219416   2.253   4.999   1.803
 6173SOL     OW19417   0.740   5.584   2.662
 6173SOL    HW119418   0.714   5.522   2.736
 6173SOL    HW219419   0.785   5.665   2.700
 6174SOL     OW19420   6.026   4.761   1.834
 6174SOL    HW119421   6.008   4.859   1.828
 6174SOL    HW219422   6.092   4.734   1.764
 6175SOL     OW19423   5.279   6.969   4.128
 6175SOL    HW119424   5.186   7.004   4.114
 6175SOL    HW219425   5.342   7.017   4.066
 6176SOL     OW19426   6.901   3.083   0.502
 6176SOL    HW119427   6.836   3.156   0.524
 6176SOL    HW219428   6.907   3.072   0.403
 6177SOL     OW19429   6.090   2.270   2.226
 6177SOL    HW119430   6.122   2.198   2.287
 6177SOL    HW219431   5.993   2.256   2.205
 6178SOL     OW19432   7.003   3.345   0.909
 6178SOL    HW119433   0.025   3.377   0.991
 6178SOL    HW219434   0.039   3.353   0.830
 6179SOL     OW19435   0.660   1.446   5.674
 6179SOL    HW119436   0.693   1.363   5.720
 6179SOL    HW219437   0.736   1.493   5.630
 6180SOL     OW19438   3.292   0.769   6.557
 6180SOL    HW119439   3.309   0.680   6.515
 6180SOL    HW219440   3.338   0.840   6.506
 6181SOL     OW19441   4.242   6.511   6.306
 6181SOL    HW119442   4.248   6.432   6.367
 6181SOL    HW219443   4.193   6.585   6.351
 6182SOL     OW19444   4.698   0.170   5.425
 6182SOL    HW119445   4.753   0.250   5.403
 6182SOL    HW219446   4.721   0.096   5.362
 6183SOL     OW19447   2.510   0.024   2.493
 6183SOL    HW119448   2.571   7.004   2.428
 6183SOL    HW219449   2.415   0.007   2.467
 6184SOL     OW19450   6.654   0.753   5.453
 6184SOL    HW119451   6.679   0.711   5.366
 6184SOL    HW219452   6.716   0.830   5.472
 6185SOL     OW19453   2.540   2.622   6.961
 6185SOL    HW119454   2.612   2.558   6.936
 6185SOL    HW219455   2.476   2.631   6.884
 6186SOL     OW19456   3.988   1.301   4.033
 6186SOL    HW119457   4.031   1.279   4.121
 6186SOL    HW219458   3.889   1.311   4.045
 6187SOL     OW19459   3.389   4.922   4.643
 6187SOL    HW119460   3.466   4.973   4.683
 6187SOL    HW219461   3.403   4.914   4.544
 6188SOL     OW19462   2.630   0.263   2.548
 6188SOL    HW119463   2.572   0.183   2.527
 6188SOL    HW219464   2.703   0.269   2.481
 6189SOL     OW19465   5.606   4.832   3.120
 6189SOL    HW119466   5.594   4.930   3.108
 6189SOL    HW219467   5.579   4.806   3.213
 6190SOL     OW19468   5.454   2.962   5.668
 6190SOL    HW119469   5.378   2.932   5.725
 6190SOL    HW219470   5.429   3.047   5.622
 6191SOL     OW19471   0.066   1.595   6.540
 6191SOL    HW119472   0.083   1.576   6.443
 6191SOL    HW219473   6.993   1.614   6.554
 6192SOL     OW19474   3.201   1.904   0.504
 6192SOL    HW119475   3.116   1.955   0.488
 6192SOL    HW219476   3.272   1.967   0.534
 6193SOL     OW19477   6.954   0.073   1.703
 6193SOL    HW119478   6.998   7.012   1.729
 6193SOL    HW219479   7.024   0.141   1.679
 6194SOL     OW19480   3.113   0.351   1.125
 6194SOL    HW119481   3.070   0.440   1.142
 6194SOL    HW219482   3.159   0.320   1.208
 6195SOL     OW19483   2.299   0.772   5.498
 6195SOL    HW119484   2.332   0.769   5.404
 6195SOL    HW219485   2.315   0.684   5.542
 6196SOL     OW19486   1.140   2.000   6.011
 6196SOL    HW119487   1.126   2.053   5.928
 6196SOL    HW219488   1.091   2.044   6.087
 6197SOL     OW19489   2.784   2.871   1.645
 6197SOL    HW119490   2.709   2.935   1.633
 6197SOL    HW219491   2.749   2.782   1.674
 6198SOL     OW19492   3.075   5.644   2.288
 6198SOL    HW119493   3.073   5.643   2.188
 6198SOL    HW219494   3.161   5.686   2.319
 6199SOL     OW19495   0.199   0.400   6.770
 6199SOL    HW119496   0.135   0.471   6.798
 6199SOL    HW219497   0.265   0.438   6.705
 6200SOL     OW19498   3.888   0.494   5.785
 6200SOL    HW119499   3.863   0.412   5.837
 6200SOL    HW219500   3.983   0.518   5.804
 6201SOL     OW19501   2.330   5.149   4.690
 6201SOL    HW119502   2.410   5.135   4.632
 6201SOL    HW219503   2.271   5.218   4.648
 6202SOL     OW19504   2.169   2.393   1.299
 6202SOL    HW119505   2.098   2.330   1.267
 6202SOL    HW219506   2.178   2.468   1.233
 6203SOL     OW19507   5.810   2.344   4.199
 6203SOL    HW119508   5.723   2.295   4.190
 6203SOL    HW219509   5.838   2.343   4.295
 6204SOL     OW19510   1.308   6.944   5.513
 6204SOL    HW119511   1.299   6.858   5.563
 6204SOL    HW219512   1.288   7.020   5.574
 6205SOL     OW19513   4.339   6.572   6.779
 6205SOL    HW119514   4.407   6.540   6.845
 6205SOL    HW219515   4.384   6.629   6.710
 6206SOL     OW19516   4.777   0.021   3.856
 6206SOL    HW119517   4.694   0.039   3.909
 6206SOL    HW219518   4.816   6.958   3.884
 6207SOL     OW19519   2.305   4.256   4.467
 6207SOL    HW119520   2.240   4.275   4.541
 6207SOL    HW219521   2.316   4.157   4.458
 6208SOL     OW19522   4.895   4.820   5.777
 6208SOL    HW119523   4.903   4.721   5.767
 6208SOL    HW219524   4.819   4.853   5.721
 6209SOL     OW19525   1.856   5.830   0.829
 6209SOL    HW119526   1.794   5.839   0.907
 6209SOL    HW219527   1.922   5.758   0.847
 6210SOL     OW19528   0.033   4.159   3.054
 6210SOL    HW119529   0.121   4.176   3.098
 6210SOL    HW219530   0.044   4.087   2.985
 6211SOL     OW19531   2.639   0.372   4.887
 6211SOL    HW119532   2.654   0.398   4.792
 6211SOL    HW219533   2.580   0.440   4.931
 6212SOL     OW19534   6.821   0.789   4.333
 6212SOL    HW119535   6.873   0.718   4.285
 6212SOL    HW219536   6.822   0.874   4.279
 6213SOL     OW19537   6.949   6.768   0.147
 6213SOL    HW119538   6.853   6.792   0.159
 6213SOL    HW219539   6.996   6.773   0.236
 6214SOL     OW19540   4.826   4.395   1.626
 6214SOL    HW119541   4.905   4.372   1.682
 6214SOL    HW219542   4.782   4.477   1.661
 6215SOL     OW19543   3.362   4.845   1.410
 6215SOL    HW119544   3.344   4.781   1.485
 6215SOL    HW219545   3.458   4.873   1.413
 6216SOL     OW19546   6.301   1.961   2.738
 6216SOL    HW119547   6.374   1.908   2.696
 6216SOL    HW219548   6.264   2.026   2.672
 6217SOL     OW19549   4.349   2.019   1.770
 6217SOL    HW119550   4.269   1.967   1.740
 6217SOL    HW219551   4.363   2.004   1.868
 6218SOL     OW19552   4.525   6.279   4.592
 6218SOL    HW119553   4.566   6.193   4.560
 6218SOL    HW219554   4.515   6.275   4.691
 6219SOL     OW19555   0.315   0.803   4.911
 6219SOL    HW119556   0.374   0.809   4.991
 6219SOL    HW219557   0.350   0.862   4.838
 6220SOL     OW19558   0.904   3.274   4.742
 6220SOL    HW119559   1.000   3.279   4.714
 6220SOL    HW219560   0.857   3.205   4.687
 6221SOL     OW19561   4.514   4.509   4.349
 6221SOL    HW119562   4.490   4.578   4.281
 6221SOL    HW219563   4.601   4.466   4.323
 6222SOL     OW19564   6.633   2.038   1.246
 6222SOL    HW119565   6.626   2.125   1.198
 6222SOL    HW219566   6.724   1.998   1.231
 6223SOL     OW19567   5.207   4.306   3.640
 6223SOL    HW119568   5.258   4.316   3.725
 6223SOL    HW219569   5.236   4.222   3.594
 6224SOL     OW19570   2.621   0.001   4.429
 6224SOL    HW119571   2.624   0.018   4.528
 6224SOL    HW219572   2.613   0.089   4.381
 6225SOL     OW19573   3.728   1.604   6.740
 6225SOL    HW119574   3.811   1.551   6.755
 6225SOL    HW219575   3.672   1.603   6.823
 6226SOL     OW19576   0.152   6.064   4.483
 6226SOL    HW119577   0.119   6.046   4.576
 6226SOL    HW219578   0.084   6.031   4.417
 6227SOL     OW19579   2.764   4.111   6.501
 6227SOL    HW119580   2.732   4.020   6.472
 6227SOL    HW219581   2.686   4.172   6.510
 6228SOL     OW19582   0.037   2.632   2.883
 6228SOL    HW119583   7.009   2.559   2.926
 6228SOL    HW219584   0.002   2.647   2.790
 6229SOL     OW19585   1.217   2.800   2.281
 6229SOL    HW119586   1.122   2.792   2.253
 6229SOL    HW219587   1.275   2.749   2.217
 6230SOL     OW19588   2.026   2.631   4.051
 6230SOL    HW119589   1.951   2.674   4.102
 6230SOL    HW219590   1.998   2.619   3.956
 6231SOL     OW19591   6.508   4.481   2.164
 6231SOL    HW119592   6.552   4.561   2.124
 6231SOL    HW219593   6.570   4.403   2.160
 6232SOL     OW19594   1.084   0.605   0.341
 6232SOL    HW119595   1.029   0.688   0.346
 6232SOL    HW219596   1.025   0.525   0.349
 6233SOL     OW19597   4.193   1.040   6.400
 6233SOL    HW119598   4.196   1.094   6.484
 6233SOL    HW219599   4.122   0.970   6.408
 6234SOL     OW19600   2.817   2.292   3.323
 6234SOL    HW119601   2.839   2.270   3.418
 6234SOL    HW219602   2.889   2.256   3.263
 6235SOL     OW19603   1.912   5.696   1.681
 6235SOL    HW119604   1.998   5.705   1.733
 6235SOL    HW219605   1.891   5.599   1.668
 6236SOL     OW19606   0.419   3.754   0.141
 6236SOL    HW119607   0.334   3.770   0.192
 6236SOL    HW219608   0.409   3.670   0.087
 6237SOL     OW19609   3.508   6.003   6.043
 6237SOL    HW119610   3.443   6.024   6.116
 6237SOL    HW219611   3.489   5.911   6.007
 6238SOL     OW19612   5.166   3.360   1.056
 6238SOL    HW119613   5.222   3.337   1.136
 6238SOL    HW219614   5.126   3.276   1.019
 6239SOL     OW19615   3.575   5.949   3.860
 6239SOL    HW119616   3.632   5.942   3.778
 6239SOL    HW219617   3.551   5.857   3.891
 6240SOL     OW19618   2.435   4.301   0.386
 6240SOL    HW119619   2.445   4.265   0.293
 6240SOL    HW219620   2.485   4.242   0.450
 6241SOL     OW19621   4.641   6.588   2.929
 6241SOL    HW119622   4.574   6.545   2.991
 6241SOL    HW219623   4.648   6.685   2.950
 6242SOL     OW19624   3.459   2.128   2.503
 6242SOL    HW119625   3.475   2.111   2.405
 6242SOL    HW219626   3.547   2.136   2.550
 6243SOL     OW19627   6.253   5.643   3.009
 6243SOL    HW119628   6.350   5.665   2.995
 6243SOL    HW219629   6.220   5.691   3.090
 6244SOL     OW19630   1.434   1.971   1.643
 6244SOL    HW119631   1.408   2.059   1.682
 6244SOL    HW219632   1.498   1.925   1.705
 6245SOL     OW19633   2.324   3.883   6.971
 6245SOL    HW119634   2.293   3.968   7.014
 6245SOL    HW219635   2.421   3.890   6.949
 6246SOL     OW19636   4.474   6.469   6.996
 6246SOL    HW119637   4.479   6.531   0.050
 6246SOL    HW219638   4.401   6.402   7.011
 6247SOL     OW19639   6.563   6.733   3.000
 6247SOL    HW119640   6.514   6.686   2.926
 6247SOL    HW219641   6.646   6.683   3.023
 6248SOL     OW19642   0.872   5.488   0.643
 6248SOL    HW119643   0.928   5.433   0.706
 6248SOL    HW219644   0.809   5.545   0.696
 6249SOL     OW19645   6.474   2.738   6.023
 6249SOL    HW119646   6.424   2.651   6.026
 6249SOL    HW219647   6.408   2.814   6.021
 6250SOL     OW19648   6.881   4.151   6.064
 6250SOL    HW119649   6.929   4.071   6.100
 6250SOL    HW219650   6.941   4.202   6.003
 6251SOL     OW19651   4.480   1.242   0.663
 6251SOL    HW119652   4.468   1.283   0.753
 6251SOL    HW219653   4.544   1.297   0.609
 6252SOL     OW19654   1.589   6.467   5.506
 6252SOL    HW119655   1.647   6.522   5.565
 6252SOL    HW219656   1.522   6.417   5.561
 6253SOL     OW19657   2.358   3.411   1.488
 6253SOL    HW119658   2.387   3.338   1.550
 6253SOL    HW219659   2.407   3.403   1.402
 6254SOL     OW19660   5.592   0.331   0.345
 6254SOL    HW119661   5.579   0.264   0.418
 6254SOL    HW219662   5.689   0.336   0.321
 6255SOL     OW19663   0.723   3.526   2.902
 6255SOL    HW119664   0.765   3.568   2.821
 6255SOL    HW219665   0.702   3.430   2.882
 6256SOL     OW19666   4.240   5.235   4.420
 6256SOL    HW119667   4.258   5.160   4.356
 6256SOL    HW219668   4.324   5.287   4.436
 6257SOL     OW19669   4.190   2.983   6.484
 6257SOL    HW119670   4.092   3.002   6.476
 6257SOL    HW219671   4.234   2.994   6.395
 6258SOL     OW19672   4.534   1.787   3.066
 6258SOL    HW119673   4.575   1.877   3.051
 6258SOL    HW219674   4.521   1.772   3.164
 6259SOL     OW19675   3.537   2.283   1.611
 6259SOL    HW119676   3.437   2.281   1.613
 6259SOL    HW219677   3.572   2.293   1.704
 6260SOL     OW19678   3.666   4.491   1.330
 6260SOL    HW119679   3.641   4.403   1.370
 6260SOL    HW219680   3.661   4.562   1.399
 6261SOL     OW19681   4.973   6.596   6.112
 6261SOL    HW119682   4.913   6.533   6.063
 6261SOL    HW219683   4.923   6.680   6.133
 6262SOL     OW19684   6.983   5.820   5.370
 6262SOL    HW119685   6.969   5.737   5.315
 6262SOL    HW219686   6.956   5.803   5.464
 6263SOL     OW19687   6.490   0.318   1.403
 6263SOL    HW119688   6.419   0.376   1.362
 6263SOL    HW219689   6.577   0.334   1.357
 6264SOL     OW19690   2.641   1.463   0.473
 6264SOL    HW119691   2.710   1.467   0.401
 6264SOL    HW219692   2.562   1.517   0.446
 6265SOL     OW19693   6.530   3.519   0.481
 6265SOL    HW119694   6.540   3.606   0.433
 6265SOL    HW219695   6.483   3.454   0.421
 6266SOL     OW19696   2.436   6.783   2.655
 6266SOL    HW119697   2.422   6.871   2.700
 6266SOL    HW219698   2.504   6.793   2.582
 6267SOL     OW19699   3.017   6.346   6.842
 6267SOL    HW119700   2.935   6.317   6.794
 6267SOL    HW219701   3.057   6.269   6.891
 6268SOL     OW19702   2.291   6.287   2.036
 6268SOL    HW119703   2.216   6.245   2.089
 6268SOL    HW219704   2.358   6.217   2.012
 6269SOL     OW19705   6.602   4.432   6.284
 6269SOL    HW119706   6.596   4.526   6.319
 6269SOL    HW219707   6.698   4.410   6.263
 6270SOL     OW19708   0.809   1.295   4.046
 6270SOL    HW119709   0.858   1.231   3.987
 6270SOL    HW219710   0.711   1.276   4.042
 6271SOL     OW19711   5.647   1.738   0.995
 6271SOL    HW119712   5.651   1.679   0.914
 6271SOL    HW219713   5.700   1.697   1.069
 6272SOL     OW19714   2.597   2.419   3.870
 6272SOL    HW119715   2.546   2.453   3.948
 6272SOL    HW219716   2.576   2.474   3.789
 6273SOL     OW19717   3.584   1.622   2.717
 6273SOL    HW119718   3.545   1.605   2.626
 6273SOL    HW219719   3.665   1.566   2.729
 6274SOL     OW19720   2.890   5.414   6.907
 6274SOL    HW119721   2.887   5.345   6.979
 6274SOL    HW219722   2.984   5.445   6.894
 6275SOL     OW19723   3.390   0.805   4.675
 6275SOL    HW119724   3.317   0.753   4.719
 6275SOL    HW219725   3.443   0.745   4.616
 6276SOL     OW19726   0.753   5.215   3.220
 6276SOL    HW119727   0.841   5.238   3.178
 6276SOL    HW219728   0.769   5.166   3.305
 6277SOL     OW19729   6.293   3.422   3.922
 6277SOL    HW119730   6.362   3.392   3.988
 6277SOL    HW219731   6.298   3.364   3.840
 6278SOL     OW19732   5.089   1.086   3.505
 6278SOL    HW119733   5.153   1.111   3.577
 6278SOL    HW219734   5.026   1.162   3.488
 6279SOL     OW19735   3.762   1.535   5.882
 6279SOL    HW119736   3.773   1.616   5.825
 6279SOL    HW219737   3.666   1.528   5.910
 6280SOL     OW19738   1.427   5.150   5.627
 6280SOL    HW119739   1.340   5.171   5.583
 6280SOL    HW219740   1.434   5.199   5.714
 6281SOL     OW19741   3.611   6.233   4.808
 6281SOL    HW119742   3.661   6.311   4.772
 6281SOL    HW219743   3.513   6.245   4.790
 6282SOL     OW19744   0.760   6.391   4.859
 6282SOL    HW119745   0.729   6.327   4.790
 6282SOL    HW219746   0.781   6.341   4.944
 6283SOL     OW19747   1.001   2.846   4.867
 6283SOL    HW119748   1.083   2.808   4.909
 6283SOL    HW219749   1.024   2.890   4.780
 6284SOL     OW19750   2.452   4.754   0.208
 6284SOL    HW119751   2.477   4.706   0.124
 6284SOL    HW219752   2.385   4.825   0.188
 6285SOL     OW19753   2.039   3.808   2.292
 6285SOL    HW119754   2.059   3.830   2.387
 6285SOL    HW219755   2.117   3.835   2.235
 6286SOL     OW19756   6.994   6.313   4.311
 6286SOL    HW119757   0.041   6.341   4.247
 6286SOL    HW219758   6.920   6.269   4.260
 6287SOL     OW19759   3.379   4.979   3.062
 6287SOL    HW119760   3.434   4.999   2.982
 6287SOL    HW219761   3.439   4.963   3.141
 6288SOL     OW19762   0.188   3.861   0.998
 6288SOL    HW119763   0.099   3.841   1.041
 6288SOL    HW219764   0.261   3.825   1.055
 6289SOL     OW19765   0.311   6.907   2.534
 6289SOL    HW119766   0.292   6.990   2.481
 6289SOL    HW219767   0.258   6.831   2.496
 6290SOL     OW19768   5.463   3.516   4.031
 6290SOL    HW119769   5.523   3.596   4.028
 6290SOL    HW219770   5.482   3.464   4.114
 6291SOL     OW19771   3.413   3.992   3.322
 6291SOL    HW119772   3.395   4.044   3.405
 6291SOL    HW219773   3.484   4.038   3.268
 6292SOL     OW19774   6.589   1.180   1.470
 6292SOL    HW119775   6.638   1.213   1.389
 6292SOL    HW219776   6.601   1.081   1.478
 6293SOL     OW19777   5.694   4.469   5.658
 6293SOL    HW119778   5.604   4.432   5.680
 6293SOL    HW219779   5.742   4.491   5.743
 6294SOL     OW19780   2.973   6.405   0.956
 6294SOL    HW119781   3.068   6.436   0.966
 6294SOL    HW219782   2.967   6.308   0.979
 6295SOL     OW19783   6.282   5.706   6.082
 6295SOL    HW119784   6.284   5.609   6.106
 6295SOL    HW219785   6.341   5.756   6.146
 6296SOL     OW19786   6.197   1.867   3.363
 6296SOL    HW119787   6.241   1.814   3.436
 6296SOL    HW219788   6.265   1.925   3.318
 6297SOL     OW19789   5.301   1.641   5.649
 6297SOL    HW119790   5.224   1.581   5.671
 6297SOL    HW219791   5.369   1.591   5.596
 6298SOL     OW19792   6.222   2.488   4.193
 6298SOL    HW119793   6.296   2.549   4.165
 6298SOL    HW219794   6.207   2.495   4.291
 6299SOL     OW19795   0.397   2.130   0.244
 6299SOL    HW119796   0.369   2.045   0.199
 6299SOL    HW219797   0.495   2.144   0.230
 6300SOL     OW19798   5.398   1.507   3.728
 6300SOL    HW119799   5.379   1.432   3.664
 6300SOL    HW219800   5.356   1.486   3.817
 6301SOL     OW19801   3.349   0.274   1.437
 6301SOL    HW119802   3.267   0.219   1.431
 6301SOL    HW219803   3.393   0.279   1.348
 6302SOL     OW19804   6.457   0.139   3.179
 6302SOL    HW119805   6.529   0.209   3.182
 6302SOL    HW219806   6.498   0.051   3.158
 6303SOL     OW19807   2.689   5.307   4.710
 6303SOL    HW119808   2.660   5.293   4.615
 6303SOL    HW219809   2.769   5.250   4.729
 6304SOL     OW19810   4.136   0.838   4.820
 6304SOL    HW119811   4.148   0.923   4.872
 6304SOL    HW219812   4.147   0.760   4.881
 6305SOL     OW19813   5.103   0.075   3.087
 6305SOL    HW119814   5.201   0.055   3.099
 6305SOL    HW219815   5.049   7.021   3.118
 6306SOL     OW19816   6.245   3.098   4.424
 6306SOL    HW119817   6.317   3.105   4.356
 6306SOL    HW219818   6.209   3.189   4.445
 6307SOL     OW19819   2.046   4.734   0.225
 6307SOL    HW119820   2.121   4.681   0.186
 6307SOL    HW219821   2.005   4.792   0.154
 6308SOL     OW19822   3.794   2.544   6.454
 6308SOL    HW119823   3.864   2.483   6.491
 6308SOL    HW219824   3.817   2.568   6.359
 6309SOL     OW19825   6.243   2.395   5.408
 6309SOL    HW119826   6.275   2.451   5.484
 6309SOL    HW219827   6.153   2.426   5.378
 6310SOL     OW19828   6.954   5.779   4.796
 6310SOL    HW119829   0.023   5.764   4.764
 6310SOL    HW219830   6.901   5.826   4.725
 6311SOL     OW19831   6.330   6.850   5.040
 6311SOL    HW119832   6.293   6.757   5.047
 6311SOL    HW219833   6.261   6.911   5.001
 6312SOL     OW19834   5.855   4.009   5.695
 6312SOL    HW119835   5.835   4.074   5.622
 6312SOL    HW219836   5.882   4.059   5.777
 6313SOL     OW19837   2.505   5.906   3.775
 6313SOL    HW119838   2.476   5.811   3.774
 6313SOL    HW219839   2.597   5.914   3.735
 6314SOL     OW19840   1.288   0.463   2.984
 6314SOL    HW119841   1.379   0.429   2.959
 6314SOL    HW219842   1.265   0.432   3.076
 6315SOL     OW19843   1.785   3.507   0.643
 6315SOL    HW119844   1.721   3.581   0.664
 6315SOL    HW219845   1.863   3.545   0.592
 6316SOL     OW19846   4.357   1.355   4.696
 6316SOL    HW119847   4.325   1.278   4.752
 6316SOL    HW219848   4.372   1.324   4.602
 6317SOL     OW19849   6.700   5.588   4.364
 6317SOL    HW119850   6.705   5.580   4.464
 6317SOL    HW219851   6.654   5.673   4.339
 6318SOL     OW19852   1.483   2.734   3.801
 6318SOL    HW119853   1.391   2.695   3.796
 6318SOL    HW219854   1.489   2.795   3.880
 6319SOL     OW19855   1.140   2.172   3.222
 6319SOL    HW119856   1.115   2.126   3.137
 6319SOL    HW219857   1.154   2.269   3.204
 6320SOL     OW19858   0.240   2.426   2.666
 6320SOL    HW119859   0.177   2.397   2.594
 6320SOL    HW219860   0.188   2.472   2.738
 6321SOL     OW19861   2.269   4.035   5.801
 6321SOL    HW119862   2.259   4.101   5.727
 6321SOL    HW219863   2.321   3.955   5.769
 6322SOL     OW19864   2.308   6.735   7.006
 6322SOL    HW119865   2.283   6.751   0.077
 6322SOL    HW219866   2.291   6.818   6.953
 6323SOL     OW19867   4.624   1.659   1.791
 6323SOL    HW119868   4.651   1.692   1.882
 6323SOL    HW219869   4.527   1.635   1.792
 6324SOL     OW19870   3.216   1.850   1.375
 6324SOL    HW119871   3.136   1.908   1.359
 6324SOL    HW219872   3.251   1.868   1.467
 6325SOL     OW19873   1.805   3.256   3.370
 6325SOL    HW119874   1.764   3.173   3.333
 6325SOL    HW219875   1.801   3.328   3.301
 6326SOL     OW19876   4.692   6.679   1.529
 6326SOL    HW119877   4.739   6.624   1.598
 6326SOL    HW219878   4.597   6.694   1.557
 6327SOL     OW19879   3.874   5.679   5.283
 6327SOL    HW119880   3.912   5.587   5.275
 6327SOL    HW219881   3.879   5.725   5.194
 6328SOL     OW19882   3.385   4.291   0.340
 6328SOL    HW119883   3.402   4.363   0.406
 6328SOL    HW219884   3.438   4.209   0.365
 6329SOL     OW19885   0.865   2.458   3.164
 6329SOL    HW119886   0.817   2.379   3.126
 6329SOL    HW219887   0.879   2.526   3.092
 6330SOL     OW19888   3.544   0.222   0.077
 6330SOL    HW119889   3.626   0.206   0.132
 6330SOL    HW219890   3.481   0.145   0.087
 6331SOL     OW19891   5.271   2.562   1.345
 6331SOL    HW119892   5.236   2.476   1.308
 6331SOL    HW219893   5.347   2.542   1.407
 6332SOL     OW19894   4.160   6.274   1.900
 6332SOL    HW119895   4.088   6.211   1.870
 6332SOL    HW219896   4.145   6.298   1.996
 6333SOL     OW19897   2.262   5.714   2.352
 6333SOL    HW119898   2.275   5.732   2.255
 6333SOL    HW219899   2.165   5.704   2.372
 6334SOL     OW19900   2.332   0.293   1.850
 6334SOL    HW119901   2.341   0.213   1.790
 6334SOL    HW219902   2.241   0.292   1.892
 6335SOL     OW19903   6.257   1.186   0.009
 6335SOL    HW119904   6.319   1.213   0.082
 6335SOL    HW219905   6.169   1.231   0.020
 6336SOL     OW19906   1.714   2.448   5.512
 6336SOL    HW119907   1.649   2.375   5.488
 6336SOL    HW219908   1.805   2.408   5.525
 6337SOL     OW19909   0.632   4.407   5.098
 6337SOL    HW119910   0.603   4.373   5.188
 6337SOL    HW219911   0.639   4.507   5.101
 6338SOL     OW19912   3.448   0.976   4.319
 6338SOL    HW119913   3.518   1.014   4.380
 6338SOL    HW219914   3.379   1.046   4.300
 6339SOL     OW19915   6.570   2.802   4.475
 6339SOL    HW119916   6.658   2.830   4.513
 6339SOL    HW219917   6.566   2.825   4.378
 6340SOL     OW19918   2.994   5.550   3.572
 6340SOL    HW119919   3.046   5.512   3.649
 6340SOL    HW219920   2.898   5.562   3.599
 6341SOL     OW19921   5.810   4.894   2.193
 6341SOL    HW119922   5.864   4.844   2.261
 6341SOL    HW219923   5.760   4.968   2.238
 6342SOL     OW19924   0.991   3.418   0.496
 6342SOL    HW119925   0.919   3.386   0.434
 6342SOL    HW219926   1.026   3.505   0.464
 6343SOL     OW19927   3.862   1.847   0.118
 6343SOL    HW119928   3.939   1.909   0.135
 6343SOL    HW219929   3.789   1.867   0.184
 6344SOL     OW19930   6.002   5.125   4.176
 6344SOL    HW119931   5.928   5.148   4.239
 6344SOL    HW219932   5.995   5.028   4.152
 6345SOL     OW19933   2.333   1.808   1.274
 6345SOL    HW119934   2.298   1.894   1.237
 6345SOL    HW219935   2.258   1.746   1.294
 6346SOL     OW19936   0.554   4.825   4.100
 6346SOL    HW119937   0.527   4.746   4.156
 6346SOL    HW219938   0.539   4.909   4.152
 6347SOL     OW19939   2.903   0.590   0.503
 6347SOL    HW119940   2.875   0.524   0.573
 6347SOL    HW219941   2.855   0.676   0.517
 6348SOL     OW19942   0.117   2.130   4.449
 6348SOL    HW119943   0.138   2.212   4.503
 6348SOL    HW219944   0.135   2.149   4.353
 6349SOL     OW19945   0.599   0.923   0.294
 6349SOL    HW119946   0.578   1.019   0.316
 6349SOL    HW219947   0.521   0.882   0.247
 6350SOL     OW19948   6.850   5.382   3.219
 6350SOL    HW119949   6.767   5.374   3.274
 6350SOL    HW219950   6.924   5.329   3.262
 6351SOL     OW19951   0.352   2.287   3.042
 6351SOL    HW119952   0.413   2.214   3.072
 6351SOL    HW219953   0.295   2.254   2.966
 6352SOL     OW19954   6.131   4.239   2.994
 6352SOL    HW119955   6.130   4.189   2.907
 6352SOL    HW219956   6.148   4.176   3.069
 6353SOL     OW19957   6.482   0.326   2.097
 6353SOL    HW119958   6.507   0.293   2.188
 6353SOL    HW219959   6.391   0.368   2.099
 6354SOL     OW19960   6.557   0.270   5.006
 6354SOL    HW119961   6.572   0.174   5.028
 6354SOL    HW219962   6.561   0.284   4.907
 6355SOL     OW19963   1.108   1.394   1.131
 6355SOL    HW119964   1.138   1.429   1.220
 6355SOL    HW219965   1.039   1.323   1.145
 6356SOL     OW19966   3.407   3.893   1.476
 6356SOL    HW119967   3.433   3.922   1.568
 6356SOL    HW219968   3.447   3.956   1.409
 6357SOL     OW19969   5.034   1.548   1.027
 6357SOL    HW119970   5.082   1.521   1.111
 6357SOL    HW219971   5.085   1.621   0.981
 6358SOL     OW19972   1.170   2.750   5.360
 6358SOL    HW119973   1.265   2.753   5.330
 6358SOL    HW219974   1.129   2.840   5.351
 6359SOL     OW19975   0.035   0.355   6.262
 6359SOL    HW119976   7.002   0.382   6.339
 6359SOL    HW219977   0.131   0.371   6.284
 6360SOL     OW19978   2.027   4.756   3.933
 6360SOL    HW119979   2.066   4.699   3.861
 6360SOL    HW219980   1.959   4.704   3.984
 6361SOL     OW19981   2.984   6.042   5.313
 6361SOL    HW119982   2.979   6.031   5.412
 6361SOL    HW219983   2.892   6.041   5.275
 6362SOL     OW19984   6.890   4.556   5.512
 6362SOL    HW119985   6.824   4.630   5.500
 6362SOL    HW219986   6.975   4.578   5.465
 6363SOL     OW19987   0.806   5.832   3.462
 6363SOL    HW119988   0.729   5.849   3.400
 6363SOL    HW219989   0.859   5.754   3.429
 6364SOL     OW19990   2.834   1.627   6.910
 6364SOL    HW119991   2.874   1.536   6.925
 6364SOL    HW219992   2.863   1.661   6.821
 6365SOL     OW19993   3.979   5.651   2.123
 6365SOL    HW119994   3.920   5.728   2.099
 6365SOL    HW219995   4.054   5.645   2.058
 6366SOL     OW19996   0.751   3.906   5.363
 6366SOL    HW119997   0.712   3.988   5.406
 6366SOL    HW219998   0.720   3.901   5.268
 6367SOL     OW19999   5.349   5.435   2.265
 6367SOL    HW120000   5.314   5.446   2.358
 6367SOL    HW220001   5.449   5.433   2.267
 6368SOL     OW20002   2.872   1.513   2.284
 6368SOL    HW120003   2.827   1.463   2.210
 6368SOL    HW220004   2.945   1.457   2.323
 6369SOL     OW20005   2.131   6.031   4.701
 6369SOL    HW120006   2.131   5.955   4.765
 6369SOL    HW220007   2.217   6.082   4.710
 6370SOL     OW20008   5.327   2.376   2.056
 6370SOL    HW120009   5.417   2.393   2.016
 6370SOL    HW220010   5.324   2.418   2.147
 6371SOL     OW20011   4.566   1.435   3.358
 6371SOL    HW120012   4.590   1.489   3.278
 6371SOL    HW220013   4.511   1.491   3.421
 6372SOL     OW20014   2.863   0.195   2.690
 6372SOL    HW120015   2.853   0.162   2.784
 6372SOL    HW220016   2.776   0.232   2.658
 6373SOL     OW20017   3.594   4.491   0.091
 6373SOL    HW120018   3.519   4.495   0.157
 6373SOL    HW220019   3.620   4.396   0.076
 6374SOL     OW20020   2.863   3.367   4.873
 6374SOL    HW120021   2.870   3.403   4.966
 6374SOL    HW220022   2.803   3.286   4.874
 6375SOL     OW20023   1.916   5.841   2.044
 6375SOL    HW120024   1.874   5.897   2.115
 6375SOL    HW220025   1.849   5.777   2.007
 6376SOL     OW20026   1.110   1.302   5.349
 6376SOL    HW120027   1.174   1.226   5.354
 6376SOL    HW220028   1.036   1.289   5.415
 6377SOL     OW20029   0.374   2.670   3.395
 6377SOL    HW120030   0.327   2.600   3.341
 6377SOL    HW220031   0.354   2.760   3.358
 6378SOL     OW20032   3.592   5.399   3.808
 6378SOL    HW120033   3.539   5.439   3.733
 6378SOL    HW220034   3.648   5.324   3.774
 6379SOL     OW20035   2.219   4.137   1.715
 6379SOL    HW120036   2.211   4.230   1.679
 6379SOL    HW220037   2.316   4.110   1.716
 6380SOL     OW20038   0.975   0.407   6.062
 6380SOL    HW120039   0.886   0.445   6.037
 6380SOL    HW220040   0.970   0.367   6.153
 6381SOL     OW20041   3.817   3.616   3.201
 6381SOL    HW120042   3.765   3.537   3.167
 6381SOL    HW220043   3.807   3.622   3.300
 6382SOL     OW20044   1.058   4.499   5.180
 6382SOL    HW120045   1.155   4.491   5.157
 6382SOL    HW220046   1.002   4.465   5.103
 6383SOL     OW20047   3.901   1.810   3.961
 6383SOL    HW120048   3.897   1.810   4.060
 6383SOL    HW220049   3.831   1.871   3.924
 6384SOL     OW20050   6.672   4.644   2.015
 6384SOL    HW120051   6.735   4.566   2.007
 6384SOL    HW220052   6.724   4.727   2.036
 6385SOL     OW20053   0.939   5.793   5.431
 6385SOL    HW120054   1.031   5.759   5.417
 6385SOL    HW220055   0.903   5.829   5.344
 6386SOL     OW20056   1.828   5.597   2.977
 6386SOL    HW120057   1.897   5.530   2.951
 6386SOL    HW220058   1.846   5.630   3.070
 6387SOL     OW20059   5.940   0.847   5.013
 6387SOL    HW120060   5.904   0.760   5.046
 6387SOL    HW220061   5.864   0.905   4.983
 6388SOL     OW20062   2.170   5.161   2.019
 6388SOL    HW120063   2.259   5.200   1.997
 6388SOL    HW220064   2.176   5.110   2.105
 6389SOL     OW20065   1.489   3.727   0.980
 6389SOL    HW120066   1.488   3.659   1.053
 6389SOL    HW220067   1.425   3.700   0.909
 6390SOL     OW20068   0.562   3.035   4.728
 6390SOL    HW120069   0.613   3.036   4.814
 6390SOL    HW220070   0.619   3.072   4.655
 6391SOL     OW20071   4.148   0.300   0.640
 6391SOL    HW120072   4.110   0.362   0.709
 6391SOL    HW220073   4.242   0.277   0.664
 6392SOL     OW20074   1.309   5.961   4.485
 6392SOL    HW120075   1.396   6.010   4.486
 6392SOL    HW220076   1.284   5.939   4.391
 6393SOL     OW20077   4.732   1.054   6.696
 6393SOL    HW120078   4.818   1.101   6.714
 6393SOL    HW220079   4.746   0.984   6.625
 6394SOL     OW20080   3.649   5.572   2.068
 6394SOL    HW120081   3.696   5.539   1.986
 6394SOL    HW220082   3.647   5.499   2.136
 6395SOL     OW20083   5.753   1.591   0.154
 6395SOL    HW120084   5.752   1.691   0.157
 6395SOL    HW220085   5.847   1.559   0.161
 6396SOL     OW20086   6.934   2.228   6.784
 6396SOL    HW120087   6.934   2.328   6.784
 6396SOL    HW220088   6.865   2.194   6.720
 6397SOL     OW20089   0.091   0.374   0.394
 6397SOL    HW120090   0.161   0.306   0.415
 6397SOL    HW220091   0.133   0.451   0.347
 6398SOL     OW20092   4.659   1.332   1.814
 6398SOL    HW120093   4.658   1.430   1.831
 6398SOL    HW220094   4.746   1.293   1.843
 6399SOL     OW20095   1.137   6.776   6.627
 6399SOL    HW120096   1.188   6.690   6.632
 6399SOL    HW220097   1.187   6.847   6.678
 6400SOL     OW20098   3.315   4.952   4.915
 6400SOL    HW120099   3.324   4.945   4.816
 6400SOL    HW220100   3.218   4.947   4.940
 6401SOL     OW20101   0.027   5.094   5.489
 6401SOL    HW120102   0.073   5.021   5.439
 6401SOL    HW220103   0.068   5.105   5.579
 6402SOL     OW20104   2.045   3.617   2.971
 6402SOL    HW120105   2.087   3.540   2.923
 6402SOL    HW220106   1.947   3.618   2.951
 6403SOL     OW20107   0.299   6.217   1.739
 6403SOL    HW120108   0.295   6.250   1.644
 6403SOL    HW220109   0.332   6.290   1.798
 6404SOL     OW20110   4.744   0.581   2.493
 6404SOL    HW120111   4.836   0.612   2.469
 6404SOL    HW220112   4.702   0.537   2.414
 6405SOL     OW20113   3.767   6.615   1.903
 6405SOL    HW120114   3.813   6.607   1.814
 6405SOL    HW220115   3.821   6.674   1.963
 6406SOL     OW20116   2.285   2.275   3.316
 6406SOL    HW120117   2.319   2.202   3.376
 6406SOL    HW220118   2.191   2.299   3.342
 6407SOL     OW20119   5.570   6.690   0.165
 6407SOL    HW120120   5.598   6.780   0.131
 6407SOL    HW220121   5.499   6.653   0.106
 6408SOL     OW20122   6.463   2.414   1.097
 6408SOL    HW120123   6.429   2.386   1.186
 6408SOL    HW220124   6.412   2.493   1.064
 6409SOL     OW20125   1.077   5.128   1.694
 6409SOL    HW120126   1.111   5.051   1.748
 6409SOL    HW220127   1.113   5.213   1.732
 6410SOL     OW20128   6.787   6.943   1.126
 6410SOL    HW120129   6.747   6.918   1.215
 6410SOL    HW220130   6.863   7.006   1.141
 6411SOL     OW20131   2.050   2.015   3.275
 6411SOL    HW120132   2.071   1.941   3.211
 6411SOL    HW220133   1.983   2.077   3.234
 6412SOL     OW20134   5.808   2.237   5.116
 6412SOL    HW120135   5.808   2.280   5.207
 6412SOL    HW220136   5.717   2.245   5.076
 6413SOL     OW20137   0.461   5.395   0.761
 6413SOL    HW120138   0.528   5.458   0.801
 6413SOL    HW220139   0.427   5.334   0.832
 6414SOL     OW20140   6.396   0.107   3.658
 6414SOL    HW120141   6.355   0.021   3.689
 6414SOL    HW220142   6.486   0.118   3.701
 6415SOL     OW20143   1.435   1.704   2.199
 6415SOL    HW120144   1.348   1.753   2.202
 6415SOL    HW220145   1.417   1.605   2.196
 6416SOL     OW20146   3.230   6.146   6.669
 6416SOL    HW120147   3.208   6.075   6.737
 6416SOL    HW220148   3.193   6.119   6.580
 6417SOL     OW20149   6.954   5.959   4.330
 6417SOL    HW120150   6.862   5.954   4.369
 6417SOL    HW220151   6.948   5.971   4.231
 6418SOL     OW20152   6.575   5.119   2.264
 6418SOL    HW120153   6.497   5.094   2.321
 6418SOL    HW220154   6.547   5.121   2.168
 6419SOL     OW20155   2.899   2.488   0.724
 6419SOL    HW120156   2.963   2.468   0.650
 6419SOL    HW220157   2.916   2.426   0.800
 6420SOL     OW20158   0.828   1.905   0.169
 6420SOL    HW120159   0.855   1.889   0.074
 6420SOL    HW220160   0.890   1.854   0.229
 6421SOL     OW20161   5.715   1.440   0.523
 6421SOL    HW120162   5.659   1.395   0.453
 6421SOL    HW220163   5.806   1.458   0.486
 6422SOL     OW20164   5.216   2.473   3.019
 6422SOL    HW120165   5.220   2.373   3.027
 6422SOL    HW220166   5.293   2.505   2.963
 6423SOL     OW20167   5.322   3.801   0.662
 6423SOL    HW120168   5.351   3.752   0.579
 6423SOL    HW220169   5.342   3.745   0.742
 6424SOL     OW20170   6.225   3.560   5.051
 6424SOL    HW120171   6.189   3.640   5.005
 6424SOL    HW220172   6.321   3.547   5.026
 6425SOL     OW20173   0.890   5.204   0.778
 6425SOL    HW120174   0.906   5.131   0.845
 6425SOL    HW220175   0.971   5.215   0.720
 6426SOL     OW20176   6.483   3.621   3.370
 6426SOL    HW120177   6.417   3.676   3.421
 6426SOL    HW220178   6.466   3.630   3.272
 6427SOL     OW20179   1.237   3.552   5.986
 6427SOL    HW120180   1.238   3.577   5.889
 6427SOL    HW220181   1.321   3.504   6.009
 6428SOL     OW20182   6.432   3.907   5.519
 6428SOL    HW120183   6.453   3.824   5.468
 6428SOL    HW220184   6.335   3.907   5.545
 6429SOL     OW20185   1.305   0.344   4.796
 6429SOL    HW120186   1.405   0.340   4.794
 6429SOL    HW220187   1.275   0.427   4.748
 6430SOL     OW20188   6.504   3.225   6.939
 6430SOL    HW120189   6.562   3.161   6.990
 6430SOL    HW220190   6.411   3.189   6.934
 6431SOL     OW20191   5.402   1.422   2.152
 6431SOL    HW120192   5.427   1.325   2.159
 6431SOL    HW220193   5.395   1.461   2.244
 6432SOL     OW20194   6.393   3.800   0.764
 6432SOL    HW120195   6.473   3.798   0.824
 6432SOL    HW220196   6.423   3.816   0.670
 6433SOL     OW20197   2.190   3.191   1.791
 6433SOL    HW120198   2.197   3.162   1.695
 6433SOL    HW220199   2.271   3.245   1.815
 6434SOL     OW20200   1.879   6.120   0.828
 6434SOL    HW120201   1.891   6.138   0.925
 6434SOL    HW220202   1.893   6.022   0.810
 6435SOL     OW20203   6.135   3.656   0.733
 6435SOL    HW120204   6.204   3.667   0.661
 6435SOL    HW220205   6.181   3.640   0.820
 6436SOL     OW20206   3.004   2.296   0.875
 6436SOL    HW120207   3.055   2.378   0.901
 6436SOL    HW220208   3.068   2.222   0.857
 6437SOL     OW20209   6.951   1.062   2.039
 6437SOL    HW120210   0.002   1.056   2.105
 6437SOL    HW220211   6.973   1.007   1.958
 6438SOL     OW20212   0.707   3.829   4.346
 6438SOL    HW120213   0.612   3.832   4.315
 6438SOL    HW220214   0.739   3.923   4.362
 6439SOL     OW20215   0.022   6.260   2.457
 6439SOL    HW120216   0.044   6.231   2.364
 6439SOL    HW220217   0.009   6.359   2.459
 6440SOL     OW20218   0.681   0.561   2.216
 6440SOL    HW120219   0.681   0.632   2.144
 6440SOL    HW220220   0.591   0.519   2.220
 6441SOL     OW20221   5.205   2.190   3.031
 6441SOL    HW120222   5.261   2.117   3.069
 6441SOL    HW220223   5.127   2.150   2.982
 6442SOL     OW20224   1.407   2.030   3.555
 6442SOL    HW120225   1.419   2.029   3.655
 6442SOL    HW220226   1.309   2.025   3.534
 6443SOL     OW20227   2.565   0.735   0.858
 6443SOL    HW120228   2.577   0.834   0.855
 6443SOL    HW220229   2.629   0.695   0.923
 6444SOL     OW20230   0.778   1.508   2.478
 6444SOL    HW120231   0.758   1.435   2.412
 6444SOL    HW220232   0.722   1.588   2.457
 6445SOL     OW20233   3.453   4.239   6.308
 6445SOL    HW120234   3.425   4.143   6.315
 6445SOL    HW220235   3.393   4.287   6.244
 6446SOL     OW20236   0.409   1.063   1.258
 6446SOL    HW120237   0.484   1.129   1.266
 6446SOL    HW220238   0.322   1.110   1.271
 6447SOL     OW20239   1.744   1.352   3.261
 6447SOL    HW120240   1.681   1.275   3.263
 6447SOL    HW220241   1.695   1.437   3.281
 6448SOL     OW20242   6.170   2.021   2.048
 6448SOL    HW120243   6.161   2.051   2.144
 6448SOL    HW220244   6.126   2.087   1.988
 6449SOL     OW20245   4.855   2.478   0.315
 6449SOL    HW120246   4.815   2.569   0.327
 6449SOL    HW220247   4.930   2.466   0.380
 6450SOL     OW20248   6.667   2.391   0.480
 6450SOL    HW120249   6.678   2.337   0.396
 6450SOL    HW220250   6.726   2.354   0.551
 6451SOL     OW20251   2.911   6.517   4.840
 6451SOL    HW120252   2.988   6.520   4.903
 6451SOL    HW220253   2.859   6.433   4.854
 6452SOL     OW20254   3.978   6.163   4.670
 6452SOL    HW120255   3.893   6.121   4.702
 6452SOL    HW220256   4.025   6.100   4.609
 6453SOL     OW20257   2.546   5.179   6.945
 6453SOL    HW120258   2.569   5.254   6.884
 6453SOL    HW220259   2.612   5.105   6.933
 6454SOL     OW20260   3.729   0.854   4.946
 6454SOL    HW120261   3.819   0.864   4.988
 6454SOL    HW220262   3.699   0.942   4.910
 6455SOL     OW20263   6.053   3.411   0.143
 6455SOL    HW120264   5.954   3.401   0.151
 6455SOL    HW220265   6.076   3.453   0.055
 6456SOL     OW20266   6.466   1.837   4.303
 6456SOL    HW120267   6.525   1.917   4.294
 6456SOL    HW220268   6.370   1.866   4.302
 6457SOL     OW20269   5.874   3.044   1.595
 6457SOL    HW120270   5.849   2.963   1.543
 6457SOL    HW220271   5.795   3.078   1.646
 6458SOL     OW20272   1.314   5.734   3.786
 6458SOL    HW120273   1.399   5.687   3.809
 6458SOL    HW220274   1.236   5.673   3.802
 6459SOL     OW20275   5.691   4.113   6.956
 6459SOL    HW120276   5.662   4.110   6.860
 6459SOL    HW220277   5.782   4.156   6.961
 6460SOL     OW20278   3.825   4.944   1.847
 6460SOL    HW120279   3.841   5.006   1.924
 6460SOL    HW220280   3.912   4.925   1.801
 6461SOL     OW20281   3.024   5.805   4.134
 6461SOL    HW120282   3.082   5.885   4.118
 6461SOL    HW220283   3.064   5.725   4.090
 6462SOL     OW20284   1.979   4.474   2.733
 6462SOL    HW120285   1.995   4.377   2.715
 6462SOL    HW220286   2.015   4.529   2.658
 6463SOL     OW20287   2.159   3.271   5.790
 6463SOL    HW120288   2.073   3.319   5.804
 6463SOL    HW220289   2.145   3.195   5.727
 6464SOL     OW20290   0.750   5.224   1.953
 6464SOL    HW120291   0.787   5.167   1.879
 6464SOL    HW220292   0.673   5.278   1.920
 6465SOL     OW20293   6.401   6.998   3.409
 6465SOL    HW120294   6.403   0.039   3.333
 6465SOL    HW220295   6.415   0.022   3.495
 6466SOL     OW20296   6.248   2.808   4.940
 6466SOL    HW120297   6.301   2.823   4.857
 6466SOL    HW220298   6.206   2.717   4.938
 6467SOL     OW20299   3.912   0.255   5.964
 6467SOL    HW120300   3.973   0.180   5.990
 6467SOL    HW220301   3.917   0.328   6.032
 6468SOL     OW20302   6.457   4.530   2.501
 6468SOL    HW120303   6.517   4.554   2.425
 6468SOL    HW220304   6.374   4.586   2.497
 6469SOL     OW20305   6.038   2.434   5.923
 6469SOL    HW120306   6.095   2.509   5.956
 6469SOL    HW220307   5.976   2.404   5.996
 6470SOL     OW20308   6.604   6.461   4.959
 6470SOL    HW120309   6.615   6.362   4.974
 6470SOL    HW220310   6.541   6.476   4.883
 6471SOL     OW20311   6.558   7.012   5.027
 6471SOL    HW120312   6.629   6.958   5.071
 6471SOL    HW220313   6.471   6.962   5.029
 6472SOL     OW20314   1.717   7.001   1.981
 6472SOL    HW120315   1.624   0.011   1.971
 6472SOL    HW220316   1.740   6.943   1.903
 6473SOL     OW20317   2.298   1.614   5.617
 6473SOL    HW120318   2.377   1.670   5.592
 6473SOL    HW220319   2.306   1.525   5.573
 6474SOL     OW20320   2.038   2.910   6.731
 6474SOL    HW120321   2.009   2.943   6.821
 6474SOL    HW220322   2.076   2.818   6.740
 6475SOL     OW20323   3.891   5.389   3.579
 6475SOL    HW120324   3.854   5.481   3.588
 6475SOL    HW220325   3.854   5.331   3.652
 6476SOL     OW20326   4.866   6.037   3.124
 6476SOL    HW120327   4.851   5.986   3.040
 6476SOL    HW220328   4.847   6.134   3.108
 6477SOL     OW20329   6.603   6.049   0.243
 6477SOL    HW120330   6.597   5.950   0.236
 6477SOL    HW220331   6.667   6.084   0.174
 6478SOL     OW20332   4.310   6.199   1.180
 6478SOL    HW120333   4.347   6.120   1.131
 6478SOL    HW220334   4.384   6.245   1.230
 6479SOL     OW20335   3.049   5.948   2.449
 6479SOL    HW120336   3.001   5.931   2.535
 6479SOL    HW220337   3.019   5.882   2.380
 6480SOL     OW20338   2.228   1.059   0.775
 6480SOL    HW120339   2.251   1.154   0.754
 6480SOL    HW220340   2.263   1.036   0.865
 6481SOL     OW20341   4.756   1.038   0.902
 6481SOL    HW120342   4.748   1.131   0.937
 6481SOL    HW220343   4.716   0.974   0.968
 6482SOL     OW20344   7.024   0.452   5.592
 6482SOL    HW120345   0.021   0.474   5.687
 6482SOL    HW220346   6.924   0.455   5.579
 6483SOL     OW20347   1.200   5.524   1.318
 6483SOL    HW120348   1.139   5.464   1.266
 6483SOL    HW220349   1.189   5.505   1.416
 6484SOL     OW20350   4.341   0.358   3.009
 6484SOL    HW120351   4.395   0.308   2.942
 6484SOL    HW220352   4.250   0.317   3.018
 6485SOL     OW20353   6.651   2.542   1.955
 6485SOL    HW120354   6.564   2.584   1.981
 6485SOL    HW220355   6.653   2.447   1.989
 6486SOL     OW20356   1.473   3.059   3.142
 6486SOL    HW120357   1.436   3.026   3.056
 6486SOL    HW220358   1.408   3.041   3.216
 6487SOL     OW20359   5.901   5.844   3.515
 6487SOL    HW120360   5.871   5.774   3.580
 6487SOL    HW220361   5.939   5.800   3.434
 6488SOL     OW20362   3.455   5.228   4.266
 6488SOL    HW120363   3.513   5.241   4.185
 6488SOL    HW220364   3.506   5.255   4.348
 6489SOL     OW20365   3.069   0.850   6.704
 6489SOL    HW120366   3.014   0.856   6.620
 6489SOL    HW220367   3.159   0.813   6.682
 6490SOL     OW20368   4.442   0.942   0.057
 6490SOL    HW120369   4.460   0.846   0.038
 6490SOL    HW220370   4.516   0.980   0.112
 6491SOL     OW20371   4.753   1.026   5.905
 6491SOL    HW120372   4.698   1.044   5.824
 6491SOL    HW220373   4.828   1.092   5.910
 6492SOL     OW20374   5.790   5.215   6.110
 6492SOL    HW120375   5.871   5.264   6.079
 6492SOL    HW220376   5.817   5.128   6.150
 6493SOL     OW20377   6.941   6.608   5.400
 6493SOL    HW120378   6.961   6.624   5.496
 6493SOL    HW220379   6.916   6.694   5.356
 6494SOL     OW20380   0.296   2.916   3.223
 6494SOL    HW120381   0.395   2.929   3.217
 6494SOL    HW220382   0.263   2.871   3.140
 6495SOL     OW20383   5.497   4.576   2.184
 6495SOL    HW120384   5.489   4.619   2.274
 6495SOL    HW220385   5.422   4.511   2.172
 6496SOL     OW20386   0.002   6.605   3.695
 6496SOL    HW120387   0.000   6.586   3.597
 6496SOL    HW220388   0.086   6.654   3.718
 6497SOL     OW20389   1.276   0.220   1.448
 6497SOL    HW120390   1.258   0.186   1.540
 6497SOL    HW220391   1.369   0.255   1.443
 6498SOL     OW20392   1.314   3.943   4.449
 6498SOL    HW120393   1.257   4.020   4.424
 6498SOL    HW220394   1.285   3.907   4.538
 6499SOL     OW20395   6.270   1.249   3.046
 6499SOL    HW120396   6.173   1.271   3.046
 6499SOL    HW220397   6.283   1.152   3.024
 6500SOL     OW20398   5.629   4.899   1.949
 6500SOL    HW120399   5.698   4.883   1.878
 6500SOL    HW220400   5.652   4.845   2.030
 6501SOL     OW20401   6.417   4.260   0.591
 6501SOL    HW120402   6.487   4.234   0.524
 6501SOL    HW220403   6.373   4.344   0.562
 6502SOL     OW20404   0.309   5.551   1.765
 6502SOL    HW120405   0.273   5.479   1.705
 6502SOL    HW220406   0.281   5.640   1.730
 6503SOL     OW20407   3.853   0.330   4.058
 6503SOL    HW120408   3.801   0.257   4.103
 6503SOL    HW220409   3.808   0.356   3.973
 6504SOL     OW20410   2.325   2.479   0.285
 6504SOL    HW120411   2.280   2.566   0.303
 6504SOL    HW220412   2.299   2.446   0.194
 6505SOL     OW20413   5.526   5.125   0.662
 6505SOL    HW120414   5.604   5.092   0.716
 6505SOL    HW220415   5.486   5.205   0.707
 6506SOL     OW20416   2.141   1.556   1.703
 6506SOL    HW120417   2.097   1.592   1.786
 6506SOL    HW220418   2.240   1.561   1.713
 6507SOL     OW20419   2.869   0.635   1.530
 6507SOL    HW120420   2.919   0.704   1.582
 6507SOL    HW220421   2.837   0.675   1.444
 6508SOL     OW20422   1.022   3.428   1.719
 6508SOL    HW120423   1.049   3.359   1.652
 6508SOL    HW220424   1.105   3.464   1.763
 6509SOL     OW20425   1.468   2.951   3.958
 6509SOL    HW120426   1.523   3.034   3.962
 6509SOL    HW220427   1.406   2.948   4.037
 6510SOL     OW20428   6.245   4.067   6.665
 6510SOL    HW120429   6.145   4.066   6.654
 6510SOL    HW220430   6.278   3.973   6.674
 6511SOL     OW20431   6.511   6.740   6.179
 6511SOL    HW120432   6.580   6.678   6.216
 6511SOL    HW220433   6.493   6.717   6.083
 6512SOL     OW20434   5.437   6.473   4.565
 6512SOL    HW120435   5.363   6.535   4.592
 6512SOL    HW220436   5.493   6.452   4.645
 6513SOL     OW20437   1.223   6.829   3.583
 6513SOL    HW120438   1.287   6.759   3.550
 6513SOL    HW220439   1.166   6.860   3.508
 6514SOL     OW20440   2.664   0.761   4.129
 6514SOL    HW120441   2.726   0.685   4.109
 6514SOL    HW220442   2.605   0.736   4.205
 6515SOL     OW20443   1.468   0.986   3.465
 6515SOL    HW120444   1.540   0.921   3.443
 6515SOL    HW220445   1.487   1.029   3.553
 6516SOL     OW20446   2.196   1.291   5.847
 6516SOL    HW120447   2.254   1.368   5.870
 6516SOL    HW220448   2.101   1.321   5.839
 6517SOL     OW20449   2.900   2.086   1.060
 6517SOL    HW120450   2.833   2.067   0.989
 6517SOL    HW220451   2.987   2.111   1.018
 6518SOL     OW20452   5.482   6.021   1.063
 6518SOL    HW120453   5.581   6.013   1.071
 6518SOL    HW220454   5.459   6.097   1.002
 6519SOL     OW20455   0.257   1.963   3.765
 6519SOL    HW120456   0.338   2.021   3.766
 6519SOL    HW220457   0.269   1.888   3.700
 6520SOL     OW20458   5.968   5.529   0.994
 6520SOL    HW120459   5.952   5.622   0.959
 6520SOL    HW220460   5.900   5.508   1.064
 6521SOL     OW20461   1.406   2.343   6.070
 6521SOL    HW120462   1.413   2.243   6.072
 6521SOL    HW220463   1.398   2.373   5.975
 6522SOL     OW20464   2.561   4.532   4.261
 6522SOL    HW120465   2.568   4.577   4.172
 6522SOL    HW220466   2.646   4.547   4.312
 6523SOL     OW20467   2.599   2.382   0.914
 6523SOL    HW120468   2.634   2.425   0.830
 6523SOL    HW220469   2.665   2.397   0.988
 6524SOL     OW20470   3.821   2.427   5.394
 6524SOL    HW120471   3.737   2.403   5.347
 6524SOL    HW220472   3.806   2.421   5.493
 6525SOL     OW20473   0.398   2.396   4.702
 6525SOL    HW120474   0.495   2.416   4.689
 6525SOL    HW220475   0.361   2.456   4.773
 6526SOL     OW20476   1.484   5.903   3.168
 6526SOL    HW120477   1.508   5.864   3.257
 6526SOL    HW220478   1.442   5.993   3.181
 6527SOL     OW20479   2.102   1.240   4.833
 6527SOL    HW120480   2.048   1.172   4.783
 6527SOL    HW220481   2.067   1.248   4.926
 6528SOL     OW20482   6.716   0.615   2.826
 6528SOL    HW120483   6.632   0.576   2.865
 6528SOL    HW220484   6.793   0.591   2.885
 6529SOL     OW20485   5.915   3.354   2.521
 6529SOL    HW120486   5.902   3.433   2.580
 6529SOL    HW220487   5.981   3.375   2.449
 6530SOL     OW20488   0.314   1.018   0.352
 6530SOL    HW120489   0.283   1.029   0.446
 6530SOL    HW220490   0.376   1.092   0.328
 6531SOL     OW20491   5.046   2.232   5.814
 6531SOL    HW120492   4.973   2.195   5.758
 6531SOL    HW220493   5.026   2.216   5.911
 6532SOL     OW20494   1.575   1.390   6.549
 6532SOL    HW120495   1.510   1.395   6.625
 6532SOL    HW220496   1.623   1.302   6.552
 6533SOL     OW20497   5.326   0.425   0.381
 6533SOL    HW120498   5.302   0.465   0.293
 6533SOL    HW220499   5.423   0.399   0.380
 6534SOL     OW20500   4.014   2.549   6.845
 6534SOL    HW120501   4.028   2.647   6.832
 6534SOL    HW220502   4.073   2.516   6.919
 6535SOL     OW20503   2.004   2.749   5.060
 6535SOL    HW120504   1.977   2.658   5.092
 6535SOL    HW220505   2.101   2.748   5.036
 6536SOL     OW20506   0.551   1.395   0.873
 6536SOL    HW120507   0.629   1.349   0.829
 6536SOL    HW220508   0.538   1.484   0.830
 6537SOL     OW20509   0.051   0.915   6.370
 6537SOL    HW120510   0.070   1.013   6.373
 6537SOL    HW220511   0.060   0.876   6.462
 6538SOL     OW20512   3.202   2.680   5.560
 6538SOL    HW120513   3.106   2.698   5.579
 6538SOL    HW220514   3.212   2.637   5.471
 6539SOL     OW20515   3.331   1.474   6.793
 6539SOL    HW120516   3.245   1.425   6.802
 6539SOL    HW220517   3.348   1.528   6.875
 6540SOL     OW20518   4.148   1.990   2.966
 6540SOL    HW120519   4.223   2.035   2.918
 6540SOL    HW220520   4.173   1.895   2.985
 6541SOL     OW20521   3.038   1.998   5.199
 6541SOL    HW120522   3.028   2.095   5.220
 6541SOL    HW220523   2.996   1.979   5.110
 6542SOL     OW20524   4.511   4.693   3.175
 6542SOL    HW120525   4.574   4.640   3.117
 6542SOL    HW220526   4.552   4.782   3.195
 6543SOL     OW20527   1.465   6.773   6.508
 6543SOL    HW120528   1.501   6.787   6.601
 6543SOL    HW220529   1.385   6.713   6.512
 6544SOL     OW20530   0.818   5.057   2.588
 6544SOL    HW120531   0.812   5.077   2.490
 6544SOL    HW220532   0.859   4.967   2.601
 6545SOL     OW20533   6.094   2.360   6.466
 6545SOL    HW120534   6.056   2.304   6.540
 6545SOL    HW220535   6.030   2.434   6.444
 6546SOL     OW20536   3.019   4.783   6.335
 6546SOL    HW120537   3.094   4.721   6.312
 6546SOL    HW220538   2.984   4.826   6.252
 6547SOL     OW20539   3.998   1.178   6.059
 6547SOL    HW120540   3.988   1.155   5.962
 6547SOL    HW220541   3.995   1.277   6.071
 6548SOL     OW20542   5.037   3.690   5.462
 6548SOL    HW120543   5.013   3.593   5.469
 6548SOL    HW220544   5.063   3.724   5.552
 6549SOL     OW20545   2.424   2.333   2.133
 6549SOL    HW120546   2.370   2.416   2.123
 6549SOL    HW220547   2.498   2.332   2.066
 6550SOL     OW20548   1.076   5.771   2.277
 6550SOL    HW120549   1.104   5.845   2.216
 6550SOL    HW220550   1.051   5.691   2.222
 6551SOL     OW20551   3.071   5.297   2.049
 6551SOL    HW120552   3.124   5.233   2.104
 6551SOL    HW220553   3.049   5.255   1.961
 6552SOL     OW20554   4.484   4.795   5.634
 6552SOL    HW120555   4.521   4.772   5.544
 6552SOL    HW220556   4.493   4.893   5.650
 6553SOL     OW20557   6.354   3.387   3.070
 6553SOL    HW120558   6.386   3.350   2.983
 6553SOL    HW220559   6.381   3.483   3.078
 6554SOL     OW20560   6.444   2.880   4.716
 6554SOL    HW120561   6.395   2.966   4.704
 6554SOL    HW220562   6.457   2.836   4.628
 6555SOL     OW20563   0.715   1.471   1.803
 6555SOL    HW120564   0.699   1.569   1.816
 6555SOL    HW220565   0.633   1.429   1.765
 6556SOL     OW20566   3.376   0.015   3.162
 6556SOL    HW120567   3.412   0.107   3.143
 6556SOL    HW220568   3.340   7.000   3.077
 6557SOL     OW20569   5.123   6.203   0.357
 6557SOL    HW120570   5.221   6.183   0.359
 6557SOL    HW220571   5.103   6.263   0.279
 6558SOL     OW20572   6.046   6.919   6.324
 6558SOL    HW120573   6.133   6.956   6.357
 6558SOL    HW220574   5.984   6.994   6.302
 6559SOL     OW20575   3.080   3.880   0.881
 6559SOL    HW120576   3.114   3.969   0.912
 6559SOL    HW220577   3.156   3.824   0.850
 6560SOL     OW20578   4.474   1.809   1.084
 6560SOL    HW120579   4.463   1.735   1.018
 6560SOL    HW220580   4.562   1.855   1.069
 6561SOL     OW20581   3.526   3.209   4.567
 6561SOL    HW120582   3.538   3.293   4.621
 6561SOL    HW220583   3.583   3.136   4.605
 6562SOL     OW20584   0.110   4.319   4.939
 6562SOL    HW120585   0.053   4.386   4.987
 6562SOL    HW220586   0.184   4.289   4.999
 6563SOL     OW20587   1.216   6.508   2.489
 6563SOL    HW120588   1.145   6.439   2.477
 6563SOL    HW220589   1.179   6.598   2.465
 6564SOL     OW20590   1.988   4.888   2.837
 6564SOL    HW120591   1.895   4.867   2.868
 6564SOL    HW220592   2.050   4.817   2.869
 6565SOL     OW20593   6.976   3.483   5.355
 6565SOL    HW120594   6.963   3.497   5.453
 6565SOL    HW220595   6.937   3.560   5.305
 6566SOL     OW20596   4.269   1.344   0.901
 6566SOL    HW120597   4.315   1.393   0.975
 6566SOL    HW220598   4.278   1.397   0.816
 6567SOL     OW20599   6.951   2.503   0.847
 6567SOL    HW120600   6.992   2.580   0.799
 6567SOL    HW220601   6.908   2.441   0.781
 6568SOL     OW20602   5.236   3.307   1.580
 6568SOL    HW120603   5.182   3.229   1.613
 6568SOL    HW220604   5.333   3.289   1.595
 6569SOL     OW20605   1.297   4.129   5.613
 6569SOL    HW120606   1.390   4.119   5.650
 6569SOL    HW220607   1.255   4.211   5.652
 6570SOL     OW20608   0.320   4.017   2.212
 6570SOL    HW120609   0.254   4.075   2.260
 6570SOL    HW220610   0.291   3.921   2.220
 6571SOL     OW20611   2.131   5.117   4.335
 6571SOL    HW120612   2.175   5.149   4.419
 6571SOL    HW220613   2.039   5.155   4.329
 6572SOL     OW20614   1.628   3.746   5.297
 6572SOL    HW120615   1.644   3.648   5.288
 6572SOL    HW220616   1.601   3.784   5.208
 6573SOL     OW20617   1.533   2.211   1.281
 6573SOL    HW120618   1.484   2.298   1.282
 6573SOL    HW220619   1.578   2.199   1.193
 6574SOL     OW20620   2.044   4.751   4.482
 6574SOL    HW120621   2.102   4.748   4.400
 6574SOL    HW220622   2.055   4.839   4.527
 6575SOL     OW20623   1.495   1.404   2.487
 6575SOL    HW120624   1.430   1.386   2.560
 6575SOL    HW220625   1.539   1.492   2.503
 6576SOL     OW20626   0.537   5.318   4.311
 6576SOL    HW120627   0.467   5.254   4.342
 6576SOL    HW220628   0.512   5.411   4.338
 6577SOL     OW20629   0.672   3.982   5.819
 6577SOL    HW120630   0.746   3.927   5.858
 6577SOL    HW220631   0.588   3.964   5.869
 6578SOL     OW20632   5.968   6.053   3.961
 6578SOL    HW120633   5.981   6.006   3.873
 6578SOL    HW220634   5.981   6.152   3.948
 6579SOL     OW20635   0.031   3.747   3.865
 6579SOL    HW120636   0.038   3.701   3.954
 6579SOL    HW220637   0.108   3.810   3.855
 6580SOL     OW20638   5.748   2.351   0.809
 6580SOL    HW120639   5.783   2.444   0.802
 6580SOL    HW220640   5.705   2.325   0.722
 6581SOL     OW20641   2.611   2.086   5.461
 6581SOL    HW120642   2.642   2.021   5.530
 6581SOL    HW220643   2.539   2.044   5.405
 6582SOL     OW20644   6.101   0.498   2.650
 6582SOL    HW120645   6.027   0.455   2.598
 6582SOL    HW220646   6.159   0.549   2.587
 6583SOL     OW20647   6.252   0.699   6.202
 6583SOL    HW120648   6.196   0.710   6.120
 6583SOL    HW220649   6.304   0.614   6.197
 6584SOL     OW20650   5.991   2.260   0.459
 6584SOL    HW120651   5.904   2.266   0.409
 6584SOL    HW220652   6.015   2.350   0.494
 6585SOL     OW20653   2.320   0.744   2.710
 6585SOL    HW120654   2.385   0.668   2.704
 6585SOL    HW220655   2.349   0.817   2.649
 6586SOL     OW20656   5.643   0.738   6.894
 6586SOL    HW120657   5.680   0.763   6.804
 6586SOL    HW220658   5.716   0.702   6.951
 6587SOL     OW20659   1.450   5.633   1.909
 6587SOL    HW120660   1.534   5.686   1.900
 6587SOL    HW220661   1.472   5.535   1.907
 6588SOL     OW20662   3.603   3.438   0.392
 6588SOL    HW120663   3.587   3.351   0.438
 6588SOL    HW220664   3.678   3.487   0.438
 6589SOL     OW20665   4.707   1.691   6.003
 6589SOL    HW120666   4.750   1.612   6.046
 6589SOL    HW220667   4.778   1.754   5.970
 6590SOL     OW20668   6.498   1.962   5.522
 6590SOL    HW120669   6.407   1.919   5.524
 6590SOL    HW220670   6.567   1.894   5.500
 6591SOL     OW20671   4.782   0.309   2.573
 6591SOL    HW120672   4.742   0.258   2.497
 6591SOL    HW220673   4.777   0.407   2.554
 6592SOL     OW20674   5.865   4.705   5.386
 6592SOL    HW120675   5.822   4.780   5.335
 6592SOL    HW220676   5.818   4.693   5.473
 6593SOL     OW20677   5.490   1.162   2.853
 6593SOL    HW120678   5.483   1.076   2.904
 6593SOL    HW220679   5.399   1.201   2.841
 6594SOL     OW20680   5.445   0.524   6.875
 6594SOL    HW120681   5.503   0.461   6.823
 6594SOL    HW220682   5.503   0.589   6.924
 6595SOL     OW20683   3.806   3.097   6.195
 6595SOL    HW120684   3.708   3.116   6.191
 6595SOL    HW220685   3.826   3.042   6.277
 6596SOL     OW20686   2.285   5.360   4.863
 6596SOL    HW120687   2.320   5.292   4.798
 6596SOL    HW220688   2.191   5.337   4.888
 6597SOL     OW20689   0.202   4.277   0.331
 6597SOL    HW120690   0.200   4.273   0.231
 6597SOL    HW220691   0.149   4.202   0.369
 6598SOL     OW20692   3.159   6.236   4.122
 6598SOL    HW120693   3.210   6.293   4.187
 6598SOL    HW220694   3.205   6.148   4.113
 6599SOL     OW20695   4.117   3.661   6.141
 6599SOL    HW120696   4.085   3.701   6.054
 6599SOL    HW220697   4.097   3.564   6.142
 6600SOL     OW20698   4.275   4.825   4.846
 6600SOL    HW120699   4.275   4.735   4.887
 6600SOL    HW220700   4.338   4.885   4.896
 6601SOL     OW20701   1.138   1.014   2.282
 6601SOL    HW120702   1.160   0.976   2.372
 6601SOL    HW220703   1.207   1.082   2.256
 6602SOL     OW20704   5.595   1.370   1.074
 6602SOL    HW120705   5.589   1.419   1.160
 6602SOL    HW220706   5.686   1.329   1.065
 6603SOL     OW20707   3.126   2.241   1.325
 6603SOL    HW120708   3.068   2.161   1.335
 6603SOL    HW220709   3.221   2.217   1.344
 6604SOL     OW20710   4.263   5.256   5.083
 6604SOL    HW120711   4.203   5.177   5.090
 6604SOL    HW220712   4.278   5.277   4.986
 6605SOL     OW20713   4.961   5.835   1.046
 6605SOL    HW120714   5.041   5.890   1.020
 6605SOL    HW220715   4.882   5.896   1.056
 6606SOL     OW20716   0.534   3.062   2.964
 6606SOL    HW120717   0.493   2.980   2.924
 6606SOL    HW220718   0.462   3.128   2.987
 6607SOL     OW20719   2.138   3.738   2.631
 6607SOL    HW120720   2.233   3.708   2.628
 6607SOL    HW220721   2.094   3.699   2.712
 6608SOL     OW20722   5.397   4.519   4.709
 6608SOL    HW120723   5.488   4.514   4.667
 6608SOL    HW220724   5.401   4.485   4.803
 6609SOL     OW20725   5.750   2.304   6.561
 6609SOL    HW120726   5.658   2.339   6.580
 6609SOL    HW220727   5.786   2.349   6.479
 6610SOL     OW20728   4.254   1.228   0.501
 6610SOL    HW120729   4.334   1.191   0.548
 6610SOL    HW220730   4.214   1.302   0.555
 6611SOL     OW20731   5.834   3.041   2.056
 6611SOL    HW120732   5.755   3.023   2.116
 6611SOL    HW220733   5.894   3.108   2.100
 6612SOL     OW20734   0.662   5.549   6.431
 6612SOL    HW120735   0.751   5.593   6.447
 6612SOL    HW220736   0.601   5.566   6.508
 6613SOL     OW20737   6.154   4.979   0.487
 6613SOL    HW120738   6.058   4.999   0.505
 6613SOL    HW220739   6.161   4.928   0.401
 6614SOL     OW20740   5.665   4.211   6.365
 6614SOL    HW120741   5.700   4.203   6.272
 6614SOL    HW220742   5.611   4.295   6.374
 6615SOL     OW20743   0.225   3.735   4.708
 6615SOL    HW120744   0.316   3.717   4.671
 6615SOL    HW220745   0.223   3.713   4.805
 6616SOL     OW20746   4.770   1.394   3.960
 6616SOL    HW120747   4.689   1.343   3.989
 6616SOL    HW220748   4.825   1.338   3.899
 6617SOL     OW20749   4.048   0.792   4.135
 6617SOL    HW120750   4.022   0.714   4.078
 6617SOL    HW220751   3.972   0.856   4.140
 6618SOL     OW20752   0.216   4.535   1.384
 6618SOL    HW120753   0.233   4.438   1.404
 6618SOL    HW220754   0.167   4.542   1.298
 6619SOL     OW20755   5.962   5.699   2.470
 6619SOL    HW120756   6.054   5.704   2.510
 6619SOL    HW220757   5.931   5.791   2.445
 6620SOL     OW20758   5.161   3.305   5.296
 6620SOL    HW120759   5.221   3.235   5.258
 6620SOL    HW220760   5.175   3.391   5.248
 6621SOL     OW20761   3.933   3.288   1.634
 6621SOL    HW120762   3.880   3.270   1.717
 6621SOL    HW220763   3.938   3.204   1.579
 6622SOL     OW20764   6.032   5.385   0.178
 6622SOL    HW120765   5.961   5.455   0.169
 6622SOL    HW220766   6.041   5.359   0.274
 6623SOL     OW20767   2.955   3.725   2.771
 6623SOL    HW120768   2.936   3.627   2.777
 6623SOL    HW220769   2.970   3.751   2.676
 6624SOL     OW20770   4.507   4.861   4.326
 6624SOL    HW120771   4.598   4.831   4.296
 6624SOL    HW220772   4.506   4.869   4.425
 6625SOL     OW20773   5.393   6.406   0.267
 6625SOL    HW120774   5.337   6.440   0.192
 6625SOL    HW220775   5.400   6.477   0.338
 6626SOL     OW20776   2.418   5.384   4.421
 6626SOL    HW120777   2.512   5.349   4.422
 6626SOL    HW220778   2.395   5.414   4.328
 6627SOL     OW20779   0.271   0.878   1.422
 6627SOL    HW120780   0.318   0.941   1.361
 6627SOL    HW220781   0.178   0.910   1.437
 6628SOL     OW20782   3.822   6.128   4.287
 6628SOL    HW120783   3.744   6.183   4.256
 6628SOL    HW220784   3.797   6.031   4.283
 6629SOL     OW20785   2.764   4.536   0.296
 6629SOL    HW120786   2.813   4.471   0.354
 6629SOL    HW220787   2.675   4.557   0.338
 6630SOL     OW20788   3.177   1.010   6.162
 6630SOL    HW120789   3.201   1.091   6.216
 6630SOL    HW220790   3.246   0.939   6.174
 6631SOL     OW20791   3.786   6.944   2.055
 6631SOL    HW120792   3.788   0.007   2.104
 6631SOL    HW220793   3.872   6.895   2.071
 6632SOL     OW20794   6.025   3.274   1.584
 6632SOL    HW120795   5.966   3.195   1.597
 6632SOL    HW220796   6.102   3.248   1.525
 6633SOL     OW20797   1.103   5.925   3.303
 6633SOL    HW120798   1.016   5.957   3.340
 6633SOL    HW220799   1.175   5.937   3.371
 6634SOL     OW20800   6.398   2.209   5.054
 6634SOL    HW120801   6.383   2.285   4.991
 6634SOL    HW220802   6.377   2.123   5.008
 6635SOL     OW20803   3.799   5.203   3.774
 6635SOL    HW120804   3.838   5.231   3.862
 6635SOL    HW220805   3.792   5.103   3.771
 6636SOL     OW20806   1.975   3.190   2.525
 6636SOL    HW120807   1.930   3.222   2.608
 6636SOL    HW220808   2.006   3.268   2.471
 6637SOL     OW20809   0.110   2.811   0.116
 6637SOL    HW120810   0.039   2.764   0.064
 6637SOL    HW220811   0.133   2.758   0.197
 6638SOL     OW20812   1.836   0.502   6.768
 6638SOL    HW120813   1.856   0.421   6.823
 6638SOL    HW220814   1.775   0.477   6.692
 6639SOL     OW20815   3.636   5.178   6.125
 6639SOL    HW120816   3.623   5.254   6.061
 6639SOL    HW220817   3.733   5.172   6.149
 6640SOL     OW20818   5.233   3.861   3.201
 6640SOL    HW120819   5.196   3.770   3.221
 6640SOL    HW220820   5.163   3.915   3.154
 6641SOL     OW20821   2.712   5.386   6.415
 6641SOL    HW120822   2.687   5.419   6.324
 6641SOL    HW220823   2.718   5.464   6.478
 6642SOL     OW20824   6.396   6.428   5.786
 6642SOL    HW120825   6.489   6.447   5.755
 6642SOL    HW220826   6.341   6.511   5.778
 6643SOL     OW20827   4.274   5.776   0.516
 6643SOL    HW120828   4.356   5.814   0.559
 6643SOL    HW220829   4.300   5.732   0.430
 6644SOL     OW20830   0.954   3.450   2.371
 6644SOL    HW120831   1.049   3.478   2.358
 6644SOL    HW220832   0.919   3.411   2.285
 6645SOL     OW20833   0.305   5.016   5.374
 6645SOL    HW120834   0.398   4.993   5.346
 6645SOL    HW220835   0.308   5.078   5.452
 6646SOL     OW20836   1.871   5.354   3.738
 6646SOL    HW120837   1.969   5.331   3.741
 6646SOL    HW220838   1.846   5.404   3.820
 6647SOL     OW20839   4.359   1.604   1.828
 6647SOL    HW120840   4.325   1.644   1.913
 6647SOL    HW220841   4.282   1.573   1.772
 6648SOL     OW20842   3.389   5.371   2.050
 6648SOL    HW120843   3.315   5.388   2.115
 6648SOL    HW220844   3.356   5.388   1.957
 6649SOL     OW20845   3.964   2.083   5.589
 6649SOL    HW120846   4.011   2.017   5.648
 6649SOL    HW220847   3.905   2.034   5.525
 6650SOL     OW20848   3.426   1.400   4.195
 6650SOL    HW120849   3.374   1.376   4.276
 6650SOL    HW220850   3.493   1.327   4.176
 6651SOL     OW20851   0.827   1.576   1.077
 6651SOL    HW120852   0.846   1.480   1.055
 6651SOL    HW220853   0.858   1.596   1.170
 6652SOL     OW20854   0.477   5.121   3.625
 6652SOL    HW120855   0.523   5.085   3.544
 6652SOL    HW220856   0.381   5.091   3.624
 6653SOL     OW20857   3.593   4.137   3.926
 6653SOL    HW120858   3.503   4.145   3.969
 6653SOL    HW220859   3.663   4.136   3.997
 6654SOL     OW20860   1.289   3.449   1.847
 6654SOL    HW120861   1.343   3.405   1.775
 6654SOL    HW220862   1.315   3.545   1.853
 6655SOL     OW20863   1.423   1.151   6.812
 6655SOL    HW120864   1.468   1.063   6.800
 6655SOL    HW220865   1.473   1.206   6.879
 6656SOL     OW20866   6.304   1.790   1.707
 6656SOL    HW120867   6.390   1.783   1.657
 6656SOL    HW220868   6.228   1.799   1.642
 6657SOL     OW20869   3.527   4.805   5.519
 6657SOL    HW120870   3.624   4.785   5.527
 6657SOL    HW220871   3.482   4.735   5.465
 6658SOL     OW20872   6.156   6.879   5.486
 6658SOL    HW120873   6.118   6.883   5.393
 6658SOL    HW220874   6.145   6.786   5.522
 6659SOL     OW20875   2.493   3.070   0.430
 6659SOL    HW120876   2.403   3.112   0.423
 6659SOL    HW220877   2.531   3.087   0.521
 6660SOL     OW20878   0.122   6.562   2.774
 6660SOL    HW120879   0.149   6.493   2.841
 6660SOL    HW220880   0.025   6.584   2.787
 6661SOL     OW20881   6.643   0.167   3.776
 6661SOL    HW120882   6.635   0.220   3.861
 6661SOL    HW220883   6.662   0.229   3.700
 6662SOL     OW20884   1.459   3.368   5.977
 6662SOL    HW120885   1.543   3.323   6.005
 6662SOL    HW220886   1.380   3.312   6.005
 6663SOL     OW20887   0.599   5.347   2.280
 6663SOL    HW120888   0.581   5.381   2.372
 6663SOL    HW220889   0.670   5.277   2.284
 6664SOL     OW20890   6.849   1.755   1.790
 6664SOL    HW120891   6.858   1.827   1.721
 6664SOL    HW220892   6.841   1.666   1.743
 6665SOL     OW20893   1.978   6.545   3.601
 6665SOL    HW120894   2.002   6.513   3.692
 6665SOL    HW220895   1.993   6.643   3.594
 6666SOL     OW20896   6.020   0.659   0.450
 6666SOL    HW120897   6.071   0.580   0.416
 6666SOL    HW220898   6.012   0.727   0.377
 6667SOL     OW20899   5.681   5.071   5.403
 6667SOL    HW120900   5.590   5.110   5.411
 6667SOL    HW220901   5.734   5.092   5.486
 6668SOL     OW20902   6.336   6.144   1.033
 6668SOL    HW120903   6.238   6.151   1.014
 6668SOL    HW220904   6.383   6.108   0.952
 6669SOL     OW20905   0.720   4.623   3.426
 6669SOL    HW120906   0.625   4.641   3.403
 6669SOL    HW220907   0.725   4.555   3.500
 6670SOL     OW20908   5.497   4.842   0.426
 6670SOL    HW120909   5.481   4.846   0.525
 6670SOL    HW220910   5.410   4.849   0.378
 6671SOL     OW20911   1.205   2.235   5.241
 6671SOL    HW120912   1.248   2.321   5.269
 6671SOL    HW220913   1.114   2.228   5.281
 6672SOL     OW20914   7.014   1.523   4.958
 6672SOL    HW120915   0.044   1.473   5.025
 6672SOL    HW220916   6.980   1.608   4.999
 6673SOL     OW20917   3.190   5.954   1.723
 6673SOL    HW120918   3.252   5.880   1.696
 6673SOL    HW220919   3.214   5.984   1.815
 6674SOL     OW20920   0.881   5.864   4.744
 6674SOL    HW120921   0.938   5.784   4.762
 6674SOL    HW220922   0.921   5.944   4.788
 6675SOL     OW20923   6.317   6.480   6.266
 6675SOL    HW120924   6.370   6.467   6.182
 6675SOL    HW220925   6.255   6.403   6.279
 6676SOL     OW20926   0.303   1.331   0.971
 6676SOL    HW120927   0.281   1.410   1.029
 6676SOL    HW220928   0.386   1.351   0.919
 6677SOL     OW20929   0.655   4.629   0.489
 6677SOL    HW120930   0.611   4.718   0.488
 6677SOL    HW220931   0.617   4.573   0.562
 6678SOL     OW20932   0.492   3.977   3.999
 6678SOL    HW120933   0.482   3.923   4.083
 6678SOL    HW220934   0.589   3.980   3.973
 6679SOL     OW20935   2.297   1.311   4.674
 6679SOL    HW120936   2.220   1.278   4.729
 6679SOL    HW220937   2.264   1.342   4.585
 6680SOL     OW20938   2.991   0.706   0.077
 6680SOL    HW120939   3.090   0.692   0.068
 6680SOL    HW220940   2.946   0.618   0.094
 6681SOL     OW20941   6.044   5.182   6.359
 6681SOL    HW120942   6.044   5.099   6.414
 6681SOL    HW220943   6.069   5.159   6.264
 6682SOL     OW20944   6.219   4.702   2.560
 6682SOL    HW120945   6.233   4.801   2.561
 6682SOL    HW220946   6.178   4.673   2.647
 6683SOL     OW20947   5.477   3.095   4.009
 6683SOL    HW120948   5.520   3.147   4.083
 6683SOL    HW220949   5.479   2.998   4.032
 6684SOL     OW20950   1.678   0.784   1.696
 6684SOL    HW120951   1.644   0.773   1.789
 6684SOL    HW220952   1.641   0.867   1.656
 6685SOL     OW20953   6.116   2.802   6.927
 6685SOL    HW120954   6.148   2.873   6.989
 6685SOL    HW220955   6.089   2.721   6.979
 6686SOL     OW20956   5.067   4.465   4.026
 6686SOL    HW120957   5.131   4.526   4.072
 6686SOL    HW220958   4.979   4.512   4.012
 6687SOL     OW20959   0.473   6.991   6.793
 6687SOL    HW120960   0.428   0.040   6.742
 6687SOL    HW220961   0.428   6.904   6.774
 6688SOL     OW20962   0.316   4.604   2.998
 6688SOL    HW120963   0.254   4.548   3.053
 6688SOL    HW220964   0.410   4.569   3.008
 6689SOL     OW20965   5.839   3.740   0.214
 6689SOL    HW120966   5.779   3.812   0.248
 6689SOL    HW220967   5.927   3.745   0.261
 6690SOL     OW20968   0.302   1.326   0.510
 6690SOL    HW120969   0.278   1.231   0.530
 6690SOL    HW220970   0.301   1.379   0.595
 6691SOL     OW20971   1.016   5.386   1.167
 6691SOL    HW120972   0.972   5.468   1.132
 6691SOL    HW220973   0.952   5.309   1.162
 6692SOL     OW20974   4.922   3.423   6.412
 6692SOL    HW120975   5.017   3.419   6.380
 6692SOL    HW220976   4.917   3.392   6.507
 6693SOL     OW20977   4.025   3.412   6.126
 6693SOL    HW120978   3.965   3.432   6.048
 6693SOL    HW220979   3.969   3.385   6.204
 6694SOL     OW20980   2.838   5.562   0.184
 6694SOL    HW120981   2.818   5.590   0.090
 6694SOL    HW220982   2.833   5.462   0.191
 6695SOL     OW20983   1.927   1.724   0.102
 6695SOL    HW120984   2.004   1.666   0.128
 6695SOL    HW220985   1.942   1.760   0.010
 6696SOL     OW20986   1.604   2.216   0.936
 6696SOL    HW120987   1.655   2.193   0.853
 6696SOL    HW220988   1.554   2.136   0.968
 6697SOL     OW20989   5.282   3.603   4.744
 6697SOL    HW120990   5.261   3.683   4.687
 6697SOL    HW220991   5.369   3.563   4.714
 6698SOL     OW20992   2.474   4.578   5.838
 6698SOL    HW120993   2.441   4.486   5.860
 6698SOL    HW220994   2.441   4.604   5.748
 6699SOL     OW20995   2.022   3.300   6.785
 6699SOL    HW120996   1.933   3.309   6.829
 6699SOL    HW220997   2.015   3.235   6.709
 6700SOL     OW20998   0.292   5.996   6.324
 6700SOL    HW120999   0.330   5.950   6.243
 6700SOL    HW221000   0.193   5.981   6.327
 6701SOL     OW21001   1.439   2.183   6.853
 6701SOL    HW121002   1.415   2.276   6.826
 6701SOL    HW221003   1.379   2.153   6.927
 6702SOL     OW21004   3.359   3.258   0.943
 6702SOL    HW121005   3.388   3.262   0.848
 6702SOL    HW221006   3.424   3.308   1.000
 6703SOL     OW21007   0.663   2.035   0.513
 6703SOL    HW121008   0.704   2.107   0.569
 6703SOL    HW221009   0.683   2.053   0.416
 6704SOL     OW21010   5.414   3.628   2.465
 6704SOL    HW121011   5.485   3.565   2.496
 6704SOL    HW221012   5.345   3.577   2.413
 6705SOL     OW21013   5.216   2.615   0.956
 6705SOL    HW121014   5.135   2.587   1.008
 6705SOL    HW221015   5.187   2.662   0.872
 6706SOL     OW21016   1.455   6.651   6.903
 6706SOL    HW121017   1.486   6.726   6.844
 6706SOL    HW221018   1.368   6.676   6.945
 6707SOL     OW21019   1.066   5.209   3.283
 6707SOL    HW121020   1.085   5.133   3.344
 6707SOL    HW221021   1.094   5.295   3.325
 6708SOL     OW21022   2.302   5.977   1.171
 6708SOL    HW121023   2.304   6.077   1.182
 6708SOL    HW221024   2.352   5.934   1.246
 6709SOL     OW21025   5.082   1.898   3.778
 6709SOL    HW121026   5.069   1.801   3.756
 6709SOL    HW221027   5.095   1.950   3.694
 6710SOL     OW21028   2.654   2.526   0.676
 6710SOL    HW121029   2.751   2.507   0.692
 6710SOL    HW221030   2.632   2.510   0.580
 6711SOL     OW21031   5.833   3.350   6.253
 6711SOL    HW121032   5.804   3.410   6.327
 6711SOL    HW221033   5.765   3.354   6.179
 6712SOL     OW21034   3.226   6.345   0.446
 6712SOL    HW121035   3.251   6.315   0.538
 6712SOL    HW221036   3.290   6.414   0.414
 6713SOL     OW21037   0.429   2.620   3.050
 6713SOL    HW121038   0.428   2.697   3.113
 6713SOL    HW221039   0.364   2.551   3.081
 6714SOL     OW21040   6.743   0.996   5.075
 6714SOL    HW121041   6.731   1.095   5.074
 6714SOL    HW221042   6.659   0.952   5.106
 6715SOL     OW21043   5.379   2.747   1.131
 6715SOL    HW121044   5.365   2.698   1.044
 6715SOL    HW221045   5.335   2.696   1.205
 6716SOL     OW21046   3.557   5.971   1.043
 6716SOL    HW121047   3.569   5.924   1.130
 6716SOL    HW221048   3.589   5.912   0.969
 6717SOL     OW21049   3.744   0.928   6.978
 6717SOL    HW121050   3.652   0.956   6.949
 6717SOL    HW221051   3.764   0.968   0.043
 6718SOL     OW21052   4.200   0.454   6.659
 6718SOL    HW121053   4.277   0.514   6.682
 6718SOL    HW221054   4.228   0.391   6.586
 6719SOL     OW21055   1.203   1.949   5.086
 6719SOL    HW121056   1.262   1.914   5.014
 6719SOL    HW221057   1.148   2.024   5.051
 6720SOL     OW21058   1.349   4.559   0.268
 6720SOL    HW121059   1.252   4.535   0.266
 6720SOL    HW221060   1.375   4.581   0.362
 6721SOL     OW21061   6.440   6.459   2.972
 6721SOL    HW121062   6.479   6.370   2.995
 6721SOL    HW221063   6.398   6.499   3.054
 6722SOL     OW21064   3.836   4.628   6.683
 6722SOL    HW121065   3.763   4.577   6.729
 6722SOL    HW221066   3.924   4.600   6.721
 6723SOL     OW21067   3.703   2.035   2.592
 6723SOL    HW121068   3.745   1.944   2.593
 6723SOL    HW221069   3.771   2.104   2.617
 6724SOL     OW21070   3.285   4.414   5.880
 6724SOL    HW121071   3.341   4.386   5.802
 6724SOL    HW221072   3.249   4.506   5.865
 6725SOL     OW21073   0.627   6.293   1.392
 6725SOL    HW121074   0.717   6.274   1.351
 6725SOL    HW221075   0.638   6.313   1.489
 6726SOL     OW21076   2.406   2.397   1.450
 6726SOL    HW121077   2.431   2.491   1.428
 6726SOL    HW221078   2.321   2.373   1.403
 6727SOL     OW21079   2.887   4.017   1.127
 6727SOL    HW121080   2.877   4.102   1.178
 6727SOL    HW221081   2.954   4.030   1.053
 6728SOL     OW21082   4.084   1.499   3.734
 6728SOL    HW121083   4.071   1.460   3.643
 6728SOL    HW221084   4.149   1.442   3.786
 6729SOL     OW21085   3.832   5.832   3.382
 6729SOL    HW121086   3.815   5.738   3.355
 6729SOL    HW221087   3.928   5.842   3.409
 6730SOL     OW21088   1.209   6.691   2.801
 6730SOL    HW121089   1.262   6.708   2.718
 6730SOL    HW221090   1.135   6.627   2.781
 6731SOL     OW21091   1.858   3.963   1.117
 6731SOL    HW121092   1.921   3.969   1.039
 6731SOL    HW221093   1.894   3.898   1.184
 6732SOL     OW21094   3.403   5.829   0.484
 6732SOL    HW121095   3.317   5.862   0.444
 6732SOL    HW221096   3.390   5.736   0.517
 6733SOL     OW21097   6.324   6.052   4.333
 6733SOL    HW121098   6.294   6.131   4.387
 6733SOL    HW221099   6.424   6.049   4.332
 6734SOL     OW21100   2.581   3.720   6.773
 6734SOL    HW121101   2.484   3.700   6.760
 6734SOL    HW221102   2.611   3.786   6.704
 6735SOL     OW21103   0.541   6.632   5.716
 6735SOL    HW121104   0.623   6.635   5.772
 6735SOL    HW221105   0.460   6.621   5.774
 6736SOL     OW21106   2.201   4.406   1.594
 6736SOL    HW121107   2.264   4.475   1.558
 6736SOL    HW221108   2.136   4.450   1.656
 6737SOL     OW21109   1.543   0.330   1.445
 6737SOL    HW121110   1.505   0.419   1.470
 6737SOL    HW221111   1.638   0.325   1.475
 6738SOL     OW21112   5.094   1.698   0.689
 6738SOL    HW121113   5.162   1.677   0.759
 6738SOL    HW221114   5.055   1.788   0.707
 6739SOL     OW21115   3.668   5.362   5.936
 6739SOL    HW121116   3.657   5.461   5.940
 6739SOL    HW221117   3.750   5.339   5.883
 6740SOL     OW21118   5.569   2.396   5.588
 6740SOL    HW121119   5.606   2.304   5.592
 6740SOL    HW221120   5.645   2.462   5.587
 6741SOL     OW21121   0.342   1.009   5.675
 6741SOL    HW121122   0.437   1.032   5.657
 6741SOL    HW221123   0.334   0.911   5.692
 6742SOL     OW21124   5.858   5.837   5.271
 6742SOL    HW121125   5.918   5.912   5.243
 6742SOL    HW221126   5.838   5.846   5.369
 6743SOL     OW21127   5.916   1.920   0.690
 6743SOL    HW121128   6.001   1.970   0.673
 6743SOL    HW221129   5.901   1.913   0.789
 6744SOL     OW21130   4.216   0.680   3.841
 6744SOL    HW121131   4.236   0.766   3.889
 6744SOL    HW221132   4.132   0.640   3.878
 6745SOL     OW21133   0.809   3.919   3.188
 6745SOL    HW121134   0.858   4.003   3.209
 6745SOL    HW221135   0.869   3.857   3.137
 6746SOL     OW21136   6.381   0.196   0.192
 6746SOL    HW121137   6.285   0.167   0.193
 6746SOL    HW221138   6.418   0.192   0.284
 6747SOL     OW21139   4.812   5.373   6.195
 6747SOL    HW121140   4.873   5.452   6.203
 6747SOL    HW221141   4.853   5.305   6.134
 6748SOL     OW21142   6.365   6.726   2.525
 6748SOL    HW121143   6.379   6.689   2.617
 6748SOL    HW221144   6.424   6.806   2.512
 6749SOL     OW21145   2.992   4.922   0.920
 6749SOL    HW121146   3.043   4.944   1.004
 6749SOL    HW221147   2.896   4.905   0.942
 6750SOL     OW21148   2.245   3.265   5.237
 6750SOL    HW121149   2.329   3.243   5.286
 6750SOL    HW221150   2.268   3.309   5.150
 6751SOL     OW21151   4.764   2.607   5.642
 6751SOL    HW121152   4.819   2.624   5.724
 6751SOL    HW221153   4.674   2.572   5.668
 6752SOL     OW21154   6.376   1.240   0.227
 6752SOL    HW121155   6.387   1.181   0.306
 6752SOL    HW221156   6.419   1.329   0.245
 6753SOL     OW21157   5.787   0.603   6.171
 6753SOL    HW121158   5.825   0.632   6.259
 6753SOL    HW221159   5.687   0.597   6.178
 6754SOL     OW21160   3.980   1.476   6.760
 6754SOL    HW121161   4.075   1.499   6.777
 6754SOL    HW221162   3.964   1.468   6.662
 6755SOL     OW21163   5.155   1.617   2.877
 6755SOL    HW121164   5.208   1.583   2.955
 6755SOL    HW221165   5.128   1.712   2.894
 6756SOL     OW21166   4.266   4.937   2.938
 6756SOL    HW121167   4.262   5.013   3.003
 6756SOL    HW221168   4.362   4.921   2.913
 6757SOL     OW21169   6.083   3.861   1.480
 6757SOL    HW121170   6.010   3.882   1.415
 6757SOL    HW221171   6.163   3.828   1.431
 6758SOL     OW21172   6.851   2.149   2.652
 6758SOL    HW121173   6.777   2.119   2.592
 6758SOL    HW221174   6.815   2.213   2.720
 6759SOL     OW21175   0.111   5.447   4.097
 6759SOL    HW121176   0.045   5.486   4.161
 6759SOL    HW221177   0.148   5.520   4.040
 6760SOL     OW21178   0.850   3.690   5.495
 6760SOL    HW121179   0.808   3.760   5.438
 6760SOL    HW221180   0.792   3.673   5.575
 6761SOL     OW21181   6.432   2.863   6.879
 6761SOL    HW121182   6.414   2.768   6.905
 6761SOL    HW221183   6.528   2.872   6.851
 6762SOL     OW21184   0.124   1.832   4.436
 6762SOL    HW121185   0.144   1.921   4.476
 6762SOL    HW221186   0.073   1.845   4.351
 6763SOL     OW21187   5.401   6.428   5.643
 6763SOL    HW121188   5.486   6.407   5.593
 6763SOL    HW221189   5.361   6.344   5.678
 6764SOL     OW21190   1.928   3.782   6.979
 6764SOL    HW121191   1.949   3.880   6.981
 6764SOL    HW221192   1.838   3.766   7.020
 6765SOL     OW21193   4.914   5.455   1.728
 6765SOL    HW121194   4.839   5.515   1.758
 6765SOL    HW221195   4.925   5.381   1.793
 6766SOL     OW21196   2.751   2.170   5.253
 6766SOL    HW121197   2.707   2.144   5.340
 6766SOL    HW221198   2.849   2.185   5.269
 6767SOL     OW21199   0.702   2.759   6.126
 6767SOL    HW121200   0.615   2.734   6.169
 6767SOL    HW221201   0.738   2.842   6.170
 6768SOL     OW21202   6.738   0.463   5.622
 6768SOL    HW121203   6.707   0.533   5.557
 6768SOL    HW221204   6.742   0.375   5.576
 6769SOL     OW21205   1.021   2.371   6.446
 6769SOL    HW121206   0.944   2.309   6.430
 6769SOL    HW221207   1.102   2.337   6.398
 6770SOL     OW21208   0.543   2.279   3.482
 6770SOL    HW121209   0.511   2.268   3.576
 6770SOL    HW221210   0.571   2.190   3.446
 6771SOL     OW21211   5.542   2.181   1.791
 6771SOL    HW121212   5.479   2.105   1.773
 6771SOL    HW221213   5.511   2.262   1.741
 6772SOL     OW21214   1.754   6.814   1.757
 6772SOL    HW121215   1.667   6.768   1.739
 6772SOL    HW221216   1.830   6.753   1.733
 6773SOL     OW21217   1.758   1.517   3.007
 6773SOL    HW121218   1.745   1.459   3.087
 6773SOL    HW221219   1.716   1.607   3.023
 6774SOL     OW21220   3.610   0.872   5.617
 6774SOL    HW121221   3.610   0.794   5.679
 6774SOL    HW221222   3.687   0.865   5.554
 6775SOL     OW21223   1.731   2.827   5.239
 6775SOL    HW121224   1.760   2.921   5.256
 6775SOL    HW221225   1.736   2.807   5.141
 6776SOL     OW21226   3.372   3.292   3.968
 6776SOL    HW121227   3.324   3.211   3.937
 6776SOL    HW221228   3.336   3.373   3.921
 6777SOL     OW21229   6.804   0.193   5.481
 6777SOL    HW121230   6.712   0.186   5.442
 6777SOL    HW221231   6.829   0.106   5.524
 6778SOL     OW21232   6.445   5.655   1.600
 6778SOL    HW121233   6.535   5.694   1.621
 6778SOL    HW221234   6.398   5.633   1.685
 6779SOL     OW21235   6.026   3.150   5.444
 6779SOL    HW121236   6.064   3.072   5.395
 6779SOL    HW221237   5.928   3.159   5.423
 6780SOL     OW21238   4.704   0.771   2.154
 6780SOL    HW121239   4.638   0.709   2.111
 6780SOL    HW221240   4.674   0.793   2.247
 6781SOL     OW21241   5.420   4.026   3.051
 6781SOL    HW121242   5.513   4.010   3.085
 6781SOL    HW221243   5.354   3.992   3.117
 6782SOL     OW21244   6.467   1.780   2.603
 6782SOL    HW121245   6.521   1.737   2.675
 6782SOL    HW221246   6.526   1.800   2.525
 6783SOL     OW21247   0.711   6.723   6.461
 6783SOL    HW121248   0.745   6.640   6.417
 6783SOL    HW221249   0.760   6.738   6.547
 6784SOL     OW21250   1.484   4.676   6.663
 6784SOL    HW121251   1.536   4.591   6.650
 6784SOL    HW221252   1.469   4.720   6.574
 6785SOL     OW21253   5.630   4.365   1.309
 6785SOL    HW121254   5.557   4.358   1.241
 6785SOL    HW221255   5.629   4.284   1.368
 6786SOL     OW21256   6.505   1.234   6.597
 6786SOL    HW121257   6.441   1.197   6.664
 6786SOL    HW221258   6.524   1.166   6.527
 6787SOL     OW21259   4.291   2.471   1.711
 6787SOL    HW121260   4.211   2.507   1.662
 6787SOL    HW221261   4.349   2.421   1.647
 6788SOL     OW21262   1.465   4.398   1.341
 6788SOL    HW121263   1.441   4.494   1.355
 6788SOL    HW221264   1.409   4.360   1.268
 6789SOL     OW21265   5.643   2.782   2.588
 6789SOL    HW121266   5.695   2.723   2.649
 6789SOL    HW221267   5.675   2.770   2.494
 6790SOL     OW21268   1.094   6.059   6.818
 6790SOL    HW121269   1.143   6.109   6.890
 6790SOL    HW221270   1.126   5.965   6.816
 6791SOL     OW21271   2.086   6.472   3.853
 6791SOL    HW121272   2.129   6.549   3.900
 6791SOL    HW221273   1.993   6.460   3.887
 6792SOL     OW21274   3.187   5.919   0.355
 6792SOL    HW121275   3.181   5.842   0.292
 6792SOL    HW221276   3.173   6.004   0.305
 6793SOL     OW21277   1.852   3.245   5.563
 6793SOL    HW121278   1.911   3.302   5.619
 6793SOL    HW221279   1.905   3.170   5.525
 6794SOL     OW21280   4.459   2.446   3.728
 6794SOL    HW121281   4.396   2.428   3.804
 6794SOL    HW221282   4.549   2.408   3.750
 6795SOL     OW21283   0.982   0.210   2.368
 6795SOL    HW121284   0.966   0.289   2.309
 6795SOL    HW221285   0.974   0.126   2.315
 6796SOL     OW21286   5.837   2.205   2.193
 6796SOL    HW121287   5.851   2.110   2.222
 6796SOL    HW221288   5.786   2.206   2.107
 6797SOL     OW21289   1.685   4.285   0.569
 6797SOL    HW121290   1.751   4.287   0.494
 6797SOL    HW221291   1.706   4.210   0.631
 6798SOL     OW21292   5.310   2.172   1.509
 6798SOL    HW121293   5.251   2.124   1.574
 6798SOL    HW221294   5.275   2.265   1.496
 6799SOL     OW21295   4.078   6.583   2.706
 6799SOL    HW121296   4.062   6.536   2.620
 6799SOL    HW221297   4.097   6.516   2.778
 6800SOL     OW21298   6.670   2.681   2.659
 6800SOL    HW121299   6.662   2.581   2.664
 6800SOL    HW221300   6.765   2.705   2.637
 6801SOL     OW21301   2.015   5.190   5.306
 6801SOL    HW121302   2.038   5.203   5.402
 6801SOL    HW221303   2.095   5.155   5.257
 6802SOL     OW21304   2.321   4.309   2.486
 6802SOL    HW121305   2.289   4.283   2.577
 6802SOL    HW221306   2.415   4.343   2.491
 6803SOL     OW21307   6.322   5.443   6.132
 6803SOL    HW121308   6.418   5.435   6.105
 6803SOL    HW221309   6.315   5.424   6.230
 6804SOL     OW21310   3.257   6.082   1.501
 6804SOL    HW121311   3.224   6.022   1.427
 6804SOL    HW221312   3.220   6.050   1.588
 6805SOL     OW21313   0.210   4.236   4.407
 6805SOL    HW121314   0.186   4.154   4.460
 6805SOL    HW221315   0.262   4.208   4.326
 6806SOL     OW21316   5.606   3.427   2.117
 6806SOL    HW121317   5.664   3.434   2.036
 6806SOL    HW221318   5.644   3.484   2.190
 6807SOL     OW21319   4.189   3.651   2.441
 6807SOL    HW121320   4.247   3.605   2.374
 6807SOL    HW221321   4.199   3.608   2.530
 6808SOL     OW21322   2.255   6.343   4.151
 6808SOL    HW121323   2.222   6.289   4.228
 6808SOL    HW221324   2.346   6.310   4.124
 6809SOL     OW21325   6.259   2.589   0.457
 6809SOL    HW121326   6.281   2.574   0.361
 6809SOL    HW221327   6.338   2.566   0.513
 6810SOL     OW21328   3.209   6.987   4.945
 6810SOL    HW121329   3.252   7.014   4.859
 6810SOL    HW221330   3.169   6.895   4.935
 6811SOL     OW21331   6.612   2.051   1.536
 6811SOL    HW121332   6.577   2.141   1.564
 6811SOL    HW221333   6.637   2.054   1.439
 6812SOL     OW21334   3.435   4.613   5.300
 6812SOL    HW121335   3.338   4.596   5.317
 6812SOL    HW221336   3.445   4.677   5.224
 6813SOL     OW21337   0.224   3.404   1.508
 6813SOL    HW121338   0.304   3.393   1.567
 6813SOL    HW221339   0.144   3.364   1.553
 6814SOL     OW21340   4.926   2.183   1.434
 6814SOL    HW121341   4.915   2.209   1.530
 6814SOL    HW221342   4.950   2.086   1.429
 6815SOL     OW21343   1.876   6.148   1.080
 6815SOL    HW121344   1.882   6.084   1.156
 6815SOL    HW221345   1.894   6.241   1.112
 6816SOL     OW21346   5.489   0.273   3.393
 6816SOL    HW121347   5.441   0.322   3.321
 6816SOL    HW221348   5.585   0.300   3.393
 6817SOL     OW21349   6.213   0.966   1.171
 6817SOL    HW121350   6.162   0.882   1.154
 6817SOL    HW221351   6.219   0.982   1.270
 6818SOL     OW21352   6.869   6.685   5.739
 6818SOL    HW121353   6.967   6.666   5.741
 6818SOL    HW221354   6.853   6.773   5.696
 6819SOL     OW21355   6.468   3.902   0.529
 6819SOL    HW121356   6.541   3.872   0.467
 6819SOL    HW221357   6.401   3.955   0.477
 6820SOL     OW21358   2.427   4.507   1.147
 6820SOL    HW121359   2.344   4.519   1.202
 6820SOL    HW221360   2.492   4.450   1.196
 6821SOL     OW21361   2.326   3.742   5.813
 6821SOL    HW121362   2.323   3.655   5.863
 6821SOL    HW221363   2.325   3.723   5.715
 6822SOL     OW21364   0.576   4.363   4.822
 6822SOL    HW121365   0.582   4.399   4.915
 6822SOL    HW221366   0.545   4.268   4.825
 6823SOL     OW21367   6.656   3.247   5.655
 6823SOL    HW121368   6.732   3.212   5.601
 6823SOL    HW221369   6.580   3.183   5.652
 6824SOL     OW21370   1.445   0.692   3.875
 6824SOL    HW121371   1.369   0.642   3.834
 6824SOL    HW221372   1.522   0.630   3.889
 6825SOL     OW21373   4.777   5.196   1.406
 6825SOL    HW121374   4.843   5.122   1.422
 6825SOL    HW221375   4.825   5.277   1.373
 6826SOL     OW21376   5.743   0.823   4.142
 6826SOL    HW121377   5.660   0.770   4.129
 6826SOL    HW221378   5.725   0.919   4.121
 6827SOL     OW21379   5.362   5.087   5.353
 6827SOL    HW121380   5.269   5.123   5.342
 6827SOL    HW221381   5.422   5.129   5.285
 6828SOL     OW21382   2.364   2.054   2.205
 6828SOL    HW121383   2.459   2.028   2.192
 6828SOL    HW221384   2.356   2.154   2.200
 6829SOL     OW21385   5.808   6.256   5.111
 6829SOL    HW121386   5.792   6.214   5.200
 6829SOL    HW221387   5.798   6.186   5.040
 6830SOL     OW21388   3.828   6.540   3.729
 6830SOL    HW121389   3.891   6.486   3.674
 6830SOL    HW221390   3.742   6.490   3.741
 6831SOL     OW21391   1.909   0.285   6.941
 6831SOL    HW121392   1.872   0.217   7.004
 6831SOL    HW221393   1.973   0.241   6.878
 6832SOL     OW21394   3.822   3.818   0.550
 6832SOL    HW121395   3.729   3.782   0.559
 6832SOL    HW221396   3.885   3.759   0.601
 6833SOL     OW21397   4.046   5.369   0.683
 6833SOL    HW121398   4.111   5.414   0.745
 6833SOL    HW221399   4.084   5.367   0.591
 6834SOL     OW21400   6.553   5.705   5.095
 6834SOL    HW121401   6.608   5.664   5.023
 6834SOL    HW221402   6.535   5.638   5.167
 6835SOL     OW21403   3.647   0.528   2.905
 6835SOL    HW121404   3.671   0.621   2.878
 6835SOL    HW221405   3.670   0.514   3.001
 6836SOL     OW21406   0.850   4.460   6.528
 6836SOL    HW121407   0.922   4.399   6.562
 6836SOL    HW221408   0.815   4.516   6.603
 6837SOL     OW21409   5.847   2.335   1.532
 6837SOL    HW121410   5.832   2.320   1.434
 6837SOL    HW221411   5.899   2.259   1.570
 6838SOL     OW21412   2.150   4.871   6.895
 6838SOL    HW121413   2.084   4.893   6.824
 6838SOL    HW221414   2.230   4.931   6.885
 6839SOL     OW21415   6.756   2.601   5.605
 6839SOL    HW121416   6.852   2.575   5.617
 6839SOL    HW221417   6.712   2.605   5.694
 6840SOL     OW21418   3.321   0.427   4.395
 6840SOL    HW121419   3.347   0.505   4.338
 6840SOL    HW221420   3.335   0.343   4.343
 6841SOL     OW21421   5.017   5.961   0.425
 6841SOL    HW121422   4.917   5.966   0.436
 6841SOL    HW221423   5.050   6.046   0.385
 6842SOL     OW21424   7.009   3.330   2.994
 6842SOL    HW121425   0.020   3.424   2.992
 6842SOL    HW221426   6.924   3.326   2.942
 6843SOL     OW21427   4.429   3.006   1.663
 6843SOL    HW121428   4.489   3.009   1.743
 6843SOL    HW221429   4.378   2.920   1.662
 6844SOL     OW21430   3.178   6.454   3.869
 6844SOL    HW121431   3.211   6.385   3.804
 6844SOL    HW221432   3.126   6.409   3.942
 6845SOL     OW21433   4.023   4.276   0.045
 6845SOL    HW121434   3.980   4.366   0.039
 6845SOL    HW221435   3.996   4.232   0.131
 6846SOL     OW21436   3.462   3.428   4.192
 6846SOL    HW121437   3.555   3.459   4.174
 6846SOL    HW221438   3.419   3.398   4.107
 6847SOL     OW21439   5.037   3.588   0.886
 6847SOL    HW121440   5.133   3.586   0.915
 6847SOL    HW221441   5.009   3.682   0.870
 6848SOL     OW21442   1.128   6.392   4.629
 6848SOL    HW121443   1.096   6.299   4.610
 6848SOL    HW221444   1.228   6.393   4.630
 6849SOL     OW21445   2.461   0.579   4.342
 6849SOL    HW121446   2.406   0.504   4.380
 6849SOL    HW221447   2.428   0.666   4.378
 6850SOL     OW21448   6.968   1.980   1.936
 6850SOL    HW121449   6.952   1.888   1.901
 6850SOL    HW221450   6.889   2.038   1.915
 6851SOL     OW21451   2.145   5.450   1.072
 6851SOL    HW121452   2.116   5.366   1.118
 6851SOL    HW221453   2.189   5.511   1.139
 6852SOL     OW21454   4.674   4.680   2.752
 6852SOL    HW121455   4.706   4.661   2.844
 6852SOL    HW221456   4.702   4.606   2.691
 6853SOL     OW21457   5.983   4.400   4.304
 6853SOL    HW121458   5.975   4.481   4.362
 6853SOL    HW221459   5.919   4.330   4.336
 6854SOL     OW21460   6.281   0.776   6.715
 6854SOL    HW121461   6.343   0.700   6.691
 6854SOL    HW221462   6.193   0.739   6.745
 6855SOL     OW21463   2.963   6.936   3.064
 6855SOL    HW121464   2.954   6.853   3.009
 6855SOL    HW221465   3.014   6.915   3.147
 6856SOL     OW21466   0.859   5.299   5.940
 6856SOL    HW121467   0.895   5.217   5.896
 6856SOL    HW221468   0.812   5.273   6.025
 6857SOL     OW21469   4.569   1.224   6.412
 6857SOL    HW121470   4.560   1.136   6.459
 6857SOL    HW221471   4.503   1.229   6.337
 6858SOL     OW21472   3.258   3.109   6.503
 6858SOL    HW121473   3.223   3.185   6.450
 6858SOL    HW221474   3.223   3.023   6.466
 6859SOL     OW21475   4.338   6.854   1.340
 6859SOL    HW121476   4.382   6.926   1.394
 6859SOL    HW221477   4.394   6.837   1.258
 6860SOL     OW21478   4.813   3.273   0.117
 6860SOL    HW121479   4.834   3.226   0.203
 6860SOL    HW221480   4.806   3.372   0.134
 6861SOL     OW21481   6.359   3.595   0.004
 6861SOL    HW121482   6.276   3.570   6.979
 6861SOL    HW221483   6.407   3.667   6.979
 6862SOL     OW21484   2.699   4.672   4.505
 6862SOL    HW121485   2.729   4.693   4.598
 6862SOL    HW221486   2.605   4.637   4.507
 6863SOL     OW21487   1.004   3.991   4.012
 6863SOL    HW121488   1.023   4.044   4.094
 6863SOL    HW221489   1.069   3.916   4.004
 6864SOL     OW21490   2.927   5.580   6.165
 6864SOL    HW121491   2.986   5.548   6.238
 6864SOL    HW221492   2.924   5.511   6.092
 6865SOL     OW21493   0.928   2.464   5.571
 6865SOL    HW121494   0.926   2.412   5.485
 6865SOL    HW221495   0.841   2.452   5.619
 6866SOL     OW21496   0.277   4.161   2.766
 6866SOL    HW121497   0.371   4.185   2.742
 6866SOL    HW221498   0.226   4.245   2.787
 6867SOL     OW21499   2.720   5.549   3.604
 6867SOL    HW121500   2.664   5.628   3.581
 6867SOL    HW221501   2.663   5.467   3.608
 6868SOL     OW21502   2.004   5.795   5.125
 6868SOL    HW121503   2.053   5.714   5.157
 6868SOL    HW221504   1.944   5.828   5.198
 6869SOL     OW21505   0.316   2.593   4.079
 6869SOL    HW121506   0.306   2.602   3.979
 6869SOL    HW221507   0.386   2.524   4.099
 6870SOL     OW21508   4.713   4.096   3.000
 6870SOL    HW121509   4.739   4.128   2.909
 6870SOL    HW221510   4.715   3.996   3.002
 6871SOL     OW21511   4.125   6.015   2.169
 6871SOL    HW121512   4.209   6.069   2.173
 6871SOL    HW221513   4.128   5.942   2.238
 6872SOL     OW21514   3.169   4.142   0.977
 6872SOL    HW121515   3.134   4.211   0.915
 6872SOL    HW221516   3.269   4.136   0.969
 6873SOL     OW21517   4.590   4.626   5.121
 6873SOL    HW121518   4.543   4.578   5.047
 6873SOL    HW221519   4.680   4.584   5.137
 6874SOL     OW21520   1.369   1.430   6.372
 6874SOL    HW121521   1.463   1.421   6.405
 6874SOL    HW221522   1.328   1.513   6.410
 6875SOL     OW21523   3.757   6.564   5.004
 6875SOL    HW121524   3.800   6.616   5.078
 6875SOL    HW221525   3.822   6.497   4.968
 6876SOL     OW21526   2.824   6.754   5.002
 6876SOL    HW121527   2.876   6.788   5.080
 6876SOL    HW221528   2.887   6.714   4.936
 6877SOL     OW21529   2.041   4.383   0.772
 6877SOL    HW121530   2.016   4.288   0.791
 6877SOL    HW221531   2.118   4.410   0.830
 6878SOL     OW21532   2.044   1.699   5.104
 6878SOL    HW121533   2.026   1.690   5.202
 6878SOL    HW221534   2.128   1.751   5.090
 6879SOL     OW21535   6.433   1.293   6.001
 6879SOL    HW121536   6.525   1.302   6.040
 6879SOL    HW221537   6.438   1.238   5.917
 6880SOL     OW21538   1.108   4.944   4.511
 6880SOL    HW121539   1.187   4.991   4.549
 6880SOL    HW221540   1.083   4.868   4.571
 6881SOL     OW21541   4.895   6.426   1.380
 6881SOL    HW121542   4.813   6.394   1.428
 6881SOL    HW221543   4.871   6.498   1.316
 6882SOL     OW21544   2.745   5.741   5.235
 6882SOL    HW121545   2.669   5.789   5.190
 6882SOL    HW221546   2.758   5.777   5.327
 6883SOL     OW21547   2.637   6.927   2.279
 6883SOL    HW121548   2.672   6.850   2.334
 6883SOL    HW221549   2.555   6.898   2.230
 6884SOL     OW21550   1.659   5.195   3.078
 6884SOL    HW121551   1.658   5.134   3.158
 6884SOL    HW221552   1.675   5.141   2.996
 6885SOL     OW21553   4.437   4.786   4.609
 6885SOL    HW121554   4.343   4.799   4.640
 6885SOL    HW221555   4.495   4.764   4.687
 6886SOL     OW21556   5.373   6.585   0.912
 6886SOL    HW121557   5.293   6.595   0.853
 6886SOL    HW221558   5.394   6.488   0.925
 6887SOL     OW21559   0.107   0.666   4.817
 6887SOL    HW121560   0.089   0.690   4.722
 6887SOL    HW221561   0.183   0.721   4.852
 6888SOL     OW21562   6.697   6.455   3.926
 6888SOL    HW121563   6.600   6.435   3.941
 6888SOL    HW221564   6.725   6.531   3.984
 6889SOL     OW21565   2.027   4.023   6.352
 6889SOL    HW121566   2.060   4.095   6.292
 6889SOL    HW221567   2.105   3.971   6.388
 6890SOL     OW21568   1.339   0.517   1.492
 6890SOL    HW121569   1.278   0.476   1.425
 6890SOL    HW221570   1.285   0.553   1.569
 6891SOL     OW21571   5.044   5.330   5.659
 6891SOL    HW121572   5.025   5.349   5.562
 6891SOL    HW221573   5.059   5.232   5.671
 6892SOL     OW21574   2.811   2.012   4.061
 6892SOL    HW121575   2.843   2.105   4.043
 6892SOL    HW221576   2.810   1.995   4.159
 6893SOL     OW21577   5.115   0.156   0.851
 6893SOL    HW121578   5.074   0.189   0.765
 6893SOL    HW221579   5.047   0.102   0.901
 6894SOL     OW21580   5.567   4.344   5.345
 6894SOL    HW121581   5.566   4.428   5.291
 6894SOL    HW221582   5.614   4.360   5.432
 6895SOL     OW21583   5.053   4.861   4.191
 6895SOL    HW121584   5.139   4.817   4.164
 6895SOL    HW221585   5.038   4.845   4.289
 6896SOL     OW21586   5.017   1.891   2.237
 6896SOL    HW121587   5.019   1.990   2.231
 6896SOL    HW221588   4.974   1.864   2.323
 6897SOL     OW21589   4.414   1.520   1.380
 6897SOL    HW121590   4.510   1.495   1.395
 6897SOL    HW221591   4.359   1.436   1.376
 6898SOL     OW21592   4.185   1.542   1.592
 6898SOL    HW121593   4.258   1.545   1.525
 6898SOL    HW221594   4.109   1.487   1.556
 6899SOL     OW21595   5.400   4.634   5.834
 6899SOL    HW121596   5.306   4.602   5.845
 6899SOL    HW221597   5.461   4.582   5.893
 6900SOL     OW21598   4.189   0.424   5.807
 6900SOL    HW121599   4.177   0.417   5.906
 6900SOL    HW221600   4.205   0.332   5.769
 6901SOL     OW21601   1.502   0.944   0.158
 6901SOL    HW121602   1.502   0.963   0.060
 6901SOL    HW221603   1.426   0.992   0.201
 6902SOL     OW21604   6.478   5.017   2.718
 6902SOL    HW121605   6.547   5.089   2.716
 6902SOL    HW221606   6.522   4.928   2.706
 6903SOL     OW21607   6.202   4.611   0.147
 6903SOL    HW121608   6.178   4.578   0.238
 6903SOL    HW221609   6.301   4.612   0.137
 6904SOL     OW21610   0.841   1.116   2.397
 6904SOL    HW121611   0.888   1.076   2.476
 6904SOL    HW221612   0.809   1.043   2.337
 6905SOL     OW21613   3.422   5.257   0.509
 6905SOL    HW121614   3.505   5.289   0.554
 6905SOL    HW221615   3.353   5.235   0.577
 6906SOL     OW21616   5.741   6.291   2.547
 6906SOL    HW121617   5.804   6.340   2.607
 6906SOL    HW221618   5.666   6.253   2.601
 6907SOL     OW21619   3.691   1.092   1.657
 6907SOL    HW121620   3.694   0.996   1.629
 6907SOL    HW221621   3.778   1.136   1.631
 6908SOL     OW21622   5.451   6.956   0.043
 6908SOL    HW121623   5.470   6.998   0.132
 6908SOL    HW221624   5.368   6.901   0.049
 6909SOL     OW21625   2.550   2.298   7.003
 6909SOL    HW121626   2.526   2.225   6.940
 6909SOL    HW221627   2.581   2.378   6.952
 6910SOL     OW21628   4.203   0.940   0.668
 6910SOL    HW121629   4.241   0.918   0.758
 6910SOL    HW221630   4.115   0.987   0.679
 6911SOL     OW21631   3.759   6.494   5.773
 6911SOL    HW121632   3.669   6.521   5.808
 6911SOL    HW221633   3.748   6.457   5.680
 6912SOL     OW21634   3.344   5.706   1.722
 6912SOL    HW121635   3.377   5.613   1.705
 6912SOL    HW221636   3.343   5.723   1.821
 6913SOL     OW21637   3.792   5.857   5.966
 6913SOL    HW121638   3.715   5.796   5.943
 6913SOL    HW221639   3.785   5.885   6.061
 6914SOL     OW21640   0.137   5.189   6.865
 6914SOL    HW121641   0.204   5.118   6.887
 6914SOL    HW221642   0.096   5.224   6.949
 6915SOL     OW21643   0.875   0.010   6.727
 6915SOL    HW121644   0.841   0.070   6.799
 6915SOL    HW221645   0.884   0.062   6.642
 6916SOL     OW21646   6.200   0.550   6.468
 6916SOL    HW121647   6.280   0.583   6.518
 6916SOL    HW221648   6.125   0.532   6.533
 6917SOL     OW21649   4.240   5.947   6.323
 6917SOL    HW121650   4.202   6.006   6.395
 6917SOL    HW221651   4.184   5.954   6.241
 6918SOL     OW21652   1.742   2.498   3.884
 6918SOL    HW121653   1.712   2.560   3.811
 6918SOL    HW221654   1.784   2.551   3.958
 6919SOL     OW21655   1.964   5.730   3.604
 6919SOL    HW121656   2.015   5.782   3.673
 6919SOL    HW221657   2.003   5.638   3.597
 6920SOL     OW21658   5.744   5.825   4.155
 6920SOL    HW121659   5.828   5.796   4.201
 6920SOL    HW221660   5.766   5.889   4.082
 6921SOL     OW21661   1.697   4.844   2.580
 6921SOL    HW121662   1.638   4.908   2.627
 6921SOL    HW221663   1.730   4.775   2.645
 6922SOL     OW21664   1.737   6.427   1.633
 6922SOL    HW121665   1.696   6.403   1.545
 6922SOL    HW221666   1.776   6.345   1.674
 6923SOL     OW21667   5.096   5.615   4.783
 6923SOL    HW121668   5.191   5.601   4.810
 6923SOL    HW221669   5.092   5.670   4.700
 6924SOL     OW21670   5.574   5.889   2.693
 6924SOL    HW121671   5.576   5.989   2.694
 6924SOL    HW221672   5.537   5.855   2.779
 6925SOL     OW21673   4.331   5.695   2.100
 6925SOL    HW121674   4.280   5.611   2.083
 6925SOL    HW221675   4.319   5.722   2.196
 6926SOL     OW21676   2.605   4.119   5.512
 6926SOL    HW121677   2.632   4.040   5.457
 6926SOL    HW221678   2.515   4.151   5.482
 6927SOL     OW21679   4.341   3.720   0.409
 6927SOL    HW121680   4.374   3.637   0.453
 6927SOL    HW221681   4.396   3.737   0.327
 6928SOL     OW21682   6.721   0.280   6.627
 6928SOL    HW121683   6.804   0.326   6.657
 6928SOL    HW221684   6.642   0.319   6.674
 6929SOL     OW21685   4.045   6.234   1.205
 6929SOL    HW121686   4.025   6.332   1.199
 6929SOL    HW221687   4.143   6.221   1.217
 6930SOL     OW21688   0.101   0.735   3.402
 6930SOL    HW121689   0.111   0.654   3.344
 6930SOL    HW221690   0.149   0.812   3.359
 6931SOL     OW21691   2.382   6.882   1.132
 6931SOL    HW121692   2.352   6.932   1.050
 6931SOL    HW221693   2.350   6.787   1.127
 6932SOL     OW21694   3.258   2.956   0.410
 6932SOL    HW121695   3.280   3.039   0.359
 6932SOL    HW221696   3.181   2.909   0.365
 6933SOL     OW21697   3.047   6.257   5.064
 6933SOL    HW121698   3.022   6.293   5.153
 6933SOL    HW221699   3.094   6.328   5.011
 6934SOL     OW21700   5.342   5.071   6.797
 6934SOL    HW121701   5.388   5.067   6.885
 6934SOL    HW221702   5.278   4.995   6.789
 6935SOL     OW21703   4.423   5.542   3.262
 6935SOL    HW121704   4.475   5.548   3.347
 6935SOL    HW221705   4.432   5.450   3.224
 6936SOL     OW21706   1.142   4.765   0.493
 6936SOL    HW121707   1.080   4.733   0.421
 6936SOL    HW221708   1.220   4.703   0.499
 6937SOL     OW21709   4.162   5.880   6.746
 6937SOL    HW121710   4.139   5.937   6.667
 6937SOL    HW221711   4.118   5.916   6.828
 6938SOL     OW21712   6.541   2.087   5.289
 6938SOL    HW121713   6.500   2.035   5.215
 6938SOL    HW221714   6.551   2.029   5.370
 6939SOL     OW21715   6.394   4.571   1.603
 6939SOL    HW121716   6.318   4.627   1.570
 6939SOL    HW221717   6.393   4.482   1.557
 6940SOL     OW21718   3.964   0.598   3.961
 6940SOL    HW121719   3.947   0.508   4.000
 6940SOL    HW221720   3.930   0.601   3.867
 6941SOL     OW21721   3.558   2.965   5.151
 6941SOL    HW121722   3.474   2.935   5.106
 6941SOL    HW221723   3.590   2.893   5.213
 6942SOL     OW21724   6.297   1.490   6.144
 6942SOL    HW121725   6.244   1.431   6.205
 6942SOL    HW221726   6.341   1.434   6.074
 6943SOL     OW21727   6.091   3.995   0.100
 6943SOL    HW121728   6.035   4.064   0.145
 6943SOL    HW221729   6.132   3.935   0.169
 6944SOL     OW21730   2.160   0.162   0.011
 6944SOL    HW121731   2.102   0.242   7.019
 6944SOL    HW221732   2.256   0.186   7.016
 6945SOL     OW21733   3.546   1.612   6.986
 6945SOL    HW121734   3.547   1.673   0.041
 6945SOL    HW221735   3.522   1.519   7.015
 6946SOL     OW21736   6.209   3.984   2.377
 6946SOL    HW121737   6.127   4.039   2.360
 6946SOL    HW221738   6.182   3.891   2.402
 6947SOL     OW21739   3.839   6.890   0.939
 6947SOL    HW121740   3.893   6.958   0.989
 6947SOL    HW221741   3.748   6.926   0.922
 6948SOL     OW21742   3.468   1.764   6.027
 6948SOL    HW121743   3.535   1.835   6.051
 6948SOL    HW221744   3.381   1.785   6.070
 6949SOL     OW21745   5.232   7.010   2.468
 6949SOL    HW121746   5.188   6.929   2.506
 6949SOL    HW221747   5.191   0.007   2.379
 6950SOL     OW21748   3.280   1.802   3.330
 6950SOL    HW121749   3.252   1.890   3.292
 6950SOL    HW221750   3.246   1.794   3.424
 6951SOL     OW21751   4.441   3.632   5.651
 6951SOL    HW121752   4.348   3.614   5.619
 6951SOL    HW221753   4.505   3.624   5.575
 6952SOL     OW21754   0.510   3.524   6.333
 6952SOL    HW121755   0.433   3.542   6.272
 6952SOL    HW221756   0.572   3.602   6.333
 6953SOL     OW21757   5.916   2.459   4.956
 6953SOL    HW121758   5.865   2.533   4.999
 6953SOL    HW221759   5.884   2.371   4.991
 6954SOL     OW21760   0.075   4.622   1.937
 6954SOL    HW121761   0.014   4.573   1.874
 6954SOL    HW221762   0.162   4.574   1.943
 6955SOL     OW21763   0.405   0.762   3.620
 6955SOL    HW121764   0.369   0.674   3.589
 6955SOL    HW221765   0.348   0.797   3.694
 6956SOL     OW21766   3.646   4.263   1.480
 6956SOL    HW121767   3.623   4.314   1.563
 6956SOL    HW221768   3.739   4.227   1.489
 6957SOL     OW21769   1.607   4.451   0.886
 6957SOL    HW121770   1.654   4.390   0.950
 6957SOL    HW221771   1.626   4.546   0.911
 6958SOL     OW21772   1.921   3.415   5.781
 6958SOL    HW121773   1.896   3.451   5.871
 6958SOL    HW221774   1.968   3.485   5.729
 6959SOL     OW21775   4.005   1.180   5.046
 6959SOL    HW121776   3.905   1.185   5.044
 6959SOL    HW221777   4.038   1.209   5.136
 6960SOL     OW21778   1.287   5.735   6.335
 6960SOL    HW121779   1.230   5.794   6.393
 6960SOL    HW221780   1.355   5.791   6.288
 6961SOL     OW21781   5.819   0.749   3.748
 6961SOL    HW121782   5.864   0.681   3.806
 6961SOL    HW221783   5.789   0.706   3.663
 6962SOL     OW21784   3.548   3.404   1.069
 6962SOL    HW121785   3.595   3.426   1.155
 6962SOL    HW221786   3.610   3.416   0.992
 6963SOL     OW21787   6.482   6.061   1.704
 6963SOL    HW121788   6.487   6.152   1.662
 6963SOL    HW221789   6.439   5.997   1.641
 6964SOL     OW21790   3.682   4.973   5.802
 6964SOL    HW121791   3.606   5.034   5.821
 6964SOL    HW221792   3.765   5.007   5.847
 6965SOL     OW21793   6.462   0.939   6.011
 6965SOL    HW121794   6.444   0.848   5.974
 6965SOL    HW221795   6.477   0.933   6.110
 6966SOL     OW21796   4.225   2.263   3.555
 6966SOL    HW121797   4.312   2.239   3.511
 6966SOL    HW221798   4.243   2.314   3.639
 6967SOL     OW21799   2.780   2.960   6.469
 6967SOL    HW121800   2.692   2.977   6.514
 6967SOL    HW221801   2.835   2.898   6.524
 6968SOL     OW21802   3.546   0.832   3.083
 6968SOL    HW121803   3.576   0.924   3.109
 6968SOL    HW221804   3.526   0.779   3.165
 6969SOL     OW21805   3.761   3.290   1.890
 6969SOL    HW121806   3.672   3.337   1.894
 6969SOL    HW221807   3.747   3.192   1.902
 6970SOL     OW21808   5.104   4.302   0.180
 6970SOL    HW121809   5.143   4.300   0.088
 6970SOL    HW221810   5.041   4.225   0.191
 6971SOL     OW21811   5.806   1.703   2.203
 6971SOL    HW121812   5.748   1.758   2.143
 6971SOL    HW221813   5.809   1.609   2.169
 6972SOL     OW21814   5.038   5.820   4.602
 6972SOL    HW121815   5.069   5.885   4.532
 6972SOL    HW221816   4.940   5.803   4.590
 6973SOL     OW21817   1.695   4.314   2.897
 6973SOL    HW121818   1.643   4.281   2.819
 6973SOL    HW221819   1.791   4.289   2.887
 6974SOL     OW21820   2.825   3.826   5.139
 6974SOL    HW121821   2.768   3.835   5.057
 6974SOL    HW221822   2.919   3.852   5.117
 6975SOL     OW21823   1.781   6.699   6.820
 6975SOL    HW121824   1.830   6.724   6.904
 6975SOL    HW221825   1.796   6.601   6.802
 6976SOL     OW21826   1.123   5.980   1.409
 6976SOL    HW121827   1.160   6.010   1.321
 6976SOL    HW221828   1.181   5.908   1.447
 6977SOL     OW21829   5.670   2.571   1.037
 6977SOL    HW121830   5.655   2.657   0.988
 6977SOL    HW221831   5.599   2.505   1.012
 6978SOL     OW21832   5.160   2.589   3.350
 6978SOL    HW121833   5.219   2.616   3.425
 6978SOL    HW221834   5.121   2.499   3.368
 6979SOL     OW21835   7.018   3.669   4.607
 6979SOL    HW121836   6.996   3.755   4.561
 6979SOL    HW221837   0.079   3.679   4.658
 6980SOL     OW21838   4.756   2.091   4.781
 6980SOL    HW121839   4.690   2.076   4.855
 6980SOL    HW221840   4.726   2.041   4.700
 6981SOL     OW21841   3.202   3.527   6.243
 6981SOL    HW121842   3.226   3.479   6.158
 6981SOL    HW221843   3.260   3.608   6.253
 6982SOL     OW21844   1.141   0.224   4.604
 6982SOL    HW121845   1.219   0.250   4.660
 6982SOL    HW221846   1.148   0.127   4.579
 6983SOL     OW21847   6.221   1.007   2.921
 6983SOL    HW121848   6.286   1.016   2.845
 6983SOL    HW221849   6.134   1.049   2.895
 6984SOL     OW21850   2.276   1.065   6.641
 6984SOL    HW121851   2.253   1.131   6.712
 6984SOL    HW221852   2.249   0.974   6.670
 6985SOL     OW21853   4.445   6.998   3.982
 6985SOL    HW121854   4.513   6.950   4.037
 6985SOL    HW221855   4.418   0.058   4.029
 6986SOL     OW21856   2.522   6.218   5.338
 6986SOL    HW121857   2.475   6.166   5.410
 6986SOL    HW221858   2.482   6.309   5.331
 6987SOL     OW21859   6.844   3.358   6.187
 6987SOL    HW121860   6.861   3.337   6.090
 6987SOL    HW221861   6.752   3.395   6.197
 6988SOL     OW21862   5.476   1.742   6.791
 6988SOL    HW121863   5.417   1.748   6.711
 6988SOL    HW221864   5.422   1.757   6.874
 6989SOL     OW21865   2.167   3.545   4.509
 6989SOL    HW121866   2.147   3.495   4.594
 6989SOL    HW221867   2.086   3.597   4.482
 6990SOL     OW21868   4.186   3.384   1.845
 6990SOL    HW121869   4.213   3.479   1.829
 6990SOL    HW221870   4.196   3.332   1.760
 6991SOL     OW21871   4.597   4.796   5.389
 6991SOL    HW121872   4.649   4.850   5.456
 6991SOL    HW221873   4.612   4.833   5.297
 6992SOL     OW21874   6.533   6.695   5.127
 6992SOL    HW121875   6.557   6.703   5.224
 6992SOL    HW221876   6.460   6.759   5.104
 6993SOL     OW21877   0.425   0.321   2.951
 6993SOL    HW121878   0.339   0.283   2.916
 6993SOL    HW221879   0.463   0.384   2.884
 6994SOL     OW21880   2.031   2.232   0.393
 6994SOL    HW121881   2.084   2.163   0.342
 6994SOL    HW221882   1.935   2.204   0.396
 6995SOL     OW21883   0.972   5.472   3.604
 6995SOL    HW121884   1.035   5.413   3.553
 6995SOL    HW221885   1.003   5.479   3.699
 6996SOL     OW21886   1.776   7.004   5.013
 6996SOL    HW121887   1.856   0.031   4.983
 6996SOL    HW221888   1.702   0.042   5.038
 6997SOL     OW21889   4.643   5.061   4.479
 6997SOL    HW121890   4.549   5.085   4.507
 6997SOL    HW221891   4.693   5.144   4.458
 6998SOL     OW21892   2.760   1.930   1.983
 6998SOL    HW121893   2.699   1.974   1.917
 6998SOL    HW221894   2.832   1.994   2.010
 6999SOL     OW21895   5.652   1.989   6.990
 6999SOL    HW121896   5.552   1.982   6.984
 6999SOL    HW221897   5.686   2.045   6.914
 7000SOL     OW21898   6.736   0.085   1.895
 7000SOL    HW121899   6.653   0.130   1.861
 7000SOL    HW221900   6.799   0.070   1.819
 7001SOL     OW21901   2.566   1.483   6.828
 7001SOL    HW121902   2.650   1.522   6.865
 7001SOL    HW221903   2.545   1.398   6.876
 7002SOL     OW21904   2.757   5.494   1.383
 7002SOL    HW121905   2.823   5.519   1.312
 7002SOL    HW221906   2.797   5.427   1.445
 7003SOL     OW21907   1.589   6.210   6.087
 7003SOL    HW121908   1.626   6.163   6.007
 7003SOL    HW221909   1.508   6.263   6.060
 7004SOL     OW21910   2.247   3.872   6.417
 7004SOL    HW121911   2.272   3.896   6.510
 7004SOL    HW221912   2.330   3.871   6.360
 7005SOL     OW21913   6.405   0.691   5.659
 7005SOL    HW121914   6.332   0.730   5.603
 7005SOL    HW221915   6.431   0.601   5.623
 7006SOL     OW21916   5.133   5.609   4.015
 7006SOL    HW121917   5.091   5.556   3.942
 7006SOL    HW221918   5.214   5.656   3.980
 7007SOL     OW21919   5.397   4.989   1.178
 7007SOL    HW121920   5.446   5.047   1.113
 7007SOL    HW221921   5.411   5.023   1.271
 7008SOL     OW21922   0.769   6.489   3.862
 7008SOL    HW121923   0.845   6.427   3.844
 7008SOL    HW221924   0.723   6.462   3.946
 7009SOL     OW21925   0.006   4.281   1.292
 7009SOL    HW121926   0.097   4.261   1.256
 7009SOL    HW221927   6.986   4.350   1.234
 7010SOL     OW21928   5.133   4.086   5.962
 7010SOL    HW121929   5.180   4.173   5.974
 7010SOL    HW221930   5.066   4.094   5.888
 7011SOL     OW21931   1.232   0.089   5.714
 7011SOL    HW121932   1.173   0.034   5.772
 7011SOL    HW221933   1.219   0.186   5.735
 7012SOL     OW21934   0.455   0.584   1.741
 7012SOL    HW121935   0.446   0.624   1.650
 7012SOL    HW221936   0.380   0.519   1.756
 7013SOL     OW21937   6.232   2.144   1.426
 7013SOL    HW121938   6.315   2.199   1.436
 7013SOL    HW221939   6.173   2.185   1.356
 7014SOL     OW21940   2.486   5.204   0.951
 7014SOL    HW121941   2.425   5.280   0.927
 7014SOL    HW221942   2.452   5.120   0.909
 7015SOL     OW21943   4.726   2.204   2.168
 7015SOL    HW121944   4.638   2.233   2.131
 7015SOL    HW221945   4.785   2.284   2.178
 7016SOL     OW21946   5.265   4.624   0.535
 7016SOL    HW121947   5.260   4.609   0.436
 7016SOL    HW221948   5.274   4.722   0.554
 7017SOL     OW21949   5.233   2.320   5.345
 7017SOL    HW121950   5.318   2.268   5.343
 7017SOL    HW221951   5.156   2.257   5.357
 7018SOL     OW21952   0.633   4.241   3.137
 7018SOL    HW121953   0.583   4.199   3.061
 7018SOL    HW221954   0.604   4.199   3.223
 7019SOL     OW21955   6.607   6.320   2.437
 7019SOL    HW121956   6.663   6.275   2.368
 7019SOL    HW221957   6.571   6.406   2.401
 7020SOL     OW21958   6.876   5.701   6.996
 7020SOL    HW121959   6.921   5.622   0.011
 7020SOL    HW221960   6.805   5.734   0.033
 7021SOL     OW21961   3.145   6.735   5.444
 7021SOL    HW121962   3.068   6.789   5.477
 7021SOL    HW221963   3.163   6.759   5.348
 7022SOL     OW21964   3.509   4.597   5.746
 7022SOL    HW121965   3.468   4.526   5.689
 7022SOL    HW221966   3.537   4.674   5.689
 7023SOL     OW21967   4.870   5.368   2.210
 7023SOL    HW121968   4.895   5.464   2.205
 7023SOL    HW221969   4.887   5.324   2.122
 7024SOL     OW21970   6.065   6.971   2.140
 7024SOL    HW121971   6.138   0.011   2.164
 7024SOL    HW221972   6.099   6.877   2.146
 7025SOL     OW21973   3.114   0.150   1.408
 7025SOL    HW121974   3.062   0.127   1.326
 7025SOL    HW221975   3.082   0.094   1.485
 7026SOL     OW21976   4.576   2.584   0.564
 7026SOL    HW121977   4.647   2.605   0.496
 7026SOL    HW221978   4.532   2.498   0.541
 7027SOL     OW21979   5.824   5.761   5.021
 7027SOL    HW121980   5.843   5.769   5.119
 7027SOL    HW221981   5.852   5.671   4.988
 7028SOL     OW21982   3.221   0.627   4.786
 7028SOL    HW121983   3.205   0.577   4.872
 7028SOL    HW221984   3.150   0.697   4.775
 7029SOL     OW21985   3.567   0.111   4.069
 7029SOL    HW121986   3.649   0.115   4.127
 7029SOL    HW221987   3.526   0.021   4.076
 7030SOL     OW21988   1.182   3.774   3.970
 7030SOL    HW121989   1.225   3.785   4.060
 7030SOL    HW221990   1.251   3.788   3.899
 7031SOL     OW21991   1.886   0.764   4.303
 7031SOL    HW121992   1.795   0.743   4.266
 7031SOL    HW221993   1.937   0.819   4.237
 7032SOL     OW21994   6.013   2.396   3.623
 7032SOL    HW121995   6.043   2.477   3.573
 7032SOL    HW221996   5.928   2.416   3.672
 7033SOL     OW21997   0.211   1.057   5.010
 7033SOL    HW121998   0.211   0.988   4.938
 7033SOL    HW221999   0.123   1.057   5.056
 7034SOL     OW22000   0.122   4.974   4.011
 7034SOL    HW122001   0.029   4.973   3.975
 7034SOL    HW222002   0.127   5.039   4.088
 7035SOL     OW22003   6.792   4.794   1.188
 7035SOL    HW122004   6.769   4.771   1.283
 7035SOL    HW222005   6.798   4.893   1.179
 7036SOL     OW22006   6.494   5.596   0.382
 7036SOL    HW122007   6.464   5.522   0.322
 7036SOL    HW222008   6.513   5.560   0.473
 7037SOL     OW22009   1.214   0.493   6.456
 7037SOL    HW122010   1.217   0.512   6.554
 7037SOL    HW222011   1.286   0.545   6.409
 7038SOL     OW22012   2.390   2.689   4.361
 7038SOL    HW122013   2.358   2.777   4.397
 7038SOL    HW222014   2.487   2.697   4.338
 7039SOL     OW22015   3.884   2.042   6.503
 7039SOL    HW122016   3.924   2.098   6.576
 7039SOL    HW222017   3.785   2.056   6.501
 7040SOL     OW22018   6.692   2.066   6.686
 7040SOL    HW122019   6.596   2.038   6.696
 7040SOL    HW222020   6.714   2.076   6.589
 7041SOL     OW22021   2.016   1.537   3.533
 7041SOL    HW122022   2.018   1.453   3.479
 7041SOL    HW222023   1.994   1.615   3.474
 7042SOL     OW22024   1.976   1.053   7.023
 7042SOL    HW122025   1.893   1.104   6.999
 7042SOL    HW222026   1.989   1.054   0.098
 7043SOL     OW22027   1.745   2.869   1.344
 7043SOL    HW122028   1.647   2.857   1.330
 7043SOL    HW222029   1.796   2.810   1.281
 7044SOL     OW22030   0.257   5.852   0.801
 7044SOL    HW122031   0.309   5.865   0.717
 7044SOL    HW222032   0.176   5.911   0.800
 7045SOL     OW22033   0.285   4.621   0.217
 7045SOL    HW122034   0.226   4.691   0.259
 7045SOL    HW222035   0.243   4.531   0.229
 7046SOL     OW22036   2.592   2.123   3.686
 7046SOL    HW122037   2.690   2.134   3.672
 7046SOL    HW222038   2.574   2.102   3.782
 7047SOL     OW22039   1.086   6.753   3.344
 7047SOL    HW122040   1.154   6.774   3.273
 7047SOL    HW222041   1.113   6.670   3.392
 7048SOL     OW22042   0.313   5.726   6.897
 7048SOL    HW122043   0.367   5.675   6.965
 7048SOL    HW222044   0.350   5.709   6.806
 7049SOL     OW22045   2.547   1.397   6.584
 7049SOL    HW122046   2.552   1.445   6.672
 7049SOL    HW222047   2.623   1.427   6.526
 7050SOL     OW22048   3.496   3.442   5.774
 7050SOL    HW122049   3.500   3.379   5.852
 7050SOL    HW222050   3.426   3.411   5.709
 7051SOL     OW22051   5.660   6.057   2.193
 7051SOL    HW122052   5.704   5.993   2.131
 7051SOL    HW222053   5.561   6.059   2.175
 7052SOL     OW22054   6.328   0.728   4.742
 7052SOL    HW122055   6.278   0.686   4.818
 7052SOL    HW222056   6.410   0.774   4.777
 7053SOL     OW22057   6.256   3.423   6.266
 7053SOL    HW122058   6.174   3.410   6.321
 7053SOL    HW222059   6.265   3.519   6.240
 7054SOL     OW22060   5.912   2.371   2.667
 7054SOL    HW122061   5.870   2.361   2.576
 7054SOL    HW222062   5.951   2.462   2.676
 7055SOL     OW22063   4.283   1.664   3.307
 7055SOL    HW122064   4.371   1.696   3.343
 7055SOL    HW222065   4.209   1.715   3.350
 7056SOL     OW22066   4.844   5.727   4.979
 7056SOL    HW122067   4.795   5.785   4.915
 7056SOL    HW222068   4.910   5.670   4.930
 7057SOL     OW22069   5.926   6.318   2.764
 7057SOL    HW122070   5.977   6.232   2.763
 7057SOL    HW222071   5.933   6.359   2.855
 7058SOL     OW22072   6.863   3.886   4.772
 7058SOL    HW122073   6.893   3.884   4.677
 7058SOL    HW222074   6.916   3.955   4.822
 7059SOL     OW22075   1.469   0.414   1.944
 7059SOL    HW122076   1.527   0.466   1.881
 7059SOL    HW222077   1.374   0.439   1.930
 7060SOL     OW22078   4.149   0.255   1.465
 7060SOL    HW122079   4.124   0.160   1.447
 7060SOL    HW222080   4.178   0.298   1.379
 7061SOL     OW22081   0.901   1.651   2.698
 7061SOL    HW122082   0.854   1.574   2.656
 7061SOL    HW222083   0.867   1.666   2.791
 7062SOL     OW22084   6.435   1.166   5.742
 7062SOL    HW122085   6.439   1.203   5.649
 7062SOL    HW222086   6.386   1.079   5.741
 7063SOL     OW22087   1.919   6.610   1.731
 7063SOL    HW122088   2.010   6.573   1.710
 7063SOL    HW222089   1.850   6.541   1.711
 7064SOL     OW22090   3.351   2.918   0.676
 7064SOL    HW122091   3.291   2.964   0.741
 7064SOL    HW222092   3.317   2.933   0.583
 7065SOL     OW22093   3.300   3.545   2.374
 7065SOL    HW122094   3.238   3.619   2.399
 7065SOL    HW222095   3.361   3.525   2.451
 7066SOL     OW22096   2.470   4.777   1.748
 7066SOL    HW122097   2.432   4.868   1.768
 7066SOL    HW222098   2.567   4.776   1.769
 7067SOL     OW22099   1.131   4.101   4.725
 7067SOL    HW122100   1.082   4.113   4.812
 7067SOL    HW222101   1.098   4.018   4.680
 7068SOL     OW22102   0.932   1.149   2.942
 7068SOL    HW122103   0.923   1.218   3.014
 7068SOL    HW222104   0.967   1.064   2.982
 7069SOL     OW22105   1.792   4.268   5.267
 7069SOL    HW122106   1.797   4.366   5.251
 7069SOL    HW222107   1.853   4.243   5.342
 7070SOL     OW22108   5.640   5.536   2.802
 7070SOL    HW122109   5.729   5.520   2.759
 7070SOL    HW222110   5.640   5.495   2.893
 7071SOL     OW22111   1.754   6.635   5.678
 7071SOL    HW122112   1.847   6.673   5.684
 7071SOL    HW222113   1.691   6.707   5.648
 7072SOL     OW22114   0.099   0.170   6.524
 7072SOL    HW122115   0.035   0.152   6.600
 7072SOL    HW222116   0.051   0.223   6.453
 7073SOL     OW22117   2.135   2.435   0.052
 7073SOL    HW122118   2.103   2.390   6.993
 7073SOL    HW222119   2.169   2.526   0.031
 7074SOL     OW22120   3.768   1.301   6.615
 7074SOL    HW122121   3.676   1.301   6.654
 7074SOL    HW222122   3.826   1.239   6.668
 7075SOL     OW22123   0.855   6.091   3.372
 7075SOL    HW122124   0.842   6.003   3.417
 7075SOL    HW222125   0.845   6.165   3.438
 7076SOL     OW22126   2.746   1.190   6.137
 7076SOL    HW122127   2.656   1.232   6.148
 7076SOL    HW222128   2.783   1.167   6.227
 7077SOL     OW22129   1.277   5.504   6.095
 7077SOL    HW122130   1.272   5.580   6.159
 7077SOL    HW222131   1.270   5.418   6.145
 7078SOL     OW22132   0.212   0.587   1.426
 7078SOL    HW122133   0.131   0.583   1.484
 7078SOL    HW222134   0.246   0.681   1.421
 7079SOL     OW22135   4.884   6.477   4.496
 7079SOL    HW122136   4.933   6.393   4.472
 7079SOL    HW222137   4.834   6.510   4.415
 7080SOL     OW22138   6.018   0.508   3.818
 7080SOL    HW122139   5.959   0.427   3.812
 7080SOL    HW222140   6.113   0.480   3.808
 7081SOL     OW22141   4.629   0.994   4.593
 7081SOL    HW122142   4.647   1.014   4.496
 7081SOL    HW222143   4.535   1.018   4.615
 7082SOL     OW22144   5.955   1.103   0.310
 7082SOL    HW122145   5.871   1.079   0.359
 7082SOL    HW222146   6.034   1.090   0.370
 7083SOL     OW22147   4.025   0.244   5.235
 7083SOL    HW122148   4.067   0.311   5.296
 7083SOL    HW222149   4.075   0.157   5.242
 7084SOL     OW22150   6.254   5.797   0.004
 7084SOL    HW122151   6.226   5.893   0.000
 7084SOL    HW222152   6.225   5.757   0.091
 7085SOL     OW22153   5.169   1.784   1.366
 7085SOL    HW122154   5.167   1.687   1.344
 7085SOL    HW222155   5.241   1.830   1.315
 7086SOL     OW22156   1.471   0.754   5.868
 7086SOL    HW122157   1.546   0.692   5.843
 7086SOL    HW222158   1.508   0.843   5.892
 7087SOL     OW22159   2.364   2.698   4.708
 7087SOL    HW122160   2.392   2.649   4.790
 7087SOL    HW222161   2.298   2.769   4.732
 7088SOL     OW22162   6.906   1.564   4.435
 7088SOL    HW122163   6.917   1.476   4.388
 7088SOL    HW222164   6.965   1.565   4.516
 7089SOL     OW22165   2.931   1.693   2.008
 7089SOL    HW122166   2.873   1.773   1.998
 7089SOL    HW222167   2.916   1.630   1.932
 7090SOL     OW22168   3.320   0.733   5.302
 7090SOL    HW122169   3.260   0.737   5.382
 7090SOL    HW222170   3.314   0.820   5.252
 7091SOL     OW22171   6.650   5.223   6.581
 7091SOL    HW122172   6.560   5.213   6.539
 7091SOL    HW222173   6.675   5.320   6.583
 7092SOL     OW22174   3.539   2.406   0.555
 7092SOL    HW122175   3.598   2.329   0.581
 7092SOL    HW222176   3.572   2.489   0.599
 7093SOL     OW22177   3.865   3.482   5.888
 7093SOL    HW122178   3.834   3.407   5.829
 7093SOL    HW222179   3.882   3.563   5.832
 7094SOL     OW22180   5.907   1.033   6.667
 7094SOL    HW122181   5.938   1.070   6.579
 7094SOL    HW222182   5.808   1.046   6.676
 7095SOL     OW22183   0.845   4.178   1.303
 7095SOL    HW122184   0.804   4.247   1.243
 7095SOL    HW222185   0.940   4.164   1.277
 7096SOL     OW22186   3.657   0.130   3.180
 7096SOL    HW122187   3.639   0.111   3.084
 7096SOL    HW222188   3.691   0.047   3.225
 7097SOL     OW22189   1.497   1.228   1.646
 7097SOL    HW122190   1.543   1.268   1.725
 7097SOL    HW222191   1.431   1.293   1.609
 7098SOL     OW22192   1.422   0.766   6.637
 7098SOL    HW122193   1.459   0.857   6.653
 7098SOL    HW222194   1.350   0.747   6.703
 7099SOL     OW22195   6.991   1.519   4.696
 7099SOL    HW122196   7.022   1.566   4.779
 7099SOL    HW222197   6.902   1.477   4.713
 7100SOL     OW22198   5.477   1.774   0.717
 7100SOL    HW122199   5.509   1.863   0.685
 7100SOL    HW222200   5.552   1.709   0.715
 7101SOL     OW22201   1.761   0.701   4.824
 7101SOL    HW122202   1.800   0.638   4.757
 7101SOL    HW222203   1.681   0.659   4.867
 7102SOL     OW22204   4.397   2.601   0.214
 7102SOL    HW122205   4.489   2.625   0.184
 7102SOL    HW222206   4.341   2.684   0.220
 7103SOL     OW22207   2.146   0.053   6.454
 7103SOL    HW122208   2.153   7.011   6.380
 7103SOL    HW222209   2.057   0.099   6.448
 7104SOL     OW22210   0.270   3.649   1.407
 7104SOL    HW122211   0.229   3.564   1.438
 7104SOL    HW222212   0.338   3.680   1.474
 7105SOL     OW22213   2.104   2.564   4.833
 7105SOL    HW122214   2.166   2.498   4.791
 7105SOL    HW222215   2.086   2.638   4.768
 7106SOL     OW22216   3.102   2.905   5.286
 7106SOL    HW122217   3.111   2.912   5.385
 7106SOL    HW222218   3.013   2.938   5.258
 7107SOL     OW22219   2.459   1.641   0.139
 7107SOL    HW122220   2.556   1.617   0.127
 7107SOL    HW222221   2.439   1.653   0.236
 7108SOL     OW22222   4.476   6.482   2.525
 7108SOL    HW122223   4.559   6.505   2.577
 7108SOL    HW222224   4.408   6.554   2.539
 7109SOL     OW22225   4.669   5.721   6.809
 7109SOL    HW122226   4.653   5.661   6.887
 7109SOL    HW222227   4.596   5.789   6.803
 7110SOL     OW22228   3.704   4.956   4.193
 7110SOL    HW122229   3.741   5.025   4.255
 7110SOL    HW222230   3.605   4.948   4.207
 7111SOL     OW22231   0.961   3.246   3.160
 7111SOL    HW122232   0.985   3.271   3.253
 7111SOL    HW222233   1.002   3.311   3.096
 7112SOL     OW22234   1.863   6.276   2.869
 7112SOL    HW122235   1.790   6.342   2.850
 7112SOL    HW222236   1.886   6.281   2.966
 7113SOL     OW22237   3.663   4.083   6.044
 7113SOL    HW122238   3.566   4.075   6.069
 7113SOL    HW222239   3.670   4.104   5.947
 7114SOL     OW22240   3.753   6.631   1.054
 7114SOL    HW122241   3.841   6.584   1.040
 7114SOL    HW222242   3.767   6.730   1.044
 7115SOL     OW22243   4.023   2.238   1.679
 7115SOL    HW122244   3.950   2.173   1.702
 7115SOL    HW222245   3.986   2.310   1.620
 7116SOL     OW22246   6.223   4.030   3.622
 7116SOL    HW122247   6.291   4.092   3.662
 7116SOL    HW222248   6.180   3.976   3.695
 7117SOL     OW22249   5.511   0.111   2.545
 7117SOL    HW122250   5.548   0.116   2.638
 7117SOL    HW222251   5.413   0.095   2.549
 7118SOL     OW22252   6.616   3.309   3.741
 7118SOL    HW122253   6.675   3.279   3.666
 7118SOL    HW222254   6.637   3.404   3.764
 7119SOL     OW22255   0.724   2.237   2.149
 7119SOL    HW122256   0.782   2.247   2.068
 7119SOL    HW222257   0.669   2.319   2.162
 7120SOL     OW22258   4.523   6.141   4.218
 7120SOL    HW122259   4.450   6.198   4.182
 7120SOL    HW222260   4.523   6.053   4.170
 7121SOL     OW22261   1.856   6.447   1.124
 7121SOL    HW122262   1.830   6.460   1.028
 7121SOL    HW222263   1.800   6.505   1.183
 7122SOL     OW22264   0.260   6.146   0.139
 7122SOL    HW122265   0.192   6.205   0.183
 7122SOL    HW222266   0.223   6.054   0.130
 7123SOL     OW22267   3.415   4.707   0.781
 7123SOL    HW122268   3.394   4.614   0.812
 7123SOL    HW222269   3.462   4.757   0.853
 7124SOL     OW22270   0.233   5.364   6.634
 7124SOL    HW122271   0.246   5.316   6.721
 7124SOL    HW222272   0.138   5.357   6.605
 7125SOL     OW22273   1.258   5.638   3.261
 7125SOL    HW122274   1.278   5.733   3.238
 7125SOL    HW222275   1.269   5.580   3.180
 7126SOL     OW22276   1.728   4.376   1.364
 7126SOL    HW122277   1.735   4.316   1.443
 7126SOL    HW222278   1.636   4.417   1.361
 7127SOL     OW22279   2.283   0.369   4.885
 7127SOL    HW122280   2.234   0.450   4.917
 7127SOL    HW222281   2.294   0.305   4.961
 7128SOL     OW22282   3.240   3.612   2.716
 7128SOL    HW122283   3.317   3.567   2.670
 7128SOL    HW222284   3.178   3.650   2.647
 7129SOL     OW22285   3.467   1.554   0.747
 7129SOL    HW122286   3.527   1.625   0.710
 7129SOL    HW222287   3.492   1.466   0.708
 7130SOL     OW22288   1.564   0.436   2.904
 7130SOL    HW122289   1.634   0.436   2.832
 7130SOL    HW222290   1.606   0.458   2.992
 7131SOL     OW22291   2.815   1.165   3.205
 7131SOL    HW122292   2.828   1.068   3.183
 7131SOL    HW222293   2.793   1.175   3.302
 7132SOL     OW22294   3.070   3.873   2.289
 7132SOL    HW122295   3.076   3.784   2.244
 7132SOL    HW222296   3.134   3.936   2.245
 7133SOL     OW22297   6.291   3.983   1.689
 7133SOL    HW122298   6.326   3.937   1.770
 7133SOL    HW222299   6.245   3.917   1.630
 7134SOL     OW22300   4.492   4.561   2.438
 7134SOL    HW122301   4.476   4.535   2.343
 7134SOL    HW222302   4.587   4.544   2.462
 7135SOL     OW22303   0.107   1.845   5.451
 7135SOL    HW122304   0.094   1.755   5.493
 7135SOL    HW222305   0.194   1.884   5.480
 7136SOL     OW22306   2.034   1.817   6.493
 7136SOL    HW122307   2.008   1.773   6.579
 7136SOL    HW222308   2.103   1.761   6.447
 7137SOL     OW22309   5.390   1.633   5.256
 7137SOL    HW122310   5.407   1.631   5.157
 7137SOL    HW222311   5.366   1.541   5.287
 7138SOL     OW22312   2.224   1.668   6.369
 7138SOL    HW122313   2.197   1.641   6.276
 7138SOL    HW222314   2.252   1.587   6.420
 7139SOL     OW22315   2.168   1.551   0.139
 7139SOL    HW122316   2.254   1.579   0.096
 7139SOL    HW222317   2.180   1.549   0.239
 7140SOL     OW22318   6.580   4.549   4.642
 7140SOL    HW122319   6.563   4.463   4.690
 7140SOL    HW222320   6.573   4.534   4.543
 7141SOL     OW22321   0.874   0.373   2.149
 7141SOL    HW122322   0.882   0.371   2.050
 7141SOL    HW222323   0.812   0.447   2.176
 7142SOL     OW22324   3.642   6.691   3.967
 7142SOL    HW122325   3.740   6.676   3.976
 7142SOL    HW222326   3.619   6.702   3.870
 7143SOL     OW22327   1.733   2.719   3.709
 7143SOL    HW122328   1.734   2.753   3.615
 7143SOL    HW222329   1.640   2.717   3.743
 7144SOL     OW22330   1.419   3.667   3.597
 7144SOL    HW122331   1.476   3.591   3.564
 7144SOL    HW222332   1.438   3.683   3.694
 7145SOL     OW22333   3.628   5.694   6.891
 7145SOL    HW122334   3.534   5.728   6.882
 7145SOL    HW222335   3.658   5.706   6.986
 7146SOL     OW22336   3.650   4.877   1.420
 7146SOL    HW122337   3.728   4.817   1.399
 7146SOL    HW222338   3.676   4.972   1.403
 7147SOL     OW22339   0.666   1.273   3.531
 7147SOL    HW122340   0.708   1.364   3.521
 7147SOL    HW222341   0.654   1.232   3.440
 7148SOL     OW22342   6.861   2.290   0.686
 7148SOL    HW122343   6.871   2.224   0.611
 7148SOL    HW222344   6.806   2.249   0.758
 7149SOL     OW22345   1.255   0.631   4.711
 7149SOL    HW122346   1.335   0.691   4.699
 7149SOL    HW222347   1.197   0.637   4.629
 7150SOL     OW22348   6.308   2.968   5.994
 7150SOL    HW122349   6.344   3.054   5.960
 7150SOL    HW222350   6.219   2.950   5.952
 7151SOL     OW22351   1.246   0.309   0.324
 7151SOL    HW122352   1.203   0.283   0.237
 7151SOL    HW222353   1.177   0.347   0.386
 7152SOL     OW22354   0.897   2.473   4.787
 7152SOL    HW122355   0.810   2.519   4.803
 7152SOL    HW222356   0.886   2.375   4.805
 7153SOL     OW22357   4.563   2.056   3.034
 7153SOL    HW122358   4.618   2.138   3.046
 7153SOL    HW222359   4.496   2.071   2.961
 7154SOL     OW22360   3.324   6.720   4.453
 7154SOL    HW122361   3.269   6.730   4.370
 7154SOL    HW222362   3.336   6.809   4.497
 7155SOL     OW22363   2.521   1.474   4.181
 7155SOL    HW122364   2.504   1.554   4.124
 7155SOL    HW222365   2.589   1.496   4.251
 7156SOL     OW22366   2.149   5.551   5.273
 7156SOL    HW122367   2.069   5.522   5.220
 7156SOL    HW222368   2.229   5.499   5.244
 7157SOL     OW22369   5.889   4.300   0.491
 7157SOL    HW122370   5.798   4.335   0.469
 7157SOL    HW222371   5.880   4.220   0.551
 7158SOL     OW22372   3.738   0.584   3.171
 7158SOL    HW122373   3.669   0.602   3.241
 7158SOL    HW222374   3.807   0.656   3.171
 7159SOL     OW22375   1.365   6.118   6.922
 7159SOL    HW122376   1.415   6.037   6.953
 7159SOL    HW222377   1.386   6.195   6.982
 7160SOL     OW22378   0.100   0.413   2.230
 7160SOL    HW122379   0.059   0.489   2.281
 7160SOL    HW222380   0.089   0.429   2.132
 7161SOL     OW22381   3.085   4.023   4.805
 7161SOL    HW122382   3.059   4.118   4.788
 7161SOL    HW222383   3.069   4.001   4.902
 7162SOL     OW22384   3.411   4.980   4.223
 7162SOL    HW122385   3.313   4.960   4.222
 7162SOL    HW222386   3.427   5.071   4.260
 7163SOL     OW22387   0.981   6.341   3.904
 7163SOL    HW122388   1.030   6.257   3.881
 7163SOL    HW222389   1.047   6.412   3.928
 7164SOL     OW22390   3.687   1.647   4.210
 7164SOL    HW122391   3.625   1.640   4.132
 7164SOL    HW222392   3.654   1.589   4.285
 7165SOL     OW22393   4.340   5.041   1.915
 7165SOL    HW122394   4.265   5.054   1.980
 7165SOL    HW222395   4.334   5.110   1.842
 7166SOL     OW22396   3.321   6.483   2.638
 7166SOL    HW122397   3.222   6.490   2.642
 7166SOL    HW222398   3.356   6.542   2.566
 7167SOL     OW22399   5.846   3.228   0.219
 7167SOL    HW122400   5.865   3.172   0.299
 7167SOL    HW222401   5.847   3.172   0.137
 7168SOL     OW22402   6.595   1.197   4.331
 7168SOL    HW122403   6.660   1.180   4.258
 7168SOL    HW222404   6.639   1.176   4.419
 7169SOL     OW22405   2.694   2.888   6.991
 7169SOL    HW122406   2.598   2.916   6.987
 7169SOL    HW222407   2.748   2.960   0.010
 7170SOL     OW22408   4.829   3.939   4.514
 7170SOL    HW122409   4.820   3.886   4.430
 7170SOL    HW222410   4.833   3.877   4.592
 7171SOL     OW22411   3.690   3.865   5.311
 7171SOL    HW122412   3.674   3.816   5.397
 7171SOL    HW222413   3.725   3.957   5.331
 7172SOL     OW22414   5.833   6.012   0.868
 7172SOL    HW122415   5.808   6.032   0.773
 7172SOL    HW222416   5.898   5.935   0.870
 7173SOL     OW22417   6.836   6.418   4.524
 7173SOL    HW122418   6.806   6.491   4.462
 7173SOL    HW222419   6.901   6.359   4.476
 7174SOL     OW22420   1.278   6.672   6.144
 7174SOL    HW122421   1.223   6.738   6.196
 7174SOL    HW222422   1.288   6.705   6.050
 7175SOL     OW22423   6.123   3.671   5.927
 7175SOL    HW122424   6.116   3.716   5.838
 7175SOL    HW222425   6.209   3.698   5.971
 7176SOL     OW22426   1.135   3.554   0.988
 7176SOL    HW122427   1.043   3.515   0.984
 7176SOL    HW222428   1.172   3.560   0.895
 7177SOL     OW22429   0.764   5.295   1.305
 7177SOL    HW122430   0.738   5.387   1.335
 7177SOL    HW222431   0.694   5.258   1.244
 7178SOL     OW22432   6.444   0.559   6.631
 7178SOL    HW122433   6.494   0.529   6.550
 7178SOL    HW222434   6.444   0.485   6.698
 7179SOL     OW22435   0.694   3.620   5.693
 7179SOL    HW122436   0.744   3.645   5.775
 7179SOL    HW222437   0.652   3.530   5.705
 7180SOL     OW22438   0.022   0.718   1.878
 7180SOL    HW122439   0.099   0.701   1.940
 7180SOL    HW222440   6.961   0.708   1.929
 7181SOL     OW22441   5.307   6.045   2.491
 7181SOL    HW122442   5.391   6.063   2.542
 7181SOL    HW222443   5.291   6.118   2.425
 7182SOL     OW22444   3.907   3.745   5.823
 7182SOL    HW122445   3.865   3.785   5.905
 7182SOL    HW222446   3.988   3.799   5.798
 7183SOL     OW22447   2.263   2.722   2.842
 7183SOL    HW122448   2.343   2.664   2.857
 7183SOL    HW222449   2.181   2.666   2.838
 7184SOL     OW22450   2.195   5.460   3.086
 7184SOL    HW122451   2.142   5.477   3.170
 7184SOL    HW222452   2.288   5.495   3.097
 7185SOL     OW22453   5.554   2.146   6.308
 7185SOL    HW122454   5.637   2.100   6.277
 7185SOL    HW222455   5.531   2.115   6.400
 7186SOL     OW22456   1.241   6.646   4.378
 7186SOL    HW122457   1.245   6.666   4.475
 7186SOL    HW222458   1.169   6.702   4.335
 7187SOL     OW22459   1.630   4.895   1.181
 7187SOL    HW122460   1.575   4.924   1.259
 7187SOL    HW222461   1.718   4.942   1.182
 7188SOL     OW22462   4.758   0.427   1.456
 7188SOL    HW122463   4.854   0.446   1.479
 7188SOL    HW222464   4.733   0.337   1.492
 7189SOL     OW22465   6.008   1.130   5.636
 7189SOL    HW122466   5.950   1.211   5.638
 7189SOL    HW222467   6.068   1.134   5.556
 7190SOL     OW22468   4.659   5.211   2.285
 7190SOL    HW122469   4.728   5.276   2.251
 7190SOL    HW222470   4.647   5.223   2.383
 7191SOL     OW22471   0.784   3.619   1.587
 7191SOL    HW122472   0.790   3.534   1.639
 7191SOL    HW222473   0.826   3.606   1.497
 7192SOL     OW22474   2.963   4.427   5.952
 7192SOL    HW122475   2.871   4.388   5.961
 7192SOL    HW222476   3.017   4.403   6.033
 7193SOL     OW22477   5.773   2.120   4.850
 7193SOL    HW122478   5.843   2.153   4.788
 7193SOL    HW222479   5.809   2.120   4.944
 7194SOL     OW22480   3.365   0.570   2.139
 7194SOL    HW122481   3.303   0.512   2.086
 7194SOL    HW222482   3.372   0.659   2.094
 7195SOL     OW22483   0.204   6.979   2.793
 7195SOL    HW122484   0.288   6.954   2.843
 7195SOL    HW222485   0.225   6.989   2.696
 7196SOL     OW22486   4.041   4.186   1.624
 7196SOL    HW122487   4.088   4.239   1.553
 7196SOL    HW222488   3.960   4.236   1.655
 7197SOL     OW22489   2.020   1.182   4.146
 7197SOL    HW122490   2.083   1.119   4.099
 7197SOL    HW222491   2.015   1.158   4.243
 7198SOL     OW22492   0.009   0.047   5.797
 7198SOL    HW122493   0.105   0.052   5.770
 7198SOL    HW222494   0.002   0.018   5.892
 7199SOL     OW22495   6.124   5.872   1.871
 7199SOL    HW122496   6.100   5.940   1.802
 7199SOL    HW222497   6.142   5.917   1.958
 7200SOL     OW22498   1.140   2.014   2.743
 7200SOL    HW122499   1.212   1.980   2.682
 7200SOL    HW222500   1.057   2.032   2.690
 7201SOL     OW22501   1.574   4.818   3.398
 7201SOL    HW122502   1.637   4.758   3.448
 7201SOL    HW222503   1.485   4.819   3.444
 7202SOL     OW22504   2.383   6.987   6.087
 7202SOL    HW122505   2.390   0.062   6.096
 7202SOL    HW222506   2.326   6.964   6.008
 7203SOL     OW22507   5.656   0.583   0.183
 7203SOL    HW122508   5.622   0.677   0.193
 7203SOL    HW222509   5.659   0.539   0.273
 7204SOL     OW22510   0.287   3.307   2.521
 7204SOL    HW122511   0.248   3.230   2.572
 7204SOL    HW222512   0.377   3.282   2.485
 7205SOL     OW22513   1.106   4.184   1.233
 7205SOL    HW122514   1.140   4.277   1.245
 7205SOL    HW222515   1.109   4.160   1.136
 7206SOL     OW22516   6.543   0.751   1.669
 7206SOL    HW122517   6.533   0.692   1.749
 7206SOL    HW222518   6.480   0.722   1.598
 7207SOL     OW22519   3.955   0.465   1.514
 7207SOL    HW122520   4.005   0.386   1.550
 7207SOL    HW222521   3.883   0.492   1.578
 7208SOL     OW22522   2.555   0.072   5.007
 7208SOL    HW122523   2.639   0.104   5.052
 7208SOL    HW222524   2.490   0.148   5.003
 7209SOL     OW22525   2.572   3.668   5.471
 7209SOL    HW122526   2.632   3.665   5.551
 7209SOL    HW222527   2.577   3.758   5.428
 7210SOL     OW22528   4.453   0.664   4.355
 7210SOL    HW122529   4.398   0.747   4.346
 7210SOL    HW222530   4.405   0.599   4.414
 7211SOL     OW22531   0.638   5.456   2.886
 7211SOL    HW122532   0.676   5.365   2.903
 7211SOL    HW222533   0.540   5.447   2.867
 7212SOL     OW22534   5.899   6.445   3.033
 7212SOL    HW122535   5.915   6.542   3.011
 7212SOL    HW222536   5.985   6.405   3.065
 7213SOL     OW22537   5.255   6.198   5.721
 7213SOL    HW122538   5.195   6.255   5.777
 7213SOL    HW222539   5.238   6.101   5.742
 7214SOL     OW22540   1.405   5.027   6.218
 7214SOL    HW122541   1.351   5.078   6.285
 7214SOL    HW222542   1.358   5.029   6.130
 7215SOL     OW22543   1.427   3.126   1.135
 7215SOL    HW122544   1.435   3.109   1.233
 7215SOL    HW222545   1.419   3.224   1.119
 7216SOL     OW22546   2.593   1.836   2.738
 7216SOL    HW122547   2.680   1.807   2.701
 7216SOL    HW222548   2.592   1.936   2.748
 7217SOL     OW22549   0.823   3.823   2.085
 7217SOL    HW122550   0.800   3.775   2.169
 7217SOL    HW222551   0.868   3.759   2.022
 7218SOL     OW22552   6.344   2.985   3.606
 7218SOL    HW122553   6.271   2.924   3.637
 7218SOL    HW222554   6.333   3.075   3.648
 7219SOL     OW22555   2.045   1.386   1.500
 7219SOL    HW122556   2.011   1.293   1.515
 7219SOL    HW222557   2.062   1.430   1.589
 7220SOL     OW22558   6.796   1.592   3.066
 7220SOL    HW122559   6.788   1.500   3.104
 7220SOL    HW222560   6.840   1.652   3.133
 7221SOL     OW22561   6.539   3.843   4.778
 7221SOL    HW122562   6.611   3.888   4.724
 7221SOL    HW222563   6.580   3.771   4.833
 7222SOL     OW22564   6.605   6.973   2.854
 7222SOL    HW122565   6.574   6.884   2.889
 7222SOL    HW222566   6.534   7.012   2.795
 7223SOL     OW22567   4.636   1.185   4.353
 7223SOL    HW122568   4.720   1.235   4.376
 7223SOL    HW222569   4.557   1.239   4.383
 7224SOL     OW22570   5.653   1.472   3.227
 7224SOL    HW122571   5.737   1.515   3.261
 7224SOL    HW222572   5.606   1.427   3.303
 7225SOL     OW22573   2.672   0.432   1.532
 7225SOL    HW122574   2.661   0.375   1.450
 7225SOL    HW222575   2.752   0.491   1.520
 7226SOL     OW22576   5.637   6.456   5.509
 7226SOL    HW122577   5.614   6.547   5.475
 7226SOL    HW222578   5.722   6.460   5.560
 7227SOL     OW22579   0.838   2.950   5.534
 7227SOL    HW122580   0.885   2.871   5.575
 7227SOL    HW222581   0.903   3.002   5.479
 7228SOL     OW22582   1.384   0.151   2.928
 7228SOL    HW122583   1.328   0.137   2.846
 7228SOL    HW222584   1.427   0.241   2.923
 7229SOL     OW22585   6.322   6.864   3.687
 7229SOL    HW122586   6.321   6.819   3.776
 7229SOL    HW222587   6.227   6.880   3.657
 7230SOL     OW22588   6.249   5.405   1.009
 7230SOL    HW122589   6.223   5.360   1.095
 7230SOL    HW222590   6.205   5.495   1.004
 7231SOL     OW22591   5.998   0.785   6.772
 7231SOL    HW122592   6.001   0.869   6.718
 7231SOL    HW222593   5.971   0.806   6.866
 7232SOL     OW22594   3.346   3.893   0.613
 7232SOL    HW122595   3.273   3.962   0.615
 7232SOL    HW222596   3.311   3.806   0.646
 7233SOL     OW22597   1.221   1.671   6.449
 7233SOL    HW122598   1.269   1.758   6.460
 7233SOL    HW222599   1.131   1.687   6.408
 7234SOL     OW22600   5.442   2.423   4.160
 7234SOL    HW122601   5.366   2.450   4.218
 7234SOL    HW222602   5.429   2.460   4.068
 7235SOL     OW22603   5.824   2.374   4.482
 7235SOL    HW122604   5.734   2.335   4.499
 7235SOL    HW222605   5.893   2.322   4.531
 7236SOL     OW22606   1.058   1.707   3.138
 7236SOL    HW122607   1.143   1.723   3.089
 7236SOL    HW222608   1.065   1.744   3.230
 7237SOL     OW22609   5.797   5.424   5.236
 7237SOL    HW122610   5.847   5.408   5.321
 7237SOL    HW222611   5.746   5.510   5.243
 7238SOL     OW22612   1.467   0.152   2.469
 7238SOL    HW122613   1.470   0.067   2.416
 7238SOL    HW222614   1.429   0.225   2.413
 7239SOL     OW22615   4.876   1.785   2.023
 7239SOL    HW122616   4.921   1.824   2.104
 7239SOL    HW222617   4.803   1.845   1.993
 7240SOL     OW22618   3.245   3.106   3.786
 7240SOL    HW122619   3.153   3.144   3.776
 7240SOL    HW222620   3.244   3.032   3.853
 7241SOL     OW22621   4.226   0.020   5.219
 7241SOL    HW122622   4.237   6.948   5.196
 7241SOL    HW222623   4.287   0.044   5.294
 7242SOL     OW22624   6.016   5.868   0.312
 7242SOL    HW122625   5.928   5.844   0.270
 7242SOL    HW222626   6.083   5.797   0.292
 7243SOL     OW22627   0.997   5.952   1.018
 7243SOL    HW122628   0.901   5.925   1.011
 7243SOL    HW222629   1.053   5.892   0.960
 7244SOL     OW22630   5.230   1.764   1.628
 7244SOL    HW122631   5.145   1.798   1.670
 7244SOL    HW222632   5.218   1.756   1.529
 7245SOL     OW22633   6.076   1.645   3.309
 7245SOL    HW122634   6.059   1.626   3.212
 7245SOL    HW222635   6.116   1.736   3.318
 7246SOL     OW22636   0.542   5.550   5.514
 7246SOL    HW122637   0.589   5.638   5.502
 7246SOL    HW222638   0.570   5.510   5.602
 7247SOL     OW22639   3.828   5.657   3.622
 7247SOL    HW122640   3.779   5.705   3.549
 7247SOL    HW222641   3.766   5.642   3.699
 7248SOL     OW22642   3.110   0.916   4.931
 7248SOL    HW122643   3.038   0.853   4.960
 7248SOL    HW222644   3.199   0.877   4.954
 7249SOL     OW22645   5.123   2.620   6.158
 7249SOL    HW122646   5.094   2.696   6.217
 7249SOL    HW222647   5.046   2.558   6.144
 7250SOL     OW22648   3.113   3.049   0.093
 7250SOL    HW122649   3.148   3.118   0.157
 7250SOL    HW222650   3.153   3.065   0.002
 7251SOL     OW22651   6.195   1.143   5.435
 7251SOL    HW122652   6.293   1.148   5.414
 7251SOL    HW222653   6.148   1.220   5.393
 7252SOL     OW22654   4.577   3.551   5.379
 7252SOL    HW122655   4.602   3.558   5.282
 7252SOL    HW222656   4.610   3.464   5.416
 7253SOL     OW22657   4.901   5.083   6.804
 7253SOL    HW122658   4.978   5.029   6.838
 7253SOL    HW222659   4.894   5.168   6.856
 7254SOL     OW22660   5.355   5.968   5.148
 7254SOL    HW122661   5.291   5.913   5.095
 7254SOL    HW222662   5.401   6.034   5.089
 7255SOL     OW22663   3.695   3.692   3.462
 7255SOL    HW122664   3.605   3.681   3.422
 7255SOL    HW222665   3.712   3.789   3.480
 7256SOL     OW22666   3.406   5.885   3.445
 7256SOL    HW122667   3.328   5.827   3.423
 7256SOL    HW222668   3.484   5.827   3.471
 7257SOL     OW22669   6.085   5.210   2.610
 7257SOL    HW122670   6.084   5.137   2.678
 7257SOL    HW222671   6.168   5.264   2.620
 7258SOL     OW22672   2.960   0.872   6.423
 7258SOL    HW122673   2.881   0.928   6.397
 7258SOL    HW222674   3.009   0.843   6.342
 7259SOL     OW22675   3.390   4.027   6.031
 7259SOL    HW122676   3.301   4.074   6.025
 7259SOL    HW222677   3.416   3.994   5.941
 7260SOL     OW22678   4.280   2.252   2.462
 7260SOL    HW122679   4.354   2.189   2.437
 7260SOL    HW222680   4.200   2.234   2.404
 7261SOL     OW22681   2.437   4.812   1.341
 7261SOL    HW122682   2.399   4.775   1.425
 7261SOL    HW222683   2.521   4.861   1.361
 7262SOL     OW22684   5.825   0.054   4.701
 7262SOL    HW122685   5.892   0.093   4.765
 7262SOL    HW222686   5.792   0.126   4.641
 7263SOL     OW22687   5.114   4.959   1.297
 7263SOL    HW122688   5.187   4.894   1.277
 7263SOL    HW222689   5.050   4.919   1.363
 7264SOL     OW22690   0.050   0.016   4.624
 7264SOL    HW122691   0.045   6.974   4.699
 7264SOL    HW222692   0.139   0.062   4.627
 7265SOL     OW22693   4.553   3.005   6.577
 7265SOL    HW122694   4.472   3.048   6.616
 7265SOL    HW222695   4.567   2.915   6.620
 7266SOL     OW22696   4.150   1.214   3.003
 7266SOL    HW122697   4.181   1.122   3.029
 7266SOL    HW222698   4.213   1.282   3.039
 7267SOL     OW22699   4.782   1.985   3.643
 7267SOL    HW122700   4.719   1.919   3.684
 7267SOL    HW222701   4.813   2.049   3.713
 7268SOL     OW22702   4.015   6.384   0.014
 7268SOL    HW122703   3.971   6.465   0.054
 7268SOL    HW222704   4.098   6.362   0.066
 7269SOL     OW22705   1.673   6.870   3.423
 7269SOL    HW122706   1.647   6.795   3.485
 7269SOL    HW222707   1.612   6.948   3.437
 7270SOL     OW22708   3.474   2.771   1.648
 7270SOL    HW122709   3.516   2.685   1.679
 7270SOL    HW222710   3.535   2.847   1.670
 7271SOL     OW22711   4.970   6.150   3.891
 7271SOL    HW122712   5.023   6.218   3.942
 7271SOL    HW222713   4.878   6.144   3.931
 7272SOL     OW22714   5.574   1.251   1.740
 7272SOL    HW122715   5.566   1.156   1.771
 7272SOL    HW222716   5.538   1.312   1.810
 7273SOL     OW22717   6.290   5.260   4.515
 7273SOL    HW122718   6.373   5.265   4.459
 7273SOL    HW222719   6.230   5.337   4.493
 7274SOL     OW22720   6.002   4.857   3.778
 7274SOL    HW122721   5.933   4.929   3.788
 7274SOL    HW222722   5.976   4.796   3.704
 7275SOL     OW22723   5.622   0.063   2.118
 7275SOL    HW122724   5.719   0.084   2.136
 7275SOL    HW222725   5.568   0.146   2.127
 7276SOL     OW22726   4.212   1.525   2.801
 7276SOL    HW122727   4.141   1.576   2.850
 7276SOL    HW222728   4.297   1.577   2.802
 7277SOL     OW22729   5.900   2.564   3.887
 7277SOL    HW122730   5.972   2.527   3.946
 7277SOL    HW222731   5.913   2.662   3.876
 7278SOL     OW22732   3.855   1.574   3.092
 7278SOL    HW122733   3.872   1.670   3.070
 7278SOL    HW222734   3.882   1.518   3.014
 7279SOL     OW22735   3.732   3.578   1.636
 7279SOL    HW122736   3.669   3.509   1.672
 7279SOL    HW222737   3.737   3.655   1.699
 7280SOL     OW22738   6.508   1.512   5.823
 7280SOL    HW122739   6.585   1.454   5.796
 7280SOL    HW222740   6.432   1.455   5.852
 7281SOL     OW22741   3.716   6.767   3.624
 7281SOL    HW122742   3.774   6.699   3.669
 7281SOL    HW222743   3.759   6.857   3.632
 7282SOL     OW22744   0.877   3.590   1.316
 7282SOL    HW122745   0.918   3.656   1.254
 7282SOL    HW222746   0.912   3.499   1.296
 7283SOL     OW22747   2.767   6.189   2.844
 7283SOL    HW122748   2.845   6.196   2.906
 7283SOL    HW222749   2.684   6.221   2.890
 7284SOL     OW22750   0.638   0.436   3.779
 7284SOL    HW122751   0.659   0.352   3.829
 7284SOL    HW222752   0.544   0.464   3.798
 7285SOL     OW22753   4.905   2.526   2.103
 7285SOL    HW122754   4.889   2.608   2.048
 7285SOL    HW222755   4.992   2.535   2.152
 7286SOL     OW22756   6.713   1.471   4.704
 7286SOL    HW122757   6.644   1.464   4.776
 7286SOL    HW222758   6.697   1.553   4.649
 7287SOL     OW22759   3.445   1.293   4.456
 7287SOL    HW122760   3.413   1.334   4.541
 7287SOL    HW222761   3.510   1.220   4.477
 7288SOL     OW22762   2.828   1.474   1.562
 7288SOL    HW122763   2.840   1.573   1.551
 7288SOL    HW222764   2.779   1.439   1.482
 7289SOL     OW22765   6.672   2.745   1.079
 7289SOL    HW122766   6.681   2.693   1.164
 7289SOL    HW222767   6.622   2.829   1.096
 7290SOL     OW22768   3.255   2.136   4.825
 7290SOL    HW122769   3.211   2.183   4.901
 7290SOL    HW222770   3.207   2.159   4.740
 7291SOL     OW22771   0.993   0.983   0.323
 7291SOL    HW122772   1.007   1.011   0.228
 7291SOL    HW222773   1.029   1.053   0.385
 7292SOL     OW22774   3.317   1.435   2.325
 7292SOL    HW122775   3.382   1.460   2.397
 7292SOL    HW222776   3.316   1.507   2.255
 7293SOL     OW22777   6.085   1.420   4.261
 7293SOL    HW122778   6.024   1.371   4.198
 7293SOL    HW222779   6.051   1.514   4.273
 7294SOL     OW22780   2.298   1.286   2.462
 7294SOL    HW122781   2.235   1.240   2.400
 7294SOL    HW222782   2.262   1.282   2.555
 7295SOL     OW22783   5.340   4.445   1.490
 7295SOL    HW122784   5.401   4.482   1.560
 7295SOL    HW222785   5.388   4.444   1.402
 7296SOL     OW22786   3.023   0.413   2.735
 7296SOL    HW122787   3.044   0.456   2.647
 7296SOL    HW222788   2.965   0.333   2.720
 7297SOL     OW22789   4.521   0.563   0.221
 7297SOL    HW122790   4.585   0.530   0.290
 7297SOL    HW222791   4.434   0.588   0.264
 7298SOL     OW22792   4.155   4.518   0.777
 7298SOL    HW122793   4.074   4.568   0.750
 7298SOL    HW222794   4.129   4.435   0.827
 7299SOL     OW22795   6.984   3.014   0.244
 7299SOL    HW122796   0.047   3.013   0.293
 7299SOL    HW222797   6.976   2.931   0.189
 7300SOL     OW22798   0.626   4.310   2.479
 7300SOL    HW122799   0.600   4.226   2.431
 7300SOL    HW222800   0.711   4.346   2.440
 7301SOL     OW22801   3.445   2.069   0.531
 7301SOL    HW122802   3.404   2.160   0.530
 7301SOL    HW222803   3.492   2.053   0.444
 7302SOL     OW22804   5.705   1.432   6.952
 7302SOL    HW122805   5.699   1.423   0.027
 7302SOL    HW222806   5.767   1.508   6.930
 7303SOL     OW22807   4.052   2.487   1.130
 7303SOL    HW122808   4.110   2.567   1.117
 7303SOL    HW222809   4.024   2.450   1.041
 7304SOL     OW22810   3.391   0.205   0.704
 7304SOL    HW122811   3.453   0.180   0.630
 7304SOL    HW222812   3.331   0.128   0.724
 7305SOL     OW22813   6.781   6.866   6.389
 7305SOL    HW122814   6.874   6.856   6.424
 7305SOL    HW222815   6.759   6.788   6.330
 7306SOL     OW22816   1.956   3.500   1.129
 7306SOL    HW122817   2.017   3.564   1.177
 7306SOL    HW222818   1.875   3.549   1.097
 7307SOL     OW22819   4.644   6.559   1.272
 7307SOL    HW122820   4.575   6.488   1.288
 7307SOL    HW222821   4.649   6.619   1.351
 7308SOL     OW22822   3.670   2.117   2.930
 7308SOL    HW122823   3.756   2.167   2.918
 7308SOL    HW222824   3.679   2.026   2.889
 7309SOL     OW22825   2.353   5.328   3.383
 7309SOL    HW122826   2.351   5.230   3.399
 7309SOL    HW222827   2.267   5.357   3.341
 7310SOL     OW22828   5.252   2.944   0.205
 7310SOL    HW122829   5.168   2.897   0.179
 7310SOL    HW222830   5.285   2.999   0.128
 7311SOL     OW22831   1.277   6.682   5.641
 7311SOL    HW122832   1.357   6.630   5.670
 7311SOL    HW222833   1.213   6.620   5.594
 7312SOL     OW22834   5.781   2.046   4.445
 7312SOL    HW122835   5.843   2.046   4.366
 7312SOL    HW222836   5.713   2.118   4.434
 7313SOL     OW22837   3.253   1.155   3.387
 7313SOL    HW122838   3.223   1.249   3.397
 7313SOL    HW222839   3.249   1.128   3.291
 7314SOL     OW22840   2.739   5.532   4.867
 7314SOL    HW122841   2.748   5.513   4.965
 7314SOL    HW222842   2.736   5.445   4.817
 7315SOL     OW22843   2.552   4.945   2.167
 7315SOL    HW122844   2.514   4.980   2.252
 7315SOL    HW222845   2.593   4.856   2.183
 7316SOL     OW22846   3.299   1.119   2.351
 7316SOL    HW122847   3.246   1.199   2.323
 7316SOL    HW222848   3.282   1.101   2.448
 7317SOL     OW22849   5.508   1.435   1.333
 7317SOL    HW122850   5.416   1.455   1.368
 7317SOL    HW222851   5.542   1.351   1.376
 7318SOL     OW22852   5.180   6.839   1.614
 7318SOL    HW122853   5.138   6.929   1.618
 7318SOL    HW222854   5.262   6.838   1.672
 7319SOL     OW22855   4.441   5.324   6.000
 7319SOL    HW122856   4.458   5.406   5.945
 7319SOL    HW222857   4.346   5.295   5.988
 7320SOL     OW22858   2.054   3.104   0.403
 7320SOL    HW122859   2.000   3.183   0.433
 7320SOL    HW222860   2.141   3.135   0.365
 7321SOL     OW22861   2.338   2.177   5.228
 7321SOL    HW122862   2.298   2.198   5.317
 7321SOL    HW222863   2.304   2.242   5.160
 7322SOL     OW22864   2.571   2.072   3.955
 7322SOL    HW122865   2.514   2.117   4.024
 7322SOL    HW222866   2.664   2.063   3.989
 7323SOL     OW22867   2.313   1.864   0.034
 7323SOL    HW122868   2.299   1.863   6.959
 7323SOL    HW222869   2.380   1.794   0.058
 7324SOL     OW22870   5.735   4.152   5.007
 7324SOL    HW122871   5.655   4.135   5.065
 7324SOL    HW222872   5.723   4.106   4.919
 7325SOL     OW22873   3.409   0.900   6.969
 7325SOL    HW122874   3.429   0.892   0.042
 7325SOL    HW222875   3.384   0.994   6.947
 7326SOL     OW22876   3.726   6.531   0.278
 7326SOL    HW122877   3.645   6.472   0.281
 7326SOL    HW222878   3.704   6.616   0.230
 7327SOL     OW22879   1.827   4.674   3.056
 7327SOL    HW122880   1.765   4.614   3.106
 7327SOL    HW222881   1.816   4.658   2.958
 7328SOL     OW22882   3.820   5.668   6.715
 7328SOL    HW122883   3.837   5.570   6.719
 7328SOL    HW222884   3.747   5.692   6.779
 7329SOL     OW22885   2.680   3.865   6.567
 7329SOL    HW122886   2.765   3.815   6.549
 7329SOL    HW222887   2.606   3.825   6.512
 7330SOL     OW22888   2.493   3.628   1.624
 7330SOL    HW122889   2.447   3.612   1.712
 7330SOL    HW222890   2.464   3.559   1.558
 7331SOL     OW22891   5.472   1.925   2.660
 7331SOL    HW122892   5.448   1.832   2.688
 7331SOL    HW222893   5.389   1.981   2.655
 7332SOL     OW22894   1.649   0.039   4.686
 7332SOL    HW122895   1.573   7.011   4.726
 7332SOL    HW222896   1.635   0.136   4.703
 7333SOL     OW22897   6.194   1.546   2.062
 7333SOL    HW122898   6.148   1.635   2.059
 7333SOL    HW222899   6.200   1.515   2.157
 7334SOL     OW22900   1.023   4.976   5.080
 7334SOL    HW122901   0.964   5.054   5.058
 7334SOL    HW222902   1.065   4.941   4.996
 7335SOL     OW22903   6.516   2.867   1.692
 7335SOL    HW122904   6.583   2.836   1.625
 7335SOL    HW222905   6.479   2.789   1.742
 7336SOL     OW22906   2.750   6.998   1.068
 7336SOL    HW122907   2.729   7.014   0.972
 7336SOL    HW222908   2.729   6.904   1.092
 7337SOL     OW22909   2.849   1.340   2.034
 7337SOL    HW122910   2.858   1.402   1.955
 7337SOL    HW222911   2.931   1.284   2.041
 7338SOL     OW22912   5.189   2.350   0.118
 7338SOL    HW122913   5.194   2.356   0.019
 7338SOL    HW222914   5.278   2.373   0.157
 7339SOL     OW22915   6.713   6.519   3.666
 7339SOL    HW122916   6.797   6.542   3.617
 7339SOL    HW222917   6.729   6.530   3.765
 7340SOL     OW22918   3.225   0.154   0.234
 7340SOL    HW122919   3.224   0.209   0.150
 7340SOL    HW222920   3.188   0.208   0.309
 7341SOL     OW22921   6.066   5.262   3.061
 7341SOL    HW122922   5.999   5.224   2.997
 7341SOL    HW222923   6.141   5.303   3.009
 7342SOL     OW22924   0.091   4.867   6.644
 7342SOL    HW122925   0.009   4.872   6.587
 7342SOL    HW222926   0.066   4.852   6.739
 7343SOL     OW22927   0.464   1.784   3.359
 7343SOL    HW122928   0.410   1.782   3.443
 7343SOL    HW222929   0.539   1.848   3.369
 7344SOL     OW22930   1.476   1.529   5.696
 7344SOL    HW122931   1.548   1.516   5.628
 7344SOL    HW222932   1.479   1.624   5.729
 7345SOL     OW22933   1.249   6.786   7.002
 7345SOL    HW122934   1.230   6.872   6.954
 7345SOL    HW222935   1.175   6.721   6.982
 7346SOL     OW22936   3.379   5.424   2.778
 7346SOL    HW122937   3.358   5.439   2.681
 7346SOL    HW222938   3.425   5.505   2.815
 7347SOL     OW22939   5.789   2.838   3.423
 7347SOL    HW122940   5.831   2.749   3.403
 7347SOL    HW222941   5.850   2.911   3.395
 7348SOL     OW22942   5.511   0.539   6.213
 7348SOL    HW122943   5.442   0.536   6.285
 7348SOL    HW222944   5.491   0.467   6.146
 7349SOL     OW22945   3.939   1.992   1.084
 7349SOL    HW122946   3.879   1.970   1.160
 7349SOL    HW222947   3.992   2.075   1.106
 7350SOL     OW22948   1.696   1.721   2.241
 7350SOL    HW122949   1.596   1.720   2.240
 7350SOL    HW222950   1.730   1.627   2.243
 7351SOL     OW22951   5.994   5.109   0.140
 7351SOL    HW122952   5.995   5.199   0.185
 7351SOL    HW222953   5.982   5.122   0.042
 7352SOL     OW22954   6.904   1.532   2.808
 7352SOL    HW122955   6.882   1.535   2.905
 7352SOL    HW222956   7.003   1.540   2.795
 7353SOL     OW22957   5.571   1.557   4.472
 7353SOL    HW122958   5.669   1.537   4.472
 7353SOL    HW222959   5.554   1.637   4.529
 7354SOL     OW22960   5.841   4.510   5.027
 7354SOL    HW122961   5.853   4.569   4.948
 7354SOL    HW222962   5.931   4.490   5.068
 7355SOL     OW22963   6.847   5.799   0.379
 7355SOL    HW122964   6.934   5.750   0.387
 7355SOL    HW222965   6.777   5.738   0.341
 7356SOL     OW22966   6.865   2.299   6.435
 7356SOL    HW122967   6.900   2.274   6.344
 7356SOL    HW222968   6.771   2.332   6.426
 7357SOL     OW22969   1.162   0.695   1.302
 7357SOL    HW122970   1.150   0.597   1.292
 7357SOL    HW222971   1.106   0.728   1.378
 7358SOL     OW22972   3.443   1.436   3.594
 7358SOL    HW122973   3.346   1.458   3.589
 7358SOL    HW222974   3.454   1.337   3.591
 7359SOL     OW22975   3.300   3.751   4.225
 7359SOL    HW122976   3.331   3.737   4.319
 7359SOL    HW222977   3.239   3.830   4.221
 7360SOL     OW22978   1.741   4.715   5.513
 7360SOL    HW122979   1.703   4.803   5.484
 7360SOL    HW222980   1.670   4.644   5.505
 7361SOL     OW22981   4.734   0.183   1.559
 7361SOL    HW122982   4.712   0.097   1.512
 7361SOL    HW222983   4.710   0.175   1.656
 7362SOL     OW22984   1.305   4.974   0.161
 7362SOL    HW122985   1.375   5.009   0.223
 7362SOL    HW222986   1.334   4.988   0.067
 7363SOL     OW22987   4.983   2.148   6.086
 7363SOL    HW122988   5.065   2.093   6.072
 7363SOL    HW222989   4.911   2.092   6.128
 7364SOL     OW22990   5.333   6.586   0.500
 7364SOL    HW122991   5.249   6.590   0.446
 7364SOL    HW222992   5.347   6.674   0.546
 7365SOL     OW22993   5.401   0.293   1.757
 7365SOL    HW122994   5.349   0.334   1.682
 7365SOL    HW222995   5.368   0.330   1.844
 7366SOL     OW22996   3.165   6.663   0.698
 7366SOL    HW122997   3.175   6.622   0.788
 7366SOL    HW222998   3.108   6.604   0.641
 7367SOL     OW22999   4.775   2.934   6.039
 7367SOL    HW123000   4.764   2.943   6.138
 7367SOL    HW223001   4.745   3.018   5.994
 7368SOL     OW23002   3.294   2.898   5.071
 7368SOL    HW123003   3.290   2.799   5.072
 7368SOL    HW223004   3.247   2.934   5.152
 7369SOL     OW23005   0.217   6.537   6.250
 7369SOL    HW123006   0.236   6.597   6.328
 7369SOL    HW223007   0.229   6.588   6.165
 7370SOL     OW23008   0.291   5.451   1.071
 7370SOL    HW123009   0.252   5.452   1.164
 7370SOL    HW223010   0.261   5.369   1.023
 7371SOL     OW23011   2.333   5.056   3.438
 7371SOL    HW123012   2.307   5.021   3.528
 7371SOL    HW223013   2.261   5.035   3.372
 7372SOL     OW23014   2.174   6.896   5.033
 7372SOL    HW123015   2.167   6.872   5.130
 7372SOL    HW223016   2.095   6.951   5.007
 7373SOL     OW23017   3.920   1.604   0.788
 7373SOL    HW123018   3.997   1.629   0.847
 7373SOL    HW223019   3.843   1.666   0.805
 7374SOL     OW23020   2.504   3.761   0.743
 7374SOL    HW123021   2.530   3.712   0.826
 7374SOL    HW223022   2.531   3.707   0.663
 7375SOL     OW23023   2.071   5.580   2.678
 7375SOL    HW123024   2.039   5.530   2.758
 7375SOL    HW223025   2.150   5.636   2.703
 7376SOL     OW23026   3.692   4.729   0.194
 7376SOL    HW123027   3.730   4.800   0.133
 7376SOL    HW223028   3.650   4.657   0.139
 7377SOL     OW23029   5.109   5.884   1.308
 7377SOL    HW123030   5.206   5.901   1.327
 7377SOL    HW223031   5.095   5.883   1.209
 7378SOL     OW23032   0.748   1.354   6.433
 7378SOL    HW123033   0.831   1.307   6.404
 7378SOL    HW223034   0.746   1.446   6.394
 7379SOL     OW23035   4.726   1.002   0.139
 7379SOL    HW123036   4.766   0.951   0.062
 7379SOL    HW223037   4.701   0.938   0.211
 7380SOL     OW23038   0.396   3.210   6.412
 7380SOL    HW123039   0.444   3.290   6.377
 7380SOL    HW223040   0.319   3.239   6.469
 7381SOL     OW23041   5.681   2.995   0.662
 7381SOL    HW123042   5.688   3.004   0.563
 7381SOL    HW223043   5.681   3.086   0.704
 7382SOL     OW23044   0.721   5.463   3.705
 7382SOL    HW123045   0.801   5.480   3.648
 7382SOL    HW223046   0.749   5.460   3.801
 7383SOL     OW23047   1.896   4.803   2.045
 7383SOL    HW123048   1.875   4.736   1.973
 7383SOL    HW223049   1.945   4.757   2.120
 7384SOL     OW23050   5.711   1.004   1.606
 7384SOL    HW123051   5.611   1.005   1.611
 7384SOL    HW223052   5.741   1.052   1.524
 7385SOL     OW23053   5.021   0.027   2.264
 7385SOL    HW123054   4.928   0.028   2.303
 7385SOL    HW223055   5.034   6.966   2.214
 7386SOL     OW23056   6.123   1.777   5.197
 7386SOL    HW123057   6.078   1.783   5.108
 7386SOL    HW223058   6.104   1.860   5.249
 7387SOL     OW23059   5.042   5.499   4.441
 7387SOL    HW123060   5.124   5.547   4.410
 7387SOL    HW223061   4.995   5.553   4.510
 7388SOL     OW23062   4.940   3.625   4.539
 7388SOL    HW123063   4.861   3.638   4.478
 7388SOL    HW223064   4.955   3.527   4.552
 7389SOL     OW23065   2.280   3.493   5.911
 7389SOL    HW123066   2.219   3.424   5.872
 7389SOL    HW223067   2.375   3.463   5.903
 7390SOL     OW23068   4.715   5.970   0.452
 7390SOL    HW123069   4.686   6.000   0.361
 7390SOL    HW223070   4.637   5.935   0.503
 7391SOL     OW23071   0.250   5.052   0.625
 7391SOL    HW123072   0.187   5.129   0.616
 7391SOL    HW223073   0.306   5.045   0.542
 7392SOL     OW23074   1.035   4.365   1.692
 7392SOL    HW123075   1.107   4.409   1.747
 7392SOL    HW223076   1.022   4.417   1.607
 7393SOL     OW23077   1.365   3.845   0.686
 7393SOL    HW123078   1.374   3.936   0.727
 7393SOL    HW223079   1.317   3.853   0.599
 7394SOL     OW23080   2.924   4.132   6.715
 7394SOL    HW123081   2.865   4.109   6.638
 7394SOL    HW223082   2.998   4.192   6.683
 7395SOL     OW23083   2.446   6.819   0.683
 7395SOL    HW123084   2.387   6.795   0.760
 7395SOL    HW223085   2.537   6.779   0.697
 7396SOL     OW23086   6.775   6.746   2.304
 7396SOL    HW123087   6.707   6.772   2.236
 7396SOL    HW223088   6.809   6.655   2.284
 7397SOL     OW23089   5.558   4.357   4.085
 7397SOL    HW123090   5.644   4.372   4.036
 7397SOL    HW223091   5.577   4.326   4.178
 7398SOL     OW23092   4.030   5.698   3.083
 7398SOL    HW123093   4.047   5.695   3.182
 7398SOL    HW223094   4.106   5.655   3.035
 7399SOL     OW23095   4.901   6.189   4.483
 7399SOL    HW123096   4.974   6.124   4.463
 7399SOL    HW223097   4.814   6.140   4.488
 7400SOL     OW23098   2.568   4.341   6.863
 7400SOL    HW123099   2.662   4.371   6.848
 7400SOL    HW223100   2.549   4.262   6.805
 7401SOL     OW23101   6.456   2.749   4.012
 7401SOL    HW123102   6.505   2.775   4.096
 7401SOL    HW223103   6.498   2.794   3.934
 7402SOL     OW23104   1.593   6.364   5.246
 7402SOL    HW123105   1.502   6.341   5.210
 7402SOL    HW223106   1.582   6.412   5.333
 7403SOL     OW23107   2.189   3.105   1.543
 7403SOL    HW123108   2.118   3.170   1.520
 7403SOL    HW223109   2.205   3.043   1.466
 7404SOL     OW23110   1.436   2.826   2.632
 7404SOL    HW123111   1.525   2.819   2.587
 7404SOL    HW223112   1.406   2.922   2.633
 7405SOL     OW23113   3.266   5.472   5.849
 7405SOL    HW123114   3.305   5.429   5.768
 7405SOL    HW223115   3.280   5.571   5.845
 7406SOL     OW23116   5.886   5.782   2.841
 7406SOL    HW123117   5.861   5.706   2.902
 7406SOL    HW223118   5.806   5.808   2.786
 7407SOL     OW23119   4.057   1.703   6.092
 7407SOL    HW123120   4.145   1.702   6.045
 7407SOL    HW223121   4.034   1.609   6.121
 7408SOL     OW23122   0.715   3.152   4.958
 7408SOL    HW123123   0.749   3.183   4.869
 7408SOL    HW223124   0.656   3.222   4.998
 7409SOL     OW23125   2.030   0.166   4.400
 7409SOL    HW123126   2.074   0.087   4.357
 7409SOL    HW223127   2.092   0.245   4.397
 7410SOL     OW23128   3.907   5.271   5.797
 7410SOL    HW123129   3.889   5.206   5.722
 7410SOL    HW223130   4.000   5.306   5.789
 7411SOL     OW23131   5.940   3.464   5.743
 7411SOL    HW123132   6.018   3.454   5.804
 7411SOL    HW223133   5.970   3.502   5.656
 7412SOL     OW23134   1.201   0.557   0.086
 7412SOL    HW123135   1.208   0.458   0.077
 7412SOL    HW223136   1.161   0.580   0.175
 7413SOL     OW23137   6.460   3.636   3.112
 7413SOL    HW123138   6.411   3.718   3.082
 7413SOL    HW223139   6.559   3.651   3.102
 7414SOL     OW23140   0.140   5.574   1.997
 7414SOL    HW123141   0.226   5.561   1.947
 7414SOL    HW223142   0.114   5.671   1.995
 7415SOL     OW23143   2.632   1.529   3.546
 7415SOL    HW123144   2.536   1.520   3.518
 7415SOL    HW223145   2.645   1.485   3.635
 7416SOL     OW23146   6.369   0.678   2.391
 7416SOL    HW123147   6.314   0.747   2.344
 7416SOL    HW223148   6.375   0.702   2.488
 7417SOL     OW23149   0.310   5.334   1.540
 7417SOL    HW123150   0.226   5.385   1.520
 7417SOL    HW223151   0.381   5.361   1.475
 7418SOL     OW23152   2.290   3.520   1.079
 7418SOL    HW123153   2.358   3.453   1.050
 7418SOL    HW223154   2.332   3.610   1.084
 7419SOL     OW23155   6.162   2.042   5.362
 7419SOL    HW123156   6.139   2.084   5.450
 7419SOL    HW223157   6.189   1.947   5.377
 7420SOL     OW23158   0.551   6.652   1.694
 7420SOL    HW123159   0.608   6.573   1.673
 7420SOL    HW223160   0.607   6.725   1.732
 7421SOL     OW23161   4.584   2.326   0.895
 7421SOL    HW123162   4.575   2.361   0.988
 7421SOL    HW223163   4.666   2.365   0.852
 7422SOL     OW23164   1.821   1.855   0.326
 7422SOL    HW123165   1.905   1.869   0.377
 7422SOL    HW223166   1.841   1.803   0.242
 7423SOL     OW23167   3.034   4.124   0.363
 7423SOL    HW123168   3.062   4.084   0.450
 7423SOL    HW223169   3.078   4.213   0.351
 7424SOL     OW23170   5.632   6.566   3.896
 7424SOL    HW123171   5.730   6.587   3.892
 7424SOL    HW223172   5.583   6.630   3.836
 7425SOL     OW23173   3.934   6.993   5.197
 7425SOL    HW123174   3.970   0.019   5.118
 7425SOL    HW223175   3.844   0.006   5.222
 7426SOL     OW23176   7.021   0.456   6.539
 7426SOL    HW123177   0.063   0.429   6.608
 7426SOL    HW223178   6.978   0.543   6.565
 7427SOL     OW23179   5.216   5.248   6.072
 7427SOL    HW123180   5.146   5.183   6.101
 7427SOL    HW223181   5.172   5.331   6.039
 7428SOL     OW23182   5.706   1.570   5.222
 7428SOL    HW123183   5.699   1.511   5.142
 7428SOL    HW223184   5.650   1.652   5.209
 7429SOL     OW23185   5.676   6.429   3.160
 7429SOL    HW123186   5.680   6.330   3.176
 7429SOL    HW223187   5.745   6.454   3.092
 7430SOL     OW23188   0.803   4.078   4.364
 7430SOL    HW123189   0.774   4.173   4.374
 7430SOL    HW223190   0.899   4.069   4.393
 7431SOL     OW23191   6.882   3.627   2.919
 7431SOL    HW123192   6.860   3.663   3.010
 7431SOL    HW223193   6.813   3.658   2.853
 7432SOL     OW23194   1.994   6.205   5.419
 7432SOL    HW123195   2.061   6.220   5.346
 7432SOL    HW223196   2.031   6.141   5.486
 7433SOL     OW23197   0.607   6.942   0.772
 7433SOL    HW123198   0.565   0.002   0.804
 7433SOL    HW223199   0.540   6.888   0.722
 7434SOL     OW23200   4.478   6.859   0.563
 7434SOL    HW123201   4.522   6.841   0.475
 7434SOL    HW223202   4.547   6.855   0.635
 7435SOL     OW23203   0.934   4.419   6.818
 7435SOL    HW123204   0.990   4.491   6.858
 7435SOL    HW223205   0.986   4.334   6.815
 7436SOL     OW23206   5.237   3.623   6.879
 7436SOL    HW123207   5.277   3.612   6.788
 7436SOL    HW223208   5.140   3.645   6.871
 7437SOL     OW23209   6.532   6.703   5.903
 7437SOL    HW123210   6.574   6.633   5.844
 7437SOL    HW223211   6.579   6.790   5.889
 7438SOL     OW23212   6.853   4.287   0.741
 7438SOL    HW123213   6.791   4.225   0.693
 7438SOL    HW223214   6.947   4.252   0.735
 7439SOL     OW23215   1.690   6.459   2.801
 7439SOL    HW123216   1.700   6.536   2.865
 7439SOL    HW223217   1.596   6.456   2.768
 7440SOL     OW23218   1.712   0.898   4.580
 7440SOL    HW123219   1.659   0.875   4.498
 7440SOL    HW223220   1.777   0.824   4.599
 7441SOL     OW23221   0.217   0.803   3.853
 7441SOL    HW123222   0.162   0.881   3.824
 7441SOL    HW223223   0.178   0.764   3.937
 7442SOL     OW23224   1.926   1.006   0.259
 7442SOL    HW123225   1.871   1.026   0.340
 7442SOL    HW223226   1.936   0.907   0.249
 7443SOL     OW23227   6.019   1.538   1.511
 7443SOL    HW123228   6.046   1.530   1.607
 7443SOL    HW223229   6.037   1.631   1.478
 7444SOL     OW23230   1.950   3.022   4.986
 7444SOL    HW123231   2.024   3.053   4.926
 7444SOL    HW223232   1.935   2.924   4.972
 7445SOL     OW23233   5.576   3.030   2.588
 7445SOL    HW123234   5.670   3.065   2.580
 7445SOL    HW223235   5.576   2.931   2.573
 7446SOL     OW23236   4.602   4.370   2.662
 7446SOL    HW123237   4.682   4.430   2.666
 7446SOL    HW223238   4.531   4.407   2.721
 7447SOL     OW23239   1.526   2.992   6.385
 7447SOL    HW123240   1.585   3.070   6.365
 7447SOL    HW223241   1.430   3.021   6.380
 7448SOL     OW23242   7.012   1.241   5.358
 7448SOL    HW123243   0.033   1.280   5.279
 7448SOL    HW223244   0.054   1.227   5.432
 7449SOL     OW23245   3.088   1.205   2.611
 7449SOL    HW123246   3.168   1.162   2.652
 7449SOL    HW223247   3.043   1.264   2.678
 7450SOL     OW23248   3.885   2.019   1.986
 7450SOL    HW123249   3.870   2.040   1.889
 7450SOL    HW223250   3.830   2.080   2.043
 7451SOL     OW23251   0.872   0.665   1.911
 7451SOL    HW123252   0.905   0.752   1.875
 7451SOL    HW223253   0.774   0.671   1.928
 7452SOL     OW23254   1.925   5.243   3.221
 7452SOL    HW123255   1.902   5.149   3.243
 7452SOL    HW223256   1.903   5.261   3.125
 7453SOL     OW23257   6.290   4.547   4.615
 7453SOL    HW123258   6.303   4.527   4.518
 7453SOL    HW223259   6.314   4.467   4.670
 7454SOL     OW23260   3.017   2.386   0.019
 7454SOL    HW123261   3.030   2.299   6.997
 7454SOL    HW223262   2.952   2.375   0.094
 7455SOL     OW23263   5.343   0.028   0.901
 7455SOL    HW123264   5.398   7.023   0.823
 7455SOL    HW223265   5.264   0.080   0.869
 7456SOL     OW23266   1.552   3.279   6.509
 7456SOL    HW123267   1.557   3.375   6.484
 7456SOL    HW223268   1.541   3.271   6.608
 7457SOL     OW23269   0.337   6.620   5.528
 7457SOL    HW123270   0.318   6.523   5.517
 7457SOL    HW223271   0.419   6.633   5.584
 7458SOL     OW23272   2.975   0.414   1.877
 7458SOL    HW123273   2.892   0.362   1.855
 7458SOL    HW223274   3.036   0.414   1.798
 7459SOL     OW23275   3.773   5.576   3.287
 7459SOL    HW123276   3.754   5.591   3.190
 7459SOL    HW223277   3.832   5.496   3.297
 7460SOL     OW23278   1.281   5.322   6.334
 7460SOL    HW123279   1.285   5.396   6.402
 7460SOL    HW223280   1.200   5.266   6.351
 7461SOL     OW23281   3.485   1.650   4.054
 7461SOL    HW123282   3.461   1.563   4.097
 7461SOL    HW223283   3.430   1.723   4.095
 7462SOL     OW23284   1.323   2.318   4.166
 7462SOL    HW123285   1.356   2.330   4.072
 7462SOL    HW223286   1.397   2.338   4.230
 7463SOL     OW23287   3.977   3.801   2.457
 7463SOL    HW123288   4.050   3.734   2.449
 7463SOL    HW223289   3.969   3.831   2.552
 7464SOL     OW23290   4.739   5.635   0.501
 7464SOL    HW123291   4.657   5.673   0.460
 7464SOL    HW223292   4.719   5.604   0.594
 7465SOL     OW23293   2.820   1.768   2.607
 7465SOL    HW123294   2.788   1.757   2.513
 7465SOL    HW223295   2.870   1.687   2.635
 7466SOL     OW23296   0.265   6.457   0.800
 7466SOL    HW123297   0.178   6.427   0.761
 7466SOL    HW223298   0.262   6.445   0.899
 7467SOL     OW23299   4.320   2.516   0.914
 7467SOL    HW123300   4.382   2.438   0.907
 7467SOL    HW223301   4.338   2.566   0.998
 7468SOL     OW23302   5.028   4.773   4.433
 7468SOL    HW123303   4.930   4.788   4.443
 7468SOL    HW223304   5.062   4.720   4.510
 7469SOL     OW23305   5.329   2.006   0.791
 7469SOL    HW123306   5.338   1.912   0.757
 7469SOL    HW223307   5.234   2.036   0.779
 7470SOL     OW23308   0.837   3.572   3.382
 7470SOL    HW123309   0.838   3.645   3.449
 7470SOL    HW223310   0.758   3.512   3.398
 7471SOL     OW23311   6.765   4.190   5.743
 7471SOL    HW123312   6.814   4.197   5.656
 7471SOL    HW223313   6.806   4.117   5.798
 7472SOL     OW23314   4.627   5.786   2.822
 7472SOL    HW123315   4.575   5.752   2.901
 7472SOL    HW223316   4.653   5.709   2.764
 7473SOL     OW23317   1.771   2.086   6.181
 7473SOL    HW123318   1.693   2.023   6.178
 7473SOL    HW223319   1.855   2.037   6.158
 7474SOL     OW23320   2.454   1.125   2.115
 7474SOL    HW123321   2.388   1.134   2.041
 7474SOL    HW223322   2.503   1.211   2.127
 7475SOL     OW23323   5.221   0.945   6.314
 7475SOL    HW123324   5.150   1.001   6.359
 7475SOL    HW223325   5.228   0.857   6.361
 7476SOL     OW23326   1.768   6.659   4.584
 7476SOL    HW123327   1.858   6.690   4.614
 7476SOL    HW223328   1.755   6.679   4.487
 7477SOL     OW23329   4.833   4.332   4.825
 7477SOL    HW123330   4.887   4.384   4.892
 7477SOL    HW223331   4.736   4.349   4.840
 7478SOL     OW23332   0.062   4.609   1.173
 7478SOL    HW123333   0.008   4.691   1.189
 7478SOL    HW223334   0.002   4.533   1.150
 7479SOL     OW23335   3.591   0.032   4.776
 7479SOL    HW123336   3.617   7.003   4.857
 7479SOL    HW223337   3.622   7.009   4.694
 7480SOL     OW23338   5.708   5.034   0.119
 7480SOL    HW123339   5.784   4.982   0.079
 7480SOL    HW223340   5.729   5.131   0.116
 7481SOL     OW23341   5.708   6.229   0.584
 7481SOL    HW123342   5.796   6.254   0.626
 7481SOL    HW223343   5.639   6.296   0.609
 7482SOL     OW23344   4.816   0.235   5.046
 7482SOL    HW123345   4.893   0.206   5.102
 7482SOL    HW223346   4.839   0.223   4.949
 7483SOL     OW23347   3.837   0.289   6.957
 7483SOL    HW123348   3.753   0.337   6.935
 7483SOL    HW223349   3.821   0.228   0.011
 7484SOL     OW23350   3.250   6.324   0.710
 7484SOL    HW123351   3.279   6.244   0.763
 7484SOL    HW223352   3.285   6.407   0.754
 7485SOL     OW23353   1.276   0.166   5.127
 7485SOL    HW123354   1.228   0.146   5.041
 7485SOL    HW223355   1.221   0.228   5.183
 7486SOL     OW23356   1.653   2.364   5.049
 7486SOL    HW123357   1.595   2.299   5.000
 7486SOL    HW223358   1.670   2.330   5.142
 7487SOL     OW23359   2.276   5.853   2.620
 7487SOL    HW123360   2.263   5.815   2.528
 7487SOL    HW223361   2.195   5.904   2.647
 7488SOL     OW23362   4.370   2.264   4.533
 7488SOL    HW123363   4.424   2.303   4.607
 7488SOL    HW223364   4.283   2.314   4.525
 7489SOL     OW23365   1.098   3.495   3.405
 7489SOL    HW123366   1.155   3.575   3.424
 7489SOL    HW223367   1.006   3.524   3.379
 7490SOL     OW23368   5.741   0.657   2.458
 7490SOL    HW123369   5.677   0.610   2.518
 7490SOL    HW223370   5.712   0.646   2.363
 7491SOL     OW23371   1.173   0.232   1.076
 7491SOL    HW123372   1.252   0.188   1.118
 7491SOL    HW223373   1.103   0.164   1.055
 7492SOL     OW23374   1.502   2.381   2.802
 7492SOL    HW123375   1.563   2.365   2.725
 7492SOL    HW223376   1.465   2.474   2.798
 7493SOL     OW23377   5.929   4.225   6.966
 7493SOL    HW123378   5.925   4.322   6.944
 7493SOL    HW223379   5.953   4.212   0.038
 7494SOL     OW23380   5.064   2.075   1.117
 7494SOL    HW123381   5.024   2.121   1.038
 7494SOL    HW223382   5.142   2.127   1.151
 7495SOL     OW23383   1.516   1.786   3.417
 7495SOL    HW123384   1.470   1.706   3.456
 7495SOL    HW223385   1.464   1.868   3.438
 7496SOL     OW23386   0.263   4.932   5.980
 7496SOL    HW123387   0.291   4.958   6.073
 7496SOL    HW223388   0.291   4.838   5.961
 7497SOL     OW23389   0.305   4.172   3.067
 7497SOL    HW123390   0.384   4.125   3.107
 7497SOL    HW223391   0.282   4.131   2.979
 7498SOL     OW23392   4.933   1.831   4.002
 7498SOL    HW123393   4.988   1.862   3.925
 7498SOL    HW223394   4.850   1.786   3.969
 7499SOL     OW23395   3.476   4.951   3.391
 7499SOL    HW123396   3.397   5.009   3.409
 7499SOL    HW223397   3.508   4.911   3.476
 7500SOL     OW23398   4.904   4.002   1.773
 7500SOL    HW123399   4.955   4.044   1.697
 7500SOL    HW223400   4.873   4.073   1.835
 7501SOL     OW23401   1.079   4.332   3.516
 7501SOL    HW123402   1.159   4.357   3.571
 7501SOL    HW223403   1.054   4.409   3.457
 7502SOL     OW23404   1.165   1.887   4.654
 7502SOL    HW123405   1.090   1.830   4.687
 7502SOL    HW223406   1.183   1.866   4.558
 7503SOL     OW23407   2.352   2.224   0.346
 7503SOL    HW123408   2.351   2.198   0.442
 7503SOL    HW223409   2.341   2.323   0.338
 7504SOL     OW23410   5.358   5.500   5.907
 7504SOL    HW123411   5.272   5.498   5.959
 7504SOL    HW223412   5.423   5.559   5.954
 7505SOL     OW23413   1.675   1.815   3.051
 7505SOL    HW123414   1.611   1.854   2.985
 7505SOL    HW223415   1.669   1.864   3.138
 7506SOL     OW23416   3.715   0.810   2.888
 7506SOL    HW123417   3.659   0.812   2.970
 7506SOL    HW223418   3.811   0.802   2.913
 7507SOL     OW23419   1.806   6.874   5.269
 7507SOL    HW123420   1.804   6.895   5.171
 7507SOL    HW223421   1.740   6.801   5.289
 7508SOL     OW23422   5.020   6.288   3.243
 7508SOL    HW123423   5.080   6.361   3.275
 7508SOL    HW223424   5.004   6.299   3.145
 7509SOL     OW23425   2.553   4.316   6.508
 7509SOL    HW123426   2.483   4.270   6.564
 7509SOL    HW223427   2.508   4.385   6.451
 7510SOL     OW23428   3.954   3.202   4.387
 7510SOL    HW123429   3.885   3.273   4.377
 7510SOL    HW223430   3.969   3.157   4.300
 7511SOL     OW23431   1.382   1.089   2.216
 7511SOL    HW123432   1.401   0.995   2.185
 7511SOL    HW223433   1.382   1.151   2.138
 7512SOL     OW23434   2.033   2.551   2.753
 7512SOL    HW123435   1.939   2.579   2.774
 7512SOL    HW223436   2.068   2.495   2.828
 7513SOL     OW23437   2.272   2.642   6.998
 7513SOL    HW123438   2.371   2.631   6.999
 7513SOL    HW223439   2.249   2.739   7.000
 7514SOL     OW23440   2.834   5.418   2.882
 7514SOL    HW123441   2.826   5.491   2.951
 7514SOL    HW223442   2.855   5.332   2.927
 7515SOL     OW23443   6.982   5.025   3.278
 7515SOL    HW123444   0.018   5.105   3.271
 7515SOL    HW223445   6.939   5.024   3.368
 7516SOL     OW23446   1.611   3.822   1.299
 7516SOL    HW123447   1.523   3.845   1.341
 7516SOL    HW223448   1.683   3.877   1.342
 7517SOL     OW23449   1.814   5.175   2.219
 7517SOL    HW123450   1.852   5.219   2.138
 7517SOL    HW223451   1.811   5.242   2.294
 7518SOL     OW23452   4.879   3.829   2.258
 7518SOL    HW123453   4.895   3.796   2.165
 7518SOL    HW223454   4.821   3.910   2.255
 7519SOL     OW23455   2.091   0.842   4.962
 7519SOL    HW123456   2.045   0.904   5.025
 7519SOL    HW223457   2.065   0.865   4.868
 7520SOL     OW23458   1.834   0.280   3.954
 7520SOL    HW123459   1.924   0.311   3.923
 7520SOL    HW223460   1.812   0.193   3.909
 7521SOL     OW23461   4.312   2.583   6.033
 7521SOL    HW123462   4.259   2.650   5.979
 7521SOL    HW223463   4.302   2.604   6.130
 7522SOL     OW23464   1.885   6.528   2.426
 7522SOL    HW123465   1.911   6.548   2.520
 7522SOL    HW223466   1.931   6.592   2.364
 7523SOL     OW23467   6.728   6.351   6.219
 7523SOL    HW123468   6.639   6.368   6.178
 7523SOL    HW223469   6.716   6.303   6.306
 7524SOL     OW23470   6.273   1.766   5.994
 7524SOL    HW123471   6.347   1.759   5.927
 7524SOL    HW223472   6.255   1.676   6.034
 7525SOL     OW23473   0.192   6.965   0.513
 7525SOL    HW123474   0.267   6.959   0.578
 7525SOL    HW223475   0.175   0.037   0.491
 7526SOL     OW23476   4.140   3.326   5.314
 7526SOL    HW123477   4.053   3.357   5.276
 7526SOL    HW223478   4.125   3.247   5.373
 7527SOL     OW23479   2.355   6.543   1.305
 7527SOL    HW123480   2.367   6.537   1.404
 7527SOL    HW223481   2.444   6.548   1.261
 7528SOL     OW23482   6.286   2.265   0.375
 7528SOL    HW123483   6.264   2.236   0.282
 7528SOL    HW223484   6.202   2.271   0.430
 7529SOL     OW23485   1.350   0.015   4.051
 7529SOL    HW123486   1.419   0.029   3.980
 7529SOL    HW223487   1.393   7.001   4.132
 7530SOL     OW23488   0.323   3.179   2.746
 7530SOL    HW123489   0.366   3.206   2.832
 7530SOL    HW223490   0.330   3.080   2.735
 7531SOL     OW23491   1.514   2.746   4.239
 7531SOL    HW123492   1.439   2.766   4.176
 7531SOL    HW223493   1.549   2.831   4.278
 7532SOL     OW23494   4.575   4.373   2.221
 7532SOL    HW123495   4.602   4.310   2.293
 7532SOL    HW223496   4.551   4.321   2.139
 7533SOL     OW23497   3.709   6.552   5.362
 7533SOL    HW123498   3.680   6.473   5.309
 7533SOL    HW223499   3.692   6.535   5.459
 7534SOL     OW23500   4.355   6.369   4.214
 7534SOL    HW123501   4.373   6.425   4.133
 7534SOL    HW223502   4.274   6.404   4.261
 7535SOL     OW23503   3.023   4.760   6.763
 7535SOL    HW123504   2.996   4.672   6.724
 7535SOL    HW223505   3.007   4.832   6.696
 7536SOL     OW23506   4.183   5.139   6.841
 7536SOL    HW123507   4.197   5.238   6.847
 7536SOL    HW223508   4.205   5.109   6.748
 7537SOL     OW23509   2.493   4.465   4.644
 7537SOL    HW123510   2.493   4.387   4.582
 7537SOL    HW223511   2.444   4.541   4.602
 7538SOL     OW23512   3.511   4.127   5.551
 7538SOL    HW123513   3.541   4.147   5.458
 7538SOL    HW223514   3.427   4.073   5.549
 7539SOL     OW23515   1.142   2.988   4.683
 7539SOL    HW123516   1.191   2.962   4.600
 7539SOL    HW223517   1.133   3.088   4.686
 7540SOL     OW23518   2.891   1.108   0.326
 7540SOL    HW123519   2.901   1.012   0.351
 7540SOL    HW223520   2.937   1.165   0.394
 7541SOL     OW23521   0.421   1.812   5.989
 7541SOL    HW123522   0.494   1.863   6.035
 7541SOL    HW223523   0.456   1.723   5.961
 7542SOL     OW23524   1.879   0.447   4.627
 7542SOL    HW123525   1.860   0.412   4.718
 7542SOL    HW223526   1.869   0.373   4.560
 7543SOL     OW23527   2.777   2.603   1.754
 7543SOL    HW123528   2.681   2.612   1.779
 7543SOL    HW223529   2.827   2.554   1.826
 7544SOL     OW23530   1.335   2.036   2.231
 7544SOL    HW123531   1.334   1.948   2.182
 7544SOL    HW223532   1.255   2.090   2.204
 7545SOL     OW23533   4.041   0.234   3.865
 7545SOL    HW123534   3.954   0.279   3.847
 7545SOL    HW223535   4.063   0.240   3.962
 7546SOL     OW23536   4.962   6.827   4.911
 7546SOL    HW123537   4.907   6.747   4.936
 7546SOL    HW223538   5.019   6.854   4.989
 7547SOL     OW23539   2.302   6.283   0.428
 7547SOL    HW123540   2.358   6.259   0.507
 7547SOL    HW223541   2.337   6.368   0.388
 7548SOL     OW23542   2.661   3.982   0.809
 7548SOL    HW123543   2.757   3.953   0.817
 7548SOL    HW223544   2.603   3.901   0.800
 7549SOL     OW23545   6.095   0.091   2.722
 7549SOL    HW123546   6.090   0.187   2.750
 7549SOL    HW223547   6.079   0.084   2.624
 7550SOL     OW23548   1.077   5.711   0.612
 7550SOL    HW123549   1.167   5.685   0.576
 7550SOL    HW223550   1.007   5.650   0.576
 7551SOL     OW23551   4.981   3.775   6.271
 7551SOL    HW123552   5.075   3.803   6.251
 7551SOL    HW223553   4.958   3.694   6.217
 7552SOL     OW23554   3.571   5.901   4.219
 7552SOL    HW123555   3.574   5.957   4.302
 7552SOL    HW223556   3.649   5.924   4.161
 7553SOL     OW23557   4.657   3.971   5.921
 7553SOL    HW123558   4.575   3.981   5.865
 7553SOL    HW223559   4.731   3.934   5.866
 7554SOL     OW23560   6.876   1.374   0.598
 7554SOL    HW123561   6.787   1.349   0.635
 7554SOL    HW223562   6.921   1.440   0.659
 7555SOL     OW23563   2.146   6.785   6.387
 7555SOL    HW123564   2.177   6.710   6.446
 7555SOL    HW223565   2.101   6.746   6.306
 7556SOL     OW23566   7.012   3.798   2.525
 7556SOL    HW123567   0.043   3.869   2.569
 7556SOL    HW223568   0.044   3.717   2.509
 7557SOL     OW23569   4.664   4.164   0.884
 7557SOL    HW123570   4.574   4.122   0.891
 7557SOL    HW223571   4.713   4.124   0.806
 7558SOL     OW23572   1.548   3.567   3.874
 7558SOL    HW123573   1.540   3.582   3.973
 7558SOL    HW223574   1.501   3.482   3.849
 7559SOL     OW23575   0.728   4.948   0.115
 7559SOL    HW123576   0.827   4.950   0.128
 7559SOL    HW223577   0.703   5.004   0.036
 7560SOL     OW23578   4.409   0.067   6.361
 7560SOL    HW123579   4.403   7.015   6.296
 7560SOL    HW223580   4.378   0.037   6.451
 7561SOL     OW23581   1.594   2.825   0.323
 7561SOL    HW123582   1.496   2.832   0.307
 7561SOL    HW223583   1.623   2.730   0.311
 7562SOL     OW23584   4.548   6.573   4.972
 7562SOL    HW123585   4.633   6.598   5.019
 7562SOL    HW223586   4.487   6.653   4.968
 7563SOL     OW23587   2.094   1.843   3.935
 7563SOL    HW123588   2.079   1.797   3.847
 7563SOL    HW223589   2.166   1.912   3.925
 7564SOL     OW23590   6.318   5.642   4.193
 7564SOL    HW123591   6.332   5.713   4.124
 7564SOL    HW223592   6.297   5.684   4.281
 7565SOL     OW23593   5.060   5.100   6.391
 7565SOL    HW123594   4.986   5.045   6.429
 7565SOL    HW223595   5.148   5.063   6.421
 7566SOL     OW23596   1.586   5.324   3.802
 7566SOL    HW123597   1.538   5.244   3.839
 7566SOL    HW223598   1.679   5.298   3.777
 7567SOL     OW23599   2.913   3.942   6.891
 7567SOL    HW123600   2.920   4.015   6.822
 7567SOL    HW223601   2.929   3.981   6.982
 7568SOL     OW23602   4.222   4.735   3.850
 7568SOL    HW123603   4.303   4.702   3.801
 7568SOL    HW223604   4.216   4.688   3.938
 7569SOL     OW23605   3.931   7.012   2.800
 7569SOL    HW123606   3.889   6.923   2.782
 7569SOL    HW223607   3.860   0.059   2.797
 7570SOL     OW23608   6.103   5.119   5.190
 7570SOL    HW123609   6.131   5.033   5.231
 7570SOL    HW223610   6.006   5.115   5.165
 7571SOL     OW23611   6.729   4.447   0.248
 7571SOL    HW123612   6.793   4.456   0.325
 7571SOL    HW223613   6.752   4.366   0.195
 7572SOL     OW23614   5.961   1.388   3.694
 7572SOL    HW123615   5.954   1.338   3.780
 7572SOL    HW223616   5.873   1.428   3.671
 7573SOL     OW23617   2.928   5.120   3.901
 7573SOL    HW123618   2.971   5.179   3.969
 7573SOL    HW223619   2.834   5.151   3.885
 7574SOL     OW23620   4.284   6.267   1.551
 7574SOL    HW123621   4.186   6.246   1.552
 7574SOL    HW223622   4.335   6.190   1.588
 7575SOL     OW23623   4.890   3.251   4.022
 7575SOL    HW123624   4.794   3.233   3.998
 7575SOL    HW223625   4.941   3.275   3.939
 7576SOL     OW23626   0.269   4.460   1.692
 7576SOL    HW123627   0.305   4.479   1.783
 7576SOL    HW223628   0.300   4.530   1.628
 7577SOL     OW23629   3.830   1.562   3.856
 7577SOL    HW123630   3.832   1.618   3.938
 7577SOL    HW223631   3.924   1.548   3.822
 7578SOL     OW23632   2.011   5.635   5.534
 7578SOL    HW123633   2.102   5.670   5.556
 7578SOL    HW223634   2.011   5.599   5.441
 7579SOL     OW23635   4.388   2.154   4.259
 7579SOL    HW123636   4.387   2.186   4.354
 7579SOL    HW223637   4.311   2.192   4.210
 7580SOL     OW23638   1.659   3.318   2.215
 7580SOL    HW123639   1.562   3.341   2.200
 7580SOL    HW223640   1.708   3.400   2.247
 7581SOL     OW23641   5.801   0.968   1.195
 7581SOL    HW123642   5.705   0.992   1.177
 7581SOL    HW223643   5.829   1.006   1.283
 7582SOL     OW23644   3.970   3.005   1.466
 7582SOL    HW123645   4.020   2.920   1.455
 7582SOL    HW223646   3.940   3.039   1.377
 7583SOL     OW23647   6.190   4.127   3.379
 7583SOL    HW123648   6.173   4.086   3.469
 7583SOL    HW223649   6.110   4.178   3.349
 7584SOL     OW23650   2.008   2.299   2.141
 7584SOL    HW123651   2.009   2.251   2.228
 7584SOL    HW223652   1.915   2.301   2.105
 7585SOL     OW23653   3.154   4.090   0.617
 7585SOL    HW123654   3.067   4.066   0.660
 7585SOL    HW223655   3.157   4.188   0.598
 7586SOL     OW23656   1.265   2.786   3.396
 7586SOL    HW123657   1.234   2.813   3.487
 7586SOL    HW223658   1.249   2.861   3.331
 7587SOL     OW23659   3.139   0.559   5.496
 7587SOL    HW123660   3.063   0.594   5.550
 7587SOL    HW223661   3.171   0.472   5.534
 7588SOL     OW23662   0.356   4.738   1.136
 7588SOL    HW123663   0.290   4.691   1.194
 7588SOL    HW223664   0.320   4.827   1.110
 7589SOL     OW23665   4.410   5.802   6.001
 7589SOL    HW123666   4.403   5.754   6.089
 7589SOL    HW223667   4.472   5.752   5.941
 7590SOL     OW23668   2.632   0.662   5.077
 7590SOL    HW123669   2.710   0.652   5.138
 7590SOL    HW223670   2.663   0.667   4.982
 7591SOL     OW23671   6.515   5.781   6.216
 7591SOL    HW123672   6.608   5.760   6.186
 7591SOL    HW223673   6.505   5.758   6.313
 7592SOL     OW23674   4.489   4.918   6.099
 7592SOL    HW123675   4.535   4.838   6.059
 7592SOL    HW223676   4.510   4.999   6.044
 7593SOL     OW23677   6.470   4.687   0.008
 7593SOL    HW123678   6.506   4.659   6.943
 7593SOL    HW223679   6.527   4.648   0.081
 7594SOL     OW23680   0.939   0.172   4.442
 7594SOL    HW123681   0.922   0.228   4.361
 7594SOL    HW223682   1.021   0.204   4.489
 7595SOL     OW23683   0.185   4.045   6.536
 7595SOL    HW123684   0.250   4.006   6.470
 7595SOL    HW223685   0.227   4.047   6.627
 7596SOL     OW23686   5.235   5.201   2.221
 7596SOL    HW123687   5.302   5.274   2.234
 7596SOL    HW223688   5.155   5.219   2.279
 7597SOL     OW23689   2.243   4.311   2.767
 7597SOL    HW123690   2.275   4.312   2.862
 7597SOL    HW223691   2.240   4.405   2.733
 7598SOL     OW23692   6.704   1.276   2.497
 7598SOL    HW123693   6.658   1.241   2.415
 7598SOL    HW223694   6.722   1.373   2.486
 7599SOL     OW23695   5.277   3.931   2.097
 7599SOL    HW123696   5.210   3.928   2.171
 7599SOL    HW223697   5.230   3.915   2.010
 7600SOL     OW23698   2.349   2.205   2.620
 7600SOL    HW123699   2.411   2.164   2.686
 7600SOL    HW223700   2.389   2.290   2.585
 7601SOL     OW23701   2.046   0.857   5.599
 7601SOL    HW123702   2.143   0.846   5.578
 7601SOL    HW223703   1.994   0.783   5.555
 7602SOL     OW23704   2.055   3.071   5.235
 7602SOL    HW123705   1.993   3.042   5.162
 7602SOL    HW223706   2.116   3.143   5.201
 7603SOL     OW23707   6.387   1.303   2.460
 7603SOL    HW123708   6.459   1.282   2.394
 7603SOL    HW223709   6.387   1.401   2.480
 7604SOL     OW23710   5.832   5.629   6.502
 7604SOL    HW123711   5.881   5.648   6.587
 7604SOL    HW223712   5.897   5.632   6.425
 7605SOL     OW23713   5.158   3.286   5.578
 7605SOL    HW123714   5.176   3.254   5.485
 7605SOL    HW223715   5.194   3.378   5.588
 7606SOL     OW23716   5.584   1.182   3.905
 7606SOL    HW123717   5.612   1.245   3.832
 7606SOL    HW223718   5.486   1.191   3.921
 7607SOL     OW23719   4.909   6.087   6.060
 7607SOL    HW123720   4.968   6.007   6.047
 7607SOL    HW223721   4.933   6.132   6.146
 7608SOL     OW23722   3.774   3.457   4.835
 7608SOL    HW123723   3.678   3.474   4.815
 7608SOL    HW223724   3.830   3.489   4.758
 7609SOL     OW23725   1.302   2.934   2.969
 7609SOL    HW123726   1.247   2.945   2.886
 7609SOL    HW223727   1.260   2.865   3.028
 7610SOL     OW23728   5.673   0.294   2.399
 7610SOL    HW123729   5.623   0.231   2.459
 7610SOL    HW223730   5.771   0.286   2.417
 7611SOL     OW23731   1.166   1.574   1.760
 7611SOL    HW123732   1.257   1.605   1.790
 7611SOL    HW223733   1.117   1.536   1.838
 7612SOL     OW23734   3.542   1.238   2.764
 7612SOL    HW123735   3.465   1.273   2.817
 7612SOL    HW223736   3.577   1.310   2.705
 7613SOL     OW23737   6.593   0.622   2.253
 7613SOL    HW123738   6.657   0.560   2.298
 7613SOL    HW223739   6.508   0.625   2.304
 7614SOL     OW23740   4.330   0.888   0.437
 7614SOL    HW123741   4.282   0.858   0.355
 7614SOL    HW223742   4.265   0.923   0.504
 7615SOL     OW23743   4.290   4.487   5.932
 7615SOL    HW123744   4.211   4.459   5.987
 7615SOL    HW223745   4.337   4.405   5.898
 7616SOL     OW23746   6.995   6.175   3.551
 7616SOL    HW123747   6.944   6.160   3.467
 7616SOL    HW223748   7.013   6.088   3.596
 7617SOL     OW23749   4.135   5.387   3.138
 7617SOL    HW123750   4.126   5.411   3.234
 7617SOL    HW223751   4.186   5.459   3.090
 7618SOL     OW23752   3.322   1.711   0.311
 7618SOL    HW123753   3.329   1.773   0.389
 7618SOL    HW223754   3.226   1.688   0.294
 7619SOL     OW23755   5.725   3.614   5.845
 7619SOL    HW123756   5.816   3.593   5.808
 7619SOL    HW223757   5.690   3.534   5.893
 7620SOL     OW23758   2.409   5.734   2.041
 7620SOL    HW123759   2.503   5.767   2.049
 7620SOL    HW223760   2.346   5.811   2.052
 7621SOL     OW23761   2.781   3.176   1.471
 7621SOL    HW123762   2.873   3.168   1.432
 7621SOL    HW223763   2.714   3.140   1.406
 7622SOL     OW23764   5.035   2.005   0.739
 7622SOL    HW123765   4.990   2.079   0.789
 7622SOL    HW223766   4.992   1.994   0.650
 7623SOL     OW23767   0.025   6.817   4.781
 7623SOL    HW123768   6.976   6.750   4.792
 7623SOL    HW223769   0.079   6.820   4.865
 7624SOL     OW23770   0.117   1.278   4.836
 7624SOL    HW123771   0.208   1.319   4.836
 7624SOL    HW223772   0.051   1.343   4.873
 7625SOL     OW23773   2.119   4.712   0.485
 7625SOL    HW123774   2.089   4.740   0.393
 7625SOL    HW223775   2.211   4.674   0.480
 7626SOL     OW23776   2.649   3.905   5.320
 7626SOL    HW123777   2.714   3.862   5.258
 7626SOL    HW223778   2.570   3.939   5.269
 7627SOL     OW23779   6.879   0.247   6.944
 7627SOL    HW123780   6.878   0.320   6.876
 7627SOL    HW223781   6.973   0.213   6.956
 7628SOL     OW23782   4.180   1.745   0.277
 7628SOL    HW123783   4.176   1.738   0.376
 7628SOL    HW223784   4.238   1.822   0.251
 7629SOL     OW23785   6.295   5.372   2.662
 7629SOL    HW123786   6.328   5.467   2.658
 7629SOL    HW223787   6.310   5.335   2.754
 7630SOL     OW23788   5.491   1.440   1.904
 7630SOL    HW123789   5.451   1.431   1.996
 7630SOL    HW223790   5.507   1.537   1.884
 7631SOL     OW23791   0.766   0.180   3.852
 7631SOL    HW123792   0.696   0.151   3.786
 7631SOL    HW223793   0.774   0.112   3.924
 7632SOL     OW23794   4.788   0.723   4.735
 7632SOL    HW123795   4.735   0.711   4.819
 7632SOL    HW223796   4.772   0.814   4.697
 7633SOL     OW23797   5.702   3.362   5.980
 7633SOL    HW123798   5.743   3.305   5.909
 7633SOL    HW223799   5.606   3.379   5.958
 7634SOL     OW23800   0.817   2.655   1.981
 7634SOL    HW123801   0.899   2.693   2.023
 7634SOL    HW223802   0.811   2.686   1.886
 7635SOL     OW23803   1.933   5.021   5.749
 7635SOL    HW123804   1.893   4.932   5.773
 7635SOL    HW223805   1.863   5.077   5.705
 7636SOL     OW23806   0.788   1.520   3.236
 7636SOL    HW123807   0.847   1.599   3.223
 7636SOL    HW223808   0.756   1.517   3.331
 7637SOL     OW23809   2.931   6.332   4.001
 7637SOL    HW123810   2.884   6.408   4.047
 7637SOL    HW223811   2.987   6.283   4.068
 7638SOL     OW23812   4.783   4.827   2.044
 7638SOL    HW123813   4.709   4.889   2.068
 7638SOL    HW223814   4.760   4.735   2.076
 7639SOL     OW23815   0.828   1.963   4.573
 7639SOL    HW123816   0.830   2.062   4.586
 7639SOL    HW223817   0.840   1.941   4.476
 7640SOL     OW23818   2.052   2.681   6.105
 7640SOL    HW123819   1.998   2.761   6.080
 7640SOL    HW223820   2.025   2.603   6.048
 7641SOL     OW23821   5.720   3.329   1.871
 7641SOL    HW123822   5.818   3.347   1.864
 7641SOL    HW223823   5.705   3.232   1.891
 7642SOL     OW23824   0.929   2.940   3.108
 7642SOL    HW123825   0.924   3.040   3.113
 7642SOL    HW223826   0.857   2.906   3.048
 7643SOL     OW23827   5.441   3.763   3.659
 7643SOL    HW123828   5.451   3.698   3.584
 7643SOL    HW223829   5.358   3.741   3.710
 7644SOL     OW23830   6.401   2.549   3.672
 7644SOL    HW123831   6.402   2.581   3.767
 7644SOL    HW223832   6.423   2.451   3.670
 7645SOL     OW23833   4.195   3.095   0.673
 7645SOL    HW123834   4.186   3.056   0.581
 7645SOL    HW223835   4.109   3.139   0.699
 7646SOL     OW23836   0.817   0.626   2.436
 7646SOL    HW123837   0.902   0.655   2.391
 7646SOL    HW223838   0.752   0.596   2.367
 7647SOL     OW23839   2.508   4.179   0.117
 7647SOL    HW123840   2.417   4.142   0.100
 7647SOL    HW223841   2.549   4.208   0.031
 7648SOL     OW23842   2.477   0.365   3.635
 7648SOL    HW123843   2.572   0.369   3.603
 7648SOL    HW223844   2.417   0.403   3.565
 7649SOL     OW23845   3.820   2.020   0.821
 7649SOL    HW123846   3.722   2.035   0.812
 7649SOL    HW223847   3.839   1.961   0.899
 7650SOL     OW23848   0.160   4.581   0.787
 7650SOL    HW123849   0.108   4.664   0.807
 7650SOL    HW223850   0.257   4.595   0.811
 7651SOL     OW23851   5.591   1.894   5.910
 7651SOL    HW123852   5.649   1.813   5.902
 7651SOL    HW223853   5.555   1.900   6.004
 7652SOL     OW23854   0.548   2.848   2.485
 7652SOL    HW123855   0.529   2.765   2.539
 7652SOL    HW223856   0.591   2.823   2.399
 7653SOL     OW23857   4.768   2.524   1.507
 7653SOL    HW123858   4.849   2.537   1.564
 7653SOL    HW223859   4.708   2.603   1.515
 7654SOL     OW23860   5.702   3.939   5.364
 7654SOL    HW123861   5.707   4.025   5.414
 7654SOL    HW223862   5.790   3.920   5.320
 7655SOL     OW23863   5.310   4.981   6.452
 7655SOL    HW123864   5.369   4.969   6.373
 7655SOL    HW223865   5.356   5.040   6.519
 7656SOL     OW23866   0.153   0.258   5.463
 7656SOL    HW123867   0.083   0.306   5.516
 7656SOL    HW223868   0.243   0.278   5.501
 7657SOL     OW23869   3.511   2.106   3.426
 7657SOL    HW123870   3.497   2.017   3.383
 7657SOL    HW223871   3.504   2.178   3.357
 7658SOL     OW23872   4.347   0.953   5.671
 7658SOL    HW123873   4.249   0.934   5.663
 7658SOL    HW223874   4.390   0.885   5.729
 7659SOL     OW23875   4.975   6.191   6.294
 7659SOL    HW123876   4.959   6.288   6.310
 7659SOL    HW223877   4.920   6.137   6.358
 7660SOL     OW23878   5.509   5.179   3.823
 7660SOL    HW123879   5.438   5.130   3.874
 7660SOL    HW223880   5.555   5.244   3.883
 7661SOL     OW23881   5.811   3.330   3.531
 7661SOL    HW123882   5.739   3.261   3.526
 7661SOL    HW223883   5.811   3.384   3.447
 7662SOL     OW23884   5.980   5.411   3.409
 7662SOL    HW123885   5.934   5.427   3.322
 7662SOL    HW223886   5.913   5.421   3.483
 7663SOL     OW23887   0.882   6.736   6.698
 7663SOL    HW123888   0.981   6.728   6.687
 7663SOL    HW223889   0.861   6.815   6.757
 7664SOL     OW23890   4.973   4.982   4.700
 7664SOL    HW123891   4.920   4.914   4.650
 7664SOL    HW223892   5.064   4.947   4.720
 7665SOL     OW23893   2.137   5.505   3.605
 7665SOL    HW123894   2.216   5.565   3.619
 7665SOL    HW223895   2.150   5.420   3.656
 7666SOL     OW23896   2.057   0.327   2.689
 7666SOL    HW123897   2.109   0.242   2.697
 7666SOL    HW223898   2.116   0.404   2.713
 7667SOL     OW23899   5.558   0.128   5.533
 7667SOL    HW123900   5.525   0.215   5.570
 7667SOL    HW223901   5.605   0.078   5.606
 7668SOL     OW23902   2.973   3.421   2.732
 7668SOL    HW123903   2.952   3.366   2.651
 7668SOL    HW223904   3.067   3.453   2.728
 7669SOL     OW23905   4.815   6.617   5.040
 7669SOL    HW123906   4.868   6.538   5.009
 7669SOL    HW223907   4.807   6.615   5.140
 7670SOL     OW23908   1.638   6.071   1.446
 7670SOL    HW123909   1.620   5.972   1.442
 7670SOL    HW223910   1.737   6.086   1.455
 7671SOL     OW23911   4.610   2.581   4.666
 7671SOL    HW123912   4.650   2.626   4.746
 7671SOL    HW223913   4.546   2.510   4.696
 7672SOL     OW23914   5.410   6.898   1.768
 7672SOL    HW123915   5.408   6.862   1.861
 7672SOL    HW223916   5.400   6.997   1.770
 7673SOL     OW23917   2.011   3.926   0.463
 7673SOL    HW123918   2.010   4.026   0.460
 7673SOL    HW223919   1.953   3.894   0.538
 7674SOL     OW23920   6.333   1.533   5.477
 7674SOL    HW123921   6.239   1.512   5.503
 7674SOL    HW223922   6.392   1.455   5.495
 7675SOL     OW23923   5.483   6.883   3.103
 7675SOL    HW123924   5.480   6.797   3.154
 7675SOL    HW223925   5.454   6.958   3.162
 7676SOL     OW23926   2.298   0.029   0.942
 7676SOL    HW123927   2.212   0.077   0.957
 7676SOL    HW223928   2.368   0.094   0.911
 7677SOL     OW23929   1.687   2.402   2.575
 7677SOL    HW123930   1.737   2.449   2.648
 7677SOL    HW223931   1.693   2.455   2.490
 7678SOL     OW23932   4.894   6.996   5.775
 7678SOL    HW123933   4.866   0.068   5.764
 7678SOL    HW223934   4.842   6.939   5.712
 7679SOL     OW23935   1.813   4.888   4.458
 7679SOL    HW123936   1.795   4.865   4.553
 7679SOL    HW223937   1.874   4.820   4.418
 7680SOL     OW23938   4.423   0.413   0.846
 7680SOL    HW123939   4.385   0.486   0.790
 7680SOL    HW223940   4.466   0.452   0.927
 7681SOL     OW23941   4.056   2.485   5.646
 7681SOL    HW123942   3.977   2.432   5.617
 7681SOL    HW223943   4.126   2.484   5.575
 7682SOL     OW23944   3.185   1.103   0.218
 7682SOL    HW123945   3.242   1.185   0.217
 7682SOL    HW223946   3.090   1.128   0.238
 7683SOL     OW23947   6.758   3.342   2.876
 7683SOL    HW123948   6.669   3.296   2.874
 7683SOL    HW223949   6.747   3.436   2.844
 7684SOL     OW23950   3.924   1.956   6.222
 7684SOL    HW123951   3.884   1.967   6.313
 7684SOL    HW223952   3.975   1.870   6.219
 7685SOL     OW23953   4.681   4.853   1.419
 7685SOL    HW123954   4.595   4.893   1.386
 7685SOL    HW223955   4.668   4.755   1.434
 7686SOL     OW23956   2.201   0.598   2.032
 7686SOL    HW123957   2.295   0.601   2.066
 7686SOL    HW223958   2.202   0.595   1.932
 7687SOL     OW23959   4.782   4.435   5.218
 7687SOL    HW123960   4.801   4.439   5.316
 7687SOL    HW223961   4.750   4.343   5.194
 7688SOL     OW23962   6.590   0.527   3.774
 7688SOL    HW123963   6.591   0.623   3.748
 7688SOL    HW223964   6.606   0.470   3.693
 7689SOL     OW23965   3.284   7.011   5.199
 7689SOL    HW123966   3.255   6.916   5.211
 7689SOL    HW223967   3.248   0.022   5.113
 7690SOL     OW23968   1.006   5.355   2.919
 7690SOL    HW123969   0.925   5.324   2.870
 7690SOL    HW223970   0.979   5.411   2.997
 7691SOL     OW23971   6.636   3.539   5.584
 7691SOL    HW123972   6.584   3.593   5.650
 7691SOL    HW223973   6.637   3.443   5.613
 7692SOL     OW23974   1.610   6.340   1.402
 7692SOL    HW123975   1.601   6.242   1.419
 7692SOL    HW223976   1.597   6.358   1.305
 7693SOL     OW23977   4.592   0.839   0.330
 7693SOL    HW123978   4.505   0.860   0.374
 7693SOL    HW223979   4.590   0.746   0.294
 7694SOL     OW23980   5.395   5.480   3.894
 7694SOL    HW123981   5.380   5.578   3.908
 7694SOL    HW223982   5.479   5.452   3.941
 7695SOL     OW23983   5.322   7.021   6.517
 7695SOL    HW123984   5.340   0.084   6.561
 7695SOL    HW223985   5.311   6.950   6.586
 7696SOL     OW23986   1.190   4.084   5.366
 7696SOL    HW123987   1.243   4.124   5.292
 7696SOL    HW223988   1.238   4.096   5.453
 7697SOL     OW23989   4.381   0.655   2.465
 7697SOL    HW123990   4.411   0.687   2.555
 7697SOL    HW223991   4.293   0.608   2.474
 7698SOL     OW23992   0.189   1.922   6.347
 7698SOL    HW123993   0.102   1.969   6.361
 7698SOL    HW223994   0.259   1.990   6.322
 7699SOL     OW23995   3.407   3.319   1.399
 7699SOL    HW123996   3.349   3.349   1.476
 7699SOL    HW223997   3.358   3.335   1.313
 7700SOL     OW23998   5.343   0.914   5.079
 7700SOL    HW123999   5.399   0.831   5.079
 7700SOL    HW224000   5.394   0.989   5.035
 7701SOL     OW24001   6.476   2.518   5.155
 7701SOL    HW124002   6.421   2.595   5.187
 7701SOL    HW224003   6.572   2.546   5.150
 7702SOL     OW24004   1.261   6.381   0.004
 7702SOL    HW124005   1.342   6.417   0.051
 7702SOL    HW224006   1.201   6.457   7.004
 7703SOL     OW24007   0.832   2.343   0.091
 7703SOL    HW124008   0.874   2.354   0.181
 7703SOL    HW224009   0.894   2.380   0.021
 7704SOL     OW24010   3.860   4.067   1.427
 7704SOL    HW124011   3.932   4.063   1.497
 7704SOL    HW224012   3.832   3.974   1.403
 7705SOL     OW24013   4.146   3.437   4.723
 7705SOL    HW124014   4.241   3.404   4.731
 7705SOL    HW224015   4.145   3.537   4.731
 7706SOL     OW24016   5.047   1.490   5.642
 7706SOL    HW124017   4.956   1.461   5.671
 7706SOL    HW224018   5.094   1.414   5.597
 7707SOL     OW24019   0.323   4.911   6.264
 7707SOL    HW124020   0.242   4.854   6.279
 7707SOL    HW224021   0.405   4.855   6.266
 7708SOL     OW24022   4.307   1.687   5.020
 7708SOL    HW124023   4.342   1.742   4.944
 7708SOL    HW224024   4.251   1.613   4.984
 7709SOL     OW24025   3.938   2.417   1.499
 7709SOL    HW124026   4.000   2.444   1.425
 7709SOL    HW224027   3.931   2.491   1.565
 7710SOL     OW24028   3.355   1.536   6.530
 7710SOL    HW124029   3.366   1.635   6.521
 7710SOL    HW224030   3.331   1.514   6.624
 7711SOL     OW24031   4.733   6.428   4.783
 7711SOL    HW124032   4.705   6.455   4.690
 7711SOL    HW224033   4.690   6.489   4.849
 7712SOL     OW24034   6.254   4.408   6.081
 7712SOL    HW124035   6.165   4.427   6.040
 7712SOL    HW224036   6.300   4.336   6.029
 7713SOL     OW24037   0.591   4.973   6.566
 7713SOL    HW124038   0.559   5.064   6.591
 7713SOL    HW224039   0.637   4.931   6.644
 7714SOL     OW24040   5.900   4.931   4.933
 7714SOL    HW124041   5.940   4.881   5.010
 7714SOL    HW224042   5.816   4.976   4.962
 7715SOL     OW24043   3.624   2.090   1.407
 7715SOL    HW124044   3.600   2.075   1.503
 7715SOL    HW224045   3.648   2.186   1.392
 7716SOL     OW24046   3.940   2.214   4.320
 7716SOL    HW124047   3.843   2.207   4.297
 7716SOL    HW224048   3.973   2.125   4.351
 7717SOL     OW24049   2.834   6.479   0.229
 7717SOL    HW124050   2.894   6.404   0.259
 7717SOL    HW224051   2.881   6.533   0.160
 7718SOL     OW24052   1.465   6.238   3.183
 7718SOL    HW124053   1.548   6.294   3.179
 7718SOL    HW224054   1.413   6.262   3.265
 7719SOL     OW24055   5.427   2.566   5.444
 7719SOL    HW124056   5.470   2.501   5.507
 7719SOL    HW224057   5.332   2.581   5.471
 7720SOL     OW24058   4.825   6.516   1.698
 7720SOL    HW124059   4.922   6.509   1.675
 7720SOL    HW224060   4.789   6.425   1.718
 7721SOL     OW24061   0.452   5.154   3.235
 7721SOL    HW124062   0.402   5.235   3.266
 7721SOL    HW224063   0.550   5.171   3.242
 7722SOL     OW24064   0.492   5.772   3.669
 7722SOL    HW124065   0.539   5.709   3.607
 7722SOL    HW224066   0.393   5.763   3.655
 7723SOL     OW24067   0.175   2.260   6.095
 7723SOL    HW124068   0.221   2.229   6.178
 7723SOL    HW224069   0.241   2.302   6.033
 7724SOL     OW24070   2.944   5.959   6.764
 7724SOL    HW124071   2.921   6.056   6.749
 7724SOL    HW224072   2.925   5.936   6.860
 7725SOL     OW24073   5.173   3.953   3.565
 7725SOL    HW124074   5.190   3.854   3.566
 7725SOL    HW224075   5.250   4.000   3.608
 7726SOL     OW24076   5.044   5.467   3.806
 7726SOL    HW124077   5.085   5.447   3.717
 7726SOL    HW224078   4.949   5.436   3.806
 7727SOL     OW24079   5.963   3.701   2.211
 7727SOL    HW124080   6.008   3.706   2.122
 7727SOL    HW224081   5.889   3.768   2.215
 7728SOL     OW24082   2.152   3.251   3.005
 7728SOL    HW124083   2.087   3.288   3.072
 7728SOL    HW224084   2.187   3.163   3.036
 7729SOL     OW24085   5.327   1.384   6.178
 7729SOL    HW124086   5.341   1.294   6.137
 7729SOL    HW224087   5.229   1.406   6.177
 7730SOL     OW24088   4.336   5.987   3.198
 7730SOL    HW124089   4.335   6.042   3.281
 7730SOL    HW224090   4.308   5.893   3.219
 7731SOL     OW24091   5.770   1.778   4.332
 7731SOL    HW124092   5.809   1.863   4.298
 7731SOL    HW224093   5.673   1.791   4.349
 7732SOL     OW24094   4.265   4.820   0.788
 7732SOL    HW124095   4.252   4.750   0.857
 7732SOL    HW224096   4.362   4.840   0.777
 7733SOL     OW24097   3.644   5.548   1.331
 7733SOL    HW124098   3.685   5.639   1.329
 7733SOL    HW224099   3.554   5.553   1.376
 7734SOL     OW24100   1.193   3.313   2.060
 7734SOL    HW124101   1.242   3.236   2.101
 7734SOL    HW224102   1.249   3.355   1.989
 7735SOL     OW24103   5.836   4.085   0.663
 7735SOL    HW124104   5.880   4.001   0.694
 7735SOL    HW224105   5.737   4.074   0.664
 7736SOL     OW24106   5.648   4.538   6.735
 7736SOL    HW124107   5.658   4.606   6.808
 7736SOL    HW224108   5.557   4.498   6.739
 7737SOL     OW24109   4.892   2.586   0.072
 7737SOL    HW124110   4.977   2.560   0.026
 7737SOL    HW224111   4.863   2.512   0.133
 7738SOL     OW24112   1.779   5.037   6.553
 7738SOL    HW124113   1.801   5.041   6.455
 7738SOL    HW224114   1.762   5.129   6.587
 7739SOL     OW24115   6.057   4.312   2.079
 7739SOL    HW124116   6.010   4.396   2.051
 7739SOL    HW224117   6.109   4.276   2.001
 7740SOL     OW24118   6.729   5.976   3.408
 7740SOL    HW124119   6.780   5.906   3.459
 7740SOL    HW224120   6.644   5.997   3.457
 7741SOL     OW24121   2.862   5.091   3.589
 7741SOL    HW124122   2.889   5.128   3.679
 7741SOL    HW224123   2.903   5.000   3.577
 7742SOL     OW24124   6.914   0.462   4.597
 7742SOL    HW124125   6.952   0.420   4.680
 7742SOL    HW224126   6.931   0.561   4.600
 7743SOL     OW24127   4.916   3.174   2.052
 7743SOL    HW124128   4.851   3.099   2.066
 7743SOL    HW224129   4.897   3.220   1.966
 7744SOL     OW24130   0.080   6.589   4.396
 7744SOL    HW124131   0.029   6.601   4.311
 7744SOL    HW224132   0.091   6.492   4.414
 7745SOL     OW24133   6.083   2.691   5.635
 7745SOL    HW124134   6.061   2.747   5.714
 7745SOL    HW224135   6.065   2.743   5.551
 7746SOL     OW24136   2.313   0.796   6.669
 7746SOL    HW124137   2.368   0.765   6.592
 7746SOL    HW224138   2.292   0.718   6.729
 7747SOL     OW24139   5.080   5.233   0.471
 7747SOL    HW124140   5.101   5.305   0.538
 7747SOL    HW224141   5.163   5.179   0.454
 7748SOL     OW24142   1.549   3.555   6.784
 7748SOL    HW124143   1.452   3.574   6.798
 7748SOL    HW224144   1.580   3.597   6.699
 7749SOL     OW24145   5.812   3.217   5.716
 7749SOL    HW124146   5.847   3.310   5.722
 7749SOL    HW224147   5.770   3.204   5.626
 7750SOL     OW24148   4.131   5.644   2.662
 7750SOL    HW124149   4.140   5.741   2.642
 7750SOL    HW224150   4.165   5.591   2.584
 7751SOL     OW24151   0.983   2.630   1.556
 7751SOL    HW124152   1.073   2.609   1.594
 7751SOL    HW224153   0.974   2.590   1.465
 7752SOL     OW24154   2.771   1.232   2.675
 7752SOL    HW124155   2.806   1.142   2.701
 7752SOL    HW224156   2.745   1.232   2.579
 7753SOL     OW24157   4.371   0.348   5.094
 7753SOL    HW124158   4.457   0.372   5.137
 7753SOL    HW224159   4.314   0.296   5.158
 7754SOL     OW24160   4.749   6.121   1.189
 7754SOL    HW124161   4.696   6.137   1.271
 7754SOL    HW224162   4.847   6.131   1.210
 7755SOL     OW24163   1.272   3.234   6.116
 7755SOL    HW124164   1.275   3.269   6.209
 7755SOL    HW224165   1.220   3.148   6.114
 7756SOL     OW24166   1.454   3.675   2.246
 7756SOL    HW124167   1.375   3.730   2.273
 7756SOL    HW224168   1.527   3.687   2.313
 7757SOL     OW24169   1.036   4.164   0.277
 7757SOL    HW124170   0.939   4.156   0.252
 7757SOL    HW224171   1.085   4.210   0.203
 7758SOL     OW24172   7.012   0.930   5.098
 7758SOL    HW124173   6.928   0.974   5.128
 7758SOL    HW224174   6.996   0.832   5.084
 7759SOL     OW24175   3.317   1.390   2.858
 7759SOL    HW124176   3.321   1.443   2.774
 7759SOL    HW224177   3.222   1.388   2.892
 7760SOL     OW24178   5.536   2.812   0.428
 7760SOL    HW124179   5.616   2.800   0.486
 7760SOL    HW224180   5.556   2.879   0.356
 7761SOL     OW24181   4.983   5.493   2.803
 7761SOL    HW124182   5.022   5.523   2.716
 7761SOL    HW224183   5.019   5.403   2.828
 7762SOL     OW24184   4.614   1.872   0.439
 7762SOL    HW124185   4.678   1.797   0.425
 7762SOL    HW224186   4.578   1.902   0.350
 7763SOL     OW24187   1.782   0.825   3.193
 7763SOL    HW124188   1.761   0.888   3.118
 7763SOL    HW224189   1.824   0.876   3.268
 7764SOL     OW24190   3.751   4.392   5.504
 7764SOL    HW124191   3.770   4.484   5.537
 7764SOL    HW224192   3.835   4.337   5.508
 7765SOL     OW24193   6.192   4.270   4.435
 7765SOL    HW124194   6.193   4.270   4.535
 7765SOL    HW224195   6.101   4.298   4.403
 7766SOL     OW24196   6.935   2.794   6.049
 7766SOL    HW124197   6.929   2.697   6.068
 7766SOL    HW224198   0.001   2.828   6.078
 7767SOL     OW24199   4.061   0.486   3.649
 7767SOL    HW124200   4.052   0.496   3.550
 7767SOL    HW224201   4.145   0.437   3.670
 7768SOL     OW24202   3.224   5.897   3.830
 7768SOL    HW124203   3.237   5.800   3.807
 7768SOL    HW224204   3.185   5.945   3.751
 7769SOL     OW24205   3.535   2.095   6.112
 7769SOL    HW124206   3.497   2.155   6.042
 7769SOL    HW224207   3.587   2.022   6.068
 7770SOL     OW24208   1.427   3.227   3.502
 7770SOL    HW124209   1.476   3.141   3.513
 7770SOL    HW224210   1.485   3.303   3.532
 7771SOL     OW24211   0.988   3.757   5.093
 7771SOL    HW124212   0.949   3.849   5.083
 7771SOL    HW224213   1.036   3.751   5.180
 7772SOL     OW24214   5.116   5.773   2.059
 7772SOL    HW124215   5.115   5.696   2.122
 7772SOL    HW224216   5.181   5.755   1.985
 7773SOL     OW24217   3.060   6.659   6.112
 7773SOL    HW124218   3.064   6.668   6.012
 7773SOL    HW224219   3.004   6.580   6.135
 7774SOL     OW24220   5.159   0.976   3.005
 7774SOL    HW124221   5.100   1.035   2.950
 7774SOL    HW224222   5.180   1.021   3.092
 7775SOL     OW24223   3.791   1.845   1.366
 7775SOL    HW124224   3.727   1.922   1.364
 7775SOL    HW224225   3.884   1.880   1.358
 7776SOL     OW24226   2.805   1.765   3.906
 7776SOL    HW124227   2.799   1.853   3.953
 7776SOL    HW224228   2.718   1.717   3.912
 7777SOL     OW24229   4.984   5.037   3.318
 7777SOL    HW124230   4.911   5.027   3.385
 7777SOL    HW224231   5.068   4.998   3.354
 7778SOL     OW24232   0.679   3.120   1.654
 7778SOL    HW124233   0.597   3.065   1.637
 7778SOL    HW224234   0.718   3.096   1.743
 7779SOL     OW24235   2.707   0.957   3.785
 7779SOL    HW124236   2.624   1.004   3.817
 7779SOL    HW224237   2.684   0.864   3.757
 7780SOL     OW24238   6.370   5.869   4.068
 7780SOL    HW124239   6.315   5.872   3.985
 7780SOL    HW224240   6.386   5.962   4.100
 7781SOL     OW24241   3.181   2.925   1.551
 7781SOL    HW124242   3.171   2.856   1.623
 7781SOL    HW224243   3.232   2.886   1.475
 7782SOL     OW24244   5.239   4.931   3.473
 7782SOL    HW124245   5.234   5.011   3.533
 7782SOL    HW224246   5.311   4.944   3.405
 7783SOL     OW24247   0.572   6.670   3.733
 7783SOL    HW124248   0.658   6.619   3.740
 7783SOL    HW224249   0.511   6.641   3.806
 7784SOL     OW24250   0.995   3.133   2.395
 7784SOL    HW124251   0.984   3.232   2.402
 7784SOL    HW224252   0.914   3.088   2.431
 7785SOL     OW24253   6.369   0.052   2.719
 7785SOL    HW124254   6.395   0.033   2.625
 7785SOL    HW224255   6.272   0.032   2.731
 7786SOL     OW24256   5.415   0.599   6.612
 7786SOL    HW124257   5.510   0.628   6.609
 7786SOL    HW224258   5.393   0.565   6.704
 7787SOL     OW24259   1.041   2.219   0.715
 7787SOL    HW124260   1.126   2.180   0.680
 7787SOL    HW224261   1.061   2.280   0.791
 7788SOL     OW24262   0.679   4.478   2.213
 7788SOL    HW124263   0.718   4.391   2.183
 7788SOL    HW224264   0.753   4.545   2.225
 7789SOL     OW24265   3.558   0.330   6.863
 7789SOL    HW124266   3.592   0.424   6.874
 7789SOL    HW224267   3.563   0.283   6.951
 7790SOL     OW24268   3.992   4.943   4.821
 7790SOL    HW124269   4.069   4.879   4.824
 7790SOL    HW224270   4.010   5.013   4.752
 7791SOL     OW24271   2.030   6.675   1.405
 7791SOL    HW124272   2.121   6.716   1.409
 7791SOL    HW224273   2.019   6.610   1.480
 7792SOL     OW24274   1.412   1.643   1.917
 7792SOL    HW124275   1.470   1.708   1.868
 7792SOL    HW224276   1.401   1.673   2.011
 7793SOL     OW24277   5.352   1.447   1.038
 7793SOL    HW124278   5.307   1.361   1.014
 7793SOL    HW224279   5.451   1.434   1.039
 7794SOL     OW24280   0.987   1.780   2.481
 7794SOL    HW124281   0.980   1.709   2.551
 7794SOL    HW224282   0.995   1.869   2.524
 7795SOL     OW24283   4.736   3.666   0.867
 7795SOL    HW124284   4.737   3.733   0.941
 7795SOL    HW224285   4.766   3.577   0.903
 7796SOL     OW24286   4.066   1.125   0.345
 7796SOL    HW124287   4.088   1.028   0.335
 7796SOL    HW224288   4.125   1.165   0.416
 7797SOL     OW24289   1.351   6.261   2.924
 7797SOL    HW124290   1.274   6.201   2.902
 7797SOL    HW224291   1.386   6.237   3.015
 7798SOL     OW24292   2.157   3.246   0.770
 7798SOL    HW124293   2.135   3.166   0.715
 7798SOL    HW224294   2.114   3.238   0.860
 7799SOL     OW24295   1.908   6.218   4.279
 7799SOL    HW124296   1.992   6.195   4.330
 7799SOL    HW224297   1.914   6.313   4.247
 7800SOL     OW24298   0.586   0.685   1.965
 7800SOL    HW124299   0.540   0.652   1.883
 7800SOL    HW224300   0.518   0.715   2.032
 7801SOL     OW24301   2.706   2.171   0.629
 7801SOL    HW124302   2.743   2.263   0.616
 7801SOL    HW224303   2.732   2.114   0.551
 7802SOL     OW24304   6.884   4.990   3.913
 7802SOL    HW124305   6.832   5.075   3.920
 7802SOL    HW224306   6.823   4.915   3.888
 7803SOL     OW24307   3.071   2.347   6.356
 7803SOL    HW124308   3.045   2.382   6.266
 7803SOL    HW224309   3.135   2.271   6.346
 7804SOL     OW24310   3.042   1.167   5.645
 7804SOL    HW124311   3.082   1.237   5.704
 7804SOL    HW224312   3.112   1.131   5.583
 7805SOL     OW24313   6.983   2.164   0.062
 7805SOL    HW124314   6.970   2.075   0.105
 7805SOL    HW224315   6.919   2.174   7.011
 7806SOL     OW24316   6.172   2.548   4.968
 7806SOL    HW124317   6.180   2.554   5.067
 7806SOL    HW224318   6.085   2.505   4.944
 7807SOL     OW24319   2.084   6.114   5.084
 7807SOL    HW124320   2.101   6.020   5.055
 7807SOL    HW224321   2.026   6.160   5.017
 7808SOL     OW24322   0.179   2.982   4.510
 7808SOL    HW124323   0.243   3.013   4.439
 7808SOL    HW224324   0.158   2.885   4.495
 7809SOL     OW24325   2.947   0.708   3.135
 7809SOL    HW124326   2.924   0.664   3.049
 7809SOL    HW224327   2.987   0.798   3.117
 7810SOL     OW24328   2.860   6.780   5.799
 7810SOL    HW124329   2.862   6.860   5.860
 7810SOL    HW224330   2.766   6.747   5.791
 7811SOL     OW24331   1.191   5.176   3.020
 7811SOL    HW124332   1.146   5.165   3.109
 7811SOL    HW224333   1.131   5.227   2.959
 7812SOL     OW24334   2.912   0.183   6.244
 7812SOL    HW124335   2.975   0.200   6.319
 7812SOL    HW224336   2.829   0.139   6.279
 7813SOL     OW24337   5.965   1.076   0.641
 7813SOL    HW124338   6.015   1.018   0.705
 7813SOL    HW224339   5.867   1.058   0.648
 7814SOL     OW24340   0.223   2.123   1.851
 7814SOL    HW124341   0.185   2.037   1.887
 7814SOL    HW224342   0.318   2.108   1.823
 7815SOL     OW24343   4.661   5.730   3.847
 7815SOL    HW124344   4.723   5.703   3.920
 7815SOL    HW224345   4.665   5.663   3.773
 7816SOL     OW24346   1.433   1.285   5.143
 7816SOL    HW124347   1.527   1.321   5.146
 7816SOL    HW224348   1.435   1.186   5.160
 7817SOL     OW24349   4.537   1.124   5.745
 7817SOL    HW124350   4.454   1.070   5.732
 7817SOL    HW224351   4.516   1.221   5.735
 7818SOL     OW24352   4.316   0.751   2.920
 7818SOL    HW124353   4.292   0.844   2.949
 7818SOL    HW224354   4.238   0.690   2.936
 7819SOL     OW24355   2.563   2.498   4.609
 7819SOL    HW124356   2.494   2.571   4.608
 7819SOL    HW224357   2.610   2.495   4.521
 7820SOL     OW24358   2.094   0.578   6.685
 7820SOL    HW124359   2.115   0.571   6.588
 7820SOL    HW224360   1.999   0.551   6.701
 7821SOL     OW24361   3.247   5.560   6.568
 7821SOL    HW124362   3.243   5.619   6.649
 7821SOL    HW224363   3.159   5.561   6.521
 7822SOL     OW24364   0.738   1.289   4.437
 7822SOL    HW124365   0.678   1.228   4.489
 7822SOL    HW224366   0.788   1.236   4.368
 7823SOL     OW24367   2.211   2.494   5.632
 7823SOL    HW124368   2.213   2.566   5.563
 7823SOL    HW224369   2.221   2.405   5.588
 7824SOL     OW24370   5.994   3.899   2.668
 7824SOL    HW124371   5.929   3.958   2.715
 7824SOL    HW224372   6.086   3.918   2.700
 7825SOL     OW24373   2.985   3.190   3.790
 7825SOL    HW124374   2.897   3.147   3.769
 7825SOL    HW224375   2.987   3.217   3.886
 7826SOL     OW24376   6.140   6.396   1.494
 7826SOL    HW124377   6.146   6.317   1.433
 7826SOL    HW224378   6.150   6.367   1.589
 7827SOL     OW24379   5.028   3.781   0.499
 7827SOL    HW124380   5.022   3.796   0.597
 7827SOL    HW224381   5.086   3.701   0.482
 7828SOL     OW24382   1.172   6.010   0.404
 7828SOL    HW124383   1.086   6.037   0.361
 7828SOL    HW224384   1.165   6.019   0.503
 7829SOL     OW24385   3.030   3.952   2.936
 7829SOL    HW124386   3.023   3.902   2.849
 7829SOL    HW224387   3.033   3.887   3.012
 7830SOL     OW24388   0.083   4.522   6.617
 7830SOL    HW124389   0.085   4.438   6.562
 7830SOL    HW224390   0.164   4.577   6.596
 7831SOL     OW24391   3.561   3.367   0.142
 7831SOL    HW124392   3.575   3.398   0.236
 7831SOL    HW224393   3.493   3.426   0.097
 7832SOL     OW24394   4.037   2.521   5.926
 7832SOL    HW124395   3.978   2.440   5.927
 7832SOL    HW224396   4.073   2.534   5.834
 7833SOL     OW24397   6.262   6.813   1.905
 7833SOL    HW124398   6.204   6.885   1.867
 7833SOL    HW224399   6.317   6.851   1.980
 7834SOL     OW24400   4.837   1.063   1.600
 7834SOL    HW124401   4.803   1.048   1.692
 7834SOL    HW224402   4.762   1.059   1.535
 7835SOL     OW24403   2.416   2.177   4.394
 7835SOL    HW124404   2.370   2.168   4.305
 7835SOL    HW224405   2.347   2.187   4.466
 7836SOL     OW24406   2.756   0.128   6.720
 7836SOL    HW124407   2.770   0.112   6.817
 7836SOL    HW224408   2.665   0.095   6.694
 7837SOL     OW24409   5.193   6.239   2.328
 7837SOL    HW124410   5.126   6.172   2.298
 7837SOL    HW224411   5.225   6.292   2.249
 7838SOL     OW24412   3.104   5.294   4.079
 7838SOL    HW124413   3.100   5.284   4.179
 7838SOL    HW224414   3.082   5.388   4.054
 7839SOL     OW24415   7.016   5.514   2.903
 7839SOL    HW124416   6.992   5.430   2.951
 7839SOL    HW224417   6.968   5.591   2.946
 7840SOL     OW24418   4.090   2.921   6.117
 7840SOL    HW124419   3.993   2.946   6.112
 7840SOL    HW224420   4.105   2.860   6.194
 7841SOL     OW24421   0.944   1.496   5.849
 7841SOL    HW124422   0.943   1.576   5.909
 7841SOL    HW224423   0.938   1.526   5.754
 7842SOL     OW24424   1.910   0.999   2.385
 7842SOL    HW124425   2.000   1.001   2.429
 7842SOL    HW224426   1.855   0.927   2.426
 7843SOL     OW24427   0.270   1.859   1.867
 7843SOL    HW124428   0.190   1.802   1.886
 7843SOL    HW224429   0.284   1.923   1.943
 7844SOL     OW24430   3.487   2.094   3.125
 7844SOL    HW124431   3.560   2.114   3.059
 7844SOL    HW224432   3.410   2.156   3.109
 7845SOL     OW24433   1.123   1.053   4.297
 7845SOL    HW124434   1.122   1.142   4.342
 7845SOL    HW224435   1.201   1.048   4.235
 7846SOL     OW24436   4.865   6.497   3.051
 7846SOL    HW124437   4.909   6.558   3.116
 7846SOL    HW224438   4.789   6.544   3.007
 7847SOL     OW24439   0.681   6.577   6.092
 7847SOL    HW124440   0.673   6.675   6.112
 7847SOL    HW224441   0.749   6.563   6.019
 7848SOL     OW24442   4.551   3.367   1.109
 7848SOL    HW124443   4.570   3.310   1.029
 7848SOL    HW224444   4.591   3.324   1.190
 7849SOL     OW24445   6.172   4.487   5.411
 7849SOL    HW124446   6.129   4.576   5.396
 7849SOL    HW224447   6.266   4.501   5.443
 7850SOL     OW24448   1.468   2.866   5.021
 7850SOL    HW124449   1.464   2.966   5.022
 7850SOL    HW224450   1.563   2.837   5.008
 7851SOL     OW24451   2.914   6.650   0.919
 7851SOL    HW124452   2.864   6.669   1.004
 7851SOL    HW224453   2.944   6.555   0.918
 7852SOL     OW24454   2.512   6.501   0.681
 7852SOL    HW124455   2.507   6.564   0.758
 7852SOL    HW224456   2.589   6.525   0.622
 7853SOL     OW24457   2.303   1.552   6.800
 7853SOL    HW124458   2.309   1.652   6.806
 7853SOL    HW224459   2.394   1.513   6.811
 7854SOL     OW24460   3.874   4.135   4.899
 7854SOL    HW124461   3.958   4.175   4.865
 7854SOL    HW224462   3.796   4.168   4.845
 7855SOL     OW24463   3.170   6.718   4.820
 7855SOL    HW124464   3.169   6.635   4.875
 7855SOL    HW224465   3.097   6.714   4.752
 7856SOL     OW24466   2.773   3.004   5.597
 7856SOL    HW124467   2.774   3.013   5.498
 7856SOL    HW224468   2.689   2.958   5.626
 7857SOL     OW24469   0.284   2.949   5.117
 7857SOL    HW124470   0.240   3.026   5.162
 7857SOL    HW224471   0.383   2.963   5.116
 7858SOL     OW24472   5.225   2.740   3.121
 7858SOL    HW124473   5.226   2.683   3.038
 7858SOL    HW224474   5.210   2.681   3.200
 7859SOL     OW24475   6.671   6.812   0.141
 7859SOL    HW124476   6.657   6.906   0.108
 7859SOL    HW224477   6.598   6.753   0.107
 7860SOL     OW24478   4.656   6.294   0.728
 7860SOL    HW124479   4.683   6.261   0.818
 7860SOL    HW224480   4.664   6.394   0.725
 7861SOL     OW24481   6.623   3.564   0.071
 7861SOL    HW124482   6.524   3.570   0.080
 7861SOL    HW224483   6.646   3.515   7.011
 7862SOL     OW24484   2.807   4.547   1.617
 7862SOL    HW124485   2.839   4.515   1.706
 7862SOL    HW224486   2.795   4.468   1.556
 7863SOL     OW24487   4.264   5.810   2.337
 7863SOL    HW124488   4.322   5.842   2.411
 7863SOL    HW224489   4.195   5.746   2.373
 7864SOL     OW24490   1.806   5.861   5.326
 7864SOL    HW124491   1.731   5.798   5.305
 7864SOL    HW224492   1.775   5.955   5.310
 7865SOL     OW24493   4.510   0.422   3.528
 7865SOL    HW124494   4.491   0.442   3.624
 7865SOL    HW224495   4.593   0.367   3.521
 7866SOL     OW24496   2.775   0.182   5.992
 7866SOL    HW124497   2.691   0.187   6.046
 7866SOL    HW224498   2.839   0.253   6.024
 7867SOL     OW24499   0.120   3.107   0.626
 7867SOL    HW124500   0.190   3.087   0.557
 7867SOL    HW224501   0.030   3.090   0.588
 7868SOL     OW24502   5.537   6.930   1.313
 7868SOL    HW124503   5.599   6.910   1.237
 7868SOL    HW224504   5.551   6.864   1.386
 7869SOL     OW24505   6.085   1.752   4.493
 7869SOL    HW124506   6.090   1.750   4.393
 7869SOL    HW224507   6.178   1.754   4.531
 7870SOL     OW24508   6.261   6.772   3.266
 7870SOL    HW124509   6.305   6.846   3.316
 7870SOL    HW224510   6.170   6.802   3.236
 7871SOL     OW24511   5.634   2.838   3.057
 7871SOL    HW124512   5.574   2.904   3.101
 7871SOL    HW224513   5.620   2.748   3.098
 7872SOL     OW24514   5.564   3.859   4.167
 7872SOL    HW124515   5.531   3.942   4.122
 7872SOL    HW224516   5.599   3.796   4.098
 7873SOL     OW24517   0.160   5.926   5.121
 7873SOL    HW124518   0.143   5.875   5.205
 7873SOL    HW224519   0.248   5.898   5.082
 7874SOL     OW24520   6.104   6.625   0.248
 7874SOL    HW124521   6.198   6.596   0.266
 7874SOL    HW224522   6.042   6.577   0.311
 7875SOL     OW24523   5.815   2.462   0.178
 7875SOL    HW124524   5.852   2.550   0.148
 7875SOL    HW224525   5.771   2.473   0.267
 7876SOL     OW24526   6.658   2.277   5.129
 7876SOL    HW124527   6.587   2.256   5.062
 7876SOL    HW224528   6.667   2.201   5.193
 7877SOL     OW24529   5.820   3.505   1.628
 7877SOL    HW124530   5.877   3.428   1.599
 7877SOL    HW224531   5.842   3.585   1.573
 7878SOL     OW24532   3.711   4.124   1.982
 7878SOL    HW124533   3.653   4.061   2.033
 7878SOL    HW224534   3.750   4.191   2.044
 7879SOL     OW24535   0.062   1.787   4.824
 7879SOL    HW124536   0.048   1.881   4.792
 7879SOL    HW224537   7.000   1.749   4.856
 7880SOL     OW24538   1.892   6.433   6.771
 7880SOL    HW124539   1.958   6.412   6.699
 7880SOL    HW224540   1.803   6.397   6.745
 7881SOL     OW24541   0.494   4.841   5.632
 7881SOL    HW124542   0.521   4.861   5.538
 7881SOL    HW224543   0.457   4.924   5.673
 7882SOL     OW24544   1.641   4.906   0.768
 7882SOL    HW124545   1.611   4.845   0.696
 7882SOL    HW224546   1.589   4.991   0.765
 7883SOL     OW24547   2.629   2.364   2.465
 7883SOL    HW124548   2.661   2.338   2.374
 7883SOL    HW224549   2.533   2.390   2.460
 7884SOL     OW24550   0.267   2.349   5.533
 7884SOL    HW124551   0.259   2.274   5.466
 7884SOL    HW224552   0.231   2.319   5.621
 7885SOL     OW24553   5.493   4.975   2.817
 7885SOL    HW124554   5.508   5.069   2.787
 7885SOL    HW224555   5.581   4.927   2.822
 7886SOL     OW24556   3.705   5.114   2.679
 7886SOL    HW124557   3.644   5.113   2.758
 7886SOL    HW224558   3.665   5.059   2.605
 7887SOL     OW24559   0.523   3.035   0.536
 7887SOL    HW124560   0.475   2.965   0.485
 7887SOL    HW224561   0.487   3.125   0.512
 7888SOL     OW24562   0.388   1.904   5.087
 7888SOL    HW124563   0.441   1.839   5.033
 7888SOL    HW224564   0.443   1.986   5.105
 7889SOL     OW24565   5.852   4.608   0.249
 7889SOL    HW124566   5.765   4.578   0.209
 7889SOL    HW224567   5.847   4.706   0.268
 7890SOL     OW24568   1.234   2.583   1.689
 7890SOL    HW124569   1.305   2.567   1.620
 7890SOL    HW224570   1.246   2.674   1.728
 7891SOL     OW24571   5.966   1.061   4.579
 7891SOL    HW124572   5.907   1.027   4.506
 7891SOL    HW224573   6.057   1.021   4.569
 7892SOL     OW24574   0.770   1.790   4.343
 7892SOL    HW124575   0.701   1.760   4.278
 7892SOL    HW224576   0.783   1.719   4.413
 7893SOL     OW24577   5.427   6.150   0.677
 7893SOL    HW124578   5.426   6.155   0.577
 7893SOL    HW224579   5.469   6.064   0.706
 7894SOL     OW24580   3.136   7.010   6.733
 7894SOL    HW124581   3.071   6.995   6.659
 7894SOL    HW224582   3.207   0.049   6.702
 7895SOL     OW24583   5.006   6.490   2.345
 7895SOL    HW124584   5.000   6.511   2.248
 7895SOL    HW224585   5.092   6.442   2.364
 7896SOL     OW24586   3.517   2.188   1.013
 7896SOL    HW124587   3.584   2.262   1.022
 7896SOL    HW224588   3.426   2.224   1.034
 7897SOL     OW24589   4.969   0.803   1.435
 7897SOL    HW124590   4.908   0.842   1.504
 7897SOL    HW224591   4.994   0.710   1.462
 7898SOL     OW24592   4.106   6.451   2.967
 7898SOL    HW124593   4.123   6.393   3.047
 7898SOL    HW224594   4.050   6.529   2.994
 7899SOL     OW24595   6.108   4.661   2.809
 7899SOL    HW124596   6.033   4.632   2.749
 7899SOL    HW224597   6.158   4.581   2.842
 7900SOL     OW24598   0.464   3.805   0.792
 7900SOL    HW124599   0.522   3.828   0.870
 7900SOL    HW224600   0.509   3.735   0.736
 7901SOL     OW24601   0.073   2.520   6.058
 7901SOL    HW124602   0.135   2.445   6.082
 7901SOL    HW224603   7.020   2.521   6.121
 7902SOL     OW24604   1.600   0.268   1.148
 7902SOL    HW124605   1.622   0.266   1.246
 7902SOL    HW224606   1.533   0.197   1.128
 7903SOL     OW24607   3.437   2.056   5.491
 7903SOL    HW124608   3.406   2.127   5.428
 7903SOL    HW224609   3.360   2.026   5.547
 7904SOL     OW24610   5.228   3.427   2.925
 7904SOL    HW124611   5.242   3.512   2.975
 7904SOL    HW224612   5.200   3.448   2.831
 7905SOL     OW24613   6.053   2.054   1.014
 7905SOL    HW124614   6.115   2.018   0.944
 7905SOL    HW224615   5.959   2.032   0.990
 7906SOL     OW24616   6.989   6.153   5.632
 7906SOL    HW124617   0.020   6.079   5.594
 7906SOL    HW224618   6.975   6.137   5.730
 7907SOL     OW24619   5.291   5.715   3.132
 7907SOL    HW124620   5.202   5.723   3.087
 7907SOL    HW224621   5.288   5.763   3.220
 7908SOL     OW24622   1.729   0.176   6.277
 7908SOL    HW124623   1.795   0.205   6.347
 7908SOL    HW224624   1.715   0.077   6.285
 7909SOL     OW24625   6.643   4.104   2.850
 7909SOL    HW124626   6.703   4.035   2.809
 7909SOL    HW224627   6.664   4.194   2.812
 7910SOL     OW24628   1.339   4.288   4.691
 7910SOL    HW124629   1.281   4.368   4.705
 7910SOL    HW224630   1.283   4.205   4.698
 7911SOL     OW24631   6.235   3.679   6.209
 7911SOL    HW124632   6.235   3.758   6.270
 7911SOL    HW224633   6.143   3.663   6.173
 7912SOL     OW24634   5.526   5.637   2.044
 7912SOL    HW124635   5.507   5.732   2.067
 7912SOL    HW224636   5.467   5.608   1.969
 7913SOL     OW24637   1.461   4.203   6.883
 7913SOL    HW124638   1.466   4.209   6.783
 7913SOL    HW224639   1.522   4.131   6.915
 7914SOL     OW24640   1.597   0.311   4.836
 7914SOL    HW124641   1.648   0.251   4.898
 7914SOL    HW224642   1.571   0.395   4.884
 7915SOL     OW24643   3.061   6.521   1.760
 7915SOL    HW124644   3.132   6.569   1.708
 7915SOL    HW224645   2.980   6.509   1.703
 7916SOL     OW24646   2.208   0.704   3.583
 7916SOL    HW124647   2.163   0.661   3.505
 7916SOL    HW224648   2.307   0.707   3.566
 7917SOL     OW24649   4.814   1.887   2.908
 7917SOL    HW124650   4.768   1.936   2.834
 7917SOL    HW224651   4.802   1.789   2.896
 7918SOL     OW24652   1.247   2.431   2.482
 7918SOL    HW124653   1.224   2.521   2.518
 7918SOL    HW224654   1.229   2.361   2.551
 7919SOL     OW24655   1.079   0.155   4.893
 7919SOL    HW124656   1.138   0.227   4.857
 7919SOL    HW224657   1.013   0.128   4.823
 7920SOL     OW24658   5.279   6.988   1.208
 7920SOL    HW124659   5.308   0.005   1.122
 7920SOL    HW224660   5.359   6.963   1.262
 7921SOL     OW24661   6.400   3.457   0.717
 7921SOL    HW124662   6.351   3.371   0.701
 7921SOL    HW224663   6.452   3.481   0.635
 7922SOL     OW24664   1.862   6.312   3.515
 7922SOL    HW124665   1.847   6.233   3.574
 7922SOL    HW224666   1.927   6.375   3.558
 7923SOL     OW24667   5.187   0.424   0.891
 7923SOL    HW124668   5.175   0.326   0.904
 7923SOL    HW224669   5.098   0.470   0.897
 7924SOL     OW24670   5.671   6.069   0.084
 7924SOL    HW124671   5.654   6.030   0.174
 7924SOL    HW224672   5.660   6.168   0.088
 7925SOL     OW24673   1.995   4.835   6.191
 7925SOL    HW124674   2.001   4.921   6.242
 7925SOL    HW224675   2.086   4.808   6.159
 7926SOL     OW24676   4.316   5.670   6.891
 7926SOL    HW124677   4.259   5.714   6.960
 7926SOL    HW224678   4.285   5.700   6.800
 7927SOL     OW24679   4.995   0.070   3.646
 7927SOL    HW124680   4.956   7.003   3.647
 7927SOL    HW224681   4.969   0.119   3.729
 7928SOL     OW24682   6.020   2.374   4.044
 7928SOL    HW124683   5.947   2.367   4.111
 7928SOL    HW224684   6.103   2.408   4.088
 7929SOL     OW24685   4.597   4.031   5.615
 7929SOL    HW124686   4.525   3.992   5.672
 7929SOL    HW224687   4.629   3.962   5.550
 7930SOL     OW24688   3.796   5.489   0.992
 7930SOL    HW124689   3.825   5.584   0.978
 7930SOL    HW224690   3.697   5.486   1.004
 7931SOL     OW24691   5.186   0.676   0.503
 7931SOL    HW124692   5.185   0.594   0.445
 7931SOL    HW224693   5.112   0.669   0.570
 7932SOL     OW24694   0.978   3.914   0.905
 7932SOL    HW124695   0.986   3.830   0.852
 7932SOL    HW224696   0.913   3.976   0.860
 7933SOL     OW24697   1.712   1.136   6.945
 7933SOL    HW124698   1.676   1.181   0.002
 7933SOL    HW224699   1.747   1.205   6.882
 7934SOL     OW24700   6.627   5.476   0.610
 7934SOL    HW124701   6.722   5.490   0.637
 7934SOL    HW224702   6.569   5.475   0.692
 7935SOL     OW24703   6.084   3.658   3.347
 7935SOL    HW124704   6.087   3.579   3.286
 7935SOL    HW224705   6.156   3.649   3.417
 7936SOL     OW24706   2.269   5.933   3.291
 7936SOL    HW124707   2.285   6.025   3.325
 7936SOL    HW224708   2.302   5.926   3.197
 7937SOL     OW24709   3.730   0.985   1.170
 7937SOL    HW124710   3.683   1.034   1.096
 7937SOL    HW224711   3.666   0.968   1.244
 7938SOL     OW24712   2.157   6.722   3.339
 7938SOL    HW124713   2.117   6.640   3.298
 7938SOL    HW224714   2.083   6.786   3.364
 7939SOL     OW24715   1.943   0.168   3.346
 7939SOL    HW124716   1.914   0.179   3.441
 7939SOL    HW224717   1.978   0.075   3.332
 7940SOL     OW24718   6.936   1.759   5.052
 7940SOL    HW124719   0.003   1.798   5.066
 7940SOL    HW224720   6.867   1.829   5.071
 7941SOL     OW24721   2.646   0.257   1.072
 7941SOL    HW124722   2.735   0.269   1.029
 7941SOL    HW224723   2.616   0.162   1.060
 7942SOL     OW24724   1.414   3.742   1.763
 7942SOL    HW124725   1.425   3.841   1.752
 7942SOL    HW224726   1.470   3.695   1.695
 7943SOL     OW24727   1.895   5.464   0.156
 7943SOL    HW124728   1.964   5.476   0.227
 7943SOL    HW224729   1.909   5.531   0.084
 7944SOL     OW24730   1.425   1.932   0.483
 7944SOL    HW124731   1.438   1.897   0.575
 7944SOL    HW224732   1.467   1.871   0.417
 7945SOL     OW24733   6.309   4.548   4.033
 7945SOL    HW124734   6.295   4.640   3.997
 7945SOL    HW224735   6.376   4.500   3.975
 7946SOL     OW24736   4.708   1.566   5.598
 7946SOL    HW124737   4.677   1.655   5.629
 7946SOL    HW224738   4.724   1.506   5.677
 7947SOL     OW24739   0.745   4.124   0.216
 7947SOL    HW124740   0.695   4.147   0.132
 7947SOL    HW224741   0.680   4.106   0.289
 7948SOL     OW24742   1.397   5.697   1.246
 7948SOL    HW124743   1.395   5.720   1.149
 7948SOL    HW224744   1.325   5.631   1.266
 7949SOL     OW24745   3.748   5.592   4.548
 7949SOL    HW124746   3.699   5.637   4.473
 7949SOL    HW224747   3.690   5.588   4.629
 7950SOL     OW24748   6.693   2.320   6.083
 7950SOL    HW124749   6.699   2.295   5.986
 7950SOL    HW224750   6.752   2.260   6.137
 7951SOL     OW24751   3.331   0.601   2.866
 7951SOL    HW124752   3.277   0.518   2.849
 7951SOL    HW224753   3.419   0.576   2.907
 7952SOL     OW24754   0.406   3.493   5.789
 7952SOL    HW124755   0.475   3.421   5.785
 7952SOL    HW224756   0.362   3.503   5.700
 7953SOL     OW24757   0.796   0.823   0.432
 7953SOL    HW124758   0.871   0.883   0.404
 7953SOL    HW224759   0.713   0.848   0.382
 7954SOL     OW24760   3.840   2.889   0.675
 7954SOL    HW124761   3.755   2.899   0.726
 7954SOL    HW224762   3.825   2.914   0.579
 7955SOL     OW24763   6.522   0.460   6.361
 7955SOL    HW124764   6.488   0.374   6.399
 7955SOL    HW224765   6.532   0.452   6.262
 7956SOL     OW24766   0.047   6.984   1.075
 7956SOL    HW124767   0.144   6.969   1.053
 7956SOL    HW224768   0.039   7.019   1.168
 7957SOL     OW24769   5.903   1.493   5.895
 7957SOL    HW124770   5.944   1.469   5.807
 7957SOL    HW224771   5.942   1.436   5.967
 7958SOL     OW24772   4.815   2.707   6.748
 7958SOL    HW124773   4.825   2.654   6.664
 7958SOL    HW224774   4.731   2.761   6.744
 7959SOL     OW24775   5.435   2.850   6.908
 7959SOL    HW124776   5.393   2.803   6.986
 7959SOL    HW224777   5.419   2.948   6.916
 7960SOL     OW24778   0.785   2.568   5.238
 7960SOL    HW124779   0.879   2.555   5.208
 7960SOL    HW224780   0.724   2.573   5.159
 7961SOL     OW24781   5.936   0.166   6.294
 7961SOL    HW124782   5.916   0.155   6.196
 7961SOL    HW224783   6.019   0.221   6.304
 7962SOL     OW24784   5.607   0.339   5.046
 7962SOL    HW124785   5.615   0.400   5.125
 7962SOL    HW224786   5.512   0.308   5.037
 7963SOL     OW24787   5.870   5.967   2.406
 7963SOL    HW124788   5.808   6.009   2.472
 7963SOL    HW224789   5.860   6.011   2.317
 7964SOL     OW24790   0.703   4.326   1.765
 7964SOL    HW124791   0.782   4.275   1.729
 7964SOL    HW224792   0.658   4.374   1.690
 7965SOL     OW24793   4.230   1.746   6.451
 7965SOL    HW124794   4.132   1.759   6.430
 7965SOL    HW224795   4.259   1.656   6.419
 7966SOL     OW24796   5.832   3.654   5.446
 7966SOL    HW124797   5.867   3.563   5.427
 7966SOL    HW224798   5.745   3.646   5.496
 7967SOL     OW24799   2.332   4.098   1.405
 7967SOL    HW124800   2.353   4.012   1.452
 7967SOL    HW224801   2.233   4.113   1.406
 7968SOL     OW24802   2.019   2.342   3.355
 7968SOL    HW124803   2.002   2.439   3.340
 7968SOL    HW224804   1.975   2.312   3.439
 7969SOL     OW24805   3.016   4.197   6.432
 7969SOL    HW124806   3.084   4.124   6.443
 7969SOL    HW224807   2.925   4.162   6.454
 7970SOL     OW24808   6.303   2.645   2.843
 7970SOL    HW124809   6.271   2.723   2.790
 7970SOL    HW224810   6.330   2.571   2.782
 7971SOL     OW24811   2.768   0.166   6.993
 7971SOL    HW124812   2.770   0.260   0.002
 7971SOL    HW224813   2.862   0.137   6.971
 7972SOL     OW24814   3.877   3.054   4.163
 7972SOL    HW124815   3.790   3.054   4.212
 7972SOL    HW224816   3.884   2.972   4.107
 7973SOL     OW24817   0.596   5.632   2.073
 7973SOL    HW124818   0.694   5.645   2.063
 7973SOL    HW224819   0.577   5.537   2.099
 7974SOL     OW24820   6.863   2.722   4.163
 7974SOL    HW124821   6.942   2.721   4.101
 7974SOL    HW224822   6.841   2.629   4.191
 7975SOL     OW24823   3.928   0.536   6.746
 7975SOL    HW124824   3.926   0.582   6.834
 7975SOL    HW224825   4.022   0.513   6.722
 7976SOL     OW24826   0.231   0.306   0.734
 7976SOL    HW124827   0.293   0.367   0.685
 7976SOL    HW224828   0.144   0.300   0.685
 7977SOL     OW24829   5.043   4.835   2.670
 7977SOL    HW124830   4.945   4.834   2.650
 7977SOL    HW224831   5.080   4.743   2.660
 7978SOL     OW24832   0.253   3.897   1.318
 7978SOL    HW124833   0.349   3.908   1.344
 7978SOL    HW224834   0.218   3.811   1.354
 7979SOL     OW24835   3.552   2.505   5.844
 7979SOL    HW124836   3.556   2.570   5.920
 7979SOL    HW224837   3.576   2.553   5.759
 7980SOL     OW24838   4.109   5.948   2.642
 7980SOL    HW124839   4.180   6.018   2.630
 7980SOL    HW224840   4.107   5.920   2.738
 7981SOL     OW24841   0.746   2.869   4.014
 7981SOL    HW124842   0.765   2.830   3.924
 7981SOL    HW224843   0.753   2.969   4.009
 7982SOL     OW24844   6.549   6.587   0.611
 7982SOL    HW124845   6.533   6.685   0.602
 7982SOL    HW224846   6.504   6.539   0.535
 7983SOL     OW24847   3.458   1.455   0.988
 7983SOL    HW124848   3.497   1.515   0.919
 7983SOL    HW224849   3.532   1.412   1.041
 7984SOL     OW24850   6.370   2.338   2.154
 7984SOL    HW124851   6.398   2.252   2.110
 7984SOL    HW224852   6.273   2.332   2.179
 7985SOL     OW24853   3.043   3.564   5.678
 7985SOL    HW124854   3.049   3.472   5.717
 7985SOL    HW224855   3.023   3.630   5.751
 7986SOL     OW24856   2.043   1.194   3.591
 7986SOL    HW124857   2.039   1.211   3.493
 7986SOL    HW224858   2.124   1.140   3.613
 7987SOL     OW24859   1.409   2.819   6.726
 7987SOL    HW124860   1.421   2.813   6.826
 7987SOL    HW224861   1.482   2.766   6.682
 7988SOL     OW24862   6.141   0.010   1.798
 7988SOL    HW124863   6.041   0.014   1.807
 7988SOL    HW224864   6.181   0.092   1.840
 7989SOL     OW24865   0.568   4.825   1.286
 7989SOL    HW124866   0.508   4.785   1.217
 7989SOL    HW224867   0.527   4.814   1.377
 7990SOL     OW24868   4.209   5.178   5.494
 7990SOL    HW124869   4.212   5.161   5.592
 7990SOL    HW224870   4.223   5.276   5.477
 7991SOL     OW24871   5.263   0.784   4.290
 7991SOL    HW124872   5.200   0.861   4.298
 7991SOL    HW224873   5.303   0.784   4.198
 7992SOL     OW24874   2.882   0.834   0.291
 7992SOL    HW124875   2.785   0.856   0.278
 7992SOL    HW224876   2.914   0.778   0.214
 7993SOL     OW24877   6.354   5.315   0.657
 7993SOL    HW124878   6.388   5.350   0.744
 7993SOL    HW224879   6.321   5.221   0.670
 7994SOL     OW24880   0.741   1.626   5.154
 7994SOL    HW124881   0.707   1.541   5.116
 7994SOL    HW224882   0.807   1.667   5.090
 7995SOL     OW24883   0.349   6.223   0.614
 7995SOL    HW124884   0.410   6.151   0.645
 7995SOL    HW224885   0.335   6.289   0.688
 7996SOL     OW24886   1.414   6.196   4.071
 7996SOL    HW124887   1.377   6.280   4.111
 7996SOL    HW224888   1.454   6.140   4.144
 7997SOL     OW24889   2.591   0.468   5.746
 7997SOL    HW124890   2.675   0.522   5.735
 7997SOL    HW224891   2.523   0.522   5.795
 7998SOL     OW24892   1.820   1.854   1.554
 7998SOL    HW124893   1.767   1.786   1.605
 7998SOL    HW224894   1.758   1.910   1.499
 7999SOL     OW24895   7.013   0.636   2.327
 7999SOL    HW124896   6.963   0.719   2.353
 7999SOL    HW224897   0.071   0.661   2.276
 8000SOL     OW24898   4.373   5.974   1.054
 8000SOL    HW124899   4.431   5.953   0.976
 8000SOL    HW224900   4.277   5.963   1.028
 8001SOL     OW24901   5.124   4.907   2.385
 8001SOL    HW124902   5.121   4.890   2.484
 8001SOL    HW224903   5.104   5.003   2.367
 8002SOL     OW24904   1.510   0.560   4.949
 8002SOL    HW124905   1.519   0.581   5.047
 8002SOL    HW224906   1.457   0.632   4.905
 8003SOL     OW24907   2.367   5.453   2.833
 8003SOL    HW124908   2.428   5.388   2.786
 8003SOL    HW224909   2.418   5.537   2.854
 8004SOL     OW24910   1.990   3.551   3.786
 8004SOL    HW124911   1.892   3.536   3.769
 8004SOL    HW224912   2.016   3.641   3.752
 8005SOL     OW24913   3.048   0.377   4.390
 8005SOL    HW124914   2.981   0.437   4.434
 8005SOL    HW224915   3.141   0.409   4.412
 8006SOL     OW24916   4.351   5.508   6.593
 8006SOL    HW124917   4.436   5.455   6.592
 8006SOL    HW224918   4.372   5.605   6.588
 8007SOL     OW24919   6.771   0.388   1.360
 8007SOL    HW124920   6.828   0.384   1.277
 8007SOL    HW224921   6.779   0.302   1.410
 8008SOL     OW24922   5.611   5.274   1.362
 8008SOL    HW124923   5.547   5.201   1.387
 8008SOL    HW224924   5.575   5.362   1.392
 8009SOL     OW24925   6.059   0.276   1.021
 8009SOL    HW124926   6.151   0.291   1.057
 8009SOL    HW224927   5.992   0.282   1.095
 8010SOL     OW24928   3.098   0.271   0.471
 8010SOL    HW124929   3.093   0.367   0.496
 8010SOL    HW224930   3.113   0.216   0.553
 8011SOL     OW24931   3.576   1.934   1.642
 8011SOL    HW124932   3.551   1.877   1.564
 8011SOL    HW224933   3.497   1.942   1.703
 8012SOL     OW24934   6.050   0.564   5.386
 8012SOL    HW124935   6.018   0.582   5.293
 8012SOL    HW224936   6.004   0.626   5.450
 8013SOL     OW24937   3.410   0.219   3.608
 8013SOL    HW124938   3.445   0.252   3.520
 8013SOL    HW224939   3.486   0.205   3.671
 8014SOL     OW24940   2.167   2.513   3.655
 8014SOL    HW124941   2.266   2.529   3.651
 8014SOL    HW224942   2.149   2.422   3.693
 8015SOL     OW24943   3.747   6.012   4.717
 8015SOL    HW124944   3.734   5.935   4.779
 8015SOL    HW224945   3.699   6.092   4.752
 8016SOL     OW24946   3.243   3.385   5.377
 8016SOL    HW124947   3.202   3.371   5.287
 8016SOL    HW224948   3.337   3.418   5.366
 8017SOL     OW24949   5.250   6.087   1.672
 8017SOL    HW124950   5.163   6.109   1.629
 8017SOL    HW224951   5.309   6.168   1.671
 8018SOL     OW24952   3.313   2.887   1.223
 8018SOL    HW124953   3.248   2.825   1.267
 8018SOL    HW224954   3.339   2.851   1.133
 8019SOL     OW24955   3.075   3.488   1.300
 8019SOL    HW124956   3.018   3.465   1.221
 8019SOL    HW224957   3.164   3.521   1.269
 8020SOL     OW24958   0.982   0.097   0.387
 8020SOL    HW124959   0.982   0.196   0.401
 8020SOL    HW224960   0.959   0.077   0.291
 8021SOL     OW24961   1.268   2.427   0.563
 8021SOL    HW124962   1.276   2.509   0.620
 8021SOL    HW224963   1.288   2.346   0.618
 8022SOL     OW24964   4.152   0.228   2.770
 8022SOL    HW124965   4.132   0.135   2.739
 8022SOL    HW224966   4.245   0.253   2.742
 8023SOL     OW24967   3.582   4.906   2.176
 8023SOL    HW124968   3.583   4.850   2.094
 8023SOL    HW224969   3.501   4.963   2.177
 8024SOL     OW24970   2.919   0.556   6.754
 8024SOL    HW124971   2.942   0.651   6.732
 8024SOL    HW224972   2.822   0.550   6.777
 8025SOL     OW24973   1.105   6.772   1.709
 8025SOL    HW124974   1.124   6.746   1.614
 8025SOL    HW224975   1.122   6.693   1.768
 8026SOL     OW24976   0.305   6.756   5.301
 8026SOL    HW124977   0.321   6.716   5.391
 8026SOL    HW224978   0.231   6.707   5.255
 8027SOL     OW24979   3.962   6.875   6.604
 8027SOL    HW124980   3.986   6.924   6.520
 8027SOL    HW224981   3.911   6.937   6.665
 8028SOL     OW24982   3.531   5.520   6.571
 8028SOL    HW124983   3.590   5.447   6.605
 8028SOL    HW224984   3.435   5.494   6.582
 8029SOL     OW24985   1.385   6.777   1.827
 8029SOL    HW124986   1.307   6.811   1.775
 8029SOL    HW224987   1.422   6.695   1.782
 8030SOL     OW24988   0.681   3.716   1.004
 8030SOL    HW124989   0.681   3.813   1.031
 8030SOL    HW224990   0.646   3.661   1.080
 8031SOL     OW24991   0.754   1.119   3.754
 8031SOL    HW124992   0.754   1.032   3.704
 8031SOL    HW224993   0.727   1.192   3.692
 8032SOL     OW24994   0.464   3.376   1.678
 8032SOL    HW124995   0.543   3.314   1.684
 8032SOL    HW224996   0.408   3.367   1.760
 8033SOL     OW24997   4.300   5.218   0.866
 8033SOL    HW124998   4.273   5.314   0.872
 8033SOL    HW224999   4.219   5.160   0.861
 8034SOL     OW25000   0.902   1.391   4.735
 8034SOL    HW125001   0.811   1.406   4.698
 8034SOL    HW225002   0.955   1.335   4.671
 8035SOL     OW25003   5.504   0.275   4.736
 8035SOL    HW125004   5.544   0.358   4.775
 8035SOL    HW225005   5.515   0.277   4.637
 8036SOL     OW25006   5.046   5.009   5.458
 8036SOL    HW125007   5.048   5.045   5.365
 8036SOL    HW225008   5.111   4.933   5.465
 8037SOL     OW25009   3.223   1.056   6.769
 8037SOL    HW125010   3.162   0.979   6.753
 8037SOL    HW225011   3.313   1.035   6.732
 8038SOL     OW25012   5.601   5.810   1.570
 8038SOL    HW125013   5.576   5.726   1.522
 8038SOL    HW225014   5.579   5.889   1.513
 8039SOL     OW25015   1.694   2.729   4.968
 8039SOL    HW125016   1.749   2.647   4.953
 8039SOL    HW225017   1.687   2.781   4.883
 8040SOL     OW25018   0.581   6.736   5.239
 8040SOL    HW125019   0.483   6.729   5.256
 8040SOL    HW225020   0.630   6.675   5.301
 8041SOL     OW25021   3.250   1.618   2.642
 8041SOL    HW125022   3.260   1.718   2.643
 8041SOL    HW225023   3.157   1.594   2.672
 8042SOL     OW25024   4.848   4.036   6.164
 8042SOL    HW125025   4.889   3.945   6.168
 8042SOL    HW225026   4.903   4.100   6.218
 8043SOL     OW25027   5.744   5.449   6.968
 8043SOL    HW125028   5.842   5.432   6.955
 8043SOL    HW225029   5.695   5.429   6.883
 8044SOL     OW25030   0.974   2.842   1.179
 8044SOL    HW125031   0.888   2.804   1.143
 8044SOL    HW225032   0.958   2.876   1.272
 8045SOL     OW25033   5.606   3.329   5.186
 8045SOL    HW125034   5.687   3.286   5.227
 8045SOL    HW225035   5.602   3.305   5.089
 8046SOL     OW25036   0.344   4.281   1.389
 8046SOL    HW125037   0.323   4.205   1.327
 8046SOL    HW225038   0.355   4.247   1.482
 8047SOL     OW25039   2.807   6.209   6.715
 8047SOL    HW125040   2.722   6.180   6.760
 8047SOL    HW225041   2.798   6.198   6.616
 8048SOL     OW25042   4.548   1.641   6.725
 8048SOL    HW125043   4.609   1.586   6.668
 8048SOL    HW225044   4.561   1.615   6.821
 8049SOL     OW25045   2.428   1.415   1.095
 8049SOL    HW125046   2.494   1.342   1.080
 8049SOL    HW225047   2.349   1.402   1.035
 8050SOL     OW25048   6.718   4.841   5.698
 8050SOL    HW125049   6.704   4.758   5.754
 8050SOL    HW225050   6.742   4.917   5.758
 8051SOL     OW25051   3.994   6.879   3.615
 8051SOL    HW125052   3.976   6.908   3.520
 8051SOL    HW225053   4.050   6.796   3.614
 8052SOL     OW25054   2.175   1.552   3.173
 8052SOL    HW125055   2.089   1.600   3.192
 8052SOL    HW225056   2.156   1.472   3.115
 8053SOL     OW25057   2.037   1.135   6.529
 8053SOL    HW125058   2.134   1.123   6.548
 8053SOL    HW225059   2.018   1.108   6.434
 8054SOL     OW25060   5.152   3.825   5.066
 8054SOL    HW125061   5.242   3.827   5.021
 8054SOL    HW225062   5.141   3.907   5.122
 8055SOL     OW25063   0.020   1.025   6.655
 8055SOL    HW125064   6.990   0.944   6.633
 8055SOL    HW225065   6.994   1.084   6.717
 8056SOL     OW25066   1.896   2.924   2.861
 8056SOL    HW125067   1.986   2.964   2.847
 8056SOL    HW225068   1.903   2.850   2.929
 8057SOL     OW25069   2.787   1.517   1.830
 8057SOL    HW125070   2.719   1.586   1.806
 8057SOL    HW225071   2.802   1.457   1.751
 8058SOL     OW25072   3.342   6.245   1.852
 8058SOL    HW125073   3.247   6.271   1.864
 8058SOL    HW225074   3.378   6.206   1.937
 8059SOL     OW25075   4.567   4.247   5.468
 8059SOL    HW125076   4.587   4.156   5.504
 8059SOL    HW225077   4.487   4.285   5.515
 8060SOL     OW25078   0.412   1.376   5.240
 8060SOL    HW125079   0.477   1.429   5.186
 8060SOL    HW225080   0.456   1.345   5.324
 8061SOL     OW25081   6.543   0.898   0.881
 8061SOL    HW125082   6.556   0.799   0.873
 8061SOL    HW225083   6.546   0.940   0.791
 8062SOL     OW25084   4.950   4.737   6.578
 8062SOL    HW125085   4.873   4.688   6.618
 8062SOL    HW225086   4.916   4.809   6.517
 8063SOL     OW25087   2.366   4.611   2.130
 8063SOL    HW125088   2.396   4.601   2.035
 8063SOL    HW225089   2.445   4.610   2.191
 8064SOL     OW25090   6.924   2.692   0.300
 8064SOL    HW125091   6.916   2.594   0.280
 8064SOL    HW225092   6.885   2.745   0.224
 8065SOL     OW25093   4.568   0.514   6.736
 8065SOL    HW125094   4.556   0.595   6.677
 8065SOL    HW225095   4.587   0.544   6.829
 8066SOL     OW25096   6.422   0.837   5.319
 8066SOL    HW125097   6.513   0.812   5.353
 8066SOL    HW225098   6.365   0.867   5.395
 8067SOL     OW25099   5.633   0.533   4.426
 8067SOL    HW125100   5.621   0.550   4.328
 8067SOL    HW225101   5.697   0.601   4.463
 8068SOL     OW25102   0.353   4.091   0.914
 8068SOL    HW125103   0.319   4.007   0.954
 8068SOL    HW225104   0.452   4.086   0.904
 8069SOL     OW25105   0.587   2.910   2.050
 8069SOL    HW125106   0.636   2.845   2.107
 8069SOL    HW225107   0.651   2.952   1.986
 8070SOL     OW25108   5.149   3.883   1.827
 8070SOL    HW125109   5.063   3.927   1.799
 8070SOL    HW225110   5.165   3.803   1.770
 8071SOL     OW25111   1.530   0.331   6.395
 8071SOL    HW125112   1.602   0.276   6.352
 8071SOL    HW225113   1.470   0.368   6.325
 8072SOL     OW25114   2.862   2.034   5.615
 8072SOL    HW125115   2.891   2.122   5.651
 8072SOL    HW225116   2.870   1.964   5.686
 8073SOL     OW25117   5.647   6.330   0.090
 8073SOL    HW125118   5.683   6.423   0.078
 8073SOL    HW225119   5.553   6.327   0.054
 8074SOL     OW25120   6.410   0.288   0.809
 8074SOL    HW125121   6.359   0.301   0.895
 8074SOL    HW225122   6.480   0.358   0.802
 8075SOL     OW25123   0.170   6.702   1.114
 8075SOL    HW125124   0.072   6.682   1.116
 8075SOL    HW225125   0.184   6.798   1.092
 8076SOL     OW25126   6.811   5.769   0.651
 8076SOL    HW125127   6.716   5.774   0.683
 8076SOL    HW225128   6.813   5.782   0.552
 8077SOL     OW25129   6.293   4.697   0.805
 8077SOL    HW125130   6.213   4.692   0.865
 8077SOL    HW225131   6.315   4.606   0.771
 8078SOL     OW25132   5.620   1.680   1.441
 8078SOL    HW125133   5.548   1.737   1.402
 8078SOL    HW225134   5.602   1.584   1.421
 8079SOL     OW25135   0.051   0.643   6.802
 8079SOL    HW125136   0.133   0.695   6.823
 8079SOL    HW225137   6.999   0.706   6.786
 8080SOL     OW25138   6.816   3.316   3.499
 8080SOL    HW125139   6.821   3.416   3.493
 8080SOL    HW225140   6.810   3.278   3.406
 8081SOL     OW25141   5.628   0.788   5.407
 8081SOL    HW125142   5.652   0.773   5.312
 8081SOL    HW225143   5.548   0.848   5.412
 8082SOL     OW25144   4.402   1.995   4.571
 8082SOL    HW125145   4.500   1.971   4.571
 8082SOL    HW225146   4.393   2.094   4.572
 8083SOL     OW25147   0.017   2.595   3.930
 8083SOL    HW125148   0.111   2.585   3.897
 8083SOL    HW225149   6.978   2.565   3.859
 8084SOL     OW25150   5.546   1.327   0.347
 8084SOL    HW125151   5.536   1.394   0.274
 8084SOL    HW225152   5.457   1.284   0.365
 8085SOL     OW25153   1.541   5.972   4.218
 8085SOL    HW125154   1.637   5.943   4.223
 8085SOL    HW225155   1.493   5.917   4.150
 8086SOL     OW25156   0.191   1.814   2.243
 8086SOL    HW125157   0.147   1.726   2.224
 8086SOL    HW225158   0.191   1.831   2.341
 8087SOL     OW25159   6.223   0.959   6.269
 8087SOL    HW125160   6.244   0.977   6.365
 8087SOL    HW225161   6.238   0.863   6.249
 8088SOL     OW25162   6.383   6.928   5.628
 8088SOL    HW125163   6.336   6.903   5.712
 8088SOL    HW225164   6.319   6.925   5.551
 8089SOL     OW25165   6.629   0.405   0.356
 8089SOL    HW125166   6.563   0.479   0.348
 8089SOL    HW225167   6.653   0.371   0.264
 8090SOL     OW25168   4.056   2.241   4.614
 8090SOL    HW125169   4.024   2.282   4.529
 8090SOL    HW225170   4.067   2.142   4.602
 8091SOL     OW25171   1.112   3.322   5.444
 8091SOL    HW125172   1.098   3.314   5.543
 8091SOL    HW225173   1.121   3.418   5.420
 8092SOL     OW25174   4.433   6.863   5.629
 8092SOL    HW125175   4.394   6.900   5.713
 8092SOL    HW225176   4.368   6.799   5.587
 8093SOL     OW25177   3.853   0.341   3.172
 8093SOL    HW125178   3.820   0.435   3.171
 8093SOL    HW225179   3.776   0.279   3.185
 8094SOL     OW25180   2.180   5.118   3.189
 8094SOL    HW125181   2.264   5.155   3.149
 8094SOL    HW225182   2.110   5.189   3.192
 8095SOL     OW25183   0.980   5.633   4.908
 8095SOL    HW125184   0.899   5.575   4.904
 8095SOL    HW225185   1.038   5.615   4.829
 8096SOL     OW25186   0.902   4.633   0.372
 8096SOL    HW125187   0.813   4.621   0.415
 8096SOL    HW225188   0.911   4.728   0.340
 8097SOL     OW25189   4.684   0.563   0.437
 8097SOL    HW125190   4.682   0.648   0.491
 8097SOL    HW225191   4.779   0.537   0.420
 8098SOL     OW25192   2.710   6.496   5.239
 8098SOL    HW125193   2.706   6.453   5.149
 8098SOL    HW225194   2.618   6.501   5.278
 8099SOL     OW25195   1.876   4.368   3.144
 8099SOL    HW125196   1.825   4.296   3.097
 8099SOL    HW225197   1.947   4.403   3.083
 8100SOL     OW25198   0.090   6.369   0.245
 8100SOL    HW125199   0.027   6.317   0.303
 8100SOL    HW225200   0.116   6.454   0.292
 8101SOL     OW25201   2.996   4.949   6.563
 8101SOL    HW125202   2.915   4.999   6.533
 8101SOL    HW225203   3.026   4.886   6.491
 8102SOL     OW25204   1.474   4.370   3.998
 8102SOL    HW125205   1.422   4.308   3.939
 8102SOL    HW225206   1.493   4.455   3.950
 8103SOL     OW25207   4.980   0.518   1.809
 8103SOL    HW125208   5.006   0.614   1.820
 8103SOL    HW225209   4.885   0.513   1.778
 8104SOL     OW25210   1.234   6.772   0.269
 8104SOL    HW125211   1.204   6.844   0.331
 8104SOL    HW225212   1.198   6.790   0.177
 8105SOL     OW25213   6.934   6.926   2.421
 8105SOL    HW125214   6.914   6.948   2.516
 8105SOL    HW225215   6.863   6.866   2.384
 8106SOL     OW25216   3.831   6.162   7.010
 8106SOL    HW125217   3.805   6.162   0.082
 8106SOL    HW225218   3.915   6.215   6.998
 8107SOL     OW25219   0.751   6.404   0.248
 8107SOL    HW125220   0.763   6.502   0.261
 8107SOL    HW225221   0.663   6.386   0.204
 8108SOL     OW25222   1.750   1.100   1.123
 8108SOL    HW125223   1.831   1.141   1.081
 8108SOL    HW225224   1.762   1.001   1.129
 8109SOL     OW25225   0.309   4.497   1.971
 8109SOL    HW125226   0.373   4.556   2.020
 8109SOL    HW225227   0.318   4.403   2.005
 8110SOL     OW25228   4.684   4.696   7.000
 8110SOL    HW125229   4.687   4.787   0.017
 8110SOL    HW225230   4.764   4.684   6.941
 8111SOL     OW25231   5.512   2.286   2.321
 8111SOL    HW125232   5.532   2.374   2.279
 8111SOL    HW225233   5.421   2.288   2.362
 8112SOL     OW25234   1.801   4.637   6.460
 8112SOL    HW125235   1.803   4.685   6.372
 8112SOL    HW225236   1.744   4.688   6.525
 8113SOL     OW25237   5.633   5.317   6.700
 8113SOL    HW125238   5.591   5.316   6.609
 8113SOL    HW225239   5.621   5.228   6.743
 8114SOL     OW25240   2.247   3.035   3.154
 8114SOL    HW125241   2.245   3.058   3.251
 8114SOL    HW225242   2.274   2.939   3.144
 8115SOL     OW25243   2.608   1.450   6.160
 8115SOL    HW125244   2.512   1.424   6.169
 8115SOL    HW225245   2.615   1.535   6.107
 8116SOL     OW25246   4.096   3.148   1.956
 8116SOL    HW125247   4.128   3.233   1.914
 8116SOL    HW225248   4.099   3.074   1.887
 8117SOL     OW25249   1.078   0.730   3.181
 8117SOL    HW125250   1.008   0.780   3.129
 8117SOL    HW225251   1.162   0.727   3.127
 8118SOL     OW25252   6.326   2.293   6.612
 8118SOL    HW125253   6.254   2.266   6.676
 8118SOL    HW225254   6.296   2.274   6.518
 8119SOL     OW25255   5.665   5.048   6.798
 8119SOL    HW125256   5.745   5.020   6.744
 8119SOL    HW225257   5.582   5.030   6.746
 8120SOL     OW25258   1.978   6.831   2.472
 8120SOL    HW125259   2.034   6.771   2.529
 8120SOL    HW225260   1.998   6.814   2.375
 8121SOL     OW25261   1.213   2.425   3.091
 8121SOL    HW125262   1.230   2.520   3.118
 8121SOL    HW225263   1.169   2.424   3.001
 8122SOL     OW25264   0.670   5.249   0.938
 8122SOL    HW125265   0.753   5.245   0.883
 8122SOL    HW225266   0.619   5.163   0.928
 8123SOL     OW25267   6.423   0.655   5.917
 8123SOL    HW125268   6.505   0.690   5.961
 8123SOL    HW225269   6.428   0.672   5.818
 8124SOL     OW25270   6.232   6.224   6.150
 8124SOL    HW125271   6.322   6.198   6.183
 8124SOL    HW225272   6.190   6.145   6.104
 8125SOL     OW25273   0.728   6.079   1.965
 8125SOL    HW125274   0.687   6.040   1.883
 8125SOL    HW225275   0.820   6.042   1.977
 8126SOL     OW25276   3.538   5.700   4.400
 8126SOL    HW125277   3.546   5.766   4.324
 8126SOL    HW225278   3.526   5.750   4.486
 8127SOL     OW25279   4.453   1.720   5.716
 8127SOL    HW125280   4.455   1.690   5.811
 8127SOL    HW225281   4.534   1.775   5.697
 8128SOL     OW25282   4.017   2.972   0.918
 8128SOL    HW125283   3.956   2.921   0.857
 8128SOL    HW225284   4.112   2.953   0.893
 8129SOL     OW25285   6.222   2.721   3.086
 8129SOL    HW125286   6.275   2.687   3.008
 8129SOL    HW225287   6.247   2.816   3.104
 8130SOL     OW25288   0.342   6.185   6.884
 8130SOL    HW125289   0.309   6.091   6.874
 8130SOL    HW225290   0.299   6.227   6.964
 8131SOL     OW25291   2.571   2.840   0.221
 8131SOL    HW125292   2.604   2.842   0.127
 8131SOL    HW225293   2.472   2.829   0.222
 8132SOL     OW25294   5.914   1.776   4.718
 8132SOL    HW125295   5.820   1.808   4.703
 8132SOL    HW225296   5.966   1.787   4.633
 8133SOL     OW25297   3.958   5.536   1.374
 8133SOL    HW125298   3.954   5.497   1.466
 8133SOL    HW225299   4.040   5.591   1.364
 8134SOL     OW25300   6.730   1.655   7.001
 8134SOL    HW125301   6.746   1.565   6.959
 8134SOL    HW225302   6.775   1.725   6.947
 8135SOL     OW25303   2.486   6.106   1.993
 8135SOL    HW125304   2.580   6.073   1.981
 8135SOL    HW225305   2.470   6.125   2.090
 8136SOL     OW25306   4.364   4.804   2.370
 8136SOL    HW125307   4.403   4.717   2.341
 8136SOL    HW225308   4.418   4.879   2.333
 8137SOL     OW25309   3.732   1.062   5.849
 8137SOL    HW125310   3.764   0.969   5.829
 8137SOL    HW225311   3.640   1.075   5.810
 8138SOL     OW25312   6.490   0.542   2.961
 8138SOL    HW125313   6.415   0.566   3.023
 8138SOL    HW225314   6.486   0.444   2.941
 8139SOL     OW25315   1.064   1.197   4.642
 8139SOL    HW125316   1.098   1.223   4.551
 8139SOL    HW225317   1.135   1.214   4.710
 8140SOL     OW25318   4.644   2.558   3.010
 8140SOL    HW125319   4.686   2.628   3.067
 8140SOL    HW225320   4.654   2.582   2.914
 8141SOL     OW25321   6.103   3.934   3.849
 8141SOL    HW125322   6.064   4.022   3.874
 8141SOL    HW225323   6.141   3.890   3.931
 8142SOL     OW25324   0.655   6.358   0.531
 8142SOL    HW125325   0.693   6.347   0.440
 8142SOL    HW225326   0.623   6.269   0.565
 8143SOL     OW25327   6.902   2.657   6.439
 8143SOL    HW125328   6.912   2.631   6.535
 8143SOL    HW225329   6.815   2.704   6.427
 8144SOL     OW25330   4.678   6.047   0.190
 8144SOL    HW125331   4.607   6.071   0.123
 8144SOL    HW225332   4.731   6.128   0.214
 8145SOL     OW25333   4.507   6.730   4.355
 8145SOL    HW125334   4.565   6.763   4.280
 8145SOL    HW225335   4.504   6.630   4.354
 8146SOL     OW25336   3.283   1.718   2.969
 8146SOL    HW125337   3.315   1.645   2.908
 8146SOL    HW225338   3.284   1.685   3.063
 8147SOL     OW25339   5.169   1.683   3.443
 8147SOL    HW125340   5.148   1.776   3.414
 8147SOL    HW225341   5.260   1.657   3.409
 8148SOL     OW25342   0.559   3.266   3.276
 8148SOL    HW125343   0.505   3.348   3.291
 8148SOL    HW225344   0.589   3.262   3.181
 8149SOL     OW25345   3.900   5.228   4.072
 8149SOL    HW125346   3.867   5.214   4.165
 8149SOL    HW225347   3.966   5.156   4.049
 8150SOL     OW25348   1.338   5.707   0.504
 8150SOL    HW125349   1.322   5.784   0.442
 8150SOL    HW225350   1.429   5.714   0.545
 8151SOL     OW25351   0.919   1.754   5.005
 8151SOL    HW125352   0.943   1.748   4.908
 8151SOL    HW225353   0.984   1.814   5.051
 8152SOL     OW25354   0.597   1.134   3.019
 8152SOL    HW125355   0.503   1.131   2.985
 8152SOL    HW225356   0.643   1.049   2.997
 8153SOL     OW25357   2.289   6.326   6.749
 8153SOL    HW125358   2.224   6.305   6.676
 8153SOL    HW225359   2.240   6.362   6.828
 8154SOL     OW25360   1.841   6.096   3.727
 8154SOL    HW125361   1.790   6.119   3.810
 8154SOL    HW225362   1.936   6.076   3.751
 8155SOL     OW25363   3.849   3.657   4.650
 8155SOL    HW125364   3.781   3.713   4.697
 8155SOL    HW225365   3.843   3.673   4.551
 8156SOL     OW25366   0.917   6.663   5.300
 8156SOL    HW125367   0.892   6.751   5.341
 8156SOL    HW225368   0.938   6.675   5.203
 8157SOL     OW25369   5.744   2.118   6.765
 8157SOL    HW125370   5.797   2.039   6.731
 8157SOL    HW225371   5.759   2.196   6.704
 8158SOL     OW25372   0.842   5.814   2.889
 8158SOL    HW125373   0.915   5.880   2.870
 8158SOL    HW225374   0.880   5.737   2.941
 8159SOL     OW25375   0.177   6.546   0.458
 8159SOL    HW125376   0.164   6.512   0.551
 8159SOL    HW225377   0.272   6.574   0.445
 8160SOL     OW25378   5.585   2.164   0.987
 8160SOL    HW125379   5.616   2.232   0.921
 8160SOL    HW225380   5.487   2.151   0.978
 8161SOL     OW25381   4.240   3.618   1.723
 8161SOL    HW125382   4.146   3.629   1.691
 8161SOL    HW225383   4.285   3.708   1.726
 8162SOL     OW25384   6.004   0.486   1.395
 8162SOL    HW125385   6.096   0.495   1.358
 8162SOL    HW225386   5.948   0.562   1.362
 8163SOL     OW25387   2.324   2.916   5.335
 8163SOL    HW125388   2.248   2.977   5.313
 8163SOL    HW225389   2.408   2.953   5.297
 8164SOL     OW25390   5.571   4.511   1.701
 8164SOL    HW125391   5.624   4.443   1.650
 8164SOL    HW225392   5.597   4.603   1.671
 8165SOL     OW25393   1.456   3.338   1.664
 8165SOL    HW125394   1.404   3.354   1.581
 8165SOL    HW225395   1.551   3.319   1.640
 8166SOL     OW25396   2.484   0.017   2.769
 8166SOL    HW125397   2.522   0.005   2.678
 8166SOL    HW225398   2.423   0.097   2.769
 8167SOL     OW25399   5.280   2.808   4.465
 8167SOL    HW125400   5.260   2.816   4.563
 8167SOL    HW225401   5.327   2.890   4.434
 8168SOL     OW25402   2.784   1.962   2.316
 8168SOL    HW125403   2.802   2.032   2.247
 8168SOL    HW225404   2.786   1.871   2.274
 8169SOL     OW25405   5.369   3.863   5.623
 8169SOL    HW125406   5.361   3.951   5.576
 8169SOL    HW225407   5.455   3.859   5.672
 8170SOL     OW25408   0.653   5.267   4.075
 8170SOL    HW125409   0.592   5.283   4.153
 8170SOL    HW225410   0.598   5.250   3.993
 8171SOL     OW25411   1.830   0.777   6.868
 8171SOL    HW125412   1.896   0.844   6.833
 8171SOL    HW225413   1.849   0.688   6.828
 8172SOL     OW25414   6.968   6.055   1.958
 8172SOL    HW125415   6.929   6.039   2.049
 8172SOL    HW225416   6.983   6.152   1.944
 8173SOL     OW25417   6.689   2.974   6.793
 8173SOL    HW125418   6.732   3.018   6.714
 8173SOL    HW225419   6.711   3.026   6.876
 8174SOL     OW25420   4.744   6.568   2.678
 8174SOL    HW125421   4.780   6.662   2.675
 8174SOL    HW225422   4.691   6.556   2.762
 8175SOL     OW25423   1.079   2.529   3.337
 8175SOL    HW125424   1.022   2.502   3.260
 8175SOL    HW225425   1.156   2.582   3.305
 8176SOL     OW25426   4.232   5.127   3.135
 8176SOL    HW125427   4.190   5.088   3.217
 8176SOL    HW225428   4.215   5.226   3.133
 8177SOL     OW25429   2.398   6.892   6.347
 8177SOL    HW125430   2.396   6.932   6.255
 8177SOL    HW225431   2.325   6.825   6.356
 8178SOL     OW25432   1.913   6.059   6.479
 8178SOL    HW125433   1.833   6.062   6.538
 8178SOL    HW225434   1.981   5.997   6.518
 8179SOL     OW25435   4.192   0.346   6.081
 8179SOL    HW125436   4.282   0.302   6.072
 8179SOL    HW225437   4.159   0.335   6.175
 8180SOL     OW25438   4.972   4.089   4.815
 8180SOL    HW125439   4.901   4.151   4.784
 8180SOL    HW225440   4.932   3.999   4.835
 8181SOL     OW25441   2.228   2.002   2.445
 8181SOL    HW125442   2.281   1.989   2.361
 8181SOL    HW225443   2.268   2.077   2.498
 8182SOL     OW25444   5.676   2.853   5.366
 8182SOL    HW125445   5.620   2.839   5.284
 8182SOL    HW225446   5.620   2.833   5.447
 8183SOL     OW25447   1.958   3.777   3.345
 8183SOL    HW125448   2.022   3.727   3.286
 8183SOL    HW225449   1.927   3.860   3.298
 8184SOL     OW25450   6.212   6.260   4.877
 8184SOL    HW125451   6.236   6.259   4.974
 8184SOL    HW225452   6.221   6.167   4.839
 8185SOL     OW25453   0.754   2.664   3.336
 8185SOL    HW125454   0.687   2.617   3.394
 8185SOL    HW225455   0.833   2.604   3.321
 8186SOL     OW25456   4.411   3.116   6.330
 8186SOL    HW125457   4.381   3.209   6.306
 8186SOL    HW225458   4.436   3.113   6.427
 8187SOL     OW25459   2.105   1.767   5.741
 8187SOL    HW125460   2.166   1.699   5.701
 8187SOL    HW225461   2.120   1.773   5.839
 8188SOL     OW25462   5.172   3.524   2.677
 8188SOL    HW125463   5.076   3.500   2.691
 8188SOL    HW225464   5.182   3.572   2.590
 8189SOL     OW25465   6.630   5.392   3.374
 8189SOL    HW125466   6.591   5.445   3.449
 8189SOL    HW225467   6.654   5.301   3.407
 8190SOL     OW25468   5.696   3.553   3.133
 8190SOL    HW125469   5.624   3.622   3.124
 8190SOL    HW225470   5.670   3.471   3.082
 8191SOL     OW25471   6.150   4.441   0.822
 8191SOL    HW125472   6.075   4.375   0.831
 8191SOL    HW225473   6.175   4.450   0.725
 8192SOL     OW25474   1.927   1.536   0.601
 8192SOL    HW125475   1.907   1.440   0.582
 8192SOL    HW225476   1.955   1.546   0.697
 8193SOL     OW25477   3.721   6.182   6.171
 8193SOL    HW125478   3.631   6.142   6.156
 8193SOL    HW225479   3.764   6.203   6.083
 8194SOL     OW25480   1.283   0.891   2.493
 8194SOL    HW125481   1.326   0.802   2.477
 8194SOL    HW225482   1.350   0.954   2.533
 8195SOL     OW25483   6.217   0.929   1.463
 8195SOL    HW125484   6.269   0.956   1.544
 8195SOL    HW225485   6.121   0.914   1.487
 8196SOL     OW25486   2.703   0.561   1.075
 8196SOL    HW125487   2.744   0.474   1.048
 8196SOL    HW225488   2.611   0.544   1.111
 8197SOL     OW25489   0.430   6.745   0.680
 8197SOL    HW125490   0.349   6.771   0.732
 8197SOL    HW225491   0.486   6.683   0.735
 8198SOL     OW25492   2.230   1.235   3.195
 8198SOL    HW125493   2.314   1.240   3.250
 8198SOL    HW225494   2.226   1.147   3.149
 8199SOL     OW25495   5.812   4.657   0.909
 8199SOL    HW125496   5.766   4.581   0.863
 8199SOL    HW225497   5.880   4.621   0.973
 8200SOL     OW25498   3.964   4.535   1.445
 8200SOL    HW125499   3.905   4.559   1.523
 8200SOL    HW225500   4.059   4.534   1.474
 8201SOL     OW25501   0.896   1.074   4.865
 8201SOL    HW125502   0.833   1.022   4.807
 8201SOL    HW225503   0.925   1.157   4.817
 8202SOL     OW25504   1.561   3.725   4.117
 8202SOL    HW125505   1.608   3.793   4.061
 8202SOL    HW225506   1.469   3.756   4.139
 8203SOL     OW25507   6.789   4.002   6.375
 8203SOL    HW125508   6.755   4.088   6.413
 8203SOL    HW225509   6.888   4.008   6.363
 8204SOL     OW25510   3.314   7.020   1.782
 8204SOL    HW125511   3.332   0.034   1.691
 8204SOL    HW225512   3.397   6.978   1.818
 8205SOL     OW25513   3.541   6.753   2.926
 8205SOL    HW125514   3.532   6.759   2.827
 8205SOL    HW225515   3.623   6.801   2.955
 8206SOL     OW25516   3.544   2.045   4.299
 8206SOL    HW125517   3.575   2.010   4.387
 8206SOL    HW225518   3.618   2.040   4.232
 8207SOL     OW25519   2.198   6.439   7.007
 8207SOL    HW125520   2.101   6.436   0.007
 8207SOL    HW225521   2.221   6.532   6.976
 8208SOL     OW25522   1.083   5.709   0.881
 8208SOL    HW125523   1.066   5.711   0.783
 8208SOL    HW225524   1.174   5.673   0.898
 8209SOL     OW25525   0.894   5.983   4.277
 8209SOL    HW125526   0.902   5.998   4.178
 8209SOL    HW225527   0.813   5.927   4.296
 8210SOL     OW25528   2.437   0.526   1.152
 8210SOL    HW125529   2.350   0.573   1.145
 8210SOL    HW225530   2.421   0.430   1.177
 8211SOL     OW25531   3.316   4.165   4.266
 8211SOL    HW125532   3.294   4.181   4.169
 8211SOL    HW225533   3.414   4.177   4.280
 8212SOL     OW25534   3.798   5.228   0.047
 8212SOL    HW125535   3.741   5.306   0.023
 8212SOL    HW225536   3.789   5.210   0.145
 8213SOL     OW25537   4.805   4.176   1.941
 8213SOL    HW125538   4.713   4.213   1.924
 8213SOL    HW225539   4.860   4.245   1.988
 8214SOL     OW25540   3.841   5.155   3.434
 8214SOL    HW125541   3.856   5.247   3.471
 8214SOL    HW225542   3.928   5.107   3.427
 8215SOL     OW25543   2.753   6.278   4.970
 8215SOL    HW125544   2.801   6.211   5.026
 8215SOL    HW225545   2.654   6.265   4.981
 8216SOL     OW25546   6.360   4.960   0.041
 8216SOL    HW125547   6.400   5.008   6.987
 8216SOL    HW225548   6.370   4.861   0.029
 8217SOL     OW25549   3.597   6.400   3.718
 8217SOL    HW125550   3.515   6.453   3.694
 8217SOL    HW225551   3.569   6.315   3.762
 8218SOL     OW25552   2.395   6.011   4.010
 8218SOL    HW125553   2.317   6.067   3.980
 8218SOL    HW225554   2.427   5.955   3.933
 8219SOL     OW25555   3.580   3.887   4.467
 8219SOL    HW125556   3.638   3.959   4.504
 8219SOL    HW225557   3.520   3.926   4.397
 8220SOL     OW25558   4.692   4.352   6.134
 8220SOL    HW125559   4.668   4.408   6.213
 8220SOL    HW225560   4.681   4.255   6.157
 8221SOL     OW25561   6.281   3.790   4.027
 8221SOL    HW125562   6.339   3.787   4.109
 8221SOL    HW225563   6.215   3.715   4.030
 8222SOL     OW25564   5.190   1.964   6.078
 8222SOL    HW125565   5.284   1.962   6.113
 8222SOL    HW225566   5.191   1.945   5.980
 8223SOL     OW25567   1.086   6.530   5.481
 8223SOL    HW125568   1.092   6.433   5.506
 8223SOL    HW225569   1.061   6.538   5.385
 8224SOL     OW25570   5.104   1.400   5.102
 8224SOL    HW125571   5.118   1.484   5.154
 8224SOL    HW225572   5.101   1.322   5.164
 8225SOL     OW25573   6.295   1.821   6.946
 8225SOL    HW125574   6.339   1.738   6.981
 8225SOL    HW225575   6.197   1.816   6.965
 8226SOL     OW25576   3.643   0.573   6.938
 8226SOL    HW125577   3.581   0.623   6.878
 8226SOL    HW225578   3.731   0.620   6.942
 8227SOL     OW25579   6.067   3.450   2.273
 8227SOL    HW125580   6.056   3.389   2.195
 8227SOL    HW225581   6.022   3.537   2.255
 8228SOL     OW25582   2.668   1.586   4.501
 8228SOL    HW125583   2.644   1.666   4.446
 8228SOL    HW225584   2.597   1.572   4.571
 8229SOL     OW25585   4.599   3.880   0.524
 8229SOL    HW125586   4.518   3.938   0.526
 8229SOL    HW225587   4.573   3.784   0.534
 8230SOL     OW25588   5.869   0.676   6.417
 8230SOL    HW125589   5.968   0.675   6.419
 8230SOL    HW225590   5.834   0.586   6.444
 8231SOL     OW25591   3.161   1.620   1.588
 8231SOL    HW125592   3.207   1.693   1.537
 8231SOL    HW225593   3.064   1.618   1.562
 8232SOL     OW25594   3.603   6.306   4.196
 8232SOL    HW125595   3.531   6.364   4.233
 8232SOL    HW225596   3.581   6.279   4.103
 8233SOL     OW25597   3.270   0.646   7.022
 8233SOL    HW125598   3.325   0.727   6.999
 8233SOL    HW225599   3.325   0.584   0.053
 8234SOL     OW25600   0.542   2.420   6.337
 8234SOL    HW125601   0.639   2.435   6.354
 8234SOL    HW225602   0.490   2.501   6.363
 8235SOL     OW25603   1.083   6.598   6.935
 8235SOL    HW125604   1.025   6.609   7.016
 8235SOL    HW225605   1.032   6.551   6.863
 8236SOL     OW25606   0.838   0.474   0.222
 8236SOL    HW125607   0.842   0.375   0.235
 8236SOL    HW225608   0.850   0.495   0.125
 8237SOL     OW25609   4.509   4.696   5.895
 8237SOL    HW125610   4.494   4.748   5.811
 8237SOL    HW225611   4.420   4.666   5.931
 8238SOL     OW25612   6.941   5.455   6.461
 8238SOL    HW125613   0.016   5.459   6.452
 8238SOL    HW225614   6.916   5.389   6.532
 8239SOL     OW25615   4.863   3.137   3.524
 8239SOL    HW125616   4.798   3.066   3.551
 8239SOL    HW225617   4.956   3.102   3.532
 8240SOL     OW25618   3.797   3.633   5.217
 8240SOL    HW125619   3.771   3.713   5.271
 8240SOL    HW225620   3.841   3.662   5.132
 8241SOL     OW25621   0.569   2.847   5.487
 8241SOL    HW125622   0.485   2.877   5.532
 8241SOL    HW225623   0.643   2.910   5.509
 8242SOL     OW25624   0.750   3.910   3.603
 8242SOL    HW125625   0.735   3.857   3.520
 8242SOL    HW225626   0.677   3.892   3.669
 8243SOL     OW25627   1.984   5.724   4.025
 8243SOL    HW125628   2.060   5.724   4.090
 8243SOL    HW225629   2.019   5.739   3.933
 8244SOL     OW25630   5.353   6.767   5.015
 8244SOL    HW125631   5.417   6.829   4.968
 8244SOL    HW225632   5.282   6.738   4.951
 8245SOL     OW25633   5.748   4.175   2.400
 8245SOL    HW125634   5.689   4.230   2.341
 8245SOL    HW225635   5.711   4.083   2.408
 8246SOL     OW25636   2.330   4.656   6.849
 8246SOL    HW125637   2.271   4.730   6.881
 8246SOL    HW225638   2.420   4.664   6.890
 8247SOL     OW25639   2.065   4.391   3.353
 8247SOL    HW125640   2.022   4.423   3.438
 8247SOL    HW225641   1.997   4.388   3.280
 8248SOL     OW25642   6.452   0.313   2.636
 8248SOL    HW125643   6.445   0.249   2.712
 8248SOL    HW225644   6.546   0.346   2.628
 8249SOL     OW25645   3.619   6.727   5.568
 8249SOL    HW125646   3.532   6.775   5.556
 8249SOL    HW225647   3.694   6.792   5.569
 8250SOL     OW25648   1.903   1.302   6.772
 8250SOL    HW125649   1.865   1.235   6.708
 8250SOL    HW225650   1.848   1.385   6.771
 8251SOL     OW25651   1.713   1.598   6.483
 8251SOL    HW125652   1.647   1.523   6.487
 8251SOL    HW225653   1.806   1.561   6.492
 8252SOL     OW25654   0.670   0.823   6.427
 8252SOL    HW125655   0.609   0.745   6.416
 8252SOL    HW225656   0.616   0.907   6.424
 8253SOL     OW25657   6.722   3.665   4.916
 8253SOL    HW125658   6.743   3.721   4.996
 8253SOL    HW225659   6.791   3.681   4.846
 8254SOL     OW25660   4.844   4.268   6.955
 8254SOL    HW125661   4.889   4.335   6.896
 8254SOL    HW225662   4.876   4.176   6.930
 8255SOL     OW25663   2.015   6.295   5.780
 8255SOL    HW125664   1.922   6.286   5.745
 8255SOL    HW225665   2.049   6.206   5.809
 8256SOL     OW25666   1.528   5.631   2.616
 8256SOL    HW125667   1.437   5.646   2.656
 8256SOL    HW225668   1.598   5.645   2.685
 8257SOL     OW25669   4.639   4.780   3.698
 8257SOL    HW125670   4.723   4.733   3.671
 8257SOL    HW225671   4.657   4.838   3.777
 8258SOL     OW25672   0.357   2.857   4.772
 8258SOL    HW125673   0.270   2.897   4.742
 8258SOL    HW225674   0.430   2.924   4.760
 8259SOL     OW25675   5.360   3.752   4.312
 8259SOL    HW125676   5.287   3.817   4.291
 8259SOL    HW225677   5.448   3.793   4.288
 8260SOL     OW25678   4.759   2.568   6.496
 8260SOL    HW125679   4.660   2.551   6.489
 8260SOL    HW225680   4.808   2.481   6.491
 8261SOL     OW25681   5.117   2.286   2.427
 8261SOL    HW125682   5.044   2.349   2.401
 8261SOL    HW225683   5.188   2.336   2.477
 8262SOL     OW25684   5.170   4.222   2.253
 8262SOL    HW125685   5.200   4.130   2.276
 8262SOL    HW225686   5.241   4.268   2.199
 8263SOL     OW25687   7.017   1.402   0.116
 8263SOL    HW125688   0.009   1.427   0.212
 8263SOL    HW225689   6.919   1.385   0.102
 8264SOL     OW25690   3.534   1.321   1.641
 8264SOL    HW125691   3.593   1.240   1.648
 8264SOL    HW225692   3.522   1.347   1.546
 8265SOL     OW25693   5.636   5.344   0.226
 8265SOL    HW125694   5.644   5.380   0.133
 8265SOL    HW225695   5.556   5.384   0.270
 8266SOL     OW25696   4.455   2.392   2.890
 8266SOL    HW125697   4.483   2.418   2.798
 8266SOL    HW225698   4.504   2.447   2.957
 8267SOL     OW25699   2.067   3.376   2.777
 8267SOL    HW125700   2.100   3.318   2.851
 8267SOL    HW225701   2.100   3.339   2.689
 8268SOL     OW25702   2.513   5.275   1.513
 8268SOL    HW125703   2.471   5.292   1.602
 8268SOL    HW225704   2.464   5.326   1.443
 8269SOL     OW25705   6.646   1.904   3.197
 8269SOL    HW125706   6.615   1.812   3.175
 8269SOL    HW225707   6.573   1.953   3.244
 8270SOL     OW25708   4.079   5.126   0.079
 8270SOL    HW125709   4.131   5.042   0.089
 8270SOL    HW225710   4.097   5.167   7.014
 8271SOL     OW25711   2.420   0.235   5.836
 8271SOL    HW125712   2.449   0.321   5.795
 8271SOL    HW225713   2.418   0.245   5.935
 8272SOL     OW25714   0.328   0.915   1.718
 8272SOL    HW125715   0.332   0.865   1.631
 8272SOL    HW225716   0.286   1.004   1.704
 8273SOL     OW25717   5.422   0.296   6.058
 8273SOL    HW125718   5.511   0.265   6.026
 8273SOL    HW225719   5.350   0.264   5.996
 8274SOL     OW25720   5.324   6.735   3.988
 8274SOL    HW125721   5.340   6.795   4.067
 8274SOL    HW225722   5.374   6.769   3.909
 8275SOL     OW25723   4.919   0.837   4.304
 8275SOL    HW125724   4.851   0.905   4.278
 8275SOL    HW225725   4.933   0.773   4.228
 8276SOL     OW25726   5.132   2.583   0.459
 8276SOL    HW125727   5.081   2.655   0.412
 8276SOL    HW225728   5.222   2.573   0.416
 8277SOL     OW25729   1.050   0.010   1.857
 8277SOL    HW125730   1.077   6.951   1.809
 8277SOL    HW225731   1.117   0.029   1.929
 8278SOL     OW25732   1.547   1.002   1.515
 8278SOL    HW125733   1.558   1.092   1.557
 8278SOL    HW225734   1.530   1.013   1.417
 8279SOL     OW25735   6.042   4.440   5.879
 8279SOL    HW125736   5.968   4.503   5.900
 8279SOL    HW225737   6.113   4.488   5.827
 8280SOL     OW25738   0.133   4.822   0.406
 8280SOL    HW125739   0.177   4.901   0.449
 8280SOL    HW225740   0.041   4.847   0.377
 8281SOL     OW25741   2.549   4.613   0.001
 8281SOL    HW125742   2.649   4.615   7.012
 8281SOL    HW225743   2.516   4.520   7.009
 8282SOL     OW25744   4.839   2.782   0.814
 8282SOL    HW125745   4.932   2.746   0.802
 8282SOL    HW225746   4.825   2.861   0.754
 8283SOL     OW25747   0.881   2.137   3.673
 8283SOL    HW125748   0.939   2.150   3.753
 8283SOL    HW225749   0.869   2.224   3.626
 8284SOL     OW25750   4.656   2.795   1.049
 8284SOL    HW125751   4.735   2.826   0.997
 8284SOL    HW225752   4.683   2.722   1.111
 8285SOL     OW25753   0.285   4.782   6.984
 8285SOL    HW125754   0.282   4.702   0.019
 8285SOL    HW225755   0.193   4.806   6.955
 8286SOL     OW25756   6.684   2.059   0.314
 8286SOL    HW125757   6.594   2.081   0.352
 8286SOL    HW225758   6.688   1.962   0.292
 8287SOL     OW25759   0.549   1.952   2.776
 8287SOL    HW125760   0.533   2.023   2.708
 8287SOL    HW225761   0.635   1.971   2.825
 8288SOL     OW25762   2.190   6.659   2.576
 8288SOL    HW125763   2.278   6.690   2.611
 8288SOL    HW225764   2.142   6.607   2.646
 8289SOL     OW25765   5.977   6.897   0.626
 8289SOL    HW125766   5.946   6.980   0.581
 8289SOL    HW225767   6.077   6.899   0.636
 8290SOL     OW25768   4.703   2.828   1.719
 8290SOL    HW125769   4.749   2.765   1.782
 8290SOL    HW225770   4.678   2.912   1.767
 8291SOL     OW25771   6.207   5.353   5.242
 8291SOL    HW125772   6.166   5.266   5.216
 8291SOL    HW225773   6.236   5.403   5.160
 8292SOL     OW25774   0.218   4.205   5.722
 8292SOL    HW125775   0.280   4.137   5.683
 8292SOL    HW225776   0.133   4.207   5.670
 8293SOL     OW25777   2.715   5.354   4.409
 8293SOL    HW125778   2.780   5.421   4.444
 8293SOL    HW225779   2.758   5.264   4.402
 8294SOL     OW25780   6.426   3.628   5.746
 8294SOL    HW125781   6.423   3.533   5.777
 8294SOL    HW225782   6.403   3.689   5.822
 8295SOL     OW25783   4.356   4.377   1.237
 8295SOL    HW125784   4.449   4.341   1.226
 8295SOL    HW225785   4.358   4.477   1.230
 8296SOL     OW25786   3.142   0.397   2.088
 8296SOL    HW125787   3.212   0.339   2.047
 8296SOL    HW225788   3.074   0.421   2.019
 8297SOL     OW25789   5.947   4.522   1.936
 8297SOL    HW125790   5.977   4.611   1.902
 8297SOL    HW225791   5.847   4.518   1.934
 8298SOL     OW25792   0.117   6.077   0.536
 8298SOL    HW125793   0.106   6.020   0.618
 8298SOL    HW225794   0.197   6.136   0.549
 8299SOL     OW25795   0.928   1.430   0.024
 8299SOL    HW125796   0.930   1.364   0.100
 8299SOL    HW225797   1.007   1.490   0.031
 8300SOL     OW25798   4.188   6.947   4.653
 8300SOL    HW125799   4.215   6.857   4.618
 8300SOL    HW225800   4.089   6.959   4.641
 8301SOL     OW25801   6.163   4.687   6.705
 8301SOL    HW125802   6.197   4.781   6.710
 8301SOL    HW225803   6.115   4.664   6.790
 8302SOL     OW25804   3.296   6.271   6.104
 8302SOL    HW125805   3.357   6.312   6.036
 8302SOL    HW225806   3.333   6.286   6.195
 8303SOL     OW25807   0.013   4.408   4.398
 8303SOL    HW125808   0.004   4.436   4.493
 8303SOL    HW225809   0.089   4.343   4.388
 8304SOL     OW25810   5.774   2.985   3.855
 8304SOL    HW125811   5.776   2.994   3.954
 8304SOL    HW225812   5.755   3.074   3.814
 8305SOL     OW25813   4.164   6.179   5.984
 8305SOL    HW125814   4.139   6.099   6.038
 8305SOL    HW225815   4.116   6.176   5.897
 8306SOL     OW25816   5.223   1.109   3.775
 8306SOL    HW125817   5.175   1.190   3.809
 8306SOL    HW225818   5.304   1.093   3.832
 8307SOL     OW25819   0.376   4.749   4.477
 8307SOL    HW125820   0.475   4.734   4.488
 8307SOL    HW225821   0.327   4.686   4.536
 8308SOL     OW25822   2.131   5.109   0.350
 8308SOL    HW125823   2.128   5.146   0.443
 8308SOL    HW225824   2.057   5.149   0.295
 8309SOL     OW25825   5.576   5.234   2.727
 8309SOL    HW125826   5.607   5.253   2.634
 8309SOL    HW225827   5.517   5.308   2.759
 8310SOL     OW25828   2.047   5.831   2.877
 8310SOL    HW125829   1.963   5.779   2.896
 8310SOL    HW225830   2.032   5.891   2.799
 8311SOL     OW25831   4.846   6.817   2.634
 8311SOL    HW125832   4.776   6.889   2.634
 8311SOL    HW225833   4.934   6.856   2.663
 8312SOL     OW25834   6.585   6.704   0.870
 8312SOL    HW125835   6.627   6.645   0.938
 8312SOL    HW225836   6.595   6.663   0.779
 8313SOL     OW25837   4.673   2.123   5.950
 8313SOL    HW125838   4.684   2.215   5.912
 8313SOL    HW225839   4.576   2.099   5.952
 8314SOL     OW25840   5.419   5.818   5.357
 8314SOL    HW125841   5.386   5.891   5.296
 8314SOL    HW225842   5.375   5.827   5.446
 8315SOL     OW25843   3.593   1.687   0.234
 8315SOL    HW125844   3.539   1.699   0.317
 8315SOL    HW225845   3.665   1.620   0.250
 8316SOL     OW25846   1.277   1.270   4.811
 8316SOL    HW125847   1.238   1.239   4.897
 8316SOL    HW225848   1.352   1.209   4.785
 8317SOL     OW25849   2.530   1.892   6.265
 8317SOL    HW125850   2.512   1.801   6.228
 8317SOL    HW225851   2.524   1.960   6.191
 8318SOL     OW25852   4.504   6.391   5.228
 8318SOL    HW125853   4.489   6.326   5.153
 8318SOL    HW225854   4.602   6.401   5.245
 8319SOL     OW25855   2.803   6.182   6.174
 8319SOL    HW125856   2.750   6.188   6.259
 8319SOL    HW225857   2.746   6.207   6.096
 8320SOL     OW25858   4.234   5.619   5.251
 8320SOL    HW125859   4.227   5.576   5.341
 8320SOL    HW225860   4.232   5.719   5.262
 8321SOL     OW25861   0.450   0.306   0.200
 8321SOL    HW125862   0.476   0.401   0.218
 8321SOL    HW225863   0.393   0.302   0.117
 8322SOL     OW25864   2.493   0.269   2.243
 8322SOL    HW125865   2.561   0.196   2.243
 8322SOL    HW225866   2.507   0.329   2.322
 8323SOL     OW25867   6.551   5.412   6.378
 8323SOL    HW125868   6.481   5.367   6.323
 8323SOL    HW225869   6.508   5.475   6.442
 8324SOL     OW25870   6.932   6.013   5.065
 8324SOL    HW125871   7.016   5.987   5.114
 8324SOL    HW225872   6.853   5.994   5.123
 8325SOL     OW25873   1.201   5.626   5.288
 8325SOL    HW125874   1.226   5.628   5.191
 8325SOL    HW225875   1.244   5.704   5.334
 8326SOL     OW25876   2.943   0.916   6.939
 8326SOL    HW125877   2.987   0.914   6.849
 8326SOL    HW225878   2.976   0.840   6.995
 8327SOL     OW25879   0.652   6.254   5.813
 8327SOL    HW125880   0.742   6.297   5.807
 8327SOL    HW225881   0.614   6.243   5.721
 8328SOL     OW25882   1.020   0.035   0.816
 8328SOL    HW125883   0.961   0.111   0.846
 8328SOL    HW225884   0.963   6.982   0.788
 8329SOL     OW25885   1.421   2.058   6.036
 8329SOL    HW125886   1.336   2.011   6.015
 8329SOL    HW225887   1.498   2.002   6.005
 8330SOL     OW25888   3.419   6.670   6.924
 8330SOL    HW125889   3.348   6.741   6.936
 8330SOL    HW225890   3.376   6.580   6.930
 8331SOL     OW25891   1.619   2.320   5.771
 8331SOL    HW125892   1.522   2.343   5.781
 8331SOL    HW225893   1.674   2.402   5.786
 8332SOL     OW25894   5.382   4.332   0.881
 8332SOL    HW125895   5.481   4.337   0.890
 8332SOL    HW225896   5.356   4.343   0.785
 8333SOL     OW25897   2.141   4.453   6.004
 8333SOL    HW125898   2.213   4.391   5.971
 8333SOL    HW225899   2.160   4.546   5.972
 8334SOL     OW25900   2.843   2.768   5.370
 8334SOL    HW125901   2.756   2.719   5.369
 8334SOL    HW225902   2.918   2.703   5.355
 8335SOL     OW25903   6.330   2.927   0.085
 8335SOL    HW125904   6.387   2.905   0.006
 8335SOL    HW225905   6.304   3.023   0.082
 8336SOL     OW25906   0.596   4.658   3.813
 8336SOL    HW125907   0.517   4.605   3.845
 8336SOL    HW225908   0.650   4.603   3.749
 8337SOL     OW25909   6.441   6.606   4.693
 8337SOL    HW125910   6.485   6.657   4.619
 8337SOL    HW225911   6.348   6.640   4.706
 8338SOL     OW25912   2.129   4.951   0.760
 8338SOL    HW125913   2.043   4.973   0.806
 8338SOL    HW225914   2.122   4.861   0.717
 8339SOL     OW25915   6.536   0.415   1.663
 8339SOL    HW125916   6.452   0.434   1.713
 8339SOL    HW225917   6.514   0.372   1.575
 8340SOL     OW25918   6.099   2.209   6.749
 8340SOL    HW125919   6.055   2.249   6.829
 8340SOL    HW225920   6.053   2.124   6.725
 8341SOL     OW25921   3.431   0.309   1.194
 8341SOL    HW125922   3.526   0.341   1.202
 8341SOL    HW225923   3.402   0.317   1.098
 8342SOL     OW25924   4.208   0.798   1.624
 8342SOL    HW125925   4.124   0.838   1.587
 8342SOL    HW225926   4.226   0.836   1.715
 8343SOL     OW25927   4.337   6.133   3.423
 8343SOL    HW125928   4.410   6.201   3.414
 8343SOL    HW225929   4.276   6.159   3.498
 8344SOL     OW25930   2.224   4.242   4.875
 8344SOL    HW125931   2.260   4.174   4.939
 8344SOL    HW225932   2.182   4.195   4.798
 8345SOL     OW25933   6.780   6.666   4.095
 8345SOL    HW125934   6.727   6.730   4.151
 8345SOL    HW225935   6.823   6.716   4.019
 8346SOL     OW25936   5.582   4.148   3.297
 8346SOL    HW125937   5.504   4.099   3.336
 8346SOL    HW225938   5.648   4.170   3.369
 8347SOL     OW25939   0.871   1.153   6.970
 8347SOL    HW125940   0.837   1.247   6.967
 8347SOL    HW225941   0.798   1.089   6.947
 8348SOL     OW25942   2.705   7.017   0.800
 8348SOL    HW125943   2.694   6.920   0.780
 8348SOL    HW225944   2.736   0.040   0.717
 8349SOL     OW25945   4.625   5.778   1.268
 8349SOL    HW125946   4.618   5.803   1.171
 8349SOL    HW225947   4.721   5.779   1.296
 8350SOL     OW25948   2.472   0.947   6.814
 8350SOL    HW125949   2.463   1.046   6.803
 8350SOL    HW225950   2.401   0.901   6.760
 8351SOL     OW25951   0.258   4.054   3.384
 8351SOL    HW125952   0.188   3.988   3.413
 8351SOL    HW225953   0.264   4.056   3.285
 8352SOL     OW25954   2.417   0.126   6.486
 8352SOL    HW125955   2.343   0.075   6.441
 8352SOL    HW225956   2.402   0.224   6.475
 8353SOL     OW25957   0.578   5.836   2.897
 8353SOL    HW125958   0.674   5.860   2.883
 8353SOL    HW225959   0.538   5.804   2.811
 8354SOL     OW25960   5.138   2.952   3.780
 8354SOL    HW125961   5.205   2.969   3.852
 8354SOL    HW225962   5.107   2.857   3.784
 8355SOL     OW25963   3.659   4.178   5.787
 8355SOL    HW125964   3.650   4.275   5.766
 8355SOL    HW225965   3.604   4.125   5.722
 8356SOL     OW25966   3.420   3.296   2.541
 8356SOL    HW125967   3.353   3.297   2.466
 8356SOL    HW225968   3.512   3.305   2.503
 8357SOL     OW25969   2.972   6.582   5.179
 8357SOL    HW125970   3.017   6.500   5.213
 8357SOL    HW225971   2.875   6.580   5.204
 8358SOL     OW25972   0.500   0.310   4.642
 8358SOL    HW125973   0.440   0.231   4.631
 8358SOL    HW225974   0.568   0.311   4.569
 8359SOL     OW25975   4.888   2.388   4.960
 8359SOL    HW125976   4.930   2.451   5.025
 8359SOL    HW225977   4.946   2.382   4.878
 8360SOL     OW25978   3.551   0.167   2.479
 8360SOL    HW125979   3.532   0.253   2.527
 8360SOL    HW225980   3.536   0.180   2.381
 8361SOL     OW25981   4.527   1.636   6.992
 8361SOL    HW125982   4.614   1.619   0.014
 8361SOL    HW225983   4.452   1.606   0.026
 8362SOL     OW25984   0.633   4.612   1.887
 8362SOL    HW125985   0.590   4.589   1.974
 8362SOL    HW225986   0.716   4.558   1.875
 8363SOL     OW25987   3.672   2.351   1.399
 8363SOL    HW125988   3.759   2.392   1.426
 8363SOL    HW225989   3.617   2.333   1.481
 8364SOL     OW25990   0.487   1.599   3.176
 8364SOL    HW125991   0.581   1.569   3.158
 8364SOL    HW225992   0.489   1.679   3.236
 8365SOL     OW25993   2.579   2.812   1.040
 8365SOL    HW125994   2.502   2.864   1.079
 8365SOL    HW225995   2.608   2.742   1.105
 8366SOL     OW25996   4.885   5.879   1.478
 8366SOL    HW125997   4.966   5.890   1.421
 8366SOL    HW225998   4.870   5.782   1.497
 8367SOL     OW25999   1.077   4.802   4.016
 8367SOL    HW126000   0.986   4.819   3.980
 8367SOL    HW226001   1.071   4.782   4.114
 8368SOL     OW26002   0.507   3.050   6.029
 8368SOL    HW126003   0.554   3.023   5.946
 8368SOL    HW226004   0.409   3.034   6.018
 8369SOL     OW26005   1.343   0.764   0.803
 8369SOL    HW126006   1.297   0.737   0.719
 8369SOL    HW226007   1.327   0.694   0.873
 8370SOL     OW26008   2.611   3.401   1.377
 8370SOL    HW126009   2.678   3.472   1.398
 8370SOL    HW226010   2.636   3.317   1.425
 8371SOL     OW26011   3.019   4.456   5.691
 8371SOL    HW126012   3.027   4.364   5.653
 8371SOL    HW226013   2.994   4.451   5.788
 8372SOL     OW26014   1.748   6.796   3.200
 8372SOL    HW126015   1.761   6.886   3.159
 8372SOL    HW226016   1.701   6.805   3.288
 8373SOL     OW26017   6.004   0.211   4.429
 8373SOL    HW126018   5.927   0.242   4.484
 8373SOL    HW226019   6.033   0.284   4.367
 8374SOL     OW26020   0.614   2.365   3.839
 8374SOL    HW126021   0.690   2.429   3.834
 8374SOL    HW226022   0.552   2.393   3.913
 8375SOL     OW26023   1.923   2.308   5.608
 8375SOL    HW126024   1.887   2.235   5.666
 8375SOL    HW226025   1.972   2.375   5.664
 8376SOL     OW26026   0.927   1.639   3.666
 8376SOL    HW126027   0.866   1.697   3.719
 8376SOL    HW226028   0.975   1.576   3.727
 8377SOL     OW26029   4.425   5.678   1.848
 8377SOL    HW126030   4.373   5.699   1.931
 8377SOL    HW226031   4.504   5.622   1.872
 8378SOL     OW26032   4.106   5.897   6.086
 8378SOL    HW126033   4.008   5.892   6.105
 8378SOL    HW226034   4.135   5.815   6.038
 8379SOL     OW26035   5.899   2.600   1.587
 8379SOL    HW126036   5.913   2.598   1.686
 8379SOL    HW226037   5.895   2.507   1.552
 8380SOL     OW26038   1.101   5.137   2.649
 8380SOL    HW126039   1.010   5.106   2.677
 8380SOL    HW226040   1.092   5.210   2.581
 8381SOL     OW26041   0.599   2.371   2.975
 8381SOL    HW126042   0.507   2.338   2.994
 8381SOL    HW226043   0.600   2.471   2.977
 8382SOL     OW26044   1.259   0.095   2.063
 8382SOL    HW126045   1.211   0.173   2.104
 8382SOL    HW226046   1.330   0.127   2.002
 8383SOL     OW26047   1.884   6.749   4.988
 8383SOL    HW126048   1.833   6.831   4.961
 8383SOL    HW226049   1.865   6.675   4.924
 8384SOL     OW26050   0.642   4.233   3.826
 8384SOL    HW126051   0.575   4.159   3.833
 8384SOL    HW226052   0.599   4.312   3.782
 8385SOL     OW26053   4.566   2.533   1.955
 8385SOL    HW126054   4.585   2.454   1.896
 8385SOL    HW226055   4.505   2.506   2.029
 8386SOL     OW26056   6.589   5.436   2.193
 8386SOL    HW126057   6.665   5.373   2.174
 8386SOL    HW226058   6.513   5.384   2.232
 8387SOL     OW26059   0.574   2.549   3.502
 8387SOL    HW126060   0.551   2.452   3.510
 8387SOL    HW226061   0.493   2.600   3.474
 8388SOL     OW26062   3.431   6.431   1.660
 8388SOL    HW126063   3.530   6.430   1.649
 8388SOL    HW226064   3.403   6.359   1.724
 8389SOL     OW26065   1.189   2.640   4.272
 8389SOL    HW126066   1.089   2.638   4.264
 8389SOL    HW226067   1.230   2.610   4.186
 8390SOL     OW26068   1.165   6.279   6.656
 8390SOL    HW126069   1.089   6.299   6.594
 8390SOL    HW226070   1.131   6.230   6.736
 8391SOL     OW26071   4.983   6.174   0.877
 8391SOL    HW126072   5.013   6.173   0.781
 8391SOL    HW226073   5.043   6.115   0.931
 8392SOL     OW26074   3.291   5.785   0.777
 8392SOL    HW126075   3.272   5.688   0.791
 8392SOL    HW226076   3.216   5.826   0.725
 8393SOL     OW26077   1.484   6.468   2.071
 8393SOL    HW126078   1.416   6.478   1.998
 8393SOL    HW226079   1.441   6.424   2.150
 8394SOL     OW26080   1.926   1.412   3.966
 8394SOL    HW126081   1.982   1.337   4.001
 8394SOL    HW226082   1.851   1.431   4.029
 8395SOL     OW26083   2.105   6.072   6.245
 8395SOL    HW126084   2.195   6.039   6.271
 8395SOL    HW226085   2.039   6.050   6.317
 8396SOL     OW26086   4.941   1.574   0.504
 8396SOL    HW126087   4.873   1.646   0.492
 8396SOL    HW226088   5.006   1.602   0.575
 8397SOL     OW26089   0.526   4.116   3.372
 8397SOL    HW126090   0.581   4.162   3.441
 8397SOL    HW226091   0.430   4.115   3.400
 8398SOL     OW26092   5.717   1.382   6.505
 8398SOL    HW126093   5.698   1.453   6.437
 8398SOL    HW226094   5.662   1.398   6.586
 8399SOL     OW26095   5.609   6.743   5.503
 8399SOL    HW126096   5.562   6.807   5.442
 8399SOL    HW226097   5.584   6.762   5.598
 8400SOL     OW26098   5.922   6.064   2.990
 8400SOL    HW126099   5.877   6.089   2.904
 8400SOL    HW226100   5.981   5.985   2.975
 8401SOL     OW26101   2.665   3.436   5.332
 8401SOL    HW126102   2.636   3.519   5.380
 8401SOL    HW226103   2.598   3.364   5.347
 8402SOL     OW26104   4.388   1.271   4.444
 8402SOL    HW126105   4.349   1.344   4.387
 8402SOL    HW226106   4.385   1.185   4.394
 8403SOL     OW26107   0.471   1.579   6.312
 8403SOL    HW126108   0.524   1.661   6.333
 8403SOL    HW226109   0.487   1.552   6.217
 8404SOL     OW26110   4.696   5.049   5.241
 8404SOL    HW126111   4.645   5.078   5.161
 8404SOL    HW226112   4.669   5.104   5.320
 8405SOL     OW26113   0.883   2.510   6.115
 8405SOL    HW126114   0.812   2.576   6.091
 8405SOL    HW226115   0.913   2.526   6.209
 8406SOL     OW26116   6.056   3.772   1.745
 8406SOL    HW126117   6.092   3.799   1.655
 8406SOL    HW226118   5.962   3.805   1.755
 8407SOL     OW26119   5.598   3.487   2.623
 8407SOL    HW126120   5.593   3.393   2.655
 8407SOL    HW226121   5.553   3.547   2.690
 8408SOL     OW26122   4.779   4.439   4.263
 8408SOL    HW126123   4.802   4.493   4.182
 8408SOL    HW226124   4.863   4.419   4.314
 8409SOL     OW26125   1.185   2.126   4.042
 8409SOL    HW126126   1.242   2.171   4.109
 8409SOL    HW226127   1.089   2.152   4.056
 8410SOL     OW26128   1.989   5.610   2.413
 8410SOL    HW126129   1.894   5.642   2.417
 8410SOL    HW226130   2.026   5.605   2.506
 8411SOL     OW26131   1.822   3.443   3.176
 8411SOL    HW126132   1.895   3.486   3.229
 8411SOL    HW226133   1.799   3.501   3.098
 8412SOL     OW26134   5.350   2.345   2.561
 8412SOL    HW126135   5.282   2.326   2.632
 8412SOL    HW226136   5.422   2.404   2.598
 8413SOL     OW26137   1.527   5.384   2.340
 8413SOL    HW126138   1.580   5.461   2.373
 8413SOL    HW226139   1.453   5.417   2.281
 8414SOL     OW26140   6.123   7.008   4.618
 8414SOL    HW126141   6.057   6.935   4.601
 8414SOL    HW226142   6.090   0.068   4.575
 8415SOL     OW26143   0.401   4.642   0.854
 8415SOL    HW126144   0.345   4.725   0.858
 8415SOL    HW226145   0.469   4.644   0.927
 8416SOL     OW26146   4.090   4.757   3.180
 8416SOL    HW126147   4.006   4.792   3.139
 8416SOL    HW226148   4.145   4.712   3.110
 8417SOL     OW26149   0.737   5.525   0.232
 8417SOL    HW126150   0.728   5.460   0.308
 8417SOL    HW226151   0.660   5.588   0.234
 8418SOL     OW26152   5.282   6.339   2.872
 8418SOL    HW126153   5.345   6.274   2.916
 8418SOL    HW226154   5.303   6.345   2.775
 8419SOL     OW26155   2.548   1.541   2.858
 8419SOL    HW126156   2.557   1.629   2.812
 8419SOL    HW226157   2.475   1.487   2.816
 8420SOL     OW26158   4.731   1.959   5.207
 8420SOL    HW126159   4.704   1.880   5.264
 8420SOL    HW226160   4.831   1.962   5.201
 8421SOL     OW26161   0.189   0.672   0.533
 8421SOL    HW126162   0.219   0.751   0.587
 8421SOL    HW226163   0.096   0.647   0.559
 8422SOL     OW26164   2.813   0.781   1.290
 8422SOL    HW126165   2.716   0.772   1.267
 8422SOL    HW226166   2.835   0.877   1.306
 8423SOL     OW26167   2.030   4.666   1.342
 8423SOL    HW126168   1.933   4.653   1.320
 8423SOL    HW226169   2.064   4.746   1.293
 8424SOL     OW26170   2.618   2.299   1.927
 8424SOL    HW126171   2.705   2.348   1.934
 8424SOL    HW226172   2.592   2.290   1.831
 8425SOL     OW26173   0.324   5.288   5.520
 8425SOL    HW126174   0.416   5.258   5.545
 8425SOL    HW226175   0.291   5.355   5.586
 8426SOL     OW26176   3.712   3.662   2.405
 8426SOL    HW126177   3.717   3.601   2.326
 8426SOL    HW226178   3.803   3.692   2.431
 8427SOL     OW26179   2.517   1.283   0.006
 8427SOL    HW126180   2.437   1.242   0.050
 8427SOL    HW226181   2.600   1.239   0.040
 8428SOL     OW26182   6.559   3.456   1.798
 8428SOL    HW126183   6.612   3.538   1.777
 8428SOL    HW226184   6.601   3.408   1.875
 8429SOL     OW26185   1.302   6.623   3.043
 8429SOL    HW126186   1.298   6.717   3.078
 8429SOL    HW226187   1.283   6.622   2.945
 8430SOL     OW26188   3.587   6.623   3.428
 8430SOL    HW126189   3.624   6.683   3.500
 8430SOL    HW226190   3.496   6.655   3.402
 8431SOL     OW26191   2.897   3.281   2.343
 8431SOL    HW126192   2.975   3.275   2.281
 8431SOL    HW226193   2.852   3.192   2.348
 8432SOL     OW26194   4.843   5.657   0.249
 8432SOL    HW126195   4.842   5.653   0.349
 8432SOL    HW226196   4.935   5.681   0.218
 8433SOL     OW26197   0.018   1.244   3.874
 8433SOL    HW126198   0.008   1.334   3.917
 8433SOL    HW226199   6.953   1.211   3.844
 8434SOL     OW26200   5.496   6.592   6.906
 8434SOL    HW126201   5.491   6.494   6.891
 8434SOL    HW226202   5.493   6.640   6.818
 8435SOL     OW26203   5.057   3.413   0.684
 8435SOL    HW126204   5.018   3.470   0.612
 8435SOL    HW226205   5.037   3.454   0.773
 8436SOL     OW26206   3.475   4.153   1.292
 8436SOL    HW126207   3.547   4.187   1.351
 8436SOL    HW226208   3.392   4.206   1.307
 8437SOL     OW26209   0.598   2.713   0.628
 8437SOL    HW126210   0.504   2.715   0.594
 8437SOL    HW226211   0.608   2.777   0.703
 8438SOL     OW26212   2.597   5.758   1.756
 8438SOL    HW126213   2.597   5.678   1.816
 8438SOL    HW226214   2.609   5.728   1.661
 8439SOL     OW26215   5.319   0.397   2.275
 8439SOL    HW126216   5.268   0.325   2.227
 8439SOL    HW226217   5.415   0.393   2.248
 8440SOL     OW26218   1.322   3.918   3.740
 8440SOL    HW126219   1.392   3.965   3.795
 8440SOL    HW226220   1.271   3.986   3.686
 8441SOL     OW26221   3.814   5.784   1.378
 8441SOL    HW126222   3.864   5.698   1.380
 8441SOL    HW226223   3.876   5.858   1.352
 8442SOL     OW26224   2.713   3.246   0.909
 8442SOL    HW126225   2.713   3.149   0.933
 8442SOL    HW226226   2.684   3.257   0.813
 8443SOL     OW26227   0.070   2.689   1.030
 8443SOL    HW126228   7.005   2.734   1.029
 8443SOL    HW226229   0.081   2.635   0.946
 8444SOL     OW26230   4.947   2.473   2.983
 8444SOL    HW126231   5.044   2.468   3.007
 8444SOL    HW226232   4.915   2.568   2.989
 8445SOL     OW26233   3.751   5.614   2.347
 8445SOL    HW126234   3.790   5.527   2.317
 8445SOL    HW226235   3.806   5.690   2.311
 8446SOL     OW26236   5.968   3.575   3.016
 8446SOL    HW126237   5.884   3.604   2.971
 8446SOL    HW226238   5.950   3.497   3.076
 8447SOL     OW26239   5.565   4.726   1.473
 8447SOL    HW126240   5.581   4.763   1.564
 8447SOL    HW226241   5.652   4.719   1.424
 8448SOL     OW26242   1.346   4.891   5.660
 8448SOL    HW126243   1.330   4.849   5.571
 8448SOL    HW226244   1.385   4.982   5.647
 8449SOL     OW26245   1.941   0.672   5.415
 8449SOL    HW126246   1.922   0.689   5.318
 8449SOL    HW226247   1.946   0.573   5.430
 8450SOL     OW26248   1.704   5.919   1.038
 8450SOL    HW126249   1.772   5.877   1.098
 8450SOL    HW226250   1.725   6.016   1.026
 8451SOL     OW26251   2.768   4.291   1.515
 8451SOL    HW126252   2.771   4.240   1.600
 8451SOL    HW226253   2.675   4.293   1.479
 8452SOL     OW26254   6.684   5.642   2.362
 8452SOL    HW126255   6.600   5.672   2.409
 8452SOL    HW226256   6.662   5.566   2.302
 8453SOL     OW26257   0.796   4.665   5.438
 8453SOL    HW126258   0.784   4.567   5.425
 8453SOL    HW226259   0.838   4.705   5.357
 8454SOL     OW26260   1.951   6.889   5.660
 8454SOL    HW126261   1.924   6.954   5.589
 8454SOL    HW226262   2.051   6.879   5.659
 8455SOL     OW26263   6.008   2.122   0.008
 8455SOL    HW126264   5.937   2.136   0.076
 8455SOL    HW226265   6.000   2.031   6.992
 8456SOL     OW26266   6.443   4.126   3.789
 8456SOL    HW126267   6.499   4.059   3.837
 8456SOL    HW226268   6.400   4.187   3.855
 8457SOL     OW26269   5.484   5.874   5.837
 8457SOL    HW126270   5.400   5.924   5.858
 8457SOL    HW226271   5.563   5.930   5.862
 8458SOL     OW26272   0.984   1.692   1.577
 8458SOL    HW126273   1.044   1.656   1.649
 8458SOL    HW226274   0.913   1.749   1.618
 8459SOL     OW26275   2.770   4.757   2.769
 8459SOL    HW126276   2.751   4.730   2.863
 8459SOL    HW226277   2.689   4.742   2.713
 8460SOL     OW26278   3.509   1.061   0.992
 8460SOL    HW126279   3.501   1.004   0.910
 8460SOL    HW226280   3.421   1.064   1.039
 8461SOL     OW26281   5.847   4.708   3.109
 8461SOL    HW126282   5.849   4.681   3.013
 8461SOL    HW226283   5.761   4.755   3.129
 8462SOL     OW26284   2.055   3.756   0.890
 8462SOL    HW126285   2.136   3.809   0.916
 8462SOL    HW226286   2.083   3.663   0.866
 8463SOL     OW26287   0.384   6.287   1.256
 8463SOL    HW126288   0.368   6.374   1.302
 8463SOL    HW226289   0.482   6.267   1.256
 8464SOL     OW26290   0.213   3.293   6.606
 8464SOL    HW126291   0.279   3.367   6.620
 8464SOL    HW226292   0.132   3.309   6.663
 8465SOL     OW26293   6.240   4.065   0.464
 8465SOL    HW126294   6.317   4.129   0.475
 8465SOL    HW226295   6.203   4.041   0.554
 8466SOL     OW26296   0.453   1.222   4.886
 8466SOL    HW126297   0.406   1.146   4.931
 8466SOL    HW226298   0.477   1.196   4.792
 8467SOL     OW26299   3.143   1.477   0.689
 8467SOL    HW126300   3.086   1.500   0.767
 8467SOL    HW226301   3.229   1.436   0.722
 8468SOL     OW26302   6.562   3.748   1.747
 8468SOL    HW126303   6.500   3.784   1.817
 8468SOL    HW226304   6.656   3.769   1.772
 8469SOL     OW26305   3.437   2.844   5.660
 8469SOL    HW126306   3.460   2.836   5.757
 8469SOL    HW226307   3.364   2.780   5.638
 8470SOL     OW26308   2.233   5.708   1.335
 8470SOL    HW126309   2.267   5.786   1.387
 8470SOL    HW226310   2.287   5.627   1.359
 8471SOL     OW26311   4.003   2.186   3.719
 8471SOL    HW126312   3.917   2.179   3.668
 8471SOL    HW226313   4.077   2.208   3.655
 8472SOL     OW26314   6.448   1.605   7.023
 8472SOL    HW126315   6.404   1.544   6.957
 8472SOL    HW226316   6.547   1.591   7.020
 8473SOL     OW26317   4.757   4.986   5.553
 8473SOL    HW126318   4.846   4.985   5.507
 8473SOL    HW226319   4.724   5.081   5.557
 8474SOL     OW26320   3.371   3.971   6.298
 8474SOL    HW126321   3.445   3.910   6.328
 8474SOL    HW226322   3.358   3.961   6.200
 8475SOL     OW26323   0.747   1.869   3.119
 8475SOL    HW126324   0.765   1.796   3.052
 8475SOL    HW226325   0.834   1.902   3.156
 8476SOL     OW26326   6.629   0.830   2.671
 8476SOL    HW126327   6.655   0.738   2.702
 8476SOL    HW226328   6.536   0.828   2.636
 8477SOL     OW26329   5.863   6.566   1.033
 8477SOL    HW126330   5.879   6.649   0.978
 8477SOL    HW226331   5.848   6.592   1.128
 8478SOL     OW26332   1.911   6.854   6.607
 8478SOL    HW126333   2.009   6.840   6.624
 8478SOL    HW226334   1.859   6.787   6.660
 8479SOL     OW26335   1.217   2.258   0.063
 8479SOL    HW126336   1.228   2.228   0.158
 8479SOL    HW226337   1.159   2.192   0.015
 8480SOL     OW26338   3.227   4.353   1.384
 8480SOL    HW126339   3.294   4.384   1.451
 8480SOL    HW226340   3.163   4.289   1.428
 8481SOL     OW26341   5.497   3.771   1.918
 8481SOL    HW126342   5.424   3.712   1.883
 8481SOL    HW226343   5.479   3.793   2.014
 8482SOL     OW26344   5.007   0.299   5.660
 8482SOL    HW126345   4.993   0.271   5.565
 8482SOL    HW226346   4.927   0.273   5.714
 8483SOL     OW26347   4.426   5.282   4.052
 8483SOL    HW126348   4.341   5.258   4.098
 8483SOL    HW226349   4.489   5.204   4.057
 8484SOL     OW26350   5.534   6.904   5.874
 8484SOL    HW126351   5.528   6.893   5.973
 8484SOL    HW226352   5.505   6.819   5.829
 8485SOL     OW26353   3.685   0.118   6.038
 8485SOL    HW126354   3.763   0.175   6.012
 8485SOL    HW226355   3.624   0.107   5.959
 8486SOL     OW26356   4.685   2.768   4.896
 8486SOL    HW126357   4.699   2.859   4.859
 8486SOL    HW226358   4.636   2.775   4.983
 8487SOL     OW26359   0.604   1.647   5.397
 8487SOL    HW126360   0.674   1.608   5.457
 8487SOL    HW226361   0.633   1.639   5.302
 8488SOL     OW26362   4.509   5.682   3.052
 8488SOL    HW126363   4.549   5.765   3.092
 8488SOL    HW226364   4.472   5.625   3.126
 8489SOL     OW26365   6.141   2.436   1.992
 8489SOL    HW126366   6.097   2.370   2.053
 8489SOL    HW226367   6.174   2.389   1.910
 8490SOL     OW26368   4.019   0.210   0.336
 8490SOL    HW126369   4.023   0.142   0.410
 8490SOL    HW226370   4.106   0.258   0.331
 8491SOL     OW26371   3.063   6.287   1.915
 8491SOL    HW126372   3.060   6.373   1.862
 8491SOL    HW226373   2.990   6.288   1.983
 8492SOL     OW26374   6.035   6.554   4.216
 8492SOL    HW126375   6.121   6.605   4.225
 8492SOL    HW226376   6.054   6.456   4.227
 8493SOL     OW26377   5.188   0.275   5.427
 8493SOL    HW126378   5.218   0.330   5.348
 8493SOL    HW226379   5.195   0.330   5.510
 8494SOL     OW26380   0.209   3.762   2.244
 8494SOL    HW126381   0.216   3.720   2.335
 8494SOL    HW226382   0.135   3.717   2.193
 8495SOL     OW26383   4.744   6.148   4.897
 8495SOL    HW126384   4.659   6.191   4.926
 8495SOL    HW226385   4.796   6.212   4.841
 8496SOL     OW26386   3.945   2.184   2.434
 8496SOL    HW126387   3.934   2.212   2.529
 8496SOL    HW226388   3.877   2.230   2.377
 8497SOL     OW26389   6.589   0.873   3.451
 8497SOL    HW126390   6.493   0.890   3.428
 8497SOL    HW226391   6.643   0.867   3.367
 8498SOL     OW26392   5.662   6.219   5.367
 8498SOL    HW126393   5.618   6.143   5.414
 8498SOL    HW226394   5.657   6.301   5.424
 8499SOL     OW26395   6.394   0.438   6.111
 8499SOL    HW126396   6.443   0.479   6.034
 8499SOL    HW226397   6.301   0.414   6.083
 8500SOL     OW26398   0.547   0.762   6.004
 8500SOL    HW126399   0.541   0.861   6.017
 8500SOL    HW226400   0.462   0.719   6.035
 8501SOL     OW26401   3.867   6.719   5.222
 8501SOL    HW126402   3.883   6.809   5.262
 8501SOL    HW226403   3.810   6.665   5.283
 8502SOL     OW26404   6.318   2.873   0.404
 8502SOL    HW126405   6.405   2.910   0.434
 8502SOL    HW226406   6.317   2.774   0.417
 8503SOL     OW26407   4.694   2.160   6.288
 8503SOL    HW126408   4.675   2.070   6.249
 8503SOL    HW226409   4.636   2.228   6.245
 8504SOL     OW26410   1.484   1.225   3.102
 8504SOL    HW126411   1.440   1.289   3.040
 8504SOL    HW226412   1.427   1.212   3.183
 8505SOL     OW26413   6.074   1.375   2.697
 8505SOL    HW126414   6.093   1.458   2.644
 8505SOL    HW226415   6.060   1.400   2.793
 8506SOL     OW26416   2.014   1.150   4.443
 8506SOL    HW126417   1.952   1.149   4.521
 8506SOL    HW226418   2.106   1.123   4.473
 8507SOL     OW26419   4.048   5.385   0.193
 8507SOL    HW126420   4.015   5.436   0.113
 8507SOL    HW226421   4.066   5.290   0.167
 8508SOL     OW26422   3.919   0.720   6.112
 8508SOL    HW126423   3.921   0.626   6.145
 8508SOL    HW226424   3.882   0.780   6.183
 8509SOL     OW26425   4.131   2.220   2.213
 8509SOL    HW126426   4.127   2.257   2.120
 8509SOL    HW226427   4.042   2.185   2.239
 8510SOL     OW26428   0.391   2.138   4.914
 8510SOL    HW126429   0.404   2.208   4.983
 8510SOL    HW226430   0.336   2.063   4.952
 8511SOL     OW26431   5.914   1.983   4.216
 8511SOL    HW126432   6.010   1.958   4.203
 8511SOL    HW226433   5.872   2.001   4.127
 8512SOL     OW26434   2.620   6.450   6.482
 8512SOL    HW126435   2.719   6.438   6.483
 8512SOL    HW226436   2.586   6.458   6.576
 8513SOL     OW26437   3.860   5.892   6.949
 8513SOL    HW126438   3.819   5.814   6.996
 8513SOL    HW226439   3.813   5.976   6.977
 8514SOL     OW26440   4.474   5.388   4.457
 8514SOL    HW126441   4.443   5.455   4.389
 8514SOL    HW226442   4.567   5.358   4.434
 8515SOL     OW26443   5.442   3.082   1.468
 8515SOL    HW126444   5.515   3.150   1.476
 8515SOL    HW226445   5.417   3.050   1.559
 8516SOL     OW26446   6.670   2.372   1.436
 8516SOL    HW126447   6.674   2.419   1.524
 8516SOL    HW226448   6.763   2.357   1.402
 8517SOL     OW26449   0.724   3.734   4.636
 8517SOL    HW126450   0.752   3.775   4.549
 8517SOL    HW226451   0.796   3.673   4.668
 8518SOL     OW26452   4.019   5.999   1.340
 8518SOL    HW126453   4.034   6.028   1.435
 8518SOL    HW226454   4.023   6.079   1.280
 8519SOL     OW26455   2.690   5.641   3.261
 8519SOL    HW126456   2.767   5.581   3.284
 8519SOL    HW226457   2.668   5.698   3.341
 8520SOL     OW26458   3.642   5.611   0.514
 8520SOL    HW126459   3.550   5.628   0.481
 8520SOL    HW226460   3.702   5.590   0.437
 8521SOL     OW26461   0.715   1.399   2.954
 8521SOL    HW126462   0.751   1.415   3.045
 8521SOL    HW226463   0.687   1.303   2.946
 8522SOL     OW26464   2.205   5.781   4.198
 8522SOL    HW126465   2.212   5.871   4.155
 8522SOL    HW226466   2.294   5.755   4.235
 8523SOL     OW26467   2.159   5.502   6.585
 8523SOL    HW126468   2.092   5.563   6.543
 8523SOL    HW226469   2.172   5.421   6.527
 8524SOL     OW26470   2.000   1.419   6.455
 8524SOL    HW126471   2.094   1.446   6.434
 8524SOL    HW226472   2.001   1.339   6.516
 8525SOL     OW26473   5.633   4.465   4.456
 8525SOL    HW126474   5.703   4.458   4.527
 8525SOL    HW226475   5.606   4.374   4.427
 8526SOL     OW26476   6.973   3.434   1.770
 8526SOL    HW126477   6.986   3.530   1.744
 8526SOL    HW226478   6.957   3.379   1.689
 8527SOL     OW26479   5.098   0.994   5.148
 8527SOL    HW126480   5.033   0.919   5.138
 8527SOL    HW226481   5.190   0.961   5.123
 8528SOL     OW26482   5.483   6.996   0.328
 8528SOL    HW126483   5.581   7.016   0.317
 8528SOL    HW226484   5.471   6.926   0.399
 8529SOL     OW26485   6.985   0.726   4.577
 8529SOL    HW126486   0.034   0.794   4.582
 8529SOL    HW226487   6.907   0.764   4.528
 8530SOL     OW26488   1.680   5.135   6.162
 8530SOL    HW126489   1.738   5.077   6.105
 8530SOL    HW226490   1.588   5.096   6.168
 8531SOL     OW26491   3.092   5.433   2.699
 8531SOL    HW126492   3.007   5.432   2.751
 8531SOL    HW226493   3.157   5.369   2.739
 8532SOL     OW26494   0.999   3.507   6.924
 8532SOL    HW126495   0.920   3.475   6.872
 8532SOL    HW226496   1.060   3.431   6.942
 8533SOL     OW26497   3.556   0.299   6.453
 8533SOL    HW126498   3.498   0.319   6.532
 8533SOL    HW226499   3.503   0.250   6.384
 8534SOL     OW26500   3.004   2.572   1.018
 8534SOL    HW126501   3.061   2.571   0.936
 8534SOL    HW226502   3.016   2.659   1.066
 8535SOL     OW26503   0.173   2.653   5.631
 8535SOL    HW126504   0.096   2.627   5.689
 8535SOL    HW226505   0.256   2.610   5.665
 8536SOL     OW26506   6.742   0.540   6.465
 8536SOL    HW126507   6.814   0.475   6.438
 8536SOL    HW226508   6.657   0.517   6.418
 8537SOL     OW26509   3.796   6.426   3.375
 8537SOL    HW126510   3.756   6.335   3.382
 8537SOL    HW226511   3.732   6.493   3.414
 8538SOL     OW26512   3.785   1.478   4.992
 8538SOL    HW126513   3.854   1.475   5.065
 8538SOL    HW226514   3.697   1.447   5.028
 8539SOL     OW26515   0.358   3.266   3.000
 8539SOL    HW126516   0.313   3.258   3.089
 8539SOL    HW226517   0.376   3.362   2.979
 8540SOL     OW26518   4.424   6.080   5.984
 8540SOL    HW126519   4.405   5.982   5.987
 8540SOL    HW226520   4.337   6.131   5.988
 8541SOL     OW26521   3.558   5.725   5.760
 8541SOL    HW126522   3.533   5.793   5.690
 8541SOL    HW226523   3.487   5.723   5.831
 8542SOL     OW26524   1.519   5.524   4.855
 8542SOL    HW126525   1.460   5.451   4.889
 8542SOL    HW226526   1.597   5.483   4.807
 8543SOL     OW26527   3.426   1.662   5.716
 8543SOL    HW126528   3.482   1.634   5.794
 8543SOL    HW226529   3.486   1.684   5.639
 8544SOL     OW26530   4.878   3.781   5.250
 8544SOL    HW126531   4.792   3.736   5.225
 8544SOL    HW226532   4.918   3.735   5.329
 8545SOL     OW26533   2.046   0.743   6.424
 8545SOL    HW126534   2.125   0.782   6.471
 8545SOL    HW226535   1.973   0.812   6.421
 8546SOL     OW26536   2.996   1.621   4.034
 8546SOL    HW126537   2.959   1.596   4.124
 8546SOL    HW226538   2.935   1.687   3.990
 8547SOL     OW26539   5.801   4.596   5.921
 8547SOL    HW126540   5.833   4.691   5.919
 8547SOL    HW226541   5.724   4.588   5.984
 8548SOL     OW26542   1.650   4.377   4.210
 8548SOL    HW126543   1.737   4.347   4.172
 8548SOL    HW226544   1.581   4.379   4.138
 8549SOL     OW26545   2.889   0.386   3.854
 8549SOL    HW126546   2.959   0.315   3.860
 8549SOL    HW226547   2.833   0.384   3.937
 8550SOL     OW26548   0.427   3.399   4.968
 8550SOL    HW126549   0.486   3.453   4.909
 8550SOL    HW226550   0.479   3.364   5.046
 8551SOL     OW26551   3.366   1.861   4.176
 8551SOL    HW126552   3.316   1.927   4.119
 8551SOL    HW226553   3.439   1.909   4.225
 8552SOL     OW26554   4.152   1.618   2.358
 8552SOL    HW126555   4.152   1.568   2.271
 8552SOL    HW226556   4.162   1.554   2.434
 8553SOL     OW26557   5.780   2.707   0.602
 8553SOL    HW126558   5.866   2.754   0.621
 8553SOL    HW226559   5.716   2.723   0.677
 8554SOL     OW26560   0.301   0.757   6.793
 8554SOL    HW126561   0.307   0.851   6.760
 8554SOL    HW226562   0.392   0.716   6.791
 8555SOL     OW26563   3.508   2.164   3.966
 8555SOL    HW126564   3.436   2.176   4.034
 8555SOL    HW226565   3.467   2.150   3.876
 8556SOL     OW26566   1.241   4.227   6.024
 8556SOL    HW126567   1.282   4.138   6.040
 8556SOL    HW226568   1.143   4.223   6.041
 8557SOL     OW26569   6.126   0.202   0.493
 8557SOL    HW126570   6.070   0.162   0.566
 8557SOL    HW226571   6.223   0.193   0.516
 8558SOL     OW26572   2.810   6.218   3.452
 8558SOL    HW126573   2.907   6.210   3.429
 8558SOL    HW226574   2.763   6.273   3.383
 8559SOL     OW26575   1.702   3.018   3.285
 8559SOL    HW126576   1.638   3.063   3.222
 8559SOL    HW226577   1.658   2.938   3.326
 8560SOL     OW26578   3.351   4.621   1.556
 8560SOL    HW126579   3.410   4.591   1.631
 8560SOL    HW226580   3.258   4.635   1.590
 8561SOL     OW26581   3.421   0.717   2.574
 8561SOL    HW126582   3.332   0.727   2.618
 8561SOL    HW226583   3.410   0.674   2.485
 8562SOL     OW26584   5.477   3.688   6.106
 8562SOL    HW126585   5.572   3.711   6.127
 8562SOL    HW226586   5.475   3.601   6.056
 8563SOL     OW26587   6.743   4.130   3.605
 8563SOL    HW126588   6.647   4.150   3.627
 8563SOL    HW226589   6.772   4.189   3.529
 8564SOL     OW26590   3.932   6.401   6.743
 8564SOL    HW126591   3.955   6.390   6.839
 8564SOL    HW226592   3.897   6.493   6.727
 8565SOL     OW26593   1.237   5.022   0.484
 8565SOL    HW126594   1.237   5.071   0.571
 8565SOL    HW226595   1.170   4.947   0.488
 8566SOL     OW26596   2.580   0.708   3.761
 8566SOL    HW126597   2.643   0.630   3.762
 8566SOL    HW226598   2.534   0.713   3.673
 8567SOL     OW26599   2.008   3.413   0.404
 8567SOL    HW126600   2.032   3.507   0.378
 8567SOL    HW226601   1.953   3.415   0.487
 8568SOL     OW26602   5.646   0.065   6.626
 8568SOL    HW126603   5.557   0.057   6.672
 8568SOL    HW226604   5.635   0.113   6.539
 8569SOL     OW26605   4.169   2.034   6.401
 8569SOL    HW126606   4.075   2.032   6.436
 8569SOL    HW226607   4.216   1.951   6.429
 8570SOL     OW26608   1.753   2.261   4.218
 8570SOL    HW126609   1.674   2.294   4.270
 8570SOL    HW226610   1.722   2.217   4.134
 8571SOL     OW26611   1.655   0.794   3.577
 8571SOL    HW126612   1.568   0.773   3.532
 8571SOL    HW226613   1.717   0.716   3.566
 8572SOL     OW26614   2.437   3.075   6.126
 8572SOL    HW126615   2.485   3.031   6.050
 8572SOL    HW226616   2.342   3.095   6.099
 8573SOL     OW26617   1.733   6.403   6.275
 8573SOL    HW126618   1.820   6.367   6.240
 8573SOL    HW226619   1.657   6.350   6.238
 8574SOL     OW26620   6.305   2.535   5.625
 8574SOL    HW126621   6.227   2.597   5.626
 8574SOL    HW226622   6.320   2.499   5.718
 8575SOL     OW26623   1.760   6.661   3.822
 8575SOL    HW126624   1.787   6.566   3.834
 8575SOL    HW226625   1.712   6.672   3.735
 8576SOL     OW26626   1.218   4.141   4.164
 8576SOL    HW126627   1.315   4.144   4.187
 8576SOL    HW226628   1.207   4.150   4.065
 8577SOL     OW26629   1.933   1.408   1.232
 8577SOL    HW126630   1.954   1.464   1.152
 8577SOL    HW226631   1.964   1.455   1.315
 8578SOL     OW26632   1.803   0.916   5.759
 8578SOL    HW126633   1.780   1.011   5.735
 8578SOL    HW226634   1.891   0.893   5.719
 8579SOL     OW26635   2.815   0.149   2.952
 8579SOL    HW126636   2.813   0.056   2.989
 8579SOL    HW226637   2.748   0.206   3.001
 8580SOL     OW26638   1.161   0.396   2.117
 8580SOL    HW126639   1.066   0.409   2.145
 8580SOL    HW226640   1.180   0.451   2.036
 8581SOL     OW26641   4.132   3.409   3.652
 8581SOL    HW126642   4.182   3.333   3.612
 8581SOL    HW226643   4.033   3.391   3.646
 8582SOL     OW26644   5.578   5.707   6.475
 8582SOL    HW126645   5.642   5.630   6.468
 8582SOL    HW226646   5.485   5.672   6.486
 8583SOL     OW26647   3.784   0.195   2.176
 8583SOL    HW126648   3.813   0.182   2.271
 8583SOL    HW226649   3.862   0.230   2.123
 8584SOL     OW26650   5.235   2.634   5.898
 8584SOL    HW126651   5.202   2.566   5.833
 8584SOL    HW226652   5.170   2.641   5.974
 8585SOL     OW26653   4.725   2.773   3.161
 8585SOL    HW126654   4.739   2.872   3.160
 8585SOL    HW226655   4.807   2.729   3.197
 8586SOL     OW26656   5.955   0.063   6.030
 8586SOL    HW126657   5.863   0.057   5.992
 8586SOL    HW226658   6.015   0.111   5.966
 8587SOL     OW26659   6.672   6.444   1.326
 8587SOL    HW126660   6.621   6.530   1.330
 8587SOL    HW226661   6.655   6.400   1.238
 8588SOL     OW26662   2.143   2.124   5.843
 8588SOL    HW126663   2.210   2.169   5.902
 8588SOL    HW226664   2.183   2.108   5.753
 8589SOL     OW26665   6.100   3.225   6.457
 8589SOL    HW126666   6.005   3.205   6.483
 8589SOL    HW226667   6.139   3.146   6.410
 8590SOL     OW26668   0.518   1.452   2.763
 8590SOL    HW126669   0.598   1.436   2.822
 8590SOL    HW226670   0.478   1.364   2.737
 8591SOL     OW26671   0.640   4.300   6.225
 8591SOL    HW126672   0.664   4.288   6.321
 8591SOL    HW226673   0.719   4.336   6.175
 8592SOL     OW26674   0.172   2.370   4.578
 8592SOL    HW126675   0.115   2.412   4.648
 8592SOL    HW226676   0.265   2.359   4.613
 8593SOL     OW26677   6.405   0.754   0.545
 8593SOL    HW126678   6.404   0.852   0.524
 8593SOL    HW226679   6.338   0.735   0.616
 8594SOL     OW26680   6.216   2.258   0.099
 8594SOL    HW126681   6.173   2.347   0.117
 8594SOL    HW226682   6.161   2.206   0.034
 8595SOL     OW26683   5.592   6.308   1.974
 8595SOL    HW126684   5.573   6.234   2.039
 8595SOL    HW226685   5.656   6.373   2.015
 8596SOL     OW26686   0.587   2.722   5.850
 8596SOL    HW126687   0.604   2.749   5.945
 8596SOL    HW226688   0.597   2.802   5.790
 8597SOL     OW26689   6.078   2.223   5.542
 8597SOL    HW126690   6.163   2.276   5.548
 8597SOL    HW226691   6.035   2.220   5.632
 8598SOL     OW26692   6.415   0.435   5.531
 8598SOL    HW126693   6.445   0.354   5.582
 8598SOL    HW226694   6.316   0.443   5.536
 8599SOL     OW26695   6.084   4.378   5.155
 8599SOL    HW126696   6.124   4.428   5.232
 8599SOL    HW226697   6.037   4.296   5.189
 8600SOL     OW26698   3.660   3.069   2.018
 8600SOL    HW126699   3.644   3.151   2.074
 8600SOL    HW226700   3.649   2.987   2.075
 8601SOL     OW26701   5.094   4.550   1.402
 8601SOL    HW126702   5.172   4.504   1.444
 8601SOL    HW226703   5.038   4.592   1.473
 8602SOL     OW26704   1.785   6.141   5.264
 8602SOL    HW126705   1.732   6.223   5.239
 8602SOL    HW226706   1.864   6.168   5.318
 8603SOL     OW26707   0.519   1.190   0.364
 8603SOL    HW126708   0.456   1.251   0.413
 8603SOL    HW226709   0.552   1.235   0.281
 8604SOL     OW26710   2.055   5.966   5.770
 8604SOL    HW126711   2.050   5.947   5.672
 8604SOL    HW226712   2.072   5.881   5.820
 8605SOL     OW26713   6.752   5.172   4.185
 8605SOL    HW126714   6.713   5.145   4.096
 8605SOL    HW226715   6.683   5.221   4.237
 8606SOL     OW26716   0.551   0.400   6.162
 8606SOL    HW126717   0.604   0.459   6.102
 8606SOL    HW226718   0.457   0.434   6.169
 8607SOL     OW26719   3.354   2.884   1.955
 8607SOL    HW126720   3.370   2.970   1.905
 8607SOL    HW226721   3.300   2.822   1.898
 8608SOL     OW26722   1.246   5.435   2.445
 8608SOL    HW126723   1.195   5.360   2.405
 8608SOL    HW226724   1.321   5.399   2.500
 8609SOL     OW26725   5.226   2.291   3.770
 8609SOL    HW126726   5.301   2.354   3.790
 8609SOL    HW226727   5.247   2.201   3.809
 8610SOL     OW26728   6.821   5.306   2.205
 8610SOL    HW126729   6.809   5.269   2.297
 8610SOL    HW226730   6.904   5.362   2.203
 8611SOL     OW26731   2.124   1.672   5.401
 8611SOL    HW126732   2.169   1.687   5.489
 8611SOL    HW226733   2.115   1.760   5.353
 8612SOL     OW26734   3.441   3.179   5.901
 8612SOL    HW126735   3.355   3.210   5.940
 8612SOL    HW226736   3.509   3.170   5.973
 8613SOL     OW26737   3.563   3.175   3.419
 8613SOL    HW126738   3.625   3.176   3.340
 8613SOL    HW226739   3.475   3.214   3.393
 8614SOL     OW26740   0.151   3.331   4.077
 8614SOL    HW126741   0.165   3.346   3.979
 8614SOL    HW226742   0.076   3.266   4.090
 8615SOL     OW26743   3.924   0.593   5.112
 8615SOL    HW126744   4.020   0.565   5.108
 8615SOL    HW226745   3.917   0.690   5.093
 8616SOL     OW26746   5.918   3.863   5.229
 8616SOL    HW126747   5.864   3.800   5.173
 8616SOL    HW226748   5.961   3.812   5.304
 8617SOL     OW26749   0.679   6.988   4.044
 8617SOL    HW126750   0.611   7.002   3.972
 8617SOL    HW226751   0.639   6.933   4.117
 8618SOL     OW26752   6.920   4.910   0.551
 8618SOL    HW126753   6.854   4.937   0.621
 8618SOL    HW226754   6.927   4.983   0.483
 8619SOL     OW26755   6.021   4.404   6.574
 8619SOL    HW126756   6.116   4.426   6.596
 8619SOL    HW226757   6.014   4.377   6.478
 8620SOL     OW26758   0.978   6.002   4.008
 8620SOL    HW126759   0.895   6.042   3.969
 8620SOL    HW226760   1.056   6.061   3.988
 8621SOL     OW26761   6.286   3.481   1.835
 8621SOL    HW126762   6.381   3.479   1.802
 8621SOL    HW226763   6.225   3.499   1.757
 8622SOL     OW26764   1.001   6.360   1.756
 8622SOL    HW126765   0.998   6.308   1.671
 8622SOL    HW226766   1.020   6.298   1.832
 8623SOL     OW26767   1.796   2.308   3.515
 8623SOL    HW126768   1.752   2.384   3.468
 8623SOL    HW226769   1.760   2.222   3.481
 8624SOL     OW26770   3.042   3.740   5.875
 8624SOL    HW126771   2.961   3.795   5.855
 8624SOL    HW226772   3.114   3.799   5.910
 8625SOL     OW26773   4.306   3.348   6.217
 8625SOL    HW126774   4.236   3.341   6.146
 8625SOL    HW226775   4.273   3.405   6.292
 8626SOL     OW26776   5.347   1.177   0.455
 8626SOL    HW126777   5.289   1.100   0.427
 8626SOL    HW226778   5.289   1.252   0.486
 8627SOL     OW26779   6.865   0.185   2.371
 8627SOL    HW126780   6.927   0.115   2.336
 8627SOL    HW226781   6.896   0.215   2.461
 8628SOL     OW26782   1.126   6.379   0.423
 8628SOL    HW126783   1.058   6.453   0.430
 8628SOL    HW226784   1.089   6.304   0.370
 8629SOL     OW26785   6.995   1.053   4.706
 8629SOL    HW126786   0.033   0.998   4.649
 8629SOL    HW226787   0.024   1.118   4.759
 8630SOL     OW26788   5.396   2.997   1.718
 8630SOL    HW126789   5.331   3.046   1.775
 8630SOL    HW226790   5.381   2.898   1.727
 8631SOL     OW26791   1.319   5.865   0.251
 8631SOL    HW126792   1.250   5.912   0.306
 8631SOL    HW226793   1.275   5.814   0.177
 8632SOL     OW26794   6.022   5.993   3.705
 8632SOL    HW126795   6.034   6.082   3.660
 8632SOL    HW226796   5.965   5.934   3.648
 8633SOL     OW26797   6.486   3.952   5.785
 8633SOL    HW126798   6.485   3.952   5.685
 8633SOL    HW226799   6.581   3.956   5.816
 8634SOL     OW26800   5.022   4.825   0.151
 8634SOL    HW126801   5.064   4.738   0.126
 8634SOL    HW226802   4.990   4.820   0.246
 8635SOL     OW26803   5.457   1.480   0.148
 8635SOL    HW126804   5.507   1.540   0.087
 8635SOL    HW226805   5.385   1.432   0.097
 8636SOL     OW26806   4.608   5.777   0.254
 8636SOL    HW126807   4.616   5.869   0.217
 8636SOL    HW226808   4.694   5.728   0.240
 8637SOL     OW26809   3.092   2.867   0.929
 8637SOL    HW126810   3.064   2.963   0.924
 8637SOL    HW226811   3.097   2.829   0.837
 8638SOL     OW26812   4.608   2.175   3.891
 8638SOL    HW126813   4.581   2.199   3.985
 8638SOL    HW226814   4.580   2.080   3.872
 8639SOL     OW26815   4.166   4.321   0.459
 8639SOL    HW126816   4.073   4.357   0.444
 8639SOL    HW226817   4.166   4.262   0.540
 8640SOL     OW26818   2.904   2.661   6.560
 8640SOL    HW126819   2.921   2.563   6.575
 8640SOL    HW226820   2.832   2.692   6.622
 8641SOL     OW26821   3.196   5.171   2.981
 8641SOL    HW126822   3.183   5.163   2.882
 8641SOL    HW226823   3.260   5.100   3.012
 8642SOL     OW26824   2.680   6.668   2.774
 8642SOL    HW126825   2.703   6.628   2.686
 8642SOL    HW226826   2.586   6.701   2.772
 8643SOL     OW26827   3.636   6.431   1.210
 8643SOL    HW126828   3.666   6.514   1.161
 8643SOL    HW226829   3.602   6.365   1.144
 8644SOL     OW26830   5.353   2.046   0.012
 8644SOL    HW126831   5.326   2.061   6.941
 8644SOL    HW226832   5.298   2.102   0.072
 8645SOL     OW26833   4.748   5.602   2.651
 8645SOL    HW126834   4.716   5.526   2.707
 8645SOL    HW226835   4.843   5.622   2.673
 8646SOL     OW26836   5.984   1.725   3.904
 8646SOL    HW126837   5.903   1.774   3.873
 8646SOL    HW226838   5.968   1.626   3.897
 8647SOL     OW26839   1.756   4.422   2.120
 8647SOL    HW126840   1.826   4.462   2.180
 8647SOL    HW226841   1.710   4.495   2.069
 8648SOL     OW26842   5.957   5.515   6.038
 8648SOL    HW126843   5.964   5.556   6.129
 8648SOL    HW226844   5.861   5.508   6.012
 8649SOL     OW26845   5.389   2.932   2.294
 8649SOL    HW126846   5.383   2.874   2.375
 8649SOL    HW226847   5.343   3.019   2.310
 8650SOL     OW26848   0.944   0.922   4.591
 8650SOL    HW126849   1.004   0.884   4.661
 8650SOL    HW226850   0.950   1.021   4.591
 8651SOL     OW26851   4.783   1.248   1.296
 8651SOL    HW126852   4.735   1.176   1.346
 8651SOL    HW226853   4.842   1.206   1.226
 8652SOL     OW26854   5.996   3.119   4.835
 8652SOL    HW126855   6.036   3.105   4.926
 8652SOL    HW226856   5.961   3.032   4.801
 8653SOL     OW26857   4.394   1.025   6.731
 8653SOL    HW126858   4.461   1.058   6.798
 8653SOL    HW226859   4.441   1.008   6.644
 8654SOL     OW26860   6.494   4.452   3.807
 8654SOL    HW126861   6.542   4.470   3.722
 8654SOL    HW226862   6.556   4.407   3.872
 8655SOL     OW26863   1.494   6.967   4.439
 8655SOL    HW126864   1.555   0.019   4.463
 8655SOL    HW226865   1.544   6.900   4.385
 8656SOL     OW26866   3.439   6.108   0.030
 8656SOL    HW126867   3.485   6.170   0.093
 8656SOL    HW226868   3.448   6.142   6.961
 8657SOL     OW26869   3.181   1.882   2.555
 8657SOL    HW126870   3.096   1.847   2.515
 8657SOL    HW226871   3.181   1.982   2.550
 8658SOL     OW26872   6.183   3.973   0.772
 8658SOL    HW126873   6.096   3.924   0.774
 8658SOL    HW226874   6.258   3.908   0.779
 8659SOL     OW26875   3.242   6.702   3.443
 8659SOL    HW126876   3.297   6.655   3.511
 8659SOL    HW226877   3.160   6.740   3.486
 8660SOL     OW26878   6.792   4.735   0.927
 8660SOL    HW126879   6.790   4.637   0.907
 8660SOL    HW226880   6.777   4.750   1.025
 8661SOL     OW26881   5.908   3.090   0.920
 8661SOL    HW126882   5.841   3.127   0.856
 8661SOL    HW226883   5.976   3.038   0.869
 8662SOL     OW26884   1.715   2.594   2.059
 8662SOL    HW126885   1.732   2.502   2.025
 8662SOL    HW226886   1.792   2.653   2.036
 8663SOL     OW26887   2.793   5.949   1.548
 8663SOL    HW126888   2.717   5.887   1.531
 8663SOL    HW226889   2.863   5.902   1.602
 8664SOL     OW26890   3.386   6.189   4.458
 8664SOL    HW126891   3.289   6.165   4.470
 8664SOL    HW226892   3.392   6.276   4.409
 8665SOL     OW26893   0.505   2.997   6.284
 8665SOL    HW126894   0.521   3.017   6.187
 8665SOL    HW226895   0.461   3.076   6.327
 8666SOL     OW26896   4.403   6.913   2.835
 8666SOL    HW126897   4.313   6.950   2.809
 8666SOL    HW226898   4.429   6.947   2.925
 8667SOL     OW26899   4.546   2.237   1.879
 8667SOL    HW126900   4.545   2.266   1.783
 8667SOL    HW226901   4.455   2.204   1.904
 8668SOL     OW26902   3.593   1.838   3.485
 8668SOL    HW126903   3.573   1.740   3.484
 8668SOL    HW226904   3.639   1.863   3.399
 8669SOL     OW26905   0.437   5.962   5.860
 8669SOL    HW126906   0.535   5.949   5.875
 8669SOL    HW226907   0.400   6.022   5.931
 8670SOL     OW26908   6.894   4.774   5.047
 8670SOL    HW126909   6.855   4.724   5.125
 8670SOL    HW226910   6.925   4.708   4.978
 8671SOL     OW26911   0.017   3.520   3.268
 8671SOL    HW126912   0.035   3.422   3.272
 8671SOL    HW226913   6.943   3.536   3.280
 8672SOL     OW26914   6.663   1.058   2.110
 8672SOL    HW126915   6.654   1.007   2.196
 8672SOL    HW226916   6.760   1.078   2.093
 8673SOL     OW26917   0.335   0.812   1.983
 8673SOL    HW126918   0.369   0.791   1.892
 8673SOL    HW226919   0.290   0.902   1.982
 8674SOL     OW26920   0.414   2.756   4.296
 8674SOL    HW126921   0.364   2.704   4.366
 8674SOL    HW226922   0.415   2.704   4.211
 8675SOL     OW26923   5.615   2.349   4.800
 8675SOL    HW126924   5.536   2.322   4.745
 8675SOL    HW226925   5.679   2.272   4.806
 8676SOL     OW26926   5.120   2.871   1.088
 8676SOL    HW126927   5.126   2.937   1.163
 8676SOL    HW226928   5.211   2.846   1.057
 8677SOL     OW26929   3.141   1.558   0.042
 8677SOL    HW126930   3.082   1.488   0.001
 8677SOL    HW226931   3.151   1.635   7.003
 8678SOL     OW26932   2.669   1.899   0.161
 8678SOL    HW126933   2.574   1.916   0.188
 8678SOL    HW226934   2.687   1.801   0.163
 8679SOL     OW26935   2.137   2.099   6.615
 8679SOL    HW126936   2.165   2.174   6.555
 8679SOL    HW226937   2.163   2.012   6.574
 8680SOL     OW26938   6.972   0.122   1.254
 8680SOL    HW126939   6.900   0.134   1.322
 8680SOL    HW226940   0.015   0.195   1.264
 8681SOL     OW26941   5.539   5.737   0.955
 8681SOL    HW126942   5.570   5.645   0.981
 8681SOL    HW226943   5.584   5.805   1.012
 8682SOL     OW26944   1.536   1.865   1.857
 8682SOL    HW126945   1.559   1.938   1.922
 8682SOL    HW226946   1.618   1.812   1.836
 8683SOL     OW26947   2.375   4.700   4.539
 8683SOL    HW126948   2.288   4.680   4.584
 8683SOL    HW226949   2.358   4.742   4.450
 8684SOL     OW26950   2.067   4.137   3.470
 8684SOL    HW126951   2.081   4.234   3.451
 8684SOL    HW226952   2.109   4.082   3.398
 8685SOL     OW26953   4.653   3.067   5.361
 8685SOL    HW126954   4.557   3.053   5.337
 8685SOL    HW226955   4.685   2.989   5.416
 8686SOL     OW26956   0.678   4.985   2.185
 8686SOL    HW126957   0.667   4.949   2.093
 8686SOL    HW226958   0.589   4.991   2.230
 8687SOL     OW26959   5.739   3.109   5.454
 8687SOL    HW126960   5.652   3.156   5.468
 8687SOL    HW226961   5.724   3.010   5.450
 8688SOL     OW26962   1.404   3.221   4.412
 8688SOL    HW126963   1.351   3.219   4.327
 8688SOL    HW226964   1.463   3.140   4.416
 8689SOL     OW26965   5.026   3.555   1.204
 8689SOL    HW126966   5.069   3.494   1.137
 8689SOL    HW226967   5.070   3.543   1.293
 8690SOL     OW26968   1.071   2.422   2.280
 8690SOL    HW126969   1.102   2.464   2.194
 8690SOL    HW226970   1.146   2.424   2.346
 8691SOL     OW26971   3.701   1.172   0.158
 8691SOL    HW126972   3.739   1.251   0.109
 8691SOL    HW226973   3.775   1.108   0.180
 8692SOL     OW26974   5.576   2.232   4.481
 8692SOL    HW126975   5.506   2.287   4.527
 8692SOL    HW226976   5.533   2.177   4.410
 8693SOL     OW26977   0.931   0.307   5.302
 8693SOL    HW126978   0.940   0.366   5.383
 8693SOL    HW226979   1.018   0.303   5.254
 8694SOL     OW26980   3.412   3.680   6.267
 8694SOL    HW126981   3.474   3.651   6.193
 8694SOL    HW226982   3.465   3.690   6.351
 8695SOL     OW26983   3.837   4.256   1.225
 8695SOL    HW126984   3.791   4.234   1.140
 8695SOL    HW226985   3.832   4.177   1.287
 8696SOL     OW26986   2.820   4.460   6.374
 8696SOL    HW126987   2.875   4.443   6.292
 8696SOL    HW226988   2.747   4.392   6.381
 8697SOL     OW26989   1.004   3.019   4.341
 8697SOL    HW126990   1.091   2.992   4.382
 8697SOL    HW226991   0.928   2.987   4.398
 8698SOL     OW26992   5.585   4.779   6.906
 8698SOL    HW126993   5.545   4.770   6.997
 8698SOL    HW226994   5.592   4.876   6.882
 8699SOL     OW26995   2.064   2.073   1.483
 8699SOL    HW126996   2.096   2.166   1.501
 8699SOL    HW226997   2.084   2.015   1.561
 8700SOL     OW26998   0.308   2.582   4.880
 8700SOL    HW126999   0.338   2.673   4.852
 8700SOL    HW227000   0.212   2.586   4.907
 8701SOL     OW27001   2.594   3.171   0.170
 8701SOL    HW127002   2.680   3.122   0.163
 8701SOL    HW227003   2.550   3.148   0.257
 8702SOL     OW27004   5.300   4.373   0.612
 8702SOL    HW127005   5.216   4.328   0.582
 8702SOL    HW227006   5.298   4.469   0.585
 8703SOL     OW27007   2.265   5.356   0.855
 8703SOL    HW127008   2.265   5.390   0.761
 8703SOL    HW227009   2.237   5.429   0.917
 8704SOL     OW27010   6.665   1.274   3.658
 8704SOL    HW127011   6.727   1.233   3.590
 8704SOL    HW227012   6.666   1.218   3.741
 8705SOL     OW27013   3.451   2.340   0.308
 8705SOL    HW127014   3.380   2.270   0.315
 8705SOL    HW227015   3.496   2.350   0.397
 8706SOL     OW27016   4.821   2.650   5.208
 8706SOL    HW127017   4.750   2.718   5.189
 8706SOL    HW227018   4.870   2.629   5.123
 8707SOL     OW27019   1.880   0.632   3.559
 8707SOL    HW127020   1.954   0.600   3.618
 8707SOL    HW227021   1.918   0.689   3.486
 8708SOL     OW27022   5.626   2.029   0.659
 8708SOL    HW127023   5.724   2.035   0.676
 8708SOL    HW227024   5.576   2.069   0.736
 8709SOL     OW27025   6.073   6.024   4.252
 8709SOL    HW127026   6.064   5.968   4.170
 8709SOL    HW227027   6.170   6.034   4.275
 8710SOL     OW27028   2.410   2.638   3.601
 8710SOL    HW127029   2.483   2.575   3.574
 8710SOL    HW227030   2.438   2.687   3.683
 8711SOL     OW27031   1.070   2.154   2.163
 8711SOL    HW127032   1.002   2.137   2.234
 8711SOL    HW227033   1.069   2.251   2.138
 8712SOL     OW27034   1.297   3.858   4.199
 8712SOL    HW127035   1.275   3.952   4.175
 8712SOL    HW227036   1.307   3.850   4.298
 8713SOL     OW27037   0.405   4.620   4.240
 8713SOL    HW127038   0.390   4.670   4.325
 8713SOL    HW227039   0.316   4.597   4.199
 8714SOL     OW27040   1.376   3.912   6.562
 8714SOL    HW127041   1.359   4.009   6.546
 8714SOL    HW227042   1.291   3.867   6.588
 8715SOL     OW27043   2.165   4.876   1.248
 8715SOL    HW127044   2.261   4.851   1.263
 8715SOL    HW227045   2.150   4.971   1.275
 8716SOL     OW27046   4.930   6.887   3.173
 8716SOL    HW127047   4.844   6.884   3.121
 8716SOL    HW227048   4.970   6.796   3.177
 8717SOL     OW27049   4.389   2.291   7.000
 8717SOL    HW127050   4.318   2.239   0.023
 8717SOL    HW227051   4.374   2.286   6.901
 8718SOL     OW27052   2.421   5.592   5.882
 8718SOL    HW127053   2.424   5.613   5.979
 8718SOL    HW227054   2.514   5.596   5.844
 8719SOL     OW27055   3.098   2.145   4.621
 8719SOL    HW127056   3.010   2.191   4.615
 8719SOL    HW227057   3.148   2.157   4.535
 8720SOL     OW27058   0.157   0.090   5.263
 8720SOL    HW127059   0.147   0.167   5.326
 8720SOL    HW227060   0.255   0.076   5.243
 8721SOL     OW27061   0.546   0.318   2.022
 8721SOL    HW127062   0.632   0.295   2.067
 8721SOL    HW227063   0.488   0.369   2.085
 8722SOL     OW27064   3.884   0.979   0.185
 8722SOL    HW127065   3.858   0.904   0.246
 8722SOL    HW227066   3.958   1.032   0.226
 8723SOL     OW27067   3.791   6.441   2.850
 8723SOL    HW127068   3.862   6.373   2.833
 8723SOL    HW227069   3.710   6.420   2.797
 8724SOL     OW27070   5.715   0.244   5.335
 8724SOL    HW127071   5.677   0.332   5.307
 8724SOL    HW227072   5.657   0.204   5.406
 8725SOL     OW27073   6.955   0.748   2.661
 8725SOL    HW127074   6.912   0.763   2.572
 8725SOL    HW227075   6.885   0.751   2.733
 8726SOL     OW27076   6.885   0.438   1.058
 8726SOL    HW127077   6.910   0.343   1.039
 8726SOL    HW227078   6.945   0.499   1.005
 8727SOL     OW27079   4.864   5.202   5.908
 8727SOL    HW127080   4.921   5.224   5.829
 8727SOL    HW227081   4.903   5.123   5.956
 8728SOL     OW27082   4.958   6.700   4.027
 8728SOL    HW127083   4.993   6.772   3.967
 8728SOL    HW227084   5.031   6.667   4.086
 8729SOL     OW27085   5.900   5.819   5.921
 8729SOL    HW127086   5.876   5.723   5.938
 8729SOL    HW227087   5.818   5.871   5.900
 8730SOL     OW27088   4.099   4.883   1.751
 8730SOL    HW127089   4.100   4.910   1.655
 8730SOL    HW227090   4.190   4.898   1.791
 8731SOL     OW27091   0.065   2.719   4.504
 8731SOL    HW127092   0.136   2.666   4.551
 8731SOL    HW227093   7.023   2.656   4.464
 8732SOL     OW27094   5.168   6.809   5.609
 8732SOL    HW127095   5.196   6.723   5.567
 8732SOL    HW227096   5.146   6.793   5.706
 8733SOL     OW27097   5.792   4.144   2.056
 8733SOL    HW127098   5.866   4.199   2.016
 8733SOL    HW227099   5.726   4.205   2.100
 8734SOL     OW27100   0.215   6.442   1.558
 8734SOL    HW127101   0.280   6.455   1.483
 8734SOL    HW227102   0.123   6.463   1.526
 8735SOL     OW27103   1.641   1.991   0.051
 8735SOL    HW127104   1.727   2.035   0.029
 8735SOL    HW227105   1.646   1.953   0.144
 8736SOL     OW27106   0.533   5.990   3.857
 8736SOL    HW127107   0.498   5.918   3.797
 8736SOL    HW227108   0.468   6.007   3.931
 8737SOL     OW27109   0.760   5.705   6.670
 8737SOL    HW127110   0.704   5.739   6.594
 8737SOL    HW227111   0.746   5.765   6.749
 8738SOL     OW27112   1.747   2.165   2.463
 8738SOL    HW127113   1.844   2.173   2.441
 8738SOL    HW227114   1.712   2.253   2.495
 8739SOL     OW27115   4.391   4.883   3.611
 8739SOL    HW127116   4.490   4.871   3.615
 8739SOL    HW227117   4.353   4.822   3.541
 8740SOL     OW27118   1.818   0.948   3.436
 8740SOL    HW127119   1.846   1.032   3.483
 8740SOL    HW227120   1.762   0.893   3.498
 8741SOL     OW27121   1.961   2.747   3.054
 8741SOL    HW127122   2.003   2.657   3.053
 8741SOL    HW227123   1.989   2.796   3.136
 8742SOL     OW27124   1.743   3.250   0.553
 8742SOL    HW127125   1.715   3.318   0.621
 8742SOL    HW227126   1.687   3.168   0.564
 8743SOL     OW27127   2.015   2.858   0.296
 8743SOL    HW127128   1.937   2.848   0.234
 8743SOL    HW227129   2.008   2.944   0.345
 8744SOL     OW27130   3.059   3.808   5.521
 8744SOL    HW127131   3.146   3.784   5.478
 8744SOL    HW227132   3.023   3.729   5.570
 8745SOL     OW27133   5.410   0.909   6.768
 8745SOL    HW127134   5.443   0.814   6.762
 8745SOL    HW227135   5.445   0.951   6.852
 8746SOL     OW27136   4.371   4.687   4.143
 8746SOL    HW127137   4.416   4.769   4.179
 8746SOL    HW227138   4.276   4.685   4.173
 8747SOL     OW27139   0.038   6.839   1.370
 8747SOL    HW127140   7.014   6.868   1.452
 8747SOL    HW227141   6.996   6.816   1.299
 8748SOL     OW27142   5.905   1.821   5.014
 8748SOL    HW127143   5.953   1.800   4.929
 8748SOL    HW227144   5.933   1.911   5.047
 8749SOL     OW27145   2.240   1.700   4.109
 8749SOL    HW127146   2.193   1.733   4.026
 8749SOL    HW227147   2.257   1.778   4.170
 8750SOL     OW27148   4.008   3.878   2.184
 8750SOL    HW127149   4.031   3.960   2.235
 8750SOL    HW227150   4.005   3.799   2.246
 8751SOL     OW27151   1.928   6.505   0.021
 8751SOL    HW127152   1.899   6.472   6.956
 8751SOL    HW227153   1.886   6.449   0.092
 8752SOL     OW27154   1.603   2.570   6.658
 8752SOL    HW127155   1.525   2.550   6.717
 8752SOL    HW227156   1.686   2.579   6.714
 8753SOL     OW27157   2.113   2.104   0.905
 8753SOL    HW127158   2.068   2.189   0.934
 8753SOL    HW227159   2.210   2.122   0.888
 8754SOL     OW27160   1.817   6.128   6.946
 8754SOL    HW127161   1.784   6.189   6.873
 8754SOL    HW227162   1.754   6.132   7.024
 8755SOL     OW27163   6.920   1.308   2.174
 8755SOL    HW127164   6.875   1.338   2.090
 8755SOL    HW227165   6.961   1.387   2.219
 8756SOL     OW27166   1.781   1.462   2.261
 8756SOL    HW127167   1.733   1.397   2.202
 8756SOL    HW227168   1.842   1.412   2.322
 8757SOL     OW27169   5.292   5.496   5.645
 8757SOL    HW127170   5.331   5.499   5.737
 8757SOL    HW227171   5.205   5.447   5.648
 8758SOL     OW27172   3.575   4.913   6.209
 8758SOL    HW127173   3.503   4.854   6.172
 8758SOL    HW227174   3.564   5.006   6.172
 8759SOL     OW27175   6.356   0.672   1.484
 8759SOL    HW127176   6.333   0.754   1.431
 8759SOL    HW227177   6.282   0.653   1.548
 8760SOL     OW27178   1.494   2.326   4.385
 8760SOL    HW127179   1.424   2.265   4.424
 8760SOL    HW227180   1.506   2.404   4.446
 8761SOL     OW27181   5.002   2.782   4.045
 8761SOL    HW127182   5.064   2.753   4.118
 8761SOL    HW227183   4.940   2.853   4.079
 8762SOL     OW27184   3.851   6.329   2.276
 8762SOL    HW127185   3.915   6.319   2.200
 8762SOL    HW227186   3.780   6.395   2.252
 8763SOL     OW27187   0.265   2.127   5.384
 8763SOL    HW127188   0.303   2.049   5.432
 8763SOL    HW227189   0.178   2.100   5.341
 8764SOL     OW27190   2.132   5.703   5.894
 8764SOL    HW127191   2.063   5.642   5.933
 8764SOL    HW227192   2.192   5.650   5.833
 8765SOL     OW27193   4.688   0.342   4.040
 8765SOL    HW127194   4.784   0.325   4.060
 8765SOL    HW227195   4.679   0.378   3.947
 8766SOL     OW27196   6.772   0.584   4.863
 8766SOL    HW127197   6.811   0.668   4.825
 8766SOL    HW227198   6.674   0.598   4.880
 8767SOL     OW27199   2.063   1.249   5.095
 8767SOL    HW127200   2.060   1.337   5.142
 8767SOL    HW227201   2.081   1.176   5.162
 8768SOL     OW27202   0.073   2.356   1.090
 8768SOL    HW127203   0.029   2.417   1.024
 8768SOL    HW227204   0.117   2.280   1.041
 8769SOL     OW27205   6.915   0.174   0.347
 8769SOL    HW127206   6.964   0.260   0.366
 8769SOL    HW227207   6.848   0.190   0.275
 8770SOL     OW27208   4.621   2.099   0.611
 8770SOL    HW127209   4.573   2.027   0.561
 8770SOL    HW227210   4.626   2.181   0.554
 8771SOL     OW27211   1.141   2.236   6.729
 8771SOL    HW127212   1.140   2.329   6.766
 8771SOL    HW227213   1.178   2.173   6.797
 8772SOL     OW27214   0.232   6.768   3.783
 8772SOL    HW127215   0.200   6.863   3.779
 8772SOL    HW227216   0.301   6.753   3.713
 8773SOL     OW27217   6.532   1.632   4.140
 8773SOL    HW127218   6.523   1.543   4.183
 8773SOL    HW227219   6.503   1.704   4.203
 8774SOL     OW27220   0.758   2.017   6.590
 8774SOL    HW127221   0.658   2.005   6.589
 8774SOL    HW227222   0.786   2.052   6.679
 8775SOL     OW27223   4.203   1.880   2.361
 8775SOL    HW127224   4.132   1.913   2.299
 8775SOL    HW227225   4.184   1.785   2.387
 8776SOL     OW27226   5.936   3.151   1.194
 8776SOL    HW127227   5.847   3.135   1.236
 8776SOL    HW227228   5.928   3.142   1.095
 8777SOL     OW27229   6.503   2.037   4.117
 8777SOL    HW127230   6.456   1.977   4.053
 8777SOL    HW227231   6.601   2.026   4.107
 8778SOL     OW27232   1.832   4.772   5.759
 8778SOL    HW127233   1.807   4.751   5.664
 8778SOL    HW227234   1.777   4.717   5.821
 8779SOL     OW27235   3.353   6.511   3.618
 8779SOL    HW127236   3.331   6.444   3.689
 8779SOL    HW227237   3.307   6.486   3.533
 8780SOL     OW27238   1.097   3.299   4.227
 8780SOL    HW127239   1.052   3.211   4.241
 8780SOL    HW227240   1.174   3.288   4.164
 8781SOL     OW27241   3.866   1.185   2.247
 8781SOL    HW127242   3.881   1.128   2.327
 8781SOL    HW227243   3.778   1.233   2.257
 8782SOL     OW27244   0.568   2.751   0.148
 8782SOL    HW127245   0.619   2.665   0.159
 8782SOL    HW227246   0.531   2.756   0.056
 8783SOL     OW27247   3.444   4.285   6.572
 8783SOL    HW127248   3.536   4.285   6.611
 8783SOL    HW227249   3.449   4.294   6.473
 8784SOL     OW27250   4.106   1.983   5.999
 8784SOL    HW127251   4.045   1.917   6.043
 8784SOL    HW227252   4.191   1.989   6.051
 8785SOL     OW27253   6.414   0.131   5.895
 8785SOL    HW127254   6.462   0.179   5.969
 8785SOL    HW227255   6.320   0.112   5.924
 8786SOL     OW27256   4.926   2.256   2.850
 8786SOL    HW127257   4.863   2.269   2.774
 8786SOL    HW227258   4.935   2.341   2.902
 8787SOL     OW27259   3.072   5.408   2.416
 8787SOL    HW127260   3.077   5.423   2.515
 8787SOL    HW227261   3.045   5.494   2.371
 8788SOL     OW27262   0.093   7.015   3.770
 8788SOL    HW127263   0.120   0.072   3.822
 8788SOL    HW227264   0.015   0.013   3.712
 8789SOL     OW27265   2.507   3.858   0.305
 8789SOL    HW127266   2.601   3.888   0.320
 8789SOL    HW227267   2.447   3.937   0.297
 8790SOL     OW27268   5.345   3.097   5.257
 8790SOL    HW127269   5.342   3.149   5.171
 8790SOL    HW227270   5.369   3.002   5.237
 8791SOL     OW27271   3.815   6.953   5.569
 8791SOL    HW127272   3.817   6.928   5.666
 8791SOL    HW227273   3.900   6.924   5.525
 8792SOL     OW27274   5.116   4.567   0.783
 8792SOL    HW127275   5.034   4.511   0.770
 8792SOL    HW227276   5.190   4.530   0.727
 8793SOL     OW27277   6.475   0.551   4.994
 8793SOL    HW127278   6.500   0.455   5.004
 8793SOL    HW227279   6.381   0.565   5.026
 8794SOL     OW27280   1.040   3.317   2.834
 8794SOL    HW127281   1.120   3.291   2.888
 8794SOL    HW227282   0.956   3.294   2.884
 8795SOL     OW27283   2.019   0.483   6.397
 8795SOL    HW127284   1.921   0.463   6.403
 8795SOL    HW227285   2.033   0.581   6.406
 8796SOL     OW27286   6.269   4.904   3.776
 8796SOL    HW127287   6.290   4.812   3.745
 8796SOL    HW227288   6.173   4.925   3.758
 8797SOL     OW27289   5.719   5.526   5.673
 8797SOL    HW127290   5.707   5.518   5.772
 8797SOL    HW227291   5.631   5.515   5.628
 8798SOL     OW27292   2.216   5.298   6.804
 8798SOL    HW127293   2.232   5.345   6.891
 8798SOL    HW227294   2.243   5.358   6.729
 8799SOL     OW27295   1.126   5.964   2.074
 8799SOL    HW127296   1.224   5.959   2.095
 8799SOL    HW227297   1.111   5.939   1.978
 8800SOL     OW27298   6.859   6.558   4.793
 8800SOL    HW127299   6.897   6.466   4.804
 8800SOL    HW227300   6.841   6.577   4.697
 8801SOL     OW27301   5.411   2.832   6.552
 8801SOL    HW127302   5.441   2.927   6.554
 8801SOL    HW227303   5.480   2.775   6.597
 8802SOL     OW27304   1.149   7.008   6.857
 8802SOL    HW127305   1.074   6.970   6.803
 8802SOL    HW227306   1.191   0.060   6.809
 8803SOL     OW27307   4.429   5.167   5.290
 8803SOL    HW127308   4.383   5.196   5.206
 8803SOL    HW227309   4.371   5.187   5.368
 8804SOL     OW27310   2.253   6.188   1.489
 8804SOL    HW127311   2.344   6.154   1.514
 8804SOL    HW227312   2.250   6.203   1.390
 8805SOL     OW27313   5.331   5.445   1.102
 8805SOL    HW127314   5.283   5.428   1.188
 8805SOL    HW227315   5.270   5.489   1.037
 8806SOL     OW27316   1.546   1.430   1.865
 8806SOL    HW127317   1.636   1.465   1.840
 8806SOL    HW227318   1.487   1.507   1.893
 8807SOL     OW27319   5.157   1.306   1.849
 8807SOL    HW127320   5.222   1.268   1.914
 8807SOL    HW227321   5.164   1.406   1.848
 8808SOL     OW27322   1.740   1.480   0.907
 8808SOL    HW127323   1.818   1.542   0.918
 8808SOL    HW227324   1.663   1.515   0.960
 8809SOL     OW27325   1.232   3.224   3.016
 8809SOL    HW127326   1.309   3.273   3.057
 8809SOL    HW227327   1.210   3.143   3.070
 8810SOL     OW27328   6.532   2.789   3.589
 8810SOL    HW127329   6.467   2.863   3.604
 8810SOL    HW227330   6.490   2.702   3.615
 8811SOL     OW27331   3.503   5.983   2.450
 8811SOL    HW127332   3.566   6.055   2.422
 8811SOL    HW227333   3.554   5.899   2.470
 8812SOL     OW27334   5.612   0.689   0.490
 8812SOL    HW127335   5.606   0.743   0.406
 8812SOL    HW227336   5.544   0.722   0.556
 8813SOL     OW27337   1.923   2.848   1.054
 8813SOL    HW127338   2.004   2.872   0.999
 8813SOL    HW227339   1.846   2.904   1.025
 8814SOL     OW27340   5.879   6.898   4.969
 8814SOL    HW127341   5.826   6.849   4.900
 8814SOL    HW227342   5.865   6.996   4.959
 8815SOL     OW27343   4.458   0.735   1.214
 8815SOL    HW127344   4.510   0.787   1.146
 8815SOL    HW227345   4.360   0.748   1.199
 8816SOL     OW27346   0.546   1.102   2.426
 8816SOL    HW127347   0.625   1.123   2.368
 8816SOL    HW227348   0.564   1.017   2.477
 8817SOL     OW27349   0.922   2.562   4.307
 8817SOL    HW127350   0.846   2.628   4.309
 8817SOL    HW227351   0.898   2.483   4.363
 8818SOL     OW27352   1.288   5.530   6.521
 8818SOL    HW127353   1.361   5.547   6.587
 8818SOL    HW227354   1.273   5.612   6.465
 8819SOL     OW27355   5.951   6.490   6.774
 8819SOL    HW127356   5.958   6.494   6.674
 8819SOL    HW227357   5.885   6.559   6.804
 8820SOL     OW27358   3.516   6.622   5.781
 8820SOL    HW127359   3.525   6.706   5.834
 8820SOL    HW227360   3.554   6.636   5.689
 8821SOL     OW27361   1.579   5.288   5.261
 8821SOL    HW127362   1.647   5.362   5.263
 8821SOL    HW227363   1.555   5.269   5.166
 8822SOL     OW27364   0.184   0.812   5.303
 8822SOL    HW127365   0.119   0.763   5.361
 8822SOL    HW227366   0.134   0.867   5.236
 8823SOL     OW27367   4.473   2.504   3.214
 8823SOL    HW127368   4.519   2.556   3.141
 8823SOL    HW227369   4.520   2.519   3.300
 8824SOL     OW27370   1.295   0.474   3.733
 8824SOL    HW127371   1.254   0.409   3.669
 8824SOL    HW227372   1.226   0.542   3.760
 8825SOL     OW27373   1.463   6.600   0.315
 8825SOL    HW127374   1.443   6.503   0.333
 8825SOL    HW227375   1.377   6.649   0.299
 8826SOL     OW27376   0.998   2.782   6.756
 8826SOL    HW127377   1.039   2.786   6.847
 8826SOL    HW227378   0.916   2.725   6.759
 8827SOL     OW27379   5.345   5.982   4.077
 8827SOL    HW127380   5.405   6.052   4.041
 8827SOL    HW227381   5.263   6.025   4.116
 8828SOL     OW27382   5.100   2.475   5.732
 8828SOL    HW127383   5.102   2.378   5.759
 8828SOL    HW227384   5.028   2.522   5.782
 8829SOL     OW27385   6.368   0.866   3.152
 8829SOL    HW127386   6.330   0.922   3.225
 8829SOL    HW227387   6.318   0.884   3.067
 8830SOL     OW27388   2.225   1.925   2.931
 8830SOL    HW127389   2.309   1.916   2.985
 8830SOL    HW227390   2.216   2.019   2.899
 8831SOL     OW27391   0.866   2.473   2.493
 8831SOL    HW127392   0.907   2.422   2.417
 8831SOL    HW227393   0.887   2.571   2.483
 8832SOL     OW27394   6.143   0.085   5.119
 8832SOL    HW127395   6.163   0.081   5.021
 8832SOL    HW227396   6.096   0.000   5.147
 8833SOL     OW27397   5.058   2.627   1.191
 8833SOL    HW127398   5.062   2.721   1.156
 8833SOL    HW227399   5.125   2.616   1.263
 8834SOL     OW27400   6.181   3.998   5.582
 8834SOL    HW127401   6.160   4.080   5.634
 8834SOL    HW227402   6.108   3.931   5.594
 8835SOL     OW27403   6.630   1.268   5.176
 8835SOL    HW127404   6.648   1.354   5.128
 8835SOL    HW227405   6.532   1.251   5.180
 8836SOL     OW27406   4.350   1.555   0.157
 8836SOL    HW127407   4.292   1.625   0.199
 8836SOL    HW227408   4.378   1.489   0.227
 8837SOL     OW27409   6.071   5.294   0.465
 8837SOL    HW127410   6.157   5.246   0.485
 8837SOL    HW227411   5.995   5.245   0.509
 8838SOL     OW27412   0.783   3.354   1.737
 8838SOL    HW127413   0.882   3.372   1.737
 8838SOL    HW227414   0.765   3.269   1.687
 8839SOL     OW27415   4.703   4.651   1.691
 8839SOL    HW127416   4.674   4.595   1.768
 8839SOL    HW227417   4.685   4.747   1.710
 8840SOL     OW27418   0.286   6.947   1.443
 8840SOL    HW127419   0.192   6.930   1.414
 8840SOL    HW227420   0.308   6.886   1.520
 8841SOL     OW27421   4.904   2.001   0.210
 8841SOL    HW127422   4.871   2.026   0.119
 8841SOL    HW227423   4.942   1.909   0.207
 8842SOL     OW27424   3.780   2.948   3.706
 8842SOL    HW127425   3.728   3.033   3.703
 8842SOL    HW227426   3.811   2.932   3.800
 8843SOL     OW27427   2.461   6.256   4.986
 8843SOL    HW127428   2.408   6.227   5.066
 8843SOL    HW227429   2.441   6.352   4.965
 8844SOL     OW27430   3.947   2.782   5.382
 8844SOL    HW127431   4.017   2.711   5.372
 8844SOL    HW227432   3.974   2.863   5.330
 8845SOL     OW27433   0.444   3.781   2.599
 8845SOL    HW127434   0.474   3.687   2.618
 8845SOL    HW227435   0.498   3.819   2.524
 8846SOL     OW27436   5.643   5.369   3.985
 8846SOL    HW127437   5.669   5.300   4.053
 8846SOL    HW227438   5.725   5.419   3.956
 8847SOL     OW27439   1.111   3.230   3.465
 8847SOL    HW127440   1.202   3.210   3.502
 8847SOL    HW227441   1.100   3.328   3.453
 8848SOL     OW27442   6.008   2.530   1.330
 8848SOL    HW127443   5.915   2.563   1.312
 8848SOL    HW227444   6.064   2.545   1.248
 8849SOL     OW27445   3.865   5.373   4.660
 8849SOL    HW127446   3.871   5.379   4.759
 8849SOL    HW227447   3.803   5.444   4.626
 8850SOL     OW27448   4.751   1.919   1.115
 8850SOL    HW127449   4.763   1.820   1.125
 8850SOL    HW227450   4.727   1.939   1.020
 8851SOL     OW27451   6.605   5.037   3.127
 8851SOL    HW127452   6.704   5.033   3.110
 8851SOL    HW227453   6.560   4.961   3.080
 8852SOL     OW27454   5.646   4.345   4.813
 8852SOL    HW127455   5.700   4.317   4.893
 8852SOL    HW227456   5.551   4.358   4.841
 8853SOL     OW27457   4.462   1.651   4.127
 8853SOL    HW127458   4.446   1.743   4.164
 8853SOL    HW227459   4.376   1.613   4.093
 8854SOL     OW27460   2.683   0.414   6.814
 8854SOL    HW127461   2.653   0.322   6.790
 8854SOL    HW227462   2.607   0.465   6.855
 8855SOL     OW27463   6.894   4.485   5.783
 8855SOL    HW127464   6.896   4.491   5.683
 8855SOL    HW227465   6.815   4.535   5.818
 8856SOL     OW27466   5.142   1.894   5.774
 8856SOL    HW127467   5.151   1.948   5.691
 8856SOL    HW227468   5.177   1.801   5.757
 8857SOL     OW27469   1.445   2.869   4.602
 8857SOL    HW127470   1.531   2.879   4.650
 8857SOL    HW227471   1.376   2.830   4.663
 8858SOL     OW27472   1.376   3.253   5.476
 8858SOL    HW127473   1.402   3.267   5.572
 8858SOL    HW227474   1.287   3.297   5.459
 8859SOL     OW27475   3.013   5.352   4.704
 8859SOL    HW127476   3.005   5.376   4.801
 8859SOL    HW227477   3.076   5.275   4.694
 8860SOL     OW27478   2.403   0.690   1.852
 8860SOL    HW127479   2.463   0.714   1.776
 8860SOL    HW227480   2.417   0.755   1.927
 8861SOL     OW27481   2.278   1.171   0.086
 8861SOL    HW127482   2.313   1.078   0.099
 8861SOL    HW227483   2.193   1.182   0.138
 8862SOL     OW27484   0.298   3.624   3.759
 8862SOL    HW127485   0.363   3.595   3.689
 8862SOL    HW227486   0.215   3.568   3.753
 8863SOL     OW27487   1.590   5.713   5.255
 8863SOL    HW127488   1.562   5.731   5.161
 8863SOL    HW227489   1.511   5.721   5.316
 8864SOL     OW27490   2.172   4.154   5.197
 8864SOL    HW127491   2.126   4.089   5.258
 8864SOL    HW227492   2.229   4.104   5.133
 8865SOL     OW27493   3.140   1.968   5.904
 8865SOL    HW127494   3.150   1.910   5.823
 8865SOL    HW227495   3.162   2.063   5.879
 8866SOL     OW27496   5.402   0.539   5.440
 8866SOL    HW127497   5.463   0.498   5.508
 8866SOL    HW227498   5.328   0.587   5.486
 8867SOL     OW27499   5.475   0.873   2.769
 8867SOL    HW127500   5.436   0.862   2.860
 8867SOL    HW227501   5.436   0.805   2.706
 8868SOL     OW27502   6.071   2.974   0.359
 8868SOL    HW127503   6.161   2.931   0.364
 8868SOL    HW227504   6.028   2.952   0.271
 8869SOL     OW27505   1.706   1.716   4.106
 8869SOL    HW127506   1.715   1.617   4.098
 8869SOL    HW227507   1.796   1.757   4.120
 8870SOL     OW27508   3.699   6.392   1.657
 8870SOL    HW127509   3.780   6.434   1.698
 8870SOL    HW227510   3.728   6.325   1.589
 8871SOL     OW27511   0.958   2.288   3.936
 8871SOL    HW127512   0.996   2.339   4.014
 8871SOL    HW227513   0.942   2.351   3.860
 8872SOL     OW27514   1.148   1.171   2.569
 8872SOL    HW127515   1.218   1.151   2.500
 8872SOL    HW227516   1.077   1.230   2.528
 8873SOL     OW27517   0.445   5.569   4.747
 8873SOL    HW127518   0.381   5.645   4.736
 8873SOL    HW227519   0.397   5.490   4.784
 8874SOL     OW27520   1.155   0.983   5.542
 8874SOL    HW127521   1.180   1.069   5.586
 8874SOL    HW227522   1.213   0.909   5.576
 8875SOL     OW27523   1.331   1.032   4.105
 8875SOL    HW127524   1.429   1.050   4.096
 8875SOL    HW227525   1.307   0.951   4.051
 8876SOL     OW27526   2.882   1.443   4.637
 8876SOL    HW127527   2.827   1.524   4.616
 8876SOL    HW227528   2.828   1.361   4.619
 8877SOL     OW27529   2.488   6.562   5.571
 8877SOL    HW127530   2.572   6.616   5.578
 8877SOL    HW227531   2.417   6.602   5.629
 8878SOL     OW27532   5.404   4.345   5.723
 8878SOL    HW127533   5.321   4.375   5.676
 8878SOL    HW227534   5.408   4.245   5.723
 8879SOL     OW27535   6.260   5.791   4.409
 8879SOL    HW127536   6.182   5.781   4.471
 8879SOL    HW227537   6.267   5.887   4.381
 8880SOL     OW27538   1.390   6.889   4.932
 8880SOL    HW127539   1.298   6.903   4.896
 8880SOL    HW227540   1.409   6.958   5.002
 8881SOL     OW27541   6.759   1.605   2.174
 8881SOL    HW127542   6.741   1.628   2.270
 8881SOL    HW227543   6.682   1.553   2.137
 8882SOL     OW27544   5.171   1.573   0.303
 8882SOL    HW127545   5.258   1.599   0.345
 8882SOL    HW227546   5.099   1.571   0.372
 8883SOL     OW27547   6.073   1.328   5.300
 8883SOL    HW127548   6.157   1.378   5.281
 8883SOL    HW227549   6.028   1.305   5.214
 8884SOL     OW27550   0.481   1.454   6.566
 8884SOL    HW127551   0.469   1.504   6.480
 8884SOL    HW227552   0.461   1.357   6.551
 8885SOL     OW27553   6.072   4.117   1.849
 8885SOL    HW127554   6.157   4.110   1.797
 8885SOL    HW227555   6.012   4.040   1.826
 8886SOL     OW27556   3.034   6.050   6.093
 8886SOL    HW127557   2.953   6.085   6.139
 8886SOL    HW227558   3.099   6.124   6.080
 8887SOL     OW27559   1.665   1.040   0.554
 8887SOL    HW127560   1.621   0.969   0.499
 8887SOL    HW227561   1.720   0.996   0.627
 8888SOL     OW27562   1.885   2.191   3.143
 8888SOL    HW127563   1.938   2.251   3.203
 8888SOL    HW227564   1.821   2.245   3.088
 8889SOL     OW27565   3.253   0.910   5.572
 8889SOL    HW127566   3.155   0.916   5.590
 8889SOL    HW227567   3.299   0.867   5.650
 8890SOL     OW27568   6.128   5.619   3.662
 8890SOL    HW127569   6.028   5.611   3.653
 8890SOL    HW227570   6.171   5.589   3.577
 8891SOL     OW27571   3.383   2.041   6.320
 8891SOL    HW127572   3.345   2.118   6.372
 8891SOL    HW227573   3.451   2.075   6.256
 8892SOL     OW27574   0.807   0.475   3.060
 8892SOL    HW127575   0.854   0.477   3.148
 8892SOL    HW227576   0.869   0.509   2.989
 8893SOL     OW27577   0.013   0.631   0.873
 8893SOL    HW127578   7.005   0.609   0.781
 8893SOL    HW227579   0.104   0.673   0.867
 8894SOL     OW27580   5.162   2.534   5.499
 8894SOL    HW127581   5.176   2.446   5.453
 8894SOL    HW227582   5.149   2.519   5.597
 8895SOL     OW27583   1.306   1.193   3.324
 8895SOL    HW127584   1.220   1.208   3.374
 8895SOL    HW227585   1.356   1.117   3.366
 8896SOL     OW27586   1.586   3.923   4.416
 8896SOL    HW127587   1.642   3.997   4.454
 8896SOL    HW227588   1.491   3.935   4.446
 8897SOL     OW27589   1.087   2.400   1.849
 8897SOL    HW127590   1.118   2.458   1.773
 8897SOL    HW227591   0.987   2.397   1.850
 8898SOL     OW27592   0.525   2.327   5.469
 8898SOL    HW127593   0.555   2.418   5.440
 8898SOL    HW227594   0.442   2.335   5.524
 8899SOL     OW27595   4.169   6.690   3.324
 8899SOL    HW127596   4.201   6.784   3.336
 8899SOL    HW227597   4.094   6.688   3.258
 8900SOL     OW27598   6.399   1.770   3.551
 8900SOL    HW127599   6.374   1.753   3.646
 8900SOL    HW227600   6.482   1.720   3.529
 8901SOL     OW27601   0.886   0.000   2.198
 8901SOL    HW127602   0.866   0.065   2.124
 8901SOL    HW227603   0.801   6.984   2.232
 8902SOL     OW27604   4.028   6.596   5.902
 8902SOL    HW127605   4.010   6.567   5.808
 8902SOL    HW227606   3.954   6.656   5.933
 8903SOL     OW27607   6.706   1.124   3.176
 8903SOL    HW127608   6.639   1.193   3.149
 8903SOL    HW227609   6.736   1.074   3.096
 8904SOL     OW27610   2.131   4.035   3.714
 8904SOL    HW127611   2.121   4.080   3.625
 8904SOL    HW227612   2.168   4.101   3.780
 8905SOL     OW27613   2.240   4.501   4.776
 8905SOL    HW127614   2.337   4.516   4.760
 8905SOL    HW227615   2.223   4.404   4.793
 8906SOL     OW27616   1.588   4.918   4.119
 8906SOL    HW127617   1.665   4.867   4.157
 8906SOL    HW227618   1.513   4.855   4.099
 8907SOL     OW27619   3.763   2.995   6.452
 8907SOL    HW127620   3.693   3.063   6.471
 8907SOL    HW227621   3.765   2.927   6.526
 8908SOL     OW27622   0.446   3.536   2.957
 8908SOL    HW127623   0.542   3.562   2.946
 8908SOL    HW227624   0.407   3.583   3.036
 8909SOL     OW27625   3.560   6.635   4.806
 8909SOL    HW127626   3.605   6.593   4.885
 8909SOL    HW227627   3.629   6.658   4.737
 8910SOL     OW27628   4.550   2.805   6.769
 8910SOL    HW127629   4.474   2.865   6.797
 8910SOL    HW227630   4.515   2.712   6.756
 8911SOL     OW27631   5.293   3.486   4.387
 8911SOL    HW127632   5.277   3.483   4.486
 8911SOL    HW227633   5.295   3.581   4.356
 8912SOL     OW27634   3.987   0.621   0.530
 8912SOL    HW127635   4.063   0.592   0.588
 8912SOL    HW227636   3.963   0.548   0.467
 8913SOL     OW27637   4.340   3.756   1.329
 8913SOL    HW127638   4.373   3.772   1.423
 8913SOL    HW227639   4.419   3.756   1.267
 8914SOL     OW27640   5.443   3.795   3.342
 8914SOL    HW127641   5.412   3.708   3.382
 8914SOL    HW227642   5.365   3.845   3.305
 8915SOL     OW27643   1.553   5.247   2.072
 8915SOL    HW127644   1.563   5.279   2.166
 8915SOL    HW227645   1.629   5.187   2.048
 8916SOL     OW27646   5.680   3.057   1.267
 8916SOL    HW127647   5.664   2.993   1.342
 8916SOL    HW227648   5.606   3.050   1.200
 8917SOL     OW27649   5.800   4.248   6.125
 8917SOL    HW127650   5.730   4.305   6.083
 8917SOL    HW227651   5.855   4.205   6.053
 8918SOL     OW27652   5.166   4.487   5.625
 8918SOL    HW127653   5.110   4.434   5.562
 8918SOL    HW227654   5.108   4.548   5.679
 8919SOL     OW27655   2.013   3.246   1.023
 8919SOL    HW127656   2.031   3.325   1.081
 8919SOL    HW227657   1.947   3.185   1.068
 8920SOL     OW27658   6.021   5.833   5.686
 8920SOL    HW127659   6.039   5.749   5.633
 8920SOL    HW227660   5.992   5.808   5.778
 8921SOL     OW27661   0.625   5.452   3.276
 8921SOL    HW127662   0.665   5.366   3.245
 8921SOL    HW227663   0.659   5.527   3.219
 8922SOL     OW27664   0.494   2.504   0.350
 8922SOL    HW127665   0.509   2.407   0.369
 8922SOL    HW227666   0.538   2.528   0.263
 8923SOL     OW27667   2.064   5.039   3.895
 8923SOL    HW127668   2.059   4.942   3.920
 8923SOL    HW227669   2.127   5.086   3.957
 8924SOL     OW27670   2.117   6.424   4.544
 8924SOL    HW127671   2.020   6.441   4.561
 8924SOL    HW227672   2.129   6.332   4.508
 8925SOL     OW27673   4.536   5.668   0.861
 8925SOL    HW127674   4.602   5.697   0.930
 8925SOL    HW227675   4.445   5.663   0.902
 8926SOL     OW27676   5.626   6.773   0.525
 8926SOL    HW127677   5.664   6.829   0.451
 8926SOL    HW227678   5.554   6.714   0.488
 8927SOL     OW27679   3.025   1.940   4.882
 8927SOL    HW127680   2.933   1.958   4.848
 8927SOL    HW227681   3.084   2.018   4.861
 8928SOL     OW27682   2.096   0.169   5.284
 8928SOL    HW127683   2.140   0.210   5.364
 8928SOL    HW227684   2.163   0.159   5.211
 8929SOL     OW27685   4.961   4.607   3.165
 8929SOL    HW127686   4.980   4.512   3.187
 8929SOL    HW227687   5.047   4.658   3.161
 8930SOL     OW27688   0.276   5.576   5.410
 8930SOL    HW127689   0.374   5.575   5.425
 8930SOL    HW227690   0.252   5.507   5.341
 8931SOL     OW27691   5.094   0.766   1.857
 8931SOL    HW127692   5.161   0.833   1.825
 8931SOL    HW227693   5.063   0.792   1.949
 8932SOL     OW27694   4.087   0.869   6.730
 8932SOL    HW127695   4.012   0.860   6.664
 8932SOL    HW227696   4.051   0.855   6.822
 8933SOL     OW27697   1.984   0.386   5.769
 8933SOL    HW127698   1.939   0.467   5.729
 8933SOL    HW227699   1.920   0.309   5.766
 8934SOL     OW27700   2.877   6.383   3.723
 8934SOL    HW127701   2.884   6.364   3.821
 8934SOL    HW227702   2.865   6.298   3.673
 8935SOL     OW27703   5.500   2.113   2.081
 8935SOL    HW127704   5.514   2.147   1.988
 8935SOL    HW227705   5.490   2.191   2.143
 8936SOL     OW27706   0.608   3.872   2.395
 8936SOL    HW127707   0.599   3.958   2.345
 8936SOL    HW227708   0.662   3.807   2.341
 8937SOL     OW27709   4.095   6.007   5.453
 8937SOL    HW127710   4.088   6.097   5.410
 8937SOL    HW227711   4.005   5.965   5.458
 8938SOL     OW27712   4.883   6.243   2.563
 8938SOL    HW127713   4.794   6.282   2.542
 8938SOL    HW227714   4.928   6.297   2.635
 8939SOL     OW27715   6.639   2.885   5.733
 8939SOL    HW127716   6.566   2.936   5.688
 8939SOL    HW227717   6.605   2.796   5.762
 8940SOL     OW27718   6.403   3.651   2.689
 8940SOL    HW127719   6.430   3.739   2.648
 8940SOL    HW227720   6.305   3.651   2.706
 8941SOL     OW27721   5.661   2.493   3.486
 8941SOL    HW127722   5.743   2.542   3.457
 8941SOL    HW227723   5.654   2.407   3.434
 8942SOL     OW27724   5.103   6.022   4.434
 8942SOL    HW127725   5.098   6.024   4.334
 8942SOL    HW227726   5.174   6.085   4.465
 8943SOL     OW27727   4.467   3.714   0.154
 8943SOL    HW127728   4.398   3.766   0.105
 8943SOL    HW227729   4.454   3.616   0.136
 8944SOL     OW27730   4.598   5.861   5.596
 8944SOL    HW127731   4.507   5.902   5.589
 8944SOL    HW227732   4.634   5.876   5.688
 8945SOL     OW27733   6.675   4.256   2.124
 8945SOL    HW127734   6.639   4.194   2.054
 8945SOL    HW227735   6.751   4.212   2.171
 8946SOL     OW27736   3.751   2.096   3.589
 8946SOL    HW127737   3.672   2.126   3.536
 8946SOL    HW227738   3.724   2.023   3.652
 8947SOL     OW27739   3.282   5.260   0.775
 8947SOL    HW127740   3.187   5.233   0.765
 8947SOL    HW227741   3.332   5.188   0.823
 8948SOL     OW27742   6.049   6.924   3.194
 8948SOL    HW127743   6.037   6.913   3.095
 8948SOL    HW227744   6.074   7.019   3.215
 8949SOL     OW27745   4.195   6.357   0.934
 8949SOL    HW127746   4.212   6.281   0.997
 8949SOL    HW227747   4.167   6.321   0.845
 8950SOL     OW27748   3.501   3.635   3.831
 8950SOL    HW127749   3.410   3.602   3.803
 8950SOL    HW227750   3.547   3.563   3.883
 8951SOL     OW27751   1.067   1.220   3.459
 8951SOL    HW127752   1.060   1.319   3.471
 8951SOL    HW227753   1.066   1.175   3.548
 8952SOL     OW27754   1.479   4.089   4.181
 8952SOL    HW127755   1.565   4.042   4.163
 8952SOL    HW227756   1.478   4.121   4.276
 8953SOL     OW27757   1.858   5.750   0.357
 8953SOL    HW127758   1.868   5.842   0.394
 8953SOL    HW227759   1.947   5.705   0.352
 8954SOL     OW27760   2.221   4.193   5.575
 8954SOL    HW127761   2.158   4.270   5.576
 8954SOL    HW227762   2.277   4.196   5.492
 8955SOL     OW27763   6.415   2.451   6.051
 8955SOL    HW127764   6.386   2.395   5.973
 8955SOL    HW227765   6.509   2.428   6.075
 8956SOL     OW27766   0.944   6.440   0.983
 8956SOL    HW127767   1.008   6.383   1.035
 8956SOL    HW227768   0.988   6.527   0.960
 8957SOL     OW27769   0.373   0.561   3.950
 8957SOL    HW127770   0.311   0.519   4.016
 8957SOL    HW227771   0.337   0.650   3.923
 8958SOL     OW27772   6.807   2.915   4.570
 8958SOL    HW127773   6.777   2.936   4.663
 8958SOL    HW227774   6.902   2.882   4.572
 8959SOL     OW27775   5.638   1.359   3.725
 8959SOL    HW127776   5.575   1.437   3.720
 8959SOL    HW227777   5.643   1.315   3.636
 8960SOL     OW27778   3.796   5.869   1.936
 8960SOL    HW127779   3.809   5.886   2.033
 8960SOL    HW227780   3.718   5.924   1.903
 8961SOL     OW27781   2.406   2.525   5.290
 8961SOL    HW127782   2.420   2.487   5.381
 8961SOL    HW227783   2.333   2.475   5.243
 8962SOL     OW27784   6.454   6.029   0.810
 8962SOL    HW127785   6.438   6.092   0.734
 8962SOL    HW227786   6.525   5.963   0.785
 8963SOL     OW27787   2.480   5.229   5.746
 8963SOL    HW127788   2.486   5.142   5.698
 8963SOL    HW227789   2.416   5.221   5.822
 8964SOL     OW27790   0.948   3.649   3.880
 8964SOL    HW127791   0.977   3.557   3.905
 8964SOL    HW227792   1.012   3.716   3.917
 8965SOL     OW27793   3.178   6.412   6.485
 8965SOL    HW127794   3.149   6.374   6.572
 8965SOL    HW227795   3.245   6.351   6.443
 8966SOL     OW27796   4.944   6.631   5.274
 8966SOL    HW127797   5.024   6.601   5.222
 8966SOL    HW227798   4.952   6.600   5.368
 8967SOL     OW27799   1.999   0.318   2.970
 8967SOL    HW127800   1.993   0.219   2.985
 8967SOL    HW227801   1.938   0.344   2.895
 8968SOL     OW27802   2.553   5.648   2.347
 8968SOL    HW127803   2.601   5.586   2.408
 8968SOL    HW227804   2.475   5.689   2.395
 8969SOL     OW27805   6.662   1.249   1.229
 8969SOL    HW127806   6.612   1.336   1.223
 8969SOL    HW227807   6.618   1.182   1.169
 8970SOL     OW27808   2.475   2.330   4.816
 8970SOL    HW127809   2.516   2.399   4.876
 8970SOL    HW227810   2.503   2.347   4.722
 8971SOL     OW27811   3.292   6.057   1.136
 8971SOL    HW127812   3.235   6.022   1.210
 8971SOL    HW227813   3.384   6.019   1.145
 8972SOL     OW27814   6.646   3.790   6.334
 8972SOL    HW127815   6.689   3.880   6.342
 8972SOL    HW227816   6.660   3.738   6.419
 8973SOL     OW27817   2.807   1.977   3.481
 8973SOL    HW127818   2.883   1.955   3.419
 8973SOL    HW227819   2.721   1.952   3.437
 8974SOL     OW27820   0.853   5.027   5.862
 8974SOL    HW127821   0.767   5.019   5.914
 8974SOL    HW227822   0.860   4.950   5.799
 8975SOL     OW27823   0.946   3.832   6.391
 8975SOL    HW127824   0.977   3.820   6.485
 8975SOL    HW227825   1.020   3.872   6.336
 8976SOL     OW27826   5.570   6.758   1.543
 8976SOL    HW127827   5.549   6.662   1.529
 8976SOL    HW227828   5.500   6.800   1.601
 8977SOL     OW27829   0.484   5.360   6.323
 8977SOL    HW127830   0.477   5.305   6.406
 8977SOL    HW227831   0.562   5.423   6.332
 8978SOL     OW27832   6.775   4.950   4.838
 8978SOL    HW127833   6.691   4.998   4.862
 8978SOL    HW227834   6.794   4.878   4.906
 8979SOL     OW27835   2.096   4.439   2.984
 8979SOL    HW127836   2.043   4.460   2.902
 8979SOL    HW227837   2.167   4.508   2.996
 8980SOL     OW27838   5.170   0.989   0.417
 8980SOL    HW127839   5.143   1.018   0.325
 8980SOL    HW227840   5.139   0.895   0.433
 8981SOL     OW27841   3.766   2.186   6.880
 8981SOL    HW127842   3.684   2.218   6.835
 8981SOL    HW227843   3.771   2.086   6.873
 8982SOL     OW27844   0.639   0.616   3.248
 8982SOL    HW127845   0.694   0.567   3.180
 8982SOL    HW227846   0.686   0.615   3.336
 8983SOL     OW27847   1.295   6.359   2.242
 8983SOL    HW127848   1.270   6.456   2.244
 8983SOL    HW227849   1.311   6.327   2.335
 8984SOL     OW27850   5.824   1.026   3.703
 8984SOL    HW127851   5.865   1.096   3.762
 8984SOL    HW227852   5.837   0.936   3.744
 8985SOL     OW27853   5.049   1.064   0.670
 8985SOL    HW127854   5.059   1.000   0.594
 8985SOL    HW227855   4.958   1.052   0.711
 8986SOL     OW27856   1.029   0.340   6.349
 8986SOL    HW127857   1.079   0.256   6.325
 8986SOL    HW227858   1.090   0.400   6.402
 8987SOL     OW27859   3.269   6.810   2.955
 8987SOL    HW127860   3.361   6.776   2.939
 8987SOL    HW227861   3.218   6.745   3.012
 8988SOL     OW27862   2.335   6.629   0.958
 8988SOL    HW127863   2.277   6.685   0.898
 8988SOL    HW227864   2.278   6.562   1.006
 8989SOL     OW27865   6.294   1.567   2.566
 8989SOL    HW127866   6.365   1.632   2.594
 8989SOL    HW227867   6.214   1.618   2.532
 8990SOL     OW27868   3.904   1.861   3.055
 8990SOL    HW127869   3.824   1.866   3.114
 8990SOL    HW227870   3.959   1.944   3.066
 8991SOL     OW27871   1.777   1.799   0.903
 8991SOL    HW127872   1.782   1.779   0.805
 8991SOL    HW227873   1.861   1.844   0.931
 8992SOL     OW27874   0.950   5.532   5.318
 8992SOL    HW127875   1.042   5.538   5.279
 8992SOL    HW227876   0.940   5.600   5.391
 8993SOL     OW27877   5.504   4.372   3.485
 8993SOL    HW127878   5.431   4.426   3.527
 8993SOL    HW227879   5.464   4.310   3.418
 8994SOL     OW27880   1.415   6.412   2.709
 8994SOL    HW127881   1.402   6.380   2.802
 8994SOL    HW227882   1.326   6.438   2.670
 8995SOL     OW27883   1.745   4.047   3.809
 8995SOL    HW127884   1.776   3.956   3.834
 8995SOL    HW227885   1.797   4.116   3.859
 8996SOL     OW27886   2.811   4.112   1.721
 8996SOL    HW127887   2.848   4.132   1.812
 8996SOL    HW227888   2.855   4.029   1.685
 8997SOL     OW27889   4.025   1.609   4.480
 8997SOL    HW127890   4.048   1.512   4.468
 8997SOL    HW227891   3.933   1.617   4.518
 8998SOL     OW27892   1.148   1.159   6.326
 8998SOL    HW127893   1.174   1.078   6.378
 8998SOL    HW227894   1.190   1.240   6.367
 8999SOL     OW27895   6.189   2.961   5.344
 8999SOL    HW127896   6.225   2.869   5.330
 8999SOL    HW227897   6.265   3.025   5.352
 9000SOL     OW27898   4.431   4.968   1.357
 9000SOL    HW127899   4.348   4.983   1.303
 9000SOL    HW227900   4.509   5.012   1.313
 9001SOL     OW27901   0.759   3.377   4.074
 9001SOL    HW127902   0.853   3.407   4.057
 9001SOL    HW227903   0.706   3.451   4.116
 9002SOL     OW27904   4.847   2.832   6.422
 9002SOL    HW127905   4.768   2.874   6.378
 9002SOL    HW227906   4.829   2.735   6.437
 9003SOL     OW27907   0.689   3.789   0.165
 9003SOL    HW127908   0.727   3.812   0.254
 9003SOL    HW227909   0.590   3.777   0.172
 9004SOL     OW27910   5.116   5.693   0.178
 9004SOL    HW127911   5.192   5.746   0.141
 9004SOL    HW227912   5.151   5.625   0.242
 9005SOL     OW27913   4.649   4.295   3.900
 9005SOL    HW127914   4.570   4.356   3.901
 9005SOL    HW227915   4.664   4.258   3.991
 9006SOL     OW27916   3.346   6.288   2.339
 9006SOL    HW127917   3.314   6.375   2.302
 9006SOL    HW227918   3.292   6.264   2.420
 9007SOL     OW27919   1.905   0.037   5.424
 9007SOL    HW127920   1.977   0.081   5.370
 9007SOL    HW227921   1.860   6.992   5.369
 9008SOL     OW27922   0.138   4.766   1.501
 9008SOL    HW127923   0.161   4.680   1.455
 9008SOL    HW227924   0.115   4.835   1.432
 9009SOL     OW27925   3.802   0.129   0.175
 9009SOL    HW127926   3.896   0.147   0.203
 9009SOL    HW227927   3.770   0.044   0.217
 9010SOL     OW27928   6.982   6.294   4.833
 9010SOL    HW127929   6.943   6.213   4.788
 9010SOL    HW227930   6.936   6.308   4.921
 9011SOL     OW27931   4.650   2.649   2.493
 9011SOL    HW127932   4.714   2.641   2.416
 9011SOL    HW227933   4.564   2.688   2.460
 9012SOL     OW27934   3.833   5.083   2.149
 9012SOL    HW127935   3.757   5.123   2.098
 9012SOL    HW227936   3.799   5.038   2.231
 9013SOL     OW27937   3.447   6.653   1.411
 9013SOL    HW127938   3.439   6.570   1.356
 9013SOL    HW227939   3.375   6.717   1.386
 9014SOL     OW27940   2.035   1.666   1.938
 9014SOL    HW127941   2.052   1.707   2.027
 9014SOL    HW227942   2.029   1.738   1.869
 9015SOL     OW27943   6.216   2.200   4.667
 9015SOL    HW127944   6.257   2.268   4.727
 9015SOL    HW227945   6.285   2.165   4.603
 9016SOL     OW27946   0.329   4.712   6.572
 9016SOL    HW127947   0.397   4.733   6.642
 9016SOL    HW227948   0.251   4.774   6.582
 9017SOL     OW27949   6.142   2.504   2.382
 9017SOL    HW127950   6.117   2.436   2.314
 9017SOL    HW227951   6.218   2.560   2.348
 9018SOL     OW27952   5.305   2.049   6.772
 9018SOL    HW127953   5.344   2.139   6.753
 9018SOL    HW227954   5.234   2.028   6.705
 9019SOL     OW27955   1.898   6.017   0.413
 9019SOL    HW127956   1.992   6.039   0.439
 9019SOL    HW227957   1.864   6.085   0.347
 9020SOL     OW27958   0.648   5.127   4.687
 9020SOL    HW127959   0.696   5.190   4.627
 9020SOL    HW227960   0.648   5.164   4.780
 9021SOL     OW27961   6.997   5.145   4.761
 9021SOL    HW127962   6.932   5.072   4.782
 9021SOL    HW227963   6.963   5.198   4.683
 9022SOL     OW27964   1.071   6.991   5.891
 9022SOL    HW127965   1.014   7.011   5.971
 9022SOL    HW227966   1.131   6.914   5.911
 9023SOL     OW27967   4.017   3.870   4.051
 9023SOL    HW127968   4.046   3.868   3.956
 9023SOL    HW227969   4.016   3.777   4.088
 9024SOL     OW27970   1.413   0.114   0.426
 9024SOL    HW127971   1.368   0.186   0.373
 9024SOL    HW227972   1.497   0.149   0.466
 9025SOL     OW27973   0.332   2.584   0.875
 9025SOL    HW127974   0.277   2.594   0.958
 9025SOL    HW227975   0.312   2.660   0.813
 9026SOL     OW27976   2.696   4.419   5.805
 9026SOL    HW127977   2.627   4.486   5.832
 9026SOL    HW227978   2.772   4.466   5.760
 9027SOL     OW27979   0.882   3.362   2.132
 9027SOL    HW127980   0.931   3.421   2.068
 9027SOL    HW227981   0.805   3.319   2.086
 9028SOL     OW27982   1.556   4.117   4.736
 9028SOL    HW127983   1.495   4.187   4.700
 9028SOL    HW227984   1.628   4.160   4.791
 9029SOL     OW27985   5.122   5.229   2.867
 9029SOL    HW127986   5.109   5.279   2.952
 9029SOL    HW227987   5.193   5.160   2.880
 9030SOL     OW27988   4.941   2.645   2.621
 9030SOL    HW127989   5.039   2.644   2.644
 9030SOL    HW227990   4.888   2.665   2.703
 9031SOL     OW27991   2.807   0.936   2.464
 9031SOL    HW127992   2.807   1.035   2.452
 9031SOL    HW227993   2.771   0.892   2.382
 9032SOL     OW27994   0.053   3.922   2.889
 9032SOL    HW127995   0.096   3.928   2.799
 9032SOL    HW227996   0.074   3.834   2.931
 9033SOL     OW27997   0.911   2.750   2.446
 9033SOL    HW127998   1.006   2.752   2.477
 9033SOL    HW227999   0.866   2.836   2.472
 9034SOL     OW28000   0.776   6.860   0.346
 9034SOL    HW128001   0.697   6.921   0.341
 9034SOL    HW228002   0.793   6.835   0.441
 9035SOL     OW28003   5.938   1.478   4.683
 9035SOL    HW128004   5.974   1.484   4.590
 9035SOL    HW228005   5.909   1.569   4.714
 9036SOL     OW28006   0.276   1.381   4.387
 9036SOL    HW128007   0.372   1.374   4.361
 9036SOL    HW228008   0.254   1.476   4.410
 9037SOL     OW28009   2.733   4.210   6.139
 9037SOL    HW128010   2.760   4.117   6.163
 9037SOL    HW228011   2.645   4.232   6.182
 9038SOL     OW28012   3.784   5.955   5.688
 9038SOL    HW128013   3.814   5.936   5.781
 9038SOL    HW228014   3.684   5.966   5.687
 9039SOL     OW28015   2.599   4.803   0.445
 9039SOL    HW128016   2.555   4.779   0.358
 9039SOL    HW228017   2.554   4.756   0.520
 9040SOL     OW28018   3.545   1.586   2.440
 9040SOL    HW128019   3.602   1.572   2.359
 9040SOL    HW228020   3.528   1.684   2.452
 9041SOL     OW28021   2.310   2.720   5.081
 9041SOL    HW128022   2.298   2.696   5.178
 9041SOL    HW228023   2.336   2.816   5.073
 9042SOL     OW28024   1.550   5.051   2.709
 9042SOL    HW128025   1.456   5.042   2.742
 9042SOL    HW228026   1.589   5.138   2.741
 9043SOL     OW28027   7.024   1.882   0.176
 9043SOL    HW128028   6.956   1.814   0.200
 9043SOL    HW228029   0.090   1.838   0.169
 9044SOL     OW28030   0.921   4.272   0.949
 9044SOL    HW128031   1.003   4.218   0.969
 9044SOL    HW228032   0.905   4.274   0.851
 9045SOL     OW28033   1.827   4.801   4.716
 9045SOL    HW128034   1.926   4.816   4.716
 9045SOL    HW228035   1.800   4.759   4.802
 9046SOL     OW28036   4.032   4.101   5.960
 9046SOL    HW128037   4.128   4.085   5.981
 9046SOL    HW228038   4.022   4.120   5.862
 9047SOL     OW28039   0.841   5.055   4.053
 9047SOL    HW128040   0.760   5.115   4.056
 9047SOL    HW228041   0.908   5.086   4.120
 9048SOL     OW28042   1.247   2.269   5.563
 9048SOL    HW128043   1.257   2.289   5.465
 9048SOL    HW228044   1.213   2.351   5.610
 9049SOL     OW28045   4.254   5.595   5.735
 9049SOL    HW128046   4.162   5.558   5.728
 9049SOL    HW228047   4.255   5.690   5.703
 9050SOL     OW28048   0.219   3.697   6.566
 9050SOL    HW128049   0.281   3.775   6.557
 9050SOL    HW228050   0.125   3.728   6.562
 9051SOL     OW28051   0.303   5.810   6.143
 9051SOL    HW128052   0.215   5.800   6.097
 9051SOL    HW228053   0.368   5.743   6.106
 9052SOL     OW28054   2.134   4.928   4.690
 9052SOL    HW128055   2.097   4.919   4.782
 9052SOL    HW228056   2.212   4.990   4.691
 9053SOL     OW28057   1.274   0.084   2.686
 9053SOL    HW128058   1.206   0.019   2.653
 9053SOL    HW228059   1.324   0.123   2.609
 9054SOL     OW28060   1.357   6.864   2.101
 9054SOL    HW128061   1.312   6.953   2.102
 9054SOL    HW228062   1.364   6.831   2.006
 9055SOL     OW28063   1.464   2.756   5.369
 9055SOL    HW128064   1.456   2.855   5.382
 9055SOL    HW228065   1.519   2.737   5.288
 9056SOL     OW28066   5.129   2.393   1.594
 9056SOL    HW128067   5.031   2.379   1.610
 9056SOL    HW228068   5.175   2.408   1.681
 9057SOL     OW28069   3.517   6.801   5.964
 9057SOL    HW128070   3.503   6.892   5.926
 9057SOL    HW228071   3.515   6.805   6.063
 9058SOL     OW28072   2.106   3.006   4.019
 9058SOL    HW128073   2.103   2.990   3.921
 9058SOL    HW228074   2.183   2.954   4.058
 9059SOL     OW28075   0.293   0.454   2.535
 9059SOL    HW128076   0.232   0.467   2.613
 9059SOL    HW228077   0.364   0.388   2.558
 9060SOL     OW28078   0.334   5.064   6.996
 9060SOL    HW128079   0.360   5.113   0.055
 9060SOL    HW228080   0.333   4.965   7.015
 9061SOL     OW28081   3.669   4.955   2.439
 9061SOL    HW128082   3.757   4.922   2.474
 9061SOL    HW228083   3.650   4.910   2.351
 9062SOL     OW28084   0.144   6.245   2.738
 9062SOL    HW128085   0.195   6.296   2.808
 9062SOL    HW228086   0.138   6.299   2.654
 9063SOL     OW28087   6.221   6.459   0.982
 9063SOL    HW128088   6.156   6.400   1.029
 9063SOL    HW228089   6.187   6.478   0.890
 9064SOL     OW28090   1.374   5.781   2.953
 9064SOL    HW128091   1.415   5.694   2.925
 9064SOL    HW228092   1.439   5.833   3.008
 9065SOL     OW28093   3.301   4.091   6.689
 9065SOL    HW128094   3.270   4.132   6.774
 9065SOL    HW228095   3.364   4.153   6.643
 9066SOL     OW28096   5.460   5.098   3.116
 9066SOL    HW128097   5.557   5.123   3.120
 9066SOL    HW228098   5.439   5.063   3.025
 9067SOL     OW28099   1.736   0.029   3.818
 9067SOL    HW128100   1.770   6.990   3.887
 9067SOL    HW228101   1.640   0.051   3.838
 9068SOL     OW28102   5.610   0.500   5.266
 9068SOL    HW128103   5.645   0.585   5.227
 9068SOL    HW228104   5.533   0.520   5.326
 9069SOL     OW28105   4.565   2.355   1.634
 9069SOL    HW128106   4.547   2.265   1.595
 9069SOL    HW228107   4.633   2.403   1.579
 9070SOL     OW28108   1.000   0.895   6.737
 9070SOL    HW128109   1.046   0.975   6.774
 9070SOL    HW228110   0.901   0.908   6.741
 9071SOL     OW28111   5.886   2.890   0.159
 9071SOL    HW128112   5.893   2.969   0.098
 9071SOL    HW228113   5.831   2.819   0.115
 9072SOL     OW28114   6.123   0.843   1.888
 9072SOL    HW128115   6.196   0.896   1.847
 9072SOL    HW228116   6.035   0.875   1.854
 9073SOL     OW28117   4.936   2.440   6.097
 9073SOL    HW128118   4.843   2.466   6.121
 9073SOL    HW228119   4.942   2.340   6.092
 9074SOL     OW28120   2.154   0.651   3.309
 9074SOL    HW128121   2.155   0.730   3.248
 9074SOL    HW228122   2.130   0.569   3.257
 9075SOL     OW28123   5.026   5.602   1.212
 9075SOL    HW128124   5.011   5.647   1.124
 9075SOL    HW228125   5.049   5.671   1.281
 9076SOL     OW28126   0.910   6.618   2.735
 9076SOL    HW128127   0.874   6.661   2.653
 9076SOL    HW228128   0.836   6.601   2.800
 9077SOL     OW28129   6.360   0.952   6.520
 9077SOL    HW128130   6.346   0.903   6.606
 9077SOL    HW228131   6.457   0.948   6.495
 9078SOL     OW28132   5.385   6.782   6.376
 9078SOL    HW128133   5.416   6.877   6.375
 9078SOL    HW228134   5.435   6.730   6.307
 9079SOL     OW28135   2.375   1.846   6.511
 9079SOL    HW128136   2.454   1.884   6.463
 9079SOL    HW228137   2.332   1.776   6.454
 9080SOL     OW28138   6.626   4.921   0.378
 9080SOL    HW128139   6.569   4.955   0.453
 9080SOL    HW228140   6.599   4.828   0.356
 9081SOL     OW28141   4.831   1.330   6.582
 9081SOL    HW128142   4.879   1.268   6.643
 9081SOL    HW228143   4.744   1.288   6.555
 9082SOL     OW28144   2.967   4.517   6.656
 9082SOL    HW128145   2.925   4.438   6.611
 9082SOL    HW228146   3.067   4.510   6.649
 9083SOL     OW28147   3.677   0.455   1.100
 9083SOL    HW128148   3.770   0.421   1.085
 9083SOL    HW228149   3.622   0.435   1.019
 9084SOL     OW28150   6.885   4.542   4.886
 9084SOL    HW128151   6.811   4.477   4.904
 9084SOL    HW228152   6.863   4.596   4.804
 9085SOL     OW28153   3.248   4.793   1.853
 9085SOL    HW128154   3.334   4.779   1.902
 9085SOL    HW228155   3.253   4.749   1.764
 9086SOL     OW28156   7.009   1.449   0.390
 9086SOL    HW128157   6.944   1.406   0.452
 9086SOL    HW228158   0.053   1.499   0.443
 9087SOL     OW28159   4.904   1.369   0.341
 9087SOL    HW128160   4.916   1.443   0.407
 9087SOL    HW228161   4.993   1.347   0.300
 9088SOL     OW28162   5.040   6.563   0.589
 9088SOL    HW128163   4.948   6.525   0.579
 9088SOL    HW228164   5.088   6.514   0.662
 9089SOL     OW28165   4.866   5.585   3.206
 9089SOL    HW128166   4.812   5.633   3.138
 9089SOL    HW228167   4.963   5.597   3.185
 9090SOL     OW28168   6.521   5.008   4.898
 9090SOL    HW128169   6.490   4.914   4.914
 9090SOL    HW228170   6.442   5.065   4.873
 9091SOL     OW28171   1.959   2.012   2.006
 9091SOL    HW128172   2.049   2.048   2.029
 9091SOL    HW228173   1.967   1.946   1.931
 9092SOL     OW28174   3.108   1.838   5.407
 9092SOL    HW128175   3.119   1.742   5.382
 9092SOL    HW228176   3.098   1.893   5.324
 9093SOL     OW28177   1.899   3.833   0.676
 9093SOL    HW128178   1.814   3.780   0.668
 9093SOL    HW228179   1.953   3.796   0.751
 9094SOL     OW28180   0.154   2.669   6.690
 9094SOL    HW128181   0.163   2.735   6.615
 9094SOL    HW228182   0.244   2.633   6.713
 9095SOL     OW28183   2.565   2.454   0.436
 9095SOL    HW128184   2.606   2.381   0.381
 9095SOL    HW228185   2.486   2.491   0.389
 9096SOL     OW28186   6.836   3.958   2.724
 9096SOL    HW128187   6.882   3.916   2.646
 9096SOL    HW228188   6.893   3.947   2.806
 9097SOL     OW28189   6.640   6.057   5.721
 9097SOL    HW128190   6.638   5.991   5.646
 9097SOL    HW228191   6.703   6.025   5.792
 9098SOL     OW28192   3.726   3.476   5.514
 9098SOL    HW128193   3.761   3.429   5.595
 9098SOL    HW228194   3.645   3.429   5.480
 9099SOL     OW28195   2.151   2.491   6.533
 9099SOL    HW128196   2.077   2.426   6.514
 9099SOL    HW228197   2.157   2.558   6.459
 9100SOL     OW28198   1.602   2.463   0.969
 9100SOL    HW128199   1.696   2.496   0.972
 9100SOL    HW228200   1.602   2.363   0.960
 9101SOL     OW28201   2.911   2.326   0.282
 9101SOL    HW128202   2.974   2.286   0.349
 9101SOL    HW228203   2.820   2.288   0.295
 9102SOL     OW28204   4.545   5.850   2.465
 9102SOL    HW128205   4.548   5.751   2.455
 9102SOL    HW228206   4.586   5.876   2.552
 9103SOL     OW28207   1.715   4.136   6.358
 9103SOL    HW128208   1.811   4.162   6.361
 9103SOL    HW228209   1.677   4.159   6.268
 9104SOL     OW28210   4.307   6.458   3.332
 9104SOL    HW128211   4.232   6.392   3.339
 9104SOL    HW228212   4.269   6.551   3.326
 9105SOL     OW28213   3.112   2.377   6.061
 9105SOL    HW128214   3.174   2.443   6.104
 9105SOL    HW228215   3.137   2.366   5.965
 9106SOL     OW28216   6.689   5.600   1.187
 9106SOL    HW128217   6.624   5.565   1.255
 9106SOL    HW228218   6.778   5.611   1.230
 9107SOL     OW28219   4.444   6.815   6.610
 9107SOL    HW128220   4.380   6.889   6.634
 9107SOL    HW228221   4.531   6.831   6.656
 9108SOL     OW28222   3.546   5.741   0.863
 9108SOL    HW128223   3.456   5.771   0.831
 9108SOL    HW228224   3.616   5.777   0.801
 9109SOL     OW28225   3.335   1.656   4.598
 9109SOL    HW128226   3.282   1.572   4.599
 9109SOL    HW228227   3.285   1.728   4.648
 9110SOL     OW28228   7.003   4.079   3.719
 9110SOL    HW128229   6.917   4.102   3.675
 9110SOL    HW228230   6.990   4.075   3.818
 9111SOL     OW28231   3.579   4.341   1.730
 9111SOL    HW128232   3.660   4.294   1.764
 9111SOL    HW228233   3.576   4.433   1.768
 9112SOL     OW28234   1.098   6.586   2.123
 9112SOL    HW128235   1.104   6.655   2.195
 9112SOL    HW228236   1.034   6.515   2.151
 9113SOL     OW28237   2.492   5.999   0.553
 9113SOL    HW128238   2.443   6.041   0.628
 9113SOL    HW228239   2.569   6.057   0.526
 9114SOL     OW28240   2.897   3.851   1.644
 9114SOL    HW128241   2.922   3.815   1.734
 9114SOL    HW228242   2.977   3.853   1.585
 9115SOL     OW28243   1.251   4.493   4.152
 9115SOL    HW128244   1.297   4.405   4.136
 9115SOL    HW228245   1.212   4.526   4.066
 9116SOL     OW28246   3.575   2.316   6.760
 9116SOL    HW128247   3.638   2.392   6.750
 9116SOL    HW228248   3.484   2.343   6.731
 9117SOL     OW28249   0.925   2.498   6.917
 9117SOL    HW128250   0.836   2.537   6.895
 9117SOL    HW228251   0.992   2.529   6.850
 9118SOL     OW28252   0.903   6.843   1.421
 9118SOL    HW128253   0.932   6.926   1.468
 9118SOL    HW228254   0.968   6.769   1.441
 9119SOL     OW28255   5.782   0.118   1.016
 9119SOL    HW128256   5.745   0.170   1.092
 9119SOL    HW228257   5.803   0.180   0.940
 9120SOL     OW28258   6.224   0.335   6.811
 9120SOL    HW128259   6.274   0.376   6.888
 9120SOL    HW228260   6.129   0.365   6.814
 9121SOL     OW28261   1.619   0.967   6.274
 9121SOL    HW128262   1.609   0.992   6.177
 9121SOL    HW228263   1.538   0.998   6.324
 9122SOL     OW28264   0.478   3.324   1.306
 9122SOL    HW128265   0.388   3.310   1.347
 9122SOL    HW228266   0.539   3.249   1.334
 9123SOL     OW28267   1.498   6.975   5.984
 9123SOL    HW128268   1.575   6.941   5.930
 9123SOL    HW228269   1.511   6.949   6.080
 9124SOL     OW28270   0.210   4.022   4.742
 9124SOL    HW128271   0.138   4.028   4.811
 9124SOL    HW228272   0.208   3.932   4.700
 9125SOL     OW28273   5.026   6.213   1.252
 9125SOL    HW128274   5.107   6.239   1.199
 9125SOL    HW228275   4.983   6.296   1.290
 9126SOL     OW28276   5.525   0.749   3.568
 9126SOL    HW128277   5.429   0.750   3.596
 9126SOL    HW228278   5.576   0.685   3.626
 9127SOL     OW28279   6.264   5.036   5.956
 9127SOL    HW128280   6.300   5.068   5.869
 9127SOL    HW228281   6.310   5.084   6.031
 9128SOL     OW28282   4.570   2.835   5.142
 9128SOL    HW128283   4.480   2.827   5.186
 9128SOL    HW228284   4.621   2.910   5.184
 9129SOL     OW28285   2.980   1.166   0.709
 9129SOL    HW128286   3.032   1.164   0.623
 9129SOL    HW228287   2.905   1.232   0.701
 9130SOL     OW28288   5.808   5.406   1.198
 9130SOL    HW128289   5.761   5.352   1.268
 9130SOL    HW228290   5.742   5.432   1.126
 9131SOL     OW28291   0.751   5.011   3.414
 9131SOL    HW128292   0.765   4.934   3.352
 9131SOL    HW228293   0.759   4.980   3.508
 9132SOL     OW28294   1.285   2.902   4.159
 9132SOL    HW128295   1.195   2.911   4.117
 9132SOL    HW228296   1.275   2.864   4.251
 9133SOL     OW28297   1.222   5.164   0.750
 9133SOL    HW128298   1.168   5.092   0.794
 9133SOL    HW228299   1.207   5.251   0.797
 9134SOL     OW28300   2.899   4.869   6.098
 9134SOL    HW128301   2.857   4.954   6.067
 9134SOL    HW228302   2.837   4.793   6.081
 9135SOL     OW28303   1.015   6.838   2.955
 9135SOL    HW128304   0.970   6.792   2.878
 9135SOL    HW228305   1.113   6.819   2.952
 9136SOL     OW28306   3.716   4.976   5.166
 9136SOL    HW128307   3.732   5.017   5.255
 9136SOL    HW228308   3.632   4.922   5.168
 9137SOL     OW28309   3.754   0.241   2.803
 9137SOL    HW128310   3.810   0.293   2.738
 9137SOL    HW228311   3.713   0.304   2.869
 9138SOL     OW28312   3.121   4.628   1.090
 9138SOL    HW128313   3.212   4.666   1.107
 9138SOL    HW228314   3.109   4.614   0.991
 9139SOL     OW28315   4.081   0.439   5.458
 9139SOL    HW128316   4.109   0.375   5.531
 9139SOL    HW228317   3.982   0.447   5.457
 9140SOL     OW28318   6.540   2.298   3.573
 9140SOL    HW128319   6.501   2.332   3.488
 9140SOL    HW228320   6.639   2.312   3.573
 9141SOL     OW28321   5.024   1.204   5.295
 9141SOL    HW128322   5.058   1.126   5.243
 9141SOL    HW228323   4.925   1.213   5.281
 9142SOL     OW28324   2.188   3.201   7.016
 9142SOL    HW128325   2.139   3.227   6.933
 9142SOL    HW228326   2.243   3.278   0.023
 9143SOL     OW28327   6.536   4.175   0.355
 9143SOL    HW128328   6.620   4.222   0.328
 9143SOL    HW228329   6.537   4.082   0.320
 9144SOL     OW28330   1.182   5.888   4.214
 9144SOL    HW128331   1.179   5.795   4.250
 9144SOL    HW228332   1.099   5.937   4.241
 9145SOL     OW28333   1.911   3.015   6.966
 9145SOL    HW128334   1.835   2.995   0.003
 9145SOL    HW228335   1.949   3.105   6.989
 9146SOL     OW28336   1.164   2.004   1.505
 9146SOL    HW128337   1.122   2.009   1.595
 9146SOL    HW228338   1.247   1.949   1.510
 9147SOL     OW28339   3.922   5.356   6.312
 9147SOL    HW128340   3.976   5.352   6.396
 9147SOL    HW228341   3.827   5.329   6.331
 9148SOL     OW28342   3.440   4.894   2.776
 9148SOL    HW128343   3.377   4.821   2.803
 9148SOL    HW228344   3.428   4.913   2.679
 9149SOL     OW28345   6.176   3.406   5.273
 9149SOL    HW128346   6.232   3.325   5.286
 9149SOL    HW228347   6.205   3.454   5.190
 9150SOL     OW28348   3.772   1.429   2.682
 9150SOL    HW128349   3.831   1.422   2.762
 9150SOL    HW228350   3.774   1.343   2.632
 9151SOL     OW28351   6.223   2.956   2.021
 9151SOL    HW128352   6.184   3.013   1.948
 9151SOL    HW228353   6.240   2.864   1.985
 9152SOL     OW28354   2.022   4.878   2.500
 9152SOL    HW128355   1.936   4.873   2.550
 9152SOL    HW228356   2.087   4.935   2.551
 9153SOL     OW28357   2.245   2.716   0.360
 9153SOL    HW128358   2.291   2.772   0.430
 9153SOL    HW228359   2.154   2.753   0.343
 9154SOL     OW28360   0.915   4.897   0.340
 9154SOL    HW128361   0.842   4.964   0.350
 9154SOL    HW228362   0.973   4.922   0.262
 9155SOL     OW28363   1.975   5.018   0.011
 9155SOL    HW128364   2.067   4.983   7.020
 9155SOL    HW228365   1.908   4.951   7.003
 9156SOL     OW28366   4.951   2.653   1.718
 9156SOL    HW128367   4.968   2.587   1.791
 9156SOL    HW228368   5.038   2.678   1.674
 9157SOL     OW28369   5.566   3.697   5.478
 9157SOL    HW128370   5.489   3.752   5.511
 9157SOL    HW228371   5.628   3.755   5.425
 9158SOL     OW28372   0.789   4.207   3.528
 9158SOL    HW128373   0.781   4.111   3.553
 9158SOL    HW228374   0.876   4.244   3.560
 9159SOL     OW28375   7.014   5.744   1.645
 9159SOL    HW128376   0.082   5.758   1.610
 9159SOL    HW228377   7.015   5.747   1.745
 9160SOL     OW28378   1.149   6.627   0.892
 9160SOL    HW128379   1.186   6.690   0.961
 9160SOL    HW228380   1.138   6.675   0.805
 9161SOL     OW28381   5.354   3.326   2.043
 9161SOL    HW128382   5.447   3.359   2.057
 9161SOL    HW228383   5.297   3.403   2.012
 9162SOL     OW28384   5.414   2.591   3.540
 9162SOL    HW128385   5.501   2.556   3.506
 9162SOL    HW228386   5.402   2.563   3.636
 9163SOL     OW28387   3.602   0.621   4.856
 9163SOL    HW128388   3.555   0.636   4.769
 9163SOL    HW228389   3.634   0.709   4.892
 9164SOL     OW28390   2.858   0.799   0.969
 9164SOL    HW128391   2.949   0.798   0.928
 9164SOL    HW228392   2.840   0.710   1.012
 9165SOL     OW28393   5.184   5.986   0.990
 9165SOL    HW128394   5.239   6.063   1.021
 9165SOL    HW228395   5.244   5.912   0.959
 9166SOL     OW28396   3.133   5.030   1.143
 9166SOL    HW128397   3.097   5.039   1.235
 9166SOL    HW228398   3.179   5.116   1.117
 9167SOL     OW28399   0.467   3.674   4.583
 9167SOL    HW128400   0.469   3.610   4.506
 9167SOL    HW228401   0.558   3.711   4.598
 9168SOL     OW28402   4.240   0.639   0.651
 9168SOL    HW128403   4.194   0.609   0.734
 9168SOL    HW228404   4.242   0.739   0.648
 9169SOL     OW28405   0.736   6.893   3.701
 9169SOL    HW128406   0.827   6.859   3.724
 9169SOL    HW228407   0.669   6.819   3.711
 9170SOL     OW28408   6.501   5.822   6.932
 9170SOL    HW128409   6.515   5.913   6.892
 9170SOL    HW228410   6.406   5.814   6.963
 9171SOL     OW28411   4.082   5.648   4.663
 9171SOL    HW128412   4.060   5.683   4.572
 9171SOL    HW228413   4.053   5.552   4.669
 9172SOL     OW28414   2.287   2.078   4.157
 9172SOL    HW128415   2.253   2.137   4.084
 9172SOL    HW228416   2.212   2.055   4.219
 9173SOL     OW28417   6.936   5.063   5.092
 9173SOL    HW128418   0.005   5.095   5.076
 9173SOL    HW228419   6.934   4.963   5.087
 9174SOL     OW28420   0.200   5.516   6.366
 9174SOL    HW128421   0.291   5.540   6.400
 9174SOL    HW228422   0.176   5.575   6.289
 9175SOL     OW28423   1.989   6.308   6.177
 9175SOL    HW128424   2.049   6.363   6.236
 9175SOL    HW228425   2.024   6.214   6.172
 9176SOL     OW28426   1.464   2.791   5.849
 9176SOL    HW128427   1.553   2.764   5.886
 9176SOL    HW228428   1.447   2.740   5.764
 9177SOL     OW28429   1.629   3.989   2.874
 9177SOL    HW128430   1.596   3.964   2.965
 9177SOL    HW228431   1.563   3.957   2.805
 9178SOL     OW28432   1.985   4.235   0.155
 9178SOL    HW128433   1.907   4.204   0.210
 9178SOL    HW228434   2.057   4.268   0.216
 9179SOL     OW28435   3.112   4.397   5.325
 9179SOL    HW128436   3.151   4.477   5.369
 9179SOL    HW228437   3.055   4.425   5.248
 9180SOL     OW28438   4.892   1.212   1.890
 9180SOL    HW128439   4.871   1.189   1.985
 9180SOL    HW228440   4.991   1.210   1.877
 9181SOL     OW28441   3.743   1.209   2.526
 9181SOL    HW128442   3.804   1.132   2.507
 9181SOL    HW228443   3.702   1.241   2.440
 9182SOL     OW28444   2.367   6.819   1.490
 9182SOL    HW128445   2.400   6.755   1.420
 9182SOL    HW228446   2.401   6.911   1.469
 9183SOL     OW28447   5.092   5.048   5.724
 9183SOL    HW128448   5.079   5.043   5.625
 9183SOL    HW228449   5.041   4.974   5.768
 9184SOL     OW28450   4.743   0.146   0.056
 9184SOL    HW128451   4.690   0.075   0.102
 9184SOL    HW228452   4.839   0.118   0.052
 9185SOL     OW28453   5.192   1.283   4.875
 9185SOL    HW128454   5.190   1.353   4.804
 9185SOL    HW228455   5.164   1.323   4.962
 9186SOL     OW28456   4.725   0.785   6.082
 9186SOL    HW128457   4.683   0.719   6.019
 9186SOL    HW228458   4.731   0.874   6.037
 9187SOL     OW28459   2.123   6.257   3.324
 9187SOL    HW128460   2.064   6.264   3.404
 9187SOL    HW228461   2.208   6.307   3.340
 9188SOL     OW28462   3.028   5.190   0.741
 9188SOL    HW128463   2.969   5.229   0.671
 9188SOL    HW228464   3.061   5.100   0.710
 9189SOL     OW28465   5.259   4.439   2.076
 9189SOL    HW128466   5.300   4.402   1.993
 9189SOL    HW228467   5.216   4.528   2.055
 9190SOL     OW28468   1.598   5.962   6.555
 9190SOL    HW128469   1.596   5.973   6.456
 9190SOL    HW228470   1.521   6.011   6.595
 9191SOL     OW28471   6.539   0.847   6.252
 9191SOL    HW128472   6.448   0.812   6.277
 9191SOL    HW228473   6.593   0.774   6.211
 9192SOL     OW28474   1.095   3.641   4.857
 9192SOL    HW128475   1.179   3.587   4.868
 9192SOL    HW228476   1.069   3.681   4.945
 9193SOL     OW28477   4.101   4.137   0.671
 9193SOL    HW128478   4.003   4.151   0.656
 9193SOL    HW228479   4.124   4.042   0.652
 9194SOL     OW28480   2.916   0.680   4.304
 9194SOL    HW128481   2.964   0.767   4.305
 9194SOL    HW228482   2.948   0.626   4.226
 9195SOL     OW28483   1.834   1.279   3.753
 9195SOL    HW128484   1.904   1.235   3.696
 9195SOL    HW228485   1.877   1.325   3.830
 9196SOL     OW28486   4.905   1.231   5.934
 9196SOL    HW128487   4.880   1.210   6.029
 9196SOL    HW228488   5.003   1.250   5.929
 9197SOL     OW28489   2.798   3.699   0.597
 9197SOL    HW128490   2.842   3.644   0.527
 9197SOL    HW228491   2.699   3.698   0.584
 9198SOL     OW28492   1.049   4.156   4.979
 9198SOL    HW128493   0.963   4.136   5.026
 9198SOL    HW228494   1.121   4.171   5.046
 9199SOL     OW28495   6.446   4.755   5.005
 9199SOL    HW128496   6.404   4.796   5.086
 9199SOL    HW228497   6.374   4.731   4.939
 9200SOL     OW28498   3.347   6.700   0.248
 9200SOL    HW128499   3.265   6.739   0.291
 9200SOL    HW228500   3.354   6.734   0.154
 9201SOL     OW28501   2.251   4.520   0.920
 9201SOL    HW128502   2.324   4.510   0.988
 9201SOL    HW228503   2.197   4.601   0.942
 9202SOL     OW28504   2.920   1.051   3.651
 9202SOL    HW128505   2.916   1.148   3.631
 9202SOL    HW228506   2.835   1.022   3.694
 9203SOL     OW28507   6.960   6.356   1.132
 9203SOL    HW128508   0.009   6.409   1.092
 9203SOL    HW228509   6.998   6.276   1.180
 9204SOL     OW28510   5.907   0.741   5.533
 9204SOL    HW128511   5.843   0.766   5.459
 9204SOL    HW228512   5.866   0.764   5.621
 9205SOL     OW28513   6.976   5.029   2.501
 9205SOL    HW128514   0.027   5.068   2.448
 9205SOL    HW228515   6.890   5.069   2.471
 9206SOL     OW28516   4.019   0.076   0.565
 9206SOL    HW128517   4.091   0.008   0.578
 9206SOL    HW228518   4.050   0.164   0.599
 9207SOL     OW28519   5.515   5.662   6.074
 9207SOL    HW128520   5.529   5.650   6.173
 9207SOL    HW228521   5.489   5.756   6.055
 9208SOL     OW28522   1.121   3.602   2.129
 9208SOL    HW128523   1.140   3.678   2.068
 9208SOL    HW228524   1.150   3.516   2.087
 9209SOL     OW28525   2.501   6.046   6.578
 9209SOL    HW128526   2.528   6.112   6.508
 9209SOL    HW228527   2.523   6.081   6.668
 9210SOL     OW28528   6.457   0.136   4.328
 9210SOL    HW128529   6.543   0.133   4.279
 9210SOL    HW228530   6.434   0.230   4.351
 9211SOL     OW28531   0.842   1.694   2.959
 9211SOL    HW128532   0.809   1.602   2.979
 9211SOL    HW228533   0.927   1.711   3.009
 9212SOL     OW28534   4.421   5.109   4.624
 9212SOL    HW128535   4.355   5.171   4.666
 9212SOL    HW228536   4.419   5.021   4.671
 9213SOL     OW28537   6.209   3.805   0.255
 9213SOL    HW128538   6.161   3.792   0.341
 9213SOL    HW228539   6.253   3.719   0.227
 9214SOL     OW28540   0.042   5.634   0.399
 9214SOL    HW128541   0.003   5.592   0.317
 9214SOL    HW228542   0.087   5.563   0.454
 9215SOL     OW28543   1.022   1.389   0.687
 9215SOL    HW128544   1.065   1.475   0.660
 9215SOL    HW228545   1.087   1.334   0.738
 9216SOL     OW28546   1.793   6.829   4.008
 9216SOL    HW128547   1.777   6.774   3.926
 9216SOL    HW228548   1.795   6.770   4.089
 9217SOL     OW28549   0.637   2.112   0.904
 9217SOL    HW128550   0.721   2.094   0.955
 9217SOL    HW228551   0.660   2.150   0.814
 9218SOL     OW28552   2.452   1.076   1.306
 9218SOL    HW128553   2.538   1.076   1.356
 9218SOL    HW228554   2.415   1.169   1.304
 9219SOL     OW28555   6.345   1.351   0.717
 9219SOL    HW128556   6.308   1.421   0.778
 9219SOL    HW228557   6.293   1.350   0.632
 9220SOL     OW28558   3.556   6.258   0.383
 9220SOL    HW128559   3.519   6.195   0.452
 9220SOL    HW228560   3.538   6.352   0.412
 9221SOL     OW28561   2.787   4.754   4.772
 9221SOL    HW128562   2.810   4.696   4.851
 9221SOL    HW228563   2.729   4.829   4.801
 9222SOL     OW28564   3.185   2.462   0.212
 9222SOL    HW128565   3.115   2.454   0.142
 9222SOL    HW228566   3.262   2.515   0.177
 9223SOL     OW28567   2.792   3.052   5.316
 9223SOL    HW128568   2.804   2.955   5.338
 9223SOL    HW228569   2.697   3.069   5.292
 9224SOL     OW28570   2.342   4.621   5.224
 9224SOL    HW128571   2.288   4.538   5.235
 9224SOL    HW228572   2.412   4.606   5.153
 9225SOL     OW28573   1.664   6.289   6.679
 9225SOL    HW128574   1.653   6.347   6.599
 9225SOL    HW228575   1.587   6.225   6.685
 9226SOL     OW28576   4.758   6.301   0.980
 9226SOL    HW128577   4.840   6.262   0.939
 9226SOL    HW228578   4.723   6.239   1.050
 9227SOL     OW28579   1.173   6.217   1.566
 9227SOL    HW128580   1.237   6.191   1.638
 9227SOL    HW228581   1.138   6.135   1.521
 9228SOL     OW28582   0.664   6.165   6.218
 9228SOL    HW128583   0.654   6.067   6.201
 9228SOL    HW228584   0.599   6.192   6.290
 9229SOL     OW28585   1.016   6.001   5.094
 9229SOL    HW128586   1.036   6.014   4.997
 9229SOL    HW228587   0.928   5.954   5.103
 9230SOL     OW28588   4.904   1.525   3.307
 9230SOL    HW128589   4.828   1.518   3.243
 9230SOL    HW228590   4.967   1.596   3.277
 9231SOL     OW28591   2.156   3.047   3.415
 9231SOL    HW128592   2.206   2.965   3.445
 9231SOL    HW228593   2.168   3.120   3.482
 9232SOL     OW28594   4.024   5.424   1.115
 9232SOL    HW128595   4.024   5.471   1.203
 9232SOL    HW228596   3.934   5.435   1.072
 9233SOL     OW28597   5.999   4.256   0.196
 9233SOL    HW128598   6.031   4.339   0.150
 9233SOL    HW228599   5.980   4.276   0.292
 9234SOL     OW28600   1.554   5.913   3.755
 9234SOL    HW128601   1.468   5.862   3.763
 9234SOL    HW228602   1.626   5.853   3.721
 9235SOL     OW28603   1.167   3.000   3.254
 9235SOL    HW128604   1.081   2.955   3.228
 9235SOL    HW228605   1.154   3.052   3.338
 9236SOL     OW28606   3.367   2.823   6.398
 9236SOL    HW128607   3.395   2.871   6.481
 9236SOL    HW228608   3.274   2.789   6.409
 9237SOL     OW28609   1.531   3.710   2.691
 9237SOL    HW128610   1.443   3.748   2.661
 9237SOL    HW228611   1.522   3.612   2.706
 9238SOL     OW28612   4.259   3.806   6.723
 9238SOL    HW128613   4.275   3.857   6.639
 9238SOL    HW228614   4.269   3.866   6.802
 9239SOL     OW28615   2.171   3.214   6.465
 9239SOL    HW128616   2.146   3.306   6.496
 9239SOL    HW228617   2.155   3.206   6.366
 9240SOL     OW28618   4.615   0.810   2.397
 9240SOL    HW128619   4.669   0.768   2.470
 9240SOL    HW228620   4.520   0.777   2.403
 9241SOL     OW28621   0.571   5.700   5.033
 9241SOL    HW128622   0.511   5.652   5.097
 9241SOL    HW228623   0.526   5.785   5.003
 9242SOL     OW28624   5.113   6.833   2.087
 9242SOL    HW128625   5.072   6.901   2.026
 9242SOL    HW228626   5.059   6.748   2.084
 9243SOL     OW28627   5.570   0.016   4.820
 9243SOL    HW128628   5.644   7.011   4.759
 9243SOL    HW228629   5.543   0.110   4.797
 9244SOL     OW28630   3.654   6.639   0.634
 9244SOL    HW128631   3.655   6.578   0.713
 9244SOL    HW228632   3.727   6.707   0.644
 9245SOL     OW28633   0.580   6.948   1.449
 9245SOL    HW128634   0.627   6.862   1.433
 9245SOL    HW228635   0.481   6.933   1.445
 9246SOL     OW28636   6.280   5.364   3.933
 9246SOL    HW128637   6.361   5.416   3.907
 9246SOL    HW228638   6.297   5.317   4.019
 9247SOL     OW28639   0.993   0.569   2.877
 9247SOL    HW128640   1.003   0.471   2.863
 9247SOL    HW228641   1.046   0.618   2.807
 9248SOL     OW28642   4.531   1.631   6.358
 9248SOL    HW128643   4.591   1.641   6.437
 9248SOL    HW228644   4.453   1.574   6.382
 9249SOL     OW28645   3.885   6.551   3.985
 9249SOL    HW128646   3.869   6.566   3.887
 9249SOL    HW228647   3.869   6.455   4.006
 9250SOL     OW28648   4.862   3.864   3.128
 9250SOL    HW128649   4.886   3.794   3.061
 9250SOL    HW228650   4.897   3.838   3.218
 9251SOL     OW28651   3.983   1.959   2.226
 9251SOL    HW128652   3.979   1.960   2.126
 9251SOL    HW228653   3.899   1.999   2.264
 9252SOL     OW28654   1.337   6.777   4.643
 9252SOL    HW128655   1.381   6.766   4.732
 9252SOL    HW228656   1.406   6.793   4.573
 9253SOL     OW28657   1.305   0.018   6.411
 9253SOL    HW128658   1.402   7.021   6.397
 9253SOL    HW228659   1.271   0.070   6.333
 9254SOL     OW28660   4.769   2.484   0.740
 9254SOL    HW128661   4.694   2.535   0.701
 9254SOL    HW228662   4.833   2.456   0.668
 9255SOL     OW28663   6.952   5.201   0.295
 9255SOL    HW128664   6.879   5.209   0.364
 9255SOL    HW228665   6.929   5.128   0.232
 9256SOL     OW28666   4.252   5.223   2.803
 9256SOL    HW128667   4.252   5.221   2.903
 9256SOL    HW228668   4.170   5.177   2.769
 9257SOL     OW28669   0.639   3.348   0.736
 9257SOL    HW128670   0.637   3.306   0.826
 9257SOL    HW228671   0.666   3.281   0.667
 9258SOL     OW28672   3.351   2.993   4.544
 9258SOL    HW128673   3.416   3.062   4.512
 9258SOL    HW228674   3.333   3.008   4.641
 9259SOL     OW28675   1.774   2.158   0.365
 9259SOL    HW128676   1.760   2.061   0.384
 9259SOL    HW228677   1.687   2.206   0.369
 9260SOL     OW28678   6.847   3.623   0.199
 9260SOL    HW128679   6.776   3.594   0.136
 9260SOL    HW228680   6.853   3.558   0.275
 9261SOL     OW28681   2.565   6.762   5.789
 9261SOL    HW128682   2.589   6.733   5.882
 9261SOL    HW228683   2.467   6.777   5.783
 9262SOL     OW28684   6.243   0.127   6.637
 9262SOL    HW128685   6.151   0.089   6.629
 9262SOL    HW228686   6.241   0.206   6.699
 9263SOL     OW28687   5.789   3.763   2.879
 9263SOL    HW128688   5.795   3.861   2.857
 9263SOL    HW228689   5.709   3.724   2.833
 9264SOL     OW28690   5.658   2.047   0.368
 9264SOL    HW128691   5.687   1.956   0.397
 9264SOL    HW228692   5.559   2.048   0.357
 9265SOL     OW28693   1.661   1.794   5.316
 9265SOL    HW128694   1.676   1.869   5.380
 9265SOL    HW228695   1.713   1.811   5.232
 9266SOL     OW28696   3.019   6.791   2.636
 9266SOL    HW128697   3.088   6.830   2.574
 9266SOL    HW228698   3.009   6.694   2.617
 9267SOL     OW28699   2.506   5.043   6.007
 9267SOL    HW128700   2.545   4.975   5.945
 9267SOL    HW228701   2.434   5.001   6.062
 9268SOL     OW28702   1.150   1.297   2.980
 9268SOL    HW128703   1.117   1.225   2.918
 9268SOL    HW228704   1.105   1.288   3.068
 9269SOL     OW28705   3.984   1.509   5.163
 9269SOL    HW128706   4.020   1.564   5.239
 9269SOL    HW228707   4.060   1.466   5.114
 9270SOL     OW28708   2.126   0.374   5.489
 9270SOL    HW128709   2.202   0.439   5.486
 9270SOL    HW228710   2.107   0.348   5.584
 9271SOL     OW28711   0.242   5.362   5.270
 9271SOL    HW128712   0.259   5.324   5.361
 9271SOL    HW228713   0.209   5.290   5.210
 9272SOL     OW28714   2.201   5.278   6.433
 9272SOL    HW128715   2.262   5.215   6.483
 9272SOL    HW228716   2.239   5.296   6.342
 9273SOL     OW28717   3.413   5.705   6.341
 9273SOL    HW128718   3.473   5.751   6.406
 9273SOL    HW228719   3.371   5.625   6.384
 9274SOL     OW28720   4.975   1.744   1.769
 9274SOL    HW128721   4.914   1.761   1.845
 9274SOL    HW228722   4.922   1.720   1.688
 9275SOL     OW28723   6.597   0.261   6.047
 9275SOL    HW128724   6.537   0.294   6.120
 9275SOL    HW228725   6.683   0.230   6.086
 9276SOL     OW28726   5.026   0.172   4.484
 9276SOL    HW128727   5.011   0.134   4.575
 9276SOL    HW228728   5.120   0.206   4.476
 9277SOL     OW28729   5.103   2.670   6.889
 9277SOL    HW128730   5.162   2.684   6.809
 9277SOL    HW228731   5.008   2.685   6.862
 9278SOL     OW28732   1.423   2.782   1.305
 9278SOL    HW128733   1.338   2.758   1.258
 9278SOL    HW228734   1.417   2.877   1.337
 9279SOL     OW28735   2.197   6.911   0.528
 9279SOL    HW128736   2.214   6.852   0.607
 9279SOL    HW228737   2.190   7.006   0.558
 9280SOL     OW28738   1.884   0.692   2.253
 9280SOL    HW128739   1.856   0.727   2.343
 9280SOL    HW228740   1.820   0.724   2.183
 9281SOL     OW28741   1.967   2.496   0.251
 9281SOL    HW128742   1.944   2.407   0.291
 9281SOL    HW228743   2.038   2.483   0.181
 9282SOL     OW28744   3.860   0.970   6.215
 9282SOL    HW128745   3.766   1.004   6.218
 9282SOL    HW228746   3.915   1.027   6.155
 9283SOL     OW28747   5.620   2.549   3.118
 9283SOL    HW128748   5.589   2.486   3.046
 9283SOL    HW228749   5.577   2.524   3.205
 9284SOL     OW28750   3.968   3.928   1.701
 9284SOL    HW128751   4.008   3.895   1.787
 9284SOL    HW228752   4.000   4.021   1.683
 9285SOL     OW28753   6.397   2.568   6.822
 9285SOL    HW128754   6.313   2.591   6.773
 9285SOL    HW228755   6.444   2.494   6.774
 9286SOL     OW28756   5.482   5.501   4.208
 9286SOL    HW128757   5.484   5.592   4.167
 9286SOL    HW228758   5.485   5.432   4.136
 9287SOL     OW28759   3.397   7.015   2.701
 9287SOL    HW128760   3.414   0.056   2.628
 9287SOL    HW228761   3.307   0.009   2.742
 9288SOL     OW28762   4.433   2.047   6.752
 9288SOL    HW128763   4.449   2.141   6.720
 9288SOL    HW228764   4.430   1.985   6.674
 9289SOL     OW28765   5.440   3.718   3.025
 9289SOL    HW128766   5.345   3.728   3.055
 9289SOL    HW228767   5.495   3.793   3.061
 9290SOL     OW28768   4.161   2.242   4.152
 9290SOL    HW128769   4.120   2.169   4.098
 9290SOL    HW228770   4.093   2.280   4.214
 9291SOL     OW28771   1.232   2.739   4.982
 9291SOL    HW128772   1.311   2.793   5.011
 9291SOL    HW228773   1.258   2.642   4.976
 9292SOL     OW28774   1.098   3.810   0.173
 9292SOL    HW128775   1.043   3.727   0.161
 9292SOL    HW228776   1.068   3.879   0.108
 9293SOL     OW28777   5.453   3.831   6.480
 9293SOL    HW128778   5.469   3.873   6.569
 9293SOL    HW228779   5.491   3.890   6.409
 9294SOL     OW28780   5.736   5.849   6.306
 9294SOL    HW128781   5.668   5.790   6.349
 9294SOL    HW228782   5.793   5.892   6.376
 9295SOL     OW28783   4.898   3.005   3.176
 9295SOL    HW128784   4.888   3.049   3.087
 9295SOL    HW228785   4.870   3.068   3.248
 9296SOL     OW28786   5.935   0.536   5.090
 9296SOL    HW128787   5.929   0.440   5.117
 9296SOL    HW228788   5.890   0.548   5.002
 9297SOL     OW28789   0.261   0.399   1.734
 9297SOL    HW128790   0.199   0.391   1.656
 9297SOL    HW228791   0.313   0.315   1.744
 9298SOL     OW28792   0.279   6.686   4.608
 9298SOL    HW128793   0.198   6.635   4.580
 9298SOL    HW228794   0.360   6.627   4.603
 9299SOL     OW28795   1.728   2.422   4.606
 9299SOL    HW128796   1.654   2.476   4.567
 9299SOL    HW228797   1.735   2.440   4.704
 9300SOL     OW28798   5.931   4.689   3.559
 9300SOL    HW128799   5.907   4.764   3.498
 9300SOL    HW228800   6.014   4.644   3.526
 9301SOL     OW28801   6.672   5.213   1.538
 9301SOL    HW128802   6.710   5.304   1.557
 9301SOL    HW228803   6.705   5.148   1.606
 9302SOL     OW28804   1.565   2.202   2.199
 9302SOL    HW128805   1.617   2.212   2.283
 9302SOL    HW228806   1.486   2.144   2.215
 9303SOL     OW28807   4.865   4.202   0.596
 9303SOL    HW128808   4.826   4.120   0.638
 9303SOL    HW228809   4.807   4.280   0.615
 9304SOL     OW28810   4.789   3.972   0.697
 9304SOL    HW128811   4.833   3.902   0.754
 9304SOL    HW228812   4.735   3.928   0.626
 9305SOL     OW28813   4.595   4.225   1.611
 9305SOL    HW128814   4.686   4.265   1.627
 9305SOL    HW228815   4.544   4.223   1.696
 9306SOL     OW28816   0.024   5.811   3.001
 9306SOL    HW128817   0.074   5.873   3.061
 9306SOL    HW228818   0.059   5.819   2.907
 9307SOL     OW28819   2.467   0.732   6.029
 9307SOL    HW128820   2.489   0.827   6.008
 9307SOL    HW228821   2.510   0.705   6.114
 9308SOL     OW28822   0.377   2.319   0.784
 9308SOL    HW128823   0.367   2.347   0.689
 9308SOL    HW228824   0.360   2.397   0.844
 9309SOL     OW28825   4.926   2.977   6.788
 9309SOL    HW128826   4.934   2.881   6.763
 9309SOL    HW228827   4.884   3.028   6.713
 9310SOL     OW28828   3.714   6.708   1.352
 9310SOL    HW128829   3.621   6.683   1.381
 9310SOL    HW228830   3.732   6.669   1.262
 9311SOL     OW28831   0.160   3.341   1.264
 9311SOL    HW128832   0.208   3.374   1.345
 9311SOL    HW228833   0.062   3.337   1.282
 9312SOL     OW28834   1.822   4.105   4.538
 9312SOL    HW128835   1.817   4.047   4.620
 9312SOL    HW228836   1.772   4.190   4.554
 9313SOL     OW28837   6.531   0.273   2.921
 9313SOL    HW128838   6.438   0.238   2.934
 9313SOL    HW228839   6.593   0.231   2.987
 9314SOL     OW28840   0.182   3.784   0.293
 9314SOL    HW128841   0.111   3.816   0.356
 9314SOL    HW228842   0.169   3.686   0.275
 9315SOL     OW28843   0.508   5.619   6.130
 9315SOL    HW128844   0.472   5.577   6.213
 9315SOL    HW228845   0.607   5.603   6.125
 9316SOL     OW28846   2.865   5.095   4.444
 9316SOL    HW128847   2.860   5.019   4.379
 9316SOL    HW228848   2.886   5.060   4.535
 9317SOL     OW28849   4.413   3.882   5.745
 9317SOL    HW128850   4.321   3.902   5.782
 9317SOL    HW228851   4.421   3.784   5.727
 9318SOL     OW28852   6.779   6.639   6.241
 9318SOL    HW128853   6.805   6.543   6.230
 9318SOL    HW228854   6.818   6.692   6.166
 9319SOL     OW28855   5.962   3.929   4.500
 9319SOL    HW128856   6.016   3.901   4.420
 9319SOL    HW228857   5.994   3.881   4.581
 9320SOL     OW28858   4.178   2.801   5.891
 9320SOL    HW128859   4.121   2.809   5.809
 9320SOL    HW228860   4.136   2.852   5.966
 9321SOL     OW28861   5.330   6.956   4.415
 9321SOL    HW128862   5.428   6.967   4.433
 9321SOL    HW228863   5.313   6.957   4.317
 9322SOL     OW28864   1.223   6.048   1.120
 9322SOL    HW128865   1.295   6.024   1.055
 9322SOL    HW228866   1.136   6.009   1.090
 9323SOL     OW28867   0.759   0.995   5.952
 9323SOL    HW128868   0.660   0.977   5.954
 9323SOL    HW228869   0.798   0.973   6.042
 9324SOL     OW28870   1.333   5.279   6.976
 9324SOL    HW128871   1.305   5.368   6.943
 9324SOL    HW228872   1.344   5.282   0.051
 9325SOL     OW28873   0.732   2.652   6.756
 9325SOL    HW128874   0.702   2.592   6.681
 9325SOL    HW228875   0.671   2.641   6.834
 9326SOL     OW28876   2.052   6.056   1.833
 9326SOL    HW128877   2.048   6.009   1.921
 9326SOL    HW228878   2.140   6.039   1.790
 9327SOL     OW28879   1.536   1.994   4.543
 9327SOL    HW128880   1.623   2.032   4.511
 9327SOL    HW228881   1.554   1.921   4.608
 9328SOL     OW28882   2.242   1.118   1.953
 9328SOL    HW128883   2.211   1.165   1.871
 9328SOL    HW228884   2.162   1.090   2.007
 9329SOL     OW28885   1.151   3.952   1.381
 9329SOL    HW128886   1.139   4.036   1.329
 9329SOL    HW228887   1.164   3.875   1.318
 9330SOL     OW28888   5.429   6.347   6.731
 9330SOL    HW128889   5.350   6.372   6.675
 9330SOL    HW228890   5.506   6.323   6.672
 9331SOL     OW28891   1.062   1.176   0.506
 9331SOL    HW128892   1.025   1.224   0.586
 9331SOL    HW228893   1.151   1.137   0.530
 9332SOL     OW28894   3.766   4.136   5.334
 9332SOL    HW128895   3.861   4.137   5.302
 9332SOL    HW228896   3.748   4.220   5.386
 9333SOL     OW28897   5.506   6.579   1.177
 9333SOL    HW128898   5.479   6.582   1.081
 9333SOL    HW228899   5.441   6.632   1.231
 9334SOL     OW28900   2.184   6.685   4.861
 9334SOL    HW128901   2.177   6.765   4.919
 9334SOL    HW228902   2.207   6.605   4.916
 9335SOL     OW28903   0.580   1.842   2.393
 9335SOL    HW128904   0.566   1.796   2.480
 9335SOL    HW228905   0.563   1.777   2.318
 9336SOL     OW28906   2.943   6.935   5.196
 9336SOL    HW128907   3.014   6.866   5.209
 9336SOL    HW228908   2.965   7.016   5.250
 9337SOL     OW28909   4.574   6.390   3.369
 9337SOL    HW128910   4.613   6.406   3.460
 9337SOL    HW228911   4.476   6.407   3.372
 9338SOL     OW28912   2.246   6.771   2.266
 9338SOL    HW128913   2.150   6.773   2.242
 9338SOL    HW228914   2.272   6.678   2.290
 9339SOL     OW28915   3.551   5.460   1.669
 9339SOL    HW128916   3.627   5.518   1.697
 9339SOL    HW228917   3.533   5.471   1.572
 9340SOL     OW28918   6.598   2.880   0.260
 9340SOL    HW128919   6.655   2.799   0.247
 9340SOL    HW228920   6.504   2.860   0.234
 9341SOL     OW28921   0.866   4.235   5.911
 9341SOL    HW128922   0.896   4.144   5.940
 9341SOL    HW228923   0.843   4.290   5.992
 9342SOL     OW28924   1.446   0.514   7.017
 9342SOL    HW128925   1.357   0.555   0.011
 9342SOL    HW228926   1.519   0.576   0.024
 9343SOL     OW28927   6.345   6.149   3.343
 9343SOL    HW128928   6.259   6.190   3.373
 9343SOL    HW228929   6.421   6.193   3.390
 9344SOL     OW28930   5.145   6.236   0.629
 9344SOL    HW128931   5.194   6.322   0.641
 9344SOL    HW228932   5.137   6.216   0.531
 9345SOL     OW28933   0.778   2.220   0.661
 9345SOL    HW128934   0.876   2.225   0.680
 9345SOL    HW228935   0.740   2.312   0.653
 9346SOL     OW28936   6.076   0.131   0.793
 9346SOL    HW128937   6.162   0.082   0.801
 9346SOL    HW228938   6.069   0.199   0.866
 9347SOL     OW28939   1.862   6.274   2.594
 9347SOL    HW128940   1.771   6.276   2.552
 9347SOL    HW228941   1.854   6.262   2.693
 9348SOL     OW28942   2.884   5.018   0.071
 9348SOL    HW128943   2.804   4.993   0.016
 9348SOL    HW228944   2.958   4.953   0.052
 9349SOL     OW28945   1.115   6.120   2.920
 9349SOL    HW128946   1.121   6.030   2.964
 9349SOL    HW228947   1.052   6.115   2.843
 9350SOL     OW28948   0.404   3.227   5.537
 9350SOL    HW128949   0.323   3.284   5.554
 9350SOL    HW228950   0.381   3.131   5.556
 9351SOL     OW28951   2.948   6.556   7.008
 9351SOL    HW128952   2.979   6.469   6.970
 9351SOL    HW228953   2.862   6.583   6.965
 9352SOL     OW28954   2.767   5.043   5.603
 9352SOL    HW128955   2.685   5.043   5.545
 9352SOL    HW228956   2.837   4.987   5.559
 9353SOL     OW28957   6.534   0.607   0.800
 9353SOL    HW128958   6.473   0.664   0.744
 9353SOL    HW228959   6.571   0.533   0.743
 9354SOL     OW28960   1.276   1.237   5.675
 9354SOL    HW128961   1.230   1.322   5.650
 9354SOL    HW228962   1.316   1.247   5.767
 9355SOL     OW28963   0.863   1.616   5.580
 9355SOL    HW128964   0.939   1.606   5.516
 9355SOL    HW228965   0.860   1.710   5.614
 9356SOL     OW28966   3.481   0.388   4.052
 9356SOL    HW128967   3.530   0.320   3.998
 9356SOL    HW228968   3.531   0.474   4.051
 9357SOL     OW28969   2.101   2.489   0.536
 9357SOL    HW128970   2.125   2.545   0.457
 9357SOL    HW228971   2.061   2.402   0.506
 9358SOL     OW28972   1.319   2.174   0.650
 9358SOL    HW128973   1.301   2.080   0.620
 9358SOL    HW228974   1.333   2.175   0.749
 9359SOL     OW28975   0.756   0.696   5.661
 9359SOL    HW128976   0.701   0.613   5.650
 9359SOL    HW228977   0.705   0.774   5.627
 9360SOL     OW28978   6.632   6.945   5.856
 9360SOL    HW128979   6.657   6.966   5.762
 9360SOL    HW228980   6.573   7.017   5.893
 9361SOL     OW28981   2.027   5.396   4.181
 9361SOL    HW128982   2.097   5.431   4.243
 9361SOL    HW228983   1.960   5.342   4.233
 9362SOL     OW28984   1.945   0.446   2.452
 9362SOL    HW128985   1.996   0.480   2.531
 9362SOL    HW228986   1.942   0.346   2.454
 9363SOL     OW28987   1.716   2.575   2.348
 9363SOL    HW128988   1.680   2.608   2.261
 9363SOL    HW228989   1.816   2.569   2.343
 9364SOL     OW28990   0.455   1.801   6.804
 9364SOL    HW128991   0.435   1.836   6.713
 9364SOL    HW228992   0.455   1.701   6.802
 9365SOL     OW28993   2.646   1.406   5.128
 9365SOL    HW128994   2.674   1.457   5.048
 9365SOL    HW228995   2.547   1.391   5.125
 9366SOL     OW28996   3.322   6.528   2.181
 9366SOL    HW128997   3.226   6.552   2.172
 9366SOL    HW228998   3.373   6.564   2.102
 9367SOL     OW28999   6.699   6.894   1.647
 9367SOL    HW129000   6.697   6.852   1.738
 9367SOL    HW229001   6.616   6.949   1.634
 9368SOL     OW29002   2.458   0.713   3.500
 9368SOL    HW129003   2.502   0.660   3.428
 9368SOL    HW229004   2.477   0.810   3.487
 9369SOL     OW29005   4.088   5.004   0.905
 9369SOL    HW129006   4.010   5.001   0.842
 9369SOL    HW229007   4.143   4.921   0.893
 9370SOL     OW29008   4.557   2.539   5.197
 9370SOL    HW129009   4.651   2.559   5.226
 9370SOL    HW229010   4.558   2.472   5.123
 9371SOL     OW29011   4.152   4.973   0.592
 9371SOL    HW129012   4.239   5.004   0.554
 9371SOL    HW229013   4.169   4.925   0.678
 9372SOL     OW29014   5.077   6.877   0.927
 9372SOL    HW129015   5.029   6.962   0.952
 9372SOL    HW229016   5.170   6.880   0.964
 9373SOL     OW29017   0.564   1.815   1.617
 9373SOL    HW129018   0.526   1.759   1.543
 9373SOL    HW229019   0.496   1.881   1.648
 9374SOL     OW29020   6.811   4.980   5.924
 9374SOL    HW129021   6.776   5.073   5.930
 9374SOL    HW229022   6.804   4.935   6.013
 9375SOL     OW29023   1.771   1.527   6.749
 9375SOL    HW129024   1.742   1.588   6.823
 9375SOL    HW229025   1.697   1.515   6.684
 9376SOL     OW29026   3.452   4.037   0.376
 9376SOL    HW129027   3.424   3.981   0.297
 9376SOL    HW229028   3.404   4.004   0.457
 9377SOL     OW29029   0.928   1.270   3.203
 9377SOL    HW129030   0.885   1.358   3.218
 9377SOL    HW229031   0.973   1.240   3.287
 9378SOL     OW29032   3.962   1.201   5.343
 9378SOL    HW129033   4.012   1.186   5.429
 9378SOL    HW229034   3.926   1.294   5.343
 9379SOL     OW29035   3.692   6.882   4.956
 9379SOL    HW129036   3.665   6.924   5.043
 9379SOL    HW229037   3.695   6.783   4.966
 9380SOL     OW29038   5.214   6.542   1.396
 9380SOL    HW129039   5.135   6.490   1.427
 9380SOL    HW229040   5.183   6.623   1.345
 9381SOL     OW29041   4.611   1.285   4.906
 9381SOL    HW129042   4.666   1.276   4.823
 9381SOL    HW229043   4.515   1.295   4.880
 9382SOL     OW29044   2.989   5.572   6.497
 9382SOL    HW129045   2.899   5.613   6.483
 9382SOL    HW229046   2.979   5.472   6.502
 9383SOL     OW29047   5.538   4.042   1.243
 9383SOL    HW129048   5.601   3.994   1.303
 9383SOL    HW229049   5.576   4.047   1.151
 9384SOL     OW29050   4.218   0.265   0.950
 9384SOL    HW129051   4.206   0.171   0.920
 9384SOL    HW229052   4.305   0.300   0.916
 9385SOL     OW29053   4.286   2.056   3.848
 9385SOL    HW129054   4.374   2.048   3.802
 9385SOL    HW229055   4.268   2.152   3.870
 9386SOL     OW29056   5.681   0.277   1.251
 9386SOL    HW129057   5.641   0.293   1.341
 9386SOL    HW229058   5.778   0.253   1.261
 9387SOL     OW29059   2.974   2.411   6.622
 9387SOL    HW129060   2.912   2.335   6.641
 9387SOL    HW229061   3.014   2.399   6.531
 9388SOL     OW29062   2.237   6.318   5.167
 9388SOL    HW129063   2.178   6.243   5.136
 9388SOL    HW229064   2.194   6.406   5.144
 9389SOL     OW29065   2.193   3.780   1.933
 9389SOL    HW129066   2.118   3.781   1.867
 9389SOL    HW229067   2.208   3.686   1.965
 9390SOL     OW29068   5.962   5.711   4.288
 9390SOL    HW129069   6.019   5.780   4.334
 9390SOL    HW229070   5.928   5.646   4.355
 9391SOL     OW29071   0.316   4.791   3.949
 9391SOL    HW129072   0.399   4.818   3.997
 9391SOL    HW229073   0.244   4.859   3.966
 9392SOL     OW29074   3.321   5.311   2.337
 9392SOL    HW129075   3.406   5.364   2.342
 9392SOL    HW229076   3.246   5.365   2.375
 9393SOL     OW29077   2.275   4.960   0.169
 9393SOL    HW129078   2.194   5.007   0.204
 9393SOL    HW229079   2.345   5.027   0.143
 9394SOL     OW29080   4.714   0.406   0.021
 9394SOL    HW129081   4.646   0.438   0.086
 9394SOL    HW229082   4.743   0.313   0.044
 9395SOL     OW29083   0.614   0.913   1.420
 9395SOL    HW129084   0.551   0.924   1.343
 9395SOL    HW229085   0.586   0.835   1.475
 9396SOL     OW29086   1.221   0.977   6.532
 9396SOL    HW129087   1.203   0.883   6.504
 9396SOL    HW229088   1.158   1.002   6.606
 9397SOL     OW29089   3.499   1.511   5.939
 9397SOL    HW129090   3.425   1.445   5.928
 9397SOL    HW229091   3.464   1.594   5.983
 9398SOL     OW29092   6.830   2.808   0.039
 9398SOL    HW129093   6.770   2.869   7.013
 9398SOL    HW229094   6.843   2.723   7.011
 9399SOL     OW29095   1.437   2.522   5.065
 9399SOL    HW129096   1.526   2.477   5.055
 9399SOL    HW229097   1.373   2.487   4.997
 9400SOL     OW29098   5.902   1.379   1.044
 9400SOL    HW129099   5.874   1.352   0.951
 9400SOL    HW229100   5.985   1.330   1.069
 9401SOL     OW29101   6.835   1.990   3.616
 9401SOL    HW129102   6.740   1.992   3.586
 9401SOL    HW229103   6.892   2.040   3.550
 9402SOL     OW29104   3.793   5.943   5.407
 9402SOL    HW129105   3.724   5.876   5.380
 9402SOL    HW229106   3.787   5.958   5.506
 9403SOL     OW29107   5.796   1.973   0.959
 9403SOL    HW129108   5.736   2.052   0.949
 9403SOL    HW229109   5.742   1.889   0.954
 9404SOL     OW29110   2.773   2.817   0.722
 9404SOL    HW129111   2.858   2.790   0.676
 9404SOL    HW229112   2.714   2.736   0.733
 9405SOL     OW29113   5.991   5.517   5.032
 9405SOL    HW129114   5.967   5.500   5.127
 9405SOL    HW229115   6.063   5.586   5.026
 9406SOL     OW29116   1.769   0.954   0.804
 9406SOL    HW129117   1.809   0.867   0.832
 9406SOL    HW229118   1.695   0.978   0.867
 9407SOL     OW29119   1.970   4.524   4.587
 9407SOL    HW129120   2.036   4.522   4.663
 9407SOL    HW229121   1.973   4.615   4.545
 9408SOL     OW29122   5.556   5.219   3.547
 9408SOL    HW129123   5.505   5.171   3.619
 9408SOL    HW229124   5.618   5.285   3.588
 9409SOL     OW29125   5.796   4.912   1.499
 9409SOL    HW129126   5.795   5.012   1.494
 9409SOL    HW229127   5.857   4.876   1.428
 9410SOL     OW29128   4.429   0.144   0.654
 9410SOL    HW129129   4.514   0.194   0.668
 9410SOL    HW229130   4.426   0.065   0.716
 9411SOL     OW29131   3.829   3.884   4.950
 9411SOL    HW129132   3.852   3.980   4.933
 9411SOL    HW229133   3.768   3.851   4.879
 9412SOL     OW29134   4.132   0.012   1.719
 9412SOL    HW129135   4.042   0.007   1.676
 9412SOL    HW229136   4.125   7.011   1.815
 9413SOL     OW29137   3.850   5.082   2.952
 9413SOL    HW129138   3.797   5.058   2.871
 9413SOL    HW229139   3.879   4.999   2.999
 9414SOL     OW29140   2.127   0.977   2.521
 9414SOL    HW129141   2.180   0.946   2.442
 9414SOL    HW229142   2.186   1.029   2.582
 9415SOL     OW29143   5.095   0.919   0.999
 9415SOL    HW129144   5.182   0.969   1.003
 9415SOL    HW229145   5.024   0.980   0.963
 9416SOL     OW29146   6.650   4.614   5.858
 9416SOL    HW129147   6.642   4.595   5.956
 9416SOL    HW229148   6.592   4.549   5.807
 9417SOL     OW29149   4.002   6.109   3.207
 9417SOL    HW129150   3.905   6.082   3.213
 9417SOL    HW229151   4.055   6.033   3.170
 9418SOL     OW29152   2.628   2.144   5.018
 9418SOL    HW129153   2.630   2.189   5.108
 9418SOL    HW229154   2.556   2.183   4.962
 9419SOL     OW29155   2.889   2.626   5.898
 9419SOL    HW129156   2.914   2.632   5.802
 9419SOL    HW229157   2.862   2.532   5.920
 9420SOL     OW29158   5.178   3.496   6.048
 9420SOL    HW129159   5.267   3.542   6.042
 9420SOL    HW229160   5.186   3.403   6.012
 9421SOL     OW29161   3.954   6.671   0.073
 9421SOL    HW129162   4.009   6.694   0.153
 9421SOL    HW229163   4.004   6.696   7.014
 9422SOL     OW29164   1.978   6.481   5.977
 9422SOL    HW129165   1.991   6.418   5.901
 9422SOL    HW229166   1.987   6.431   6.064
 9423SOL     OW29167   5.095   4.958   0.757
 9423SOL    HW129168   5.105   4.951   0.856
 9423SOL    HW229169   5.037   4.883   0.725
 9424SOL     OW29170   6.178   6.567   3.884
 9424SOL    HW129171   6.088   6.609   3.897
 9424SOL    HW229172   6.176   6.508   3.803
 9425SOL     OW29173   0.226   5.557   1.317
 9425SOL    HW129174   0.323   5.534   1.319
 9425SOL    HW229175   0.214   5.656   1.321
 9426SOL     OW29176   4.741   1.443   5.836
 9426SOL    HW129177   4.708   1.492   5.916
 9426SOL    HW229178   4.786   1.358   5.864
 9427SOL     OW29179   2.924   5.824   2.010
 9427SOL    HW129180   2.946   5.731   1.981
 9427SOL    HW229181   3.002   5.884   1.992
 9428SOL     OW29182   0.162   6.424   4.718
 9428SOL    HW129183   0.109   6.355   4.767
 9428SOL    HW229184   0.253   6.389   4.699
 9429SOL     OW29185   3.017   2.279   4.160
 9429SOL    HW129186   2.967   2.309   4.079
 9429SOL    HW229187   3.034   2.357   4.220
 9430SOL     OW29188   1.189   0.247   3.598
 9430SOL    HW129189   1.231   0.161   3.628
 9430SOL    HW229190   1.091   0.232   3.583
 9431SOL     OW29191   1.364   5.054   5.219
 9431SOL    HW129192   1.382   5.126   5.286
 9431SOL    HW229193   1.451   5.020   5.184
 9432SOL     OW29194   6.621   1.734   2.819
 9432SOL    HW129195   6.631   1.684   2.905
 9432SOL    HW229196   6.686   1.811   2.818
 9433SOL     OW29197   4.050   5.629   1.632
 9433SOL    HW129198   4.021   5.724   1.643
 9433SOL    HW229199   4.146   5.626   1.604
 9434SOL     OW29200   5.229   5.913   4.885
 9434SOL    HW129201   5.215   5.869   4.796
 9434SOL    HW229202   5.319   5.957   4.887
 9435SOL     OW29203   6.850   3.627   6.822
 9435SOL    HW129204   6.767   3.589   6.779
 9435SOL    HW229205   6.824   3.682   6.901
 9436SOL     OW29206   2.998   2.203   2.711
 9436SOL    HW129207   2.926   2.172   2.649
 9436SOL    HW229208   3.083   2.213   2.660
 9437SOL     OW29209   4.257   1.371   3.953
 9437SOL    HW129210   4.171   1.322   3.966
 9437SOL    HW229211   4.248   1.464   3.987
 9438SOL     OW29212   4.762   0.239   3.161
 9438SOL    HW129213   4.842   0.283   3.201
 9438SOL    HW229214   4.774   0.230   3.062
 9439SOL     OW29215   1.169   4.774   1.233
 9439SOL    HW129216   1.164   4.866   1.271
 9439SOL    HW229217   1.198   4.779   1.137
 9440SOL     OW29218   1.613   5.308   4.142
 9440SOL    HW129219   1.641   5.259   4.224
 9440SOL    HW229220   1.680   5.378   4.120
 9441SOL     OW29221   6.679   6.257   4.671
 9441SOL    HW129222   6.742   6.323   4.630
 9441SOL    HW229223   6.722   6.216   4.752
 9442SOL     OW29224   6.894   2.888   0.940
 9442SOL    HW129225   6.896   2.869   0.842
 9442SOL    HW229226   6.816   2.841   0.982
 9443SOL     OW29227   1.387   4.688   1.396
 9443SOL    HW129228   1.333   4.707   1.313
 9443SOL    HW229229   1.329   4.701   1.476
 9444SOL     OW29230   2.083   5.928   5.471
 9444SOL    HW129231   1.984   5.913   5.475
 9444SOL    HW229232   2.125   5.859   5.412
 9445SOL     OW29233   1.084   1.492   3.853
 9445SOL    HW129234   1.114   1.401   3.880
 9445SOL    HW229235   1.076   1.550   3.934
 9446SOL     OW29236   5.160   5.364   3.365
 9446SOL    HW129237   5.230   5.389   3.432
 9446SOL    HW229238   5.069   5.373   3.405
 9447SOL     OW29239   5.701   5.136   2.330
 9447SOL    HW129240   5.706   5.219   2.385
 9447SOL    HW229241   5.620   5.139   2.272
 9448SOL     OW29242   5.006   2.841   0.131
 9448SOL    HW129243   4.927   2.898   0.107
 9448SOL    HW229244   4.990   2.748   0.098
 9449SOL     OW29245   4.093   0.136   3.538
 9449SOL    HW129246   4.016   0.074   3.551
 9449SOL    HW229247   4.095   0.203   3.613
 9450SOL     OW29248   0.602   0.003   2.019
 9450SOL    HW129249   0.675   0.042   1.962
 9450SOL    HW229250   0.574   6.939   1.981
 9451SOL     OW29251   4.474   5.339   0.354
 9451SOL    HW129252   4.511   5.351   0.262
 9451SOL    HW229253   4.548   5.336   0.420
 9452SOL     OW29254   5.880   2.331   6.152
 9452SOL    HW129255   5.904   2.396   6.224
 9452SOL    HW229256   5.870   2.239   6.191
 9453SOL     OW29257   6.497   4.539   2.768
 9453SOL    HW129258   6.471   4.509   2.676
 9453SOL    HW229259   6.433   4.502   2.835
 9454SOL     OW29260   5.825   5.408   0.686
 9454SOL    HW129261   5.866   5.351   0.757
 9454SOL    HW229262   5.813   5.354   0.603
 9455SOL     OW29263   4.467   1.245   1.634
 9455SOL    HW129264   4.496   1.301   1.711
 9455SOL    HW229265   4.547   1.220   1.579
 9456SOL     OW29266   6.647   2.837   2.273
 9456SOL    HW129267   6.604   2.851   2.184
 9456SOL    HW229268   6.577   2.837   2.344
 9457SOL     OW29269   6.463   6.392   4.550
 9457SOL    HW129270   6.435   6.467   4.609
 9457SOL    HW229271   6.529   6.334   4.598
 9458SOL     OW29272   0.198   4.191   0.028
 9458SOL    HW129273   0.131   4.118   0.013
 9458SOL    HW229274   0.290   4.156   0.011
 9459SOL     OW29275   6.117   4.782   5.088
 9459SOL    HW129276   6.171   4.735   5.159
 9459SOL    HW229277   6.167   4.780   5.002
 9460SOL     OW29278   2.080   3.295   3.272
 9460SOL    HW129279   1.995   3.277   3.320
 9460SOL    HW229280   2.140   3.216   3.280
 9461SOL     OW29281   1.689   1.757   1.158
 9461SOL    HW129282   1.702   1.760   1.059
 9461SOL    HW229283   1.778   1.752   1.204
 9462SOL     OW29284   0.023   1.120   5.684
 9462SOL    HW129285   0.063   1.189   5.625
 9462SOL    HW229286   0.089   1.046   5.698
 9463SOL     OW29287   0.397   5.081   0.404
 9463SOL    HW129288   0.492   5.082   0.433
 9463SOL    HW229289   0.389   5.036   0.315
 9464SOL     OW29290   1.220   0.688   2.047
 9464SOL    HW129291   1.196   0.609   1.991
 9464SOL    HW229292   1.223   0.770   1.990
 9465SOL     OW29293   0.916   5.930   0.069
 9465SOL    HW129294   0.974   6.011   0.074
 9465SOL    HW229295   0.931   5.884   7.005
 9466SOL     OW29296   3.975   4.123   5.702
 9466SOL    HW129297   3.879   4.142   5.723
 9466SOL    HW229298   4.001   4.174   5.619
 9467SOL     OW29299   1.672   3.989   1.559
 9467SOL    HW129300   1.678   3.992   1.659
 9467SOL    HW229301   1.576   3.985   1.532
 9468SOL     OW29302   6.359   1.947   1.268
 9468SOL    HW129303   6.459   1.956   1.276
 9468SOL    HW229304   6.315   2.004   1.337
 9469SOL     OW29305   6.067   6.444   2.326
 9469SOL    HW129306   6.048   6.541   2.338
 9469SOL    HW229307   6.128   6.412   2.399
 9470SOL     OW29308   3.625   3.839   0.884
 9470SOL    HW129309   3.718   3.875   0.891
 9470SOL    HW229310   3.588   3.860   0.793
 9471SOL     OW29311   6.619   3.207   4.865
 9471SOL    HW129312   6.672   3.278   4.910
 9471SOL    HW229313   6.680   3.147   4.814
 9472SOL     OW29314   1.933   4.319   5.870
 9472SOL    HW129315   1.907   4.372   5.790
 9472SOL    HW229316   2.000   4.371   5.924
 9473SOL     OW29317   2.740   3.553   1.614
 9473SOL    HW129318   2.650   3.594   1.628
 9473SOL    HW229319   2.742   3.461   1.653
 9474SOL     OW29320   6.010   4.215   0.853
 9474SOL    HW129321   6.074   4.139   0.863
 9474SOL    HW229322   5.947   4.197   0.778
 9475SOL     OW29323   6.305   3.325   6.591
 9475SOL    HW129324   6.289   3.261   6.666
 9475SOL    HW229325   6.245   3.302   6.514
 9476SOL     OW29326   4.143   3.801   1.157
 9476SOL    HW129327   4.209   3.771   1.225
 9476SOL    HW229328   4.122   3.725   1.095
 9477SOL     OW29329   1.211   5.387   0.956
 9477SOL    HW129330   1.247   5.479   0.940
 9477SOL    HW229331   1.153   5.387   1.038
 9478SOL     OW29332   0.130   3.286   5.431
 9478SOL    HW129333   0.065   3.356   5.403
 9478SOL    HW229334   0.149   3.226   5.353
 9479SOL     OW29335   4.318   0.857   2.288
 9479SOL    HW129336   4.312   0.938   2.346
 9479SOL    HW229337   4.320   0.775   2.346
 9480SOL     OW29338   5.479   0.674   1.049
 9480SOL    HW129339   5.390   0.676   1.004
 9480SOL    HW229340   5.472   0.714   1.140
 9481SOL     OW29341   4.947   0.333   4.092
 9481SOL    HW129342   5.016   0.371   4.030
 9481SOL    HW229343   4.945   0.387   4.176
 9482SOL     OW29344   5.411   4.461   6.152
 9482SOL    HW129345   5.399   4.392   6.223
 9482SOL    HW229346   5.474   4.532   6.184
 9483SOL     OW29347   5.750   4.851   0.318
 9483SOL    HW129348   5.753   4.921   0.247
 9483SOL    HW229349   5.664   4.857   0.368
 9484SOL     OW29350   1.530   5.578   3.851
 9484SOL    HW129351   1.568   5.493   3.816
 9484SOL    HW229352   1.587   5.611   3.926
 9485SOL     OW29353   6.828   1.582   5.528
 9485SOL    HW129354   6.791   1.489   5.518
 9485SOL    HW229355   6.928   1.577   5.526
 9486SOL     OW29356   6.582   5.405   6.028
 9486SOL    HW129357   6.666   5.422   6.080
 9486SOL    HW229358   6.604   5.353   5.946
 9487SOL     OW29359   2.968   3.494   3.860
 9487SOL    HW129360   3.006   3.403   3.877
 9487SOL    HW229361   2.943   3.536   3.947
 9488SOL     OW29362   1.102   0.765   2.699
 9488SOL    HW129363   1.166   0.687   2.707
 9488SOL    HW229364   1.141   0.833   2.638
 9489SOL     OW29365   0.003   4.252   6.778
 9489SOL    HW129366   0.081   4.314   6.787
 9489SOL    HW229367   0.024   4.182   6.709
 9490SOL     OW29368   5.670   3.995   4.795
 9490SOL    HW129369   5.748   3.995   4.731
 9490SOL    HW229370   5.602   3.929   4.763
 9491SOL     OW29371   4.657   0.190   2.343
 9491SOL    HW129372   4.638   0.092   2.352
 9491SOL    HW229373   4.695   0.209   2.252
 9492SOL     OW29374   4.821   2.955   3.838
 9492SOL    HW129375   4.786   2.907   3.757
 9492SOL    HW229376   4.920   2.963   3.831
 9493SOL     OW29377   2.933   6.715   2.916
 9493SOL    HW129378   3.011   6.690   2.859
 9493SOL    HW229379   2.854   6.736   2.857
 9494SOL     OW29380   4.897   2.463   2.405
 9494SOL    HW129381   4.912   2.533   2.474
 9494SOL    HW229382   4.804   2.471   2.369
 9495SOL     OW29383   6.093   2.578   0.835
 9495SOL    HW129384   6.100   2.571   0.735
 9495SOL    HW229385   6.077   2.487   0.874
 9496SOL     OW29386   6.469   3.331   0.299
 9496SOL    HW129387   6.445   3.235   0.284
 9496SOL    HW229388   6.455   3.383   0.214
 9497SOL     OW29389   5.828   4.690   4.796
 9497SOL    HW129390   5.842   4.782   4.833
 9497SOL    HW229391   5.875   4.682   4.708
 9498SOL     OW29392   1.116   6.397   5.926
 9498SOL    HW129393   1.035   6.382   5.983
 9498SOL    HW229394   1.087   6.412   5.832
 9499SOL     OW29395   5.768   6.523   3.387
 9499SOL    HW129396   5.682   6.541   3.434
 9499SOL    HW229397   5.750   6.478   3.300
 9500SOL     OW29398   2.763   1.768   0.520
 9500SOL    HW129399   2.780   1.865   0.500
 9500SOL    HW229400   2.846   1.715   0.499
 9501SOL     OW29401   1.339   3.635   4.978
 9501SOL    HW129402   1.326   3.704   5.050
 9501SOL    HW229403   1.382   3.554   5.017
 9502SOL     OW29404   5.645   4.513   3.678
 9502SOL    HW129405   5.691   4.594   3.643
 9502SOL    HW229406   5.585   4.476   3.607
 9503SOL     OW29407   6.588   0.549   0.080
 9503SOL    HW129408   6.575   0.596   0.167
 9503SOL    HW229409   6.670   0.585   0.035
 9504SOL     OW29410   6.459   4.831   2.994
 9504SOL    HW129411   6.452   4.809   2.896
 9504SOL    HW229412   6.474   4.747   3.046
 9505SOL     OW29413   5.035   2.821   0.405
 9505SOL    HW129414   5.029   2.869   0.318
 9505SOL    HW229415   5.109   2.860   0.460
 9506SOL     OW29416   3.919   1.202   1.584
 9506SOL    HW129417   3.977   1.221   1.663
 9506SOL    HW229418   3.914   1.283   1.526
 9507SOL     OW29419   0.135   5.826   1.360
 9507SOL    HW129420   0.089   5.858   1.277
 9507SOL    HW229421   0.125   5.893   1.432
 9508SOL     OW29422   5.139   1.526   2.414
 9508SOL    HW129423   5.189   1.512   2.499
 9508SOL    HW229424   5.186   1.593   2.357
 9509SOL     OW29425   5.550   1.519   4.004
 9509SOL    HW129426   5.480   1.447   4.001
 9509SOL    HW229427   5.613   1.508   3.927
 9510SOL     OW29428   1.427   3.443   2.160
 9510SOL    HW129429   1.333   3.408   2.162
 9510SOL    HW229430   1.429   3.536   2.198
 9511SOL     OW29431   0.760   1.247   0.765
 9511SOL    HW129432   0.729   1.169   0.709
 9511SOL    HW229433   0.860   1.252   0.763
 9512SOL     OW29434   6.245   2.505   1.472
 9512SOL    HW129435   6.152   2.523   1.442
 9512SOL    HW229436   6.308   2.567   1.424
 9513SOL     OW29437   4.932   3.809   4.763
 9513SOL    HW129438   4.880   3.741   4.813
 9513SOL    HW229439   5.009   3.765   4.716
 9514SOL     OW29440   3.665   2.951   1.220
 9514SOL    HW129441   3.616   3.002   1.290
 9514SOL    HW229442   3.760   2.983   1.215
 9515SOL     OW29443   6.799   6.344   2.856
 9515SOL    HW129444   6.810   6.328   2.758
 9515SOL    HW229445   6.849   6.274   2.908
 9516SOL     OW29446   1.353   2.783   0.026
 9516SOL    HW129447   1.447   2.796   0.057
 9516SOL    HW229448   1.318   2.696   0.060
 9517SOL     OW29449   0.436   6.818   1.955
 9517SOL    HW129450   0.382   6.892   1.914
 9517SOL    HW229451   0.430   6.824   2.054
 9518SOL     OW29452   6.517   6.657   1.310
 9518SOL    HW129453   6.486   6.698   1.225
 9518SOL    HW229454   6.449   6.672   1.382
 9519SOL     OW29455   1.380   2.439   5.791
 9519SOL    HW129456   1.423   2.482   5.712
 9519SOL    HW229457   1.282   2.456   5.789
 9520SOL     OW29458   4.228   6.655   2.148
 9520SOL    HW129459   4.265   6.730   2.202
 9520SOL    HW229460   4.292   6.631   2.076
 9521SOL     OW29461   5.958   4.958   3.134
 9521SOL    HW129462   5.915   4.869   3.123
 9521SOL    HW229463   6.048   4.957   3.089
 9522SOL     OW29464   3.568   5.063   5.563
 9522SOL    HW129465   3.596   5.070   5.658
 9522SOL    HW229466   3.540   4.970   5.542
 9523SOL     OW29467   1.161   6.980   4.497
 9523SOL    HW129468   1.102   6.954   4.420
 9523SOL    HW229469   1.247   6.930   4.490
 9524SOL     OW29470   6.001   3.670   0.419
 9524SOL    HW129471   6.058   3.589   0.435
 9524SOL    HW229472   5.905   3.643   0.424
 9525SOL     OW29473   4.198   0.423   4.762
 9525SOL    HW129474   4.211   0.327   4.737
 9525SOL    HW229475   4.283   0.460   4.800
 9526SOL     OW29476   4.848   5.139   0.396
 9526SOL    HW129477   4.933   5.179   0.432
 9526SOL    HW229478   4.771   5.197   0.421
 9527SOL     OW29479   6.791   0.855   0.360
 9527SOL    HW129480   6.790   0.770   0.413
 9527SOL    HW229481   6.838   0.926   0.412
 9528SOL     OW29482   5.291   0.789   2.109
 9528SOL    HW129483   5.319   0.739   2.027
 9528SOL    HW229484   5.294   0.727   2.188
 9529SOL     OW29485   1.496   2.577   5.587
 9529SOL    HW129486   1.573   2.518   5.563
 9529SOL    HW229487   1.486   2.650   5.519
 9530SOL     OW29488   2.570   1.325   3.772
 9530SOL    HW129489   2.487   1.380   3.758
 9530SOL    HW229490   2.602   1.337   3.866
 9531SOL     OW29491   2.662   6.569   3.673
 9531SOL    HW129492   2.748   6.518   3.684
 9531SOL    HW229493   2.627   6.595   3.763
 9532SOL     OW29494   3.706   1.390   1.118
 9532SOL    HW129495   3.748   1.338   1.044
 9532SOL    HW229496   3.777   1.433   1.174
 9533SOL     OW29497   0.291   1.459   3.922
 9533SOL    HW129498   0.226   1.406   3.867
 9533SOL    HW229499   0.328   1.401   3.995
 9534SOL     OW29500   4.936   1.183   4.211
 9534SOL    HW129501   4.889   1.102   4.177
 9534SOL    HW229502   5.030   1.160   4.235
 9535SOL     OW29503   2.934   1.545   4.920
 9535SOL    HW129504   2.934   1.479   4.845
 9535SOL    HW229505   2.860   1.611   4.906
 9536SOL     OW29506   2.098   5.622   6.845
 9536SOL    HW129507   2.153   5.696   6.805
 9536SOL    HW229508   2.108   5.540   6.789
 9537SOL     OW29509   2.236   0.573   0.227
 9537SOL    HW129510   2.211   0.650   0.285
 9537SOL    HW229511   2.154   0.533   0.186
 9538SOL     OW29512   5.736   4.165   3.032
 9538SOL    HW129513   5.772   4.244   3.083
 9538SOL    HW229514   5.712   4.092   3.096
 9539SOL     OW29515   1.257   3.086   0.034
 9539SOL    HW129516   1.206   3.019   7.004
 9539SOL    HW229517   1.351   3.054   0.048
 9540SOL     OW29518   5.940   3.377   5.106
 9540SOL    HW129519   6.029   3.401   5.145
 9540SOL    HW229520   5.913   3.286   5.138
 9541SOL     OW29521   6.226   2.103   2.966
 9541SOL    HW129522   6.224   2.055   2.878
 9541SOL    HW229523   6.137   2.148   2.981
 9542SOL     OW29524   4.958   3.356   4.567
 9542SOL    HW129525   4.938   3.383   4.661
 9542SOL    HW229526   4.987   3.260   4.565
 9543SOL     OW29527   4.012   2.342   0.235
 9543SOL    HW129528   4.022   2.441   0.236
 9543SOL    HW229529   3.997   2.309   0.328
 9544SOL     OW29530   4.695   6.937   1.465
 9544SOL    HW129531   4.680   6.946   1.367
 9544SOL    HW229532   4.690   6.840   1.491
 9545SOL     OW29533   1.158   0.211   4.126
 9545SOL    HW129534   1.229   0.165   4.072
 9545SOL    HW229535   1.101   0.266   4.065
 9546SOL     OW29536   3.088   4.304   1.712
 9546SOL    HW129537   3.037   4.248   1.647
 9546SOL    HW229538   3.032   4.384   1.738
 9547SOL     OW29539   5.592   6.540   2.485
 9547SOL    HW129540   5.555   6.595   2.411
 9547SOL    HW229541   5.616   6.449   2.450
 9548SOL     OW29542   6.480   6.952   2.052
 9548SOL    HW129543   6.469   7.000   1.965
 9548SOL    HW229544   6.552   6.883   2.042
 9549SOL     OW29545   2.031   5.965   0.022
 9549SOL    HW129546   1.973   6.035   7.006
 9549SOL    HW229547   1.980   5.918   0.095
 9550SOL     OW29548   1.897   0.740   0.295
 9550SOL    HW129549   1.918   0.688   0.377
 9550SOL    HW229550   1.799   0.760   0.292
 9551SOL     OW29551   1.395   5.549   4.631
 9551SOL    HW129552   1.355   5.458   4.643
 9551SOL    HW229553   1.437   5.579   4.717
 9552SOL     OW29554   6.638   5.273   2.663
 9552SOL    HW129555   6.546   5.305   2.641
 9552SOL    HW229556   6.678   5.330   2.735
 9553SOL     OW29557   5.600   4.930   6.487
 9553SOL    HW129558   5.557   4.919   6.398
 9553SOL    HW229559   5.655   4.849   6.508
 9554SOL     OW29560   1.796   2.604   1.589
 9554SOL    HW129561   1.788   2.645   1.498
 9554SOL    HW229562   1.723   2.538   1.603
 9555SOL     OW29563   0.231   2.376   6.424
 9555SOL    HW129564   0.174   2.322   6.486
 9555SOL    HW229565   0.225   2.473   6.450
 9556SOL     OW29566   5.871   0.945   1.819
 9556SOL    HW129567   5.807   0.985   1.753
 9556SOL    HW229568   5.836   0.958   1.912
 9557SOL     OW29569   4.922   1.925   1.362
 9557SOL    HW129570   4.910   1.912   1.264
 9557SOL    HW229571   5.003   1.874   1.392
 9558SOL     OW29572   7.008   4.320   1.568
 9558SOL    HW129573   0.021   4.328   1.475
 9558SOL    HW229574   7.018   4.225   1.599
 9559SOL     OW29575   0.478   4.856   3.239
 9559SOL    HW129576   0.544   4.817   3.175
 9559SOL    HW229577   0.443   4.942   3.202
 9560SOL     OW29578   3.491   2.258   5.848
 9560SOL    HW129579   3.504   2.357   5.844
 9560SOL    HW229580   3.561   2.213   5.793
 9561SOL     OW29581   3.261   5.025   6.523
 9561SOL    HW129582   3.310   5.069   6.598
 9561SOL    HW229583   3.165   5.015   6.548
 9562SOL     OW29584   6.034   5.288   3.911
 9562SOL    HW129585   6.122   5.337   3.913
 9562SOL    HW229586   6.037   5.212   3.975
 9563SOL     OW29587   0.832   1.197   5.763
 9563SOL    HW129588   0.809   1.122   5.825
 9563SOL    HW229589   0.896   1.258   5.809
 9564SOL     OW29590   0.033   0.320   5.838
 9564SOL    HW129591   0.046   0.221   5.833
 9564SOL    HW229592   6.960   0.342   5.843
 9565SOL     OW29593   2.730   5.481   5.135
 9565SOL    HW129594   2.692   5.409   5.192
 9565SOL    HW229595   2.757   5.558   5.192
 9566SOL     OW29596   2.058   5.808   4.871
 9566SOL    HW129597   2.047   5.815   4.970
 9566SOL    HW229598   1.998   5.735   4.837
 9567SOL     OW29599   5.586   5.869   3.416
 9567SOL    HW129600   5.583   5.794   3.483
 9567SOL    HW229601   5.648   5.940   3.448
 9568SOL     OW29602   6.356   3.472   4.649
 9568SOL    HW129603   6.291   3.434   4.715
 9568SOL    HW229604   6.340   3.571   4.639
 9569SOL     OW29605   5.299   0.447   1.185
 9569SOL    HW129606   5.316   0.506   1.106
 9569SOL    HW229607   5.334   0.355   1.165
 9570SOL     OW29608   0.272   3.571   6.190
 9570SOL    HW129609   0.195   3.635   6.191
 9570SOL    HW229610   0.273   3.521   6.104
 9571SOL     OW29611   3.242   1.712   0.869
 9571SOL    HW129612   3.286   1.789   0.916
 9571SOL    HW229613   3.304   1.675   0.800
 9572SOL     OW29614   0.767   3.110   0.584
 9572SOL    HW129615   0.671   3.082   0.579
 9572SOL    HW229616   0.800   3.130   0.492
 9573SOL     OW29617   4.678   1.985   1.748
 9573SOL    HW129618   4.675   1.960   1.651
 9573SOL    HW229619   4.585   1.999   1.782
 9574SOL     OW29620   2.113   1.614   3.775
 9574SOL    HW129621   2.062   1.559   3.841
 9574SOL    HW229622   2.077   1.597   3.683
 9575SOL     OW29623   3.436   1.849   2.436
 9575SOL    HW129624   3.474   1.940   2.455
 9575SOL    HW229625   3.343   1.843   2.474
 9576SOL     OW29626   4.490   3.039   5.708
 9576SOL    HW129627   4.424   3.083   5.647
 9576SOL    HW229628   4.501   3.095   5.790
 9577SOL     OW29629   0.596   5.589   3.509
 9577SOL    HW129630   0.651   5.550   3.583
 9577SOL    HW229631   0.604   5.531   3.428
 9578SOL     OW29632   6.510   4.518   1.284
 9578SOL    HW129633   6.566   4.578   1.341
 9578SOL    HW229634   6.450   4.574   1.227
 9579SOL     OW29635   1.439   4.683   2.485
 9579SOL    HW129636   1.377   4.620   2.439
 9579SOL    HW229637   1.484   4.742   2.417
 9580SOL     OW29638   4.057   3.768   4.993
 9580SOL    HW129639   4.096   3.770   4.901
 9580SOL    HW229640   3.964   3.806   4.991
 9581SOL     OW29641   0.533   0.230   6.878
 9581SOL    HW129642   0.471   0.154   6.898
 9581SOL    HW229643   0.625   0.194   6.859
 9582SOL     OW29644   4.242   5.570   2.952
 9582SOL    HW129645   4.212   5.562   2.857
 9582SOL    HW229646   4.329   5.619   2.955
 9583SOL     OW29647   1.509   4.624   2.733
 9583SOL    HW129648   1.487   4.640   2.637
 9583SOL    HW229649   1.426   4.593   2.781
 9584SOL     OW29650   5.173   5.163   0.058
 9584SOL    HW129651   5.272   5.178   0.051
 9584SOL    HW229652   5.148   5.083   0.004
 9585SOL     OW29653   5.824   1.152   2.522
 9585SOL    HW129654   5.923   1.157   2.511
 9585SOL    HW229655   5.781   1.231   2.479
 9586SOL     OW29656   3.883   4.867   2.578
 9586SOL    HW129657   3.942   4.858   2.659
 9586SOL    HW229658   3.939   4.866   2.496
 9587SOL     OW29659   4.443   6.681   1.649
 9587SOL    HW129660   4.387   6.757   1.615
 9587SOL    HW229661   4.384   6.608   1.681
 9588SOL     OW29662   6.165   1.440   3.508
 9588SOL    HW129663   6.094   1.419   3.576
 9588SOL    HW229664   6.142   1.525   3.461
 9589SOL     OW29665   3.950   2.037   4.946
 9589SOL    HW129666   3.893   1.969   4.992
 9589SOL    HW229667   3.974   2.005   4.855
 9590SOL     OW29668   0.096   4.891   5.258
 9590SOL    HW129669   0.112   4.876   5.161
 9590SOL    HW229670   0.176   4.934   5.299
 9591SOL     OW29671   6.913   4.737   2.369
 9591SOL    HW129672   6.961   4.755   2.284
 9591SOL    HW229673   6.910   4.820   2.424
 9592SOL     OW29674   4.201   5.490   0.914
 9592SOL    HW129675   4.117   5.444   0.942
 9592SOL    HW229676   4.264   5.494   0.992
 9593SOL     OW29677   1.976   2.680   3.785
 9593SOL    HW129678   1.885   2.694   3.746
 9593SOL    HW229679   2.025   2.611   3.732
 9594SOL     OW29680   5.622   0.203   0.685
 9594SOL    HW129681   5.704   0.250   0.720
 9594SOL    HW229682   5.542   0.262   0.697
 9595SOL     OW29683   2.159   4.849   5.227
 9595SOL    HW129684   2.088   4.840   5.297
 9595SOL    HW229685   2.226   4.776   5.237
 9596SOL     OW29686   5.331   4.854   2.201
 9596SOL    HW129687   5.264   4.819   2.136
 9596SOL    HW229688   5.284   4.886   2.283
 9597SOL     OW29689   1.428   4.064   2.286
 9597SOL    HW129690   1.387   4.033   2.199
 9597SOL    HW229691   1.517   4.106   2.268
 9598SOL     OW29692   0.360   6.094   5.233
 9598SOL    HW129693   0.357   6.039   5.150
 9598SOL    HW229694   0.268   6.104   5.271
 9599SOL     OW29695   4.060   2.233   5.883
 9599SOL    HW129696   4.077   2.140   5.915
 9599SOL    HW229697   4.013   2.230   5.795
 9600SOL     OW29698   1.662   5.535   6.747
 9600SOL    HW129699   1.745   5.591   6.753
 9600SOL    HW229700   1.651   5.483   6.832
 9601SOL     OW29701   0.881   0.074   4.704
 9601SOL    HW129702   0.914   7.018   4.754
 9601SOL    HW229703   0.899   0.063   4.607
 9602SOL     OW29704   0.983   5.836   6.086
 9602SOL    HW129705   0.900   5.827   6.030
 9602SOL    HW229706   0.987   5.759   6.150
 9603SOL     OW29707   1.752   5.205   1.760
 9603SOL    HW129708   1.661   5.235   1.732
 9603SOL    HW229709   1.759   5.106   1.753
 9604SOL     OW29710   6.149   0.400   6.036
 9604SOL    HW129711   6.113   0.493   6.027
 9604SOL    HW229712   6.120   0.346   5.957
 9605SOL     OW29713   3.663   4.757   0.474
 9605SOL    HW129714   3.671   4.738   0.376
 9605SOL    HW229715   3.641   4.854   0.487
 9606SOL     OW29716   6.842   1.794   4.258
 9606SOL    HW129717   6.931   1.813   4.216
 9606SOL    HW229718   6.853   1.722   4.326
 9607SOL     OW29719   6.601   3.085   3.513
 9607SOL    HW129720   6.587   3.126   3.423
 9607SOL    HW229721   6.514   3.083   3.563
 9608SOL     OW29722   5.959   0.886   1.545
 9608SOL    HW129723   5.934   0.811   1.484
 9608SOL    HW229724   5.879   0.943   1.562
 9609SOL     OW29725   0.877   2.380   3.506
 9609SOL    HW129726   0.799   2.380   3.443
 9609SOL    HW229727   0.959   2.412   3.458
 9610SOL     OW29728   5.089   1.461   5.995
 9610SOL    HW129729   4.992   1.435   5.996
 9610SOL    HW229730   5.142   1.390   5.948
 9611SOL     OW29731   5.263   5.397   1.472
 9611SOL    HW129732   5.225   5.304   1.469
 9611SOL    HW229733   5.236   5.441   1.557
 9612SOL     OW29734   4.959   3.768   3.364
 9612SOL    HW129735   4.917   3.844   3.415
 9612SOL    HW229736   4.933   3.681   3.407
 9613SOL     OW29737   4.542   1.540   4.620
 9613SOL    HW129738   4.500   1.594   4.546
 9613SOL    HW229739   4.473   1.483   4.663
 9614SOL     OW29740   3.543   2.598   0.262
 9614SOL    HW129741   3.595   2.618   0.179
 9614SOL    HW229742   3.522   2.501   0.266
 9615SOL     OW29743   6.518   5.879   3.570
 9615SOL    HW129744   6.461   5.947   3.615
 9615SOL    HW229745   6.596   5.857   3.629
 9616SOL     OW29746   0.442   2.078   1.106
 9616SOL    HW129747   0.367   2.115   1.052
 9616SOL    HW229748   0.526   2.080   1.053
 9617SOL     OW29749   0.998   3.773   3.622
 9617SOL    HW129750   0.997   3.790   3.721
 9617SOL    HW229751   0.962   3.853   3.575
 9618SOL     OW29752   5.422   4.156   2.049
 9618SOL    HW129753   5.362   4.077   2.053
 9618SOL    HW229754   5.423   4.193   1.956
 9619SOL     OW29755   1.530   1.542   1.081
 9619SOL    HW129756   1.438   1.582   1.086
 9619SOL    HW229757   1.595   1.604   1.125
 9620SOL     OW29758   3.260   1.331   6.111
 9620SOL    HW129759   3.291   1.272   6.036
 9620SOL    HW229760   3.338   1.357   6.167
 9621SOL     OW29761   6.659   0.414   0.638
 9621SOL    HW129762   6.693   0.326   0.672
 9621SOL    HW229763   6.689   0.427   0.543
 9622SOL     OW29764   6.697   0.334   4.751
 9622SOL    HW129765   6.736   0.416   4.794
 9622SOL    HW229766   6.638   0.361   4.675
 9623SOL     OW29767   2.242   5.815   6.153
 9623SOL    HW129768   2.164   5.801   6.214
 9623SOL    HW229769   2.215   5.791   6.059
 9624SOL     OW29770   3.862   4.915   6.303
 9624SOL    HW129771   3.772   4.900   6.263
 9624SOL    HW229772   3.856   4.915   6.403
 9625SOL     OW29773   5.280   4.128   6.278
 9625SOL    HW129774   5.287   4.067   6.199
 9625SOL    HW229775   5.258   4.075   6.359
 9626SOL     OW29776   2.983   2.882   6.758
 9626SOL    HW129777   2.951   2.832   6.839
 9626SOL    HW229778   2.924   2.962   6.742
 9627SOL     OW29779   6.983   5.453   0.178
 9627SOL    HW129780   7.006   5.372   0.231
 9627SOL    HW229781   0.022   5.461   0.101
 9628SOL     OW29782   6.215   1.516   5.138
 9628SOL    HW129783   6.177   1.462   5.063
 9628SOL    HW229784   6.182   1.610   5.131
 9629SOL     OW29785   0.717   5.889   4.089
 9629SOL    HW129786   0.682   5.980   4.067
 9629SOL    HW229787   0.726   5.835   4.006
 9630SOL     OW29788   6.147   0.333   5.512
 9630SOL    HW129789   6.194   0.266   5.455
 9630SOL    HW229790   6.122   0.412   5.457
 9631SOL     OW29791   4.467   6.104   0.054
 9631SOL    HW129792   4.431   6.190   0.019
 9631SOL    HW229793   4.456   6.033   7.009
 9632SOL     OW29794   2.740   5.665   2.735
 9632SOL    HW129795   2.794   5.748   2.720
 9632SOL    HW229796   2.767   5.623   2.821
 9633SOL     OW29797   2.167   3.047   5.624
 9633SOL    HW129798   2.246   2.986   5.626
 9633SOL    HW229799   2.096   3.008   5.566
 9634SOL     OW29800   5.904   4.938   3.414
 9634SOL    HW129801   5.978   4.976   3.470
 9634SOL    HW229802   5.922   4.958   3.317
 9635SOL     OW29803   1.113   5.434   4.087
 9635SOL    HW129804   1.033   5.433   4.147
 9635SOL    HW229805   1.192   5.400   4.137
 9636SOL     OW29806   4.935   3.551   3.617
 9636SOL    HW129807   4.947   3.468   3.672
 9636SOL    HW229808   4.872   3.613   3.664
 9637SOL     OW29809   3.502   2.485   6.454
 9637SOL    HW129810   3.587   2.455   6.411
 9637SOL    HW229811   3.512   2.579   6.486
 9638SOL     OW29812   1.270   4.178   6.445
 9638SOL    HW129813   1.358   4.225   6.444
 9638SOL    HW229814   1.228   4.185   6.535
 9639SOL     OW29815   5.784   2.822   1.456
 9639SOL    HW129816   5.815   2.735   1.493
 9639SOL    HW229817   5.729   2.806   1.374
 9640SOL     OW29818   2.932   6.575   3.320
 9640SOL    HW129819   2.879   6.490   3.319
 9640SOL    HW229820   2.913   6.625   3.404
 9641SOL     OW29821   1.028   2.643   4.593
 9641SOL    HW129822   0.967   2.582   4.643
 9641SOL    HW229823   0.974   2.699   4.530
 9642SOL     OW29824   0.761   3.131   4.563
 9642SOL    HW129825   0.796   3.042   4.534
 9642SOL    HW229826   0.734   3.184   4.483
 9643SOL     OW29827   6.630   5.600   4.653
 9643SOL    HW129828   6.535   5.613   4.681
 9643SOL    HW229829   6.688   5.669   4.696
 9644SOL     OW29830   0.986   4.621   3.425
 9644SOL    HW129831   0.887   4.632   3.417
 9644SOL    HW229832   1.018   4.665   3.509
 9645SOL     OW29833   0.272   5.345   0.423
 9645SOL    HW129834   0.187   5.320   0.470
 9645SOL    HW229835   0.306   5.266   0.371
 9646SOL     OW29836   2.447   5.251   0.583
 9646SOL    HW129837   2.375   5.208   0.637
 9646SOL    HW229838   2.407   5.320   0.522
 9647SOL     OW29839   5.039   6.999   2.717
 9647SOL    HW129840   5.065   0.065   2.683
 9647SOL    HW229841   5.120   6.951   2.750
 9648SOL     OW29842   3.815   2.270   0.670
 9648SOL    HW129843   3.853   2.285   0.579
 9648SOL    HW229844   3.832   2.176   0.698
 9649SOL     OW29845   0.129   5.493   6.992
 9649SOL    HW129846   0.220   5.477   0.006
 9649SOL    HW229847   0.137   5.543   6.906
 9650SOL     OW29848   6.947   5.570   5.259
 9650SOL    HW129849   6.973   5.599   5.167
 9650SOL    HW229850   6.975   5.475   5.273
 9651SOL     OW29851   3.931   0.980   0.732
 9651SOL    HW129852   3.864   1.028   0.675
 9651SOL    HW229853   3.948   1.032   0.815
 9652SOL     OW29854   0.410   4.012   6.996
 9652SOL    HW129855   0.412   3.930   0.029
 9652SOL    HW229856   0.504   4.044   6.981
 9653SOL     OW29857   5.918   3.560   4.726
 9653SOL    HW129858   5.899   3.565   4.825
 9653SOL    HW229859   5.985   3.630   4.702
 9654SOL     OW29860   3.741   3.370   4.382
 9654SOL    HW129861   3.665   3.426   4.415
 9654SOL    HW229862   3.757   3.389   4.285
 9655SOL     OW29863   4.560   0.722   0.631
 9655SOL    HW129864   4.479   0.703   0.575
 9655SOL    HW229865   4.564   0.819   0.652
 9656SOL     OW29866   5.202   4.798   4.925
 9656SOL    HW129867   5.111   4.772   4.892
 9656SOL    HW229868   5.196   4.827   5.020
 9657SOL     OW29869   5.015   5.233   2.390
 9657SOL    HW129870   4.978   5.225   2.483
 9657SOL    HW229871   4.958   5.294   2.336
 9658SOL     OW29872   5.234   1.247   2.764
 9658SOL    HW129873   5.241   1.160   2.714
 9658SOL    HW229874   5.163   1.239   2.834
 9659SOL     OW29875   4.096   3.624   0.327
 9659SOL    HW129876   4.180   3.669   0.360
 9659SOL    HW229877   4.117   3.571   0.245
 9660SOL     OW29878   2.719   0.068   1.876
 9660SOL    HW129879   2.718   0.157   1.832
 9660SOL    HW229880   2.636   0.018   1.852
 9661SOL     OW29881   3.642   3.967   2.377
 9661SOL    HW129882   3.687   3.903   2.314
 9661SOL    HW229883   3.569   4.016   2.328
 9662SOL     OW29884   3.768   0.767   4.563
 9662SOL    HW129885   3.719   0.679   4.562
 9662SOL    HW229886   3.749   0.816   4.478
 9663SOL     OW29887   1.117   5.501   2.071
 9663SOL    HW129888   1.210   5.523   2.098
 9663SOL    HW229889   1.094   5.409   2.102
 9664SOL     OW29890   1.739   4.578   2.426
 9664SOL    HW129891   1.651   4.543   2.394
 9664SOL    HW229892   1.728   4.674   2.454
 9665SOL     OW29893   5.794   3.919   6.581
 9665SOL    HW129894   5.874   3.971   6.613
 9665SOL    HW229895   5.814   3.879   6.492
 9666SOL     OW29896   5.265   4.014   1.184
 9666SOL    HW129897   5.212   4.092   1.152
 9666SOL    HW229898   5.359   4.044   1.203
 9667SOL     OW29899   6.064   6.142   0.324
 9667SOL    HW129900   5.968   6.165   0.340
 9667SOL    HW229901   6.074   6.043   0.320
 9668SOL     OW29902   2.170   0.516   0.572
 9668SOL    HW129903   2.240   0.452   0.539
 9668SOL    HW229904   2.209   0.607   0.580
 9669SOL     OW29905   3.524   0.449   0.870
 9669SOL    HW129906   3.485   0.380   0.810
 9669SOL    HW229907   3.594   0.501   0.821
 9670SOL     OW29908   0.481   0.283   2.628
 9670SOL    HW129909   0.555   0.324   2.574
 9670SOL    HW229910   0.520   0.233   2.706
 9671SOL     OW29911   0.988   6.073   6.428
 9671SOL    HW129912   0.954   6.165   6.448
 9671SOL    HW229913   0.982   6.057   6.329
 9672SOL     OW29914   0.035   4.331   4.666
 9672SOL    HW129915   0.119   4.292   4.629
 9672SOL    HW229916   0.043   4.340   4.765
 9673SOL     OW29917   1.947   3.013   5.473
 9673SOL    HW129918   1.920   2.917   5.477
 9673SOL    HW229919   1.990   3.031   5.384
 9674SOL     OW29920   1.488   0.127   3.817
 9674SOL    HW129921   1.429   0.183   3.876
 9674SOL    HW229922   1.539   0.186   3.755
 9675SOL     OW29923   6.615   4.170   6.147
 9675SOL    HW129924   6.712   4.157   6.125
 9675SOL    HW229925   6.605   4.252   6.203
 9676SOL     OW29926   0.892   2.764   6.497
 9676SOL    HW129927   0.875   2.854   6.537
 9676SOL    HW229928   0.966   2.771   6.430
 9677SOL     OW29929   0.624   4.761   2.963
 9677SOL    HW129930   0.589   4.785   2.873
 9677SOL    HW229931   0.605   4.665   2.982
 9678SOL     OW29932   4.939   3.309   6.655
 9678SOL    HW129933   4.968   3.317   6.750
 9678SOL    HW229934   4.889   3.224   6.642
 9679SOL     OW29935   1.565   1.287   4.547
 9679SOL    HW129936   1.472   1.323   4.541
 9679SOL    HW229937   1.616   1.314   4.466
 9680SOL     OW29938   4.279   6.259   2.563
 9680SOL    HW129939   4.350   6.327   2.579
 9680SOL    HW229940   4.309   6.171   2.600
 9681SOL     OW29941   0.804   2.407   1.067
 9681SOL    HW129942   0.771   2.312   1.059
 9681SOL    HW229943   0.740   2.468   1.021
 9682SOL     OW29944   4.024   6.510   5.596
 9682SOL    HW129945   4.011   6.493   5.499
 9682SOL    HW229946   3.941   6.549   5.635
 9683SOL     OW29947   3.045   6.030   3.636
 9683SOL    HW129948   2.992   6.045   3.720
 9683SOL    HW229949   3.001   5.958   3.582
 9684SOL     OW29950   1.636   2.323   6.194
 9684SOL    HW129951   1.545   2.323   6.153
 9684SOL    HW229952   1.677   2.233   6.183
 9685SOL     OW29953   3.778   4.628   1.619
 9685SOL    HW129954   3.699   4.629   1.680
 9685SOL    HW229955   3.862   4.645   1.672
 9686SOL     OW29956   0.645   1.816   6.338
 9686SOL    HW129957   0.648   1.856   6.247
 9686SOL    HW229958   0.610   1.884   6.403
 9687SOL     OW29959   5.784   0.383   4.127
 9687SOL    HW129960   5.811   0.363   4.222
 9687SOL    HW229961   5.792   0.300   4.072
 9688SOL     OW29962   0.807   5.171   2.352
 9688SOL    HW129963   0.896   5.195   2.313
 9688SOL    HW229964   0.758   5.113   2.288
 9689SOL     OW29965   1.883   5.814   1.201
 9689SOL    HW129966   1.899   5.731   1.254
 9689SOL    HW229967   1.894   5.894   1.260
 9690SOL     OW29968   6.031   4.548   3.834
 9690SOL    HW129969   5.988   4.634   3.806
 9690SOL    HW229970   6.043   4.489   3.755
 9691SOL     OW29971   4.090   3.849   1.937
 9691SOL    HW129972   4.153   3.771   1.942
 9691SOL    HW229973   4.065   3.878   2.029
 9692SOL     OW29974   6.553   5.555   6.975
 9692SOL    HW129975   6.531   5.652   6.985
 9692SOL    HW229976   6.629   5.532   0.011
 9693SOL     OW29977   4.442   3.539   6.419
 9693SOL    HW129978   4.342   3.549   6.424
 9693SOL    HW229979   4.483   3.625   6.390
 9694SOL     OW29980   2.596   6.372   1.387
 9694SOL    HW129981   2.582   6.465   1.423
 9694SOL    HW229982   2.561   6.306   1.454
 9695SOL     OW29983   1.866   2.849   3.514
 9695SOL    HW129984   1.885   2.872   3.419
 9695SOL    HW229985   1.824   2.927   3.560
 9696SOL     OW29986   4.670   4.345   3.376
 9696SOL    HW129987   4.698   4.261   3.331
 9696SOL    HW229988   4.648   4.327   3.472
 9697SOL     OW29989   6.764   6.921   2.631
 9697SOL    HW129990   6.733   6.960   2.718
 9697SOL    HW229991   6.732   6.827   2.623
 9698SOL     OW29992   7.000   2.612   1.342
 9698SOL    HW129993   0.012   2.629   1.251
 9698SOL    HW229994   0.041   2.643   1.411
 9699SOL     OW29995   1.954   0.156   2.428
 9699SOL    HW129996   1.886   0.095   2.387
 9699SOL    HW229997   1.985   0.118   2.515
 9700SOL     OW29998   6.148   0.739   5.948
 9700SOL    HW129999   6.245   0.727   5.927
 9700SOL    HW230000   6.114   0.820   5.901
 9701SOL     OW30001   5.611   4.128   6.642
 9701SOL    HW130002   5.655   4.038   6.643
 9701SOL    HW230003   5.622   4.169   6.551
 9702SOL     OW30004   2.967   3.837   1.948
 9702SOL    HW130005   2.972   3.815   2.045
 9702SOL    HW230006   3.004   3.928   1.932
 9703SOL     OW30007   6.581   4.361   3.419
 9703SOL    HW130008   6.645   4.396   3.351
 9703SOL    HW230009   6.587   4.417   3.502
 9704SOL     OW30010   1.316   4.875   2.134
 9704SOL    HW130011   1.374   4.866   2.214
 9704SOL    HW230012   1.373   4.893   2.053
 9705SOL     OW30013   6.968   3.867   5.621
 9705SOL    HW130014   6.890   3.915   5.581
 9705SOL    HW230015   6.956   3.769   5.610
 9706SOL     OW30016   0.259   0.162   2.489
 9706SOL    HW130017   0.174   0.193   2.531
 9706SOL    HW230018   0.335   0.220   2.520
 9707SOL     OW30019   0.978   4.681   1.493
 9707SOL    HW130020   0.987   4.742   1.414
 9707SOL    HW230021   0.884   4.685   1.528
 9708SOL     OW30022   2.926   0.687   1.946
 9708SOL    HW130023   2.933   0.592   1.915
 9708SOL    HW230024   2.999   0.706   2.011
 9709SOL     OW30025   3.702   1.807   2.063
 9709SOL    HW130026   3.719   1.875   2.135
 9709SOL    HW230027   3.743   1.839   1.977
 9710SOL     OW30028   5.024   4.353   4.343
 9710SOL    HW130029   5.017   4.347   4.443
 9710SOL    HW230030   5.115   4.386   4.318
 9711SOL     OW30031   3.358   0.350   6.677
 9711SOL    HW130032   3.286   0.413   6.708
 9711SOL    HW230033   3.417   0.326   6.753
 9712SOL     OW30034   4.607   0.083   5.658
 9712SOL    HW130035   4.598   7.008   5.646
 9712SOL    HW230036   4.647   0.122   5.575
 9713SOL     OW30037   0.435   0.692   3.077
 9713SOL    HW130038   0.441   0.661   2.983
 9713SOL    HW230039   0.519   0.666   3.126
 9714SOL     OW30040   2.278   2.811   4.110
 9714SOL    HW130041   2.331   2.765   4.181
 9714SOL    HW230042   2.219   2.745   4.063
 9715SOL     OW30043   0.312   1.798   6.567
 9715SOL    HW130044   0.244   1.819   6.496
 9715SOL    HW230045   0.301   1.703   6.597
 9716SOL     OW30046   1.446   5.844   0.979
 9716SOL    HW130047   1.544   5.855   0.993
 9716SOL    HW230048   1.411   5.923   0.929
 9717SOL     OW30049   4.511   1.831   6.164
 9717SOL    HW130050   4.513   1.755   6.228
 9717SOL    HW230051   4.568   1.810   6.085
 9718SOL     OW30052   2.738   2.494   6.218
 9718SOL    HW130053   2.664   2.561   6.232
 9718SOL    HW230054   2.826   2.541   6.217
 9719SOL     OW30055   4.769   0.286   6.129
 9719SOL    HW130056   4.837   0.212   6.121
 9719SOL    HW230057   4.728   0.283   6.220
 9720SOL     OW30058   2.375   2.499   1.732
 9720SOL    HW130059   2.295   2.479   1.789
 9720SOL    HW230060   2.390   2.425   1.668
 9721SOL     OW30061   0.465   1.908   1.312
 9721SOL    HW130062   0.402   1.914   1.390
 9721SOL    HW230063   0.430   1.963   1.236
 9722SOL     OW30064   3.547   2.813   5.912
 9722SOL    HW130065   3.643   2.834   5.892
 9722SOL    HW230066   3.522   2.854   6.000
 9723SOL     OW30067   5.765   1.249   4.616
 9723SOL    HW130068   5.839   1.182   4.614
 9723SOL    HW230069   5.802   1.340   4.637
 9724SOL     OW30070   1.536   5.298   1.663
 9724SOL    HW130071   1.461   5.233   1.677
 9724SOL    HW230072   1.500   5.381   1.621
 9725SOL     OW30073   5.346   5.553   4.869
 9725SOL    HW130074   5.391   5.544   4.957
 9725SOL    HW230075   5.409   5.527   4.796
 9726SOL     OW30076   6.751   6.812   3.542
 9726SOL    HW130077   6.662   6.769   3.528
 9726SOL    HW230078   6.822   6.755   3.502
 9727SOL     OW30079   6.597   3.074   0.912
 9727SOL    HW130080   6.695   3.086   0.931
 9727SOL    HW230081   6.584   2.988   0.861
 9728SOL     OW30082   5.017   1.960   5.235
 9728SOL    HW130083   5.003   2.046   5.283
 9728SOL    HW230084   5.096   1.913   5.273
 9729SOL     OW30085   6.681   3.615   2.725
 9729SOL    HW130086   6.713   3.634   2.633
 9729SOL    HW230087   6.581   3.621   2.728
 9730SOL     OW30088   0.582   5.871   3.301
 9730SOL    HW130089   0.587   5.961   3.258
 9730SOL    HW230090   0.488   5.837   3.294
 9731SOL     OW30091   6.323   1.234   1.541
 9731SOL    HW130092   6.416   1.226   1.507
 9731SOL    HW230093   6.306   1.328   1.570
 9732SOL     OW30094   6.562   2.714   2.924
 9732SOL    HW130095   6.627   2.749   2.857
 9732SOL    HW230096   6.486   2.668   2.877
 9733SOL     OW30097   5.304   5.845   0.047
 9733SOL    HW130098   5.261   5.875   6.986
 9733SOL    HW230099   5.398   5.880   0.051
 9734SOL     OW30100   3.883   3.773   0.229
 9734SOL    HW130101   3.950   3.717   0.278
 9734SOL    HW230102   3.924   3.860   0.203
 9735SOL     OW30103   1.272   1.577   0.358
 9735SOL    HW130104   1.344   1.535   0.412
 9735SOL    HW230105   1.218   1.505   0.313
 9736SOL     OW30106   5.630   2.670   6.314
 9736SOL    HW130107   5.549   2.611   6.309
 9736SOL    HW230108   5.628   2.737   6.240
 9737SOL     OW30109   5.150   3.569   5.251
 9737SOL    HW130110   5.103   3.635   5.309
 9737SOL    HW230111   5.244   3.598   5.237
 9738SOL     OW30112   2.622   6.283   1.768
 9738SOL    HW130113   2.698   6.249   1.712
 9738SOL    HW230114   2.656   6.349   1.834
 9739SOL     OW30115   5.635   6.400   1.336
 9739SOL    HW130116   5.721   6.352   1.319
 9739SOL    HW230117   5.589   6.418   1.249
 9740SOL     OW30118   6.791   0.155   0.727
 9740SOL    HW130119   6.715   0.121   0.782
 9740SOL    HW230120   6.804   0.096   0.648
 9741SOL     OW30121   2.434   2.552   2.912
 9741SOL    HW130122   2.494   2.559   2.832
 9741SOL    HW230123   2.475   2.490   2.979
 9742SOL     OW30124   5.091   0.063   6.797
 9742SOL    HW130125   5.140   0.149   6.788
 9742SOL    HW230126   5.001   0.071   6.754
 9743SOL     OW30127   5.815   3.493   4.324
 9743SOL    HW130128   5.838   3.434   4.401
 9743SOL    HW230129   5.726   3.467   4.287
 9744SOL     OW30130   1.320   3.057   1.629
 9744SOL    HW130131   1.226   3.072   1.600
 9744SOL    HW230132   1.345   3.124   1.699
 9745SOL     OW30133   1.326   0.164   5.988
 9745SOL    HW130134   1.385   0.084   5.977
 9745SOL    HW230135   1.278   0.183   5.903
 9746SOL     OW30136   3.233   5.780   5.796
 9746SOL    HW130137   3.230   5.865   5.744
 9746SOL    HW230138   3.233   5.800   5.894
 9747SOL     OW30139   4.500   1.597   3.592
 9747SOL    HW130140   4.585   1.606   3.644
 9747SOL    HW230141   4.460   1.687   3.576
 9748SOL     OW30142   0.615   2.001   1.964
 9748SOL    HW130143   0.526   2.014   2.007
 9748SOL    HW230144   0.635   1.903   1.956
 9749SOL     OW30145   6.520   0.173   1.794
 9749SOL    HW130146   6.548   0.242   1.727
 9749SOL    HW230147   6.420   0.171   1.801
 9750SOL     OW30148   5.508   2.638   4.514
 9750SOL    HW130149   5.482   2.544   4.533
 9750SOL    HW230150   5.426   2.692   4.492
 9751SOL     OW30151   3.055   4.909   0.666
 9751SOL    HW130152   2.971   4.861   0.637
 9751SOL    HW230153   3.061   4.907   0.766
 9752SOL     OW30154   4.392   4.095   0.819
 9752SOL    HW130155   4.395   4.094   0.719
 9752SOL    HW230156   4.306   4.053   0.849
 9753SOL     OW30157   6.189   6.135   2.746
 9753SOL    HW130158   6.258   6.088   2.691
 9753SOL    HW230159   6.224   6.150   2.838
 9754SOL     OW30160   3.825   0.955   1.903
 9754SOL    HW130161   3.767   1.022   1.856
 9754SOL    HW230162   3.917   0.992   1.914
 9755SOL     OW30163   3.406   4.468   1.147
 9755SOL    HW130164   3.489   4.495   1.195
 9755SOL    HW230165   3.340   4.431   1.212
 9756SOL     OW30166   4.591   7.008   0.188
 9756SOL    HW130167   4.529   7.010   0.110
 9756SOL    HW230168   4.543   0.019   0.269
 9757SOL     OW30169   5.165   4.239   3.950
 9757SOL    HW130170   5.115   4.325   3.960
 9757SOL    HW230171   5.263   4.258   3.940
 9758SOL     OW30172   3.256   0.988   1.090
 9758SOL    HW130173   3.277   0.899   1.131
 9758SOL    HW230174   3.184   1.033   1.142
 9759SOL     OW30175   6.591   1.465   0.626
 9759SOL    HW130176   6.553   1.557   0.634
 9759SOL    HW230177   6.539   1.402   0.683
 9760SOL     OW30178   4.936   0.820   5.823
 9760SOL    HW130179   4.869   0.893   5.839
 9760SOL    HW230180   5.015   0.833   5.884
 9761SOL     OW30181   0.777   2.732   1.738
 9761SOL    HW130182   0.838   2.683   1.677
 9761SOL    HW230183   0.687   2.744   1.695
 9762SOL     OW30184   3.512   1.165   5.692
 9762SOL    HW130185   3.517   1.242   5.628
 9762SOL    HW230186   3.503   1.080   5.640
 9763SOL     OW30187   6.069   2.339   0.942
 9763SOL    HW130188   6.143   2.291   0.895
 9763SOL    HW230189   5.993   2.275   0.959
 9764SOL     OW30190   7.019   2.768   3.580
 9764SOL    HW130191   7.022   2.861   3.543
 9764SOL    HW230192   7.016   2.702   3.504
 9765SOL     OW30193   6.784   2.093   0.904
 9765SOL    HW130194   6.812   2.007   0.945
 9765SOL    HW230195   6.765   2.160   0.976
 9766SOL     OW30196   0.712   3.254   2.817
 9766SOL    HW130197   0.708   3.218   2.724
 9766SOL    HW230198   0.689   3.181   2.882
 9767SOL     OW30199   4.067   1.651   4.800
 9767SOL    HW130200   4.060   1.552   4.810
 9767SOL    HW230201   3.999   1.696   4.859
 9768SOL     OW30202   4.550   3.367   6.583
 9768SOL    HW130203   4.505   3.425   6.515
 9768SOL    HW230204   4.639   3.338   6.547
 9769SOL     OW30205   3.358   0.772   5.776
 9769SOL    HW130206   3.451   0.738   5.792
 9769SOL    HW230207   3.292   0.705   5.811
 9770SOL     OW30208   1.736   3.579   5.004
 9770SOL    HW130209   1.823   3.588   4.956
 9770SOL    HW230210   1.753   3.579   5.103
 9771SOL     OW30211   3.753   0.516   1.703
 9771SOL    HW130212   3.719   0.609   1.690
 9771SOL    HW230213   3.804   0.510   1.789
 9772SOL     OW30214   0.653   1.018   1.764
 9772SOL    HW130215   0.734   1.018   1.705
 9772SOL    HW230216   0.605   0.931   1.756
 9773SOL     OW30217   4.290   6.246   2.278
 9773SOL    HW130218   4.384   6.215   2.264
 9773SOL    HW230219   4.275   6.266   2.374
 9774SOL     OW30220   1.151   5.299   5.188
 9774SOL    HW130221   1.155   5.200   5.203
 9774SOL    HW230222   1.184   5.346   5.270
 9775SOL     OW30223   1.590   1.577   3.236
 9775SOL    HW130224   1.494   1.552   3.227
 9775SOL    HW230225   1.599   1.655   3.299
 9776SOL     OW30226   0.937   5.590   1.546
 9776SOL    HW130227   0.868   5.554   1.609
 9776SOL    HW230228   1.017   5.531   1.545
 9777SOL     OW30229   4.626   2.349   4.985
 9777SOL    HW130230   4.722   2.371   4.967
 9777SOL    HW230231   4.619   2.254   5.014
 9778SOL     OW30232   1.610   3.231   2.958
 9778SOL    HW130233   1.599   3.186   2.870
 9778SOL    HW230234   1.565   3.177   3.029
 9779SOL     OW30235   2.006   1.060   2.793
 9779SOL    HW130236   2.090   1.113   2.789
 9779SOL    HW230237   2.014   0.981   2.732
 9780SOL     OW30238   1.806   2.063   1.187
 9780SOL    HW130239   1.795   1.987   1.124
 9780SOL    HW230240   1.777   2.035   1.279
 9781SOL     OW30241   1.377   1.257   1.978
 9781SOL    HW130242   1.287   1.255   1.933
 9781SOL    HW230243   1.444   1.300   1.918
 9782SOL     OW30244   0.457   2.356   6.802
 9782SOL    HW130245   0.489   2.376   6.710
 9782SOL    HW230246   0.445   2.257   6.813
 9783SOL     OW30247   4.979   0.801   2.086
 9783SOL    HW130248   5.006   0.855   2.166
 9783SOL    HW230249   4.879   0.794   2.083
 9784SOL     OW30250   2.315   1.306   0.702
 9784SOL    HW130251   2.403   1.260   0.697
 9784SOL    HW230252   2.272   1.306   0.612
 9785SOL     OW30253   1.643   3.653   4.472
 9785SOL    HW130254   1.609   3.733   4.423
 9785SOL    HW230255   1.650   3.675   4.570
 9786SOL     OW30256   3.238   3.986   0.061
 9786SOL    HW130257   3.162   4.002   0.123
 9786SOL    HW230258   3.306   3.928   0.106
 9787SOL     OW30259   2.785   3.627   1.203
 9787SOL    HW130260   2.847   3.646   1.126
 9787SOL    HW230261   2.834   3.640   1.289
 9788SOL     OW30262   2.598   0.028   3.602
 9788SOL    HW130263   2.583   0.003   3.506
 9788SOL    HW230264   2.638   0.119   3.607
 9789SOL     OW30265   4.078   1.816   6.906
 9789SOL    HW130266   4.058   1.764   6.989
 9789SOL    HW230267   4.069   1.757   6.826
 9790SOL     OW30268   4.516   5.831   5.209
 9790SOL    HW130269   4.450   5.826   5.133
 9790SOL    HW230270   4.492   5.907   5.269
 9791SOL     OW30271   0.432   0.859   1.066
 9791SOL    HW130272   0.402   0.919   1.140
 9791SOL    HW230273   0.505   0.904   1.014
 9792SOL     OW30274   3.302   3.480   0.379
 9792SOL    HW130275   3.240   3.449   0.452
 9792SOL    HW230276   3.385   3.516   0.419
 9793SOL     OW30277   5.299   0.907   1.782
 9793SOL    HW130278   5.329   0.844   1.710
 9793SOL    HW230279   5.244   0.980   1.742
 9794SOL     OW30280   4.522   6.094   5.343
 9794SOL    HW130281   4.445   6.149   5.375
 9794SOL    HW230282   4.605   6.121   5.393
 9795SOL     OW30283   1.815   4.024   3.248
 9795SOL    HW130284   1.724   4.025   3.206
 9795SOL    HW230285   1.812   4.077   3.333
 9796SOL     OW30286   4.063   3.474   5.025
 9796SOL    HW130287   4.093   3.434   4.939
 9796SOL    HW230288   4.067   3.574   5.019
 9797SOL     OW30289   3.845   5.205   0.563
 9797SOL    HW130290   3.768   5.266   0.583
 9797SOL    HW230291   3.931   5.254   0.577
 9798SOL     OW30292   0.746   4.039   6.165
 9798SOL    HW130293   0.694   3.956   6.145
 9798SOL    HW230294   0.687   4.119   6.157
 9799SOL     OW30295   3.458   0.135   6.205
 9799SOL    HW130296   3.538   0.145   6.146
 9799SOL    HW230297   3.404   0.056   6.176
 9800SOL     OW30298   6.760   4.225   4.771
 9800SOL    HW130299   6.789   4.215   4.866
 9800SOL    HW230300   6.835   4.263   4.717
 9801SOL     OW30301   4.060   6.963   1.130
 9801SOL    HW130302   4.085   6.867   1.136
 9801SOL    HW230303   4.057   7.002   1.222
 9802SOL     OW30304   4.168   2.641   0.583
 9802SOL    HW130305   4.180   2.548   0.546
 9802SOL    HW230306   4.257   2.680   0.605
 9803SOL     OW30307   2.741   3.974   0.401
 9803SOL    HW130308   2.732   4.049   0.335
 9803SOL    HW230309   2.786   4.008   0.484
 9804SOL     OW30310   0.955   4.143   2.977
 9804SOL    HW130311   0.971   4.140   3.076
 9804SOL    HW230312   1.002   4.066   2.934
 9805SOL     OW30313   0.054   4.523   5.129
 9805SOL    HW130314   0.067   4.544   5.226
 9805SOL    HW230315   6.981   4.520   5.108
 9806SOL     OW30316   3.390   1.417   0.395
 9806SOL    HW130317   3.425   1.510   0.406
 9806SOL    HW230318   3.396   1.368   0.482
 9807SOL     OW30319   3.533   3.445   4.684
 9807SOL    HW130320   3.452   3.501   4.702
 9807SOL    HW230321   3.581   3.480   4.603
 9808SOL     OW30322   2.504   6.341   2.634
 9808SOL    HW130323   2.455   6.255   2.644
 9808SOL    HW230324   2.464   6.395   2.560
 9809SOL     OW30325   6.844   3.156   1.002
 9809SOL    HW130326   6.890   3.072   0.973
 9809SOL    HW230327   6.891   3.235   0.964
 9810SOL     OW30328   4.121   2.756   1.096
 9810SOL    HW130329   4.165   2.785   1.011
 9810SOL    HW230330   4.022   2.752   1.082
 9811SOL     OW30331   5.034   3.474   4.160
 9811SOL    HW130332   4.979   3.392   4.143
 9811SOL    HW230333   5.053   3.482   4.257
 9812SOL     OW30334   3.133   5.274   6.615
 9812SOL    HW130335   3.183   5.258   6.530
 9812SOL    HW230336   3.152   5.366   6.649
 9813SOL     OW30337   4.550   0.608   1.946
 9813SOL    HW130338   4.571   0.583   1.851
 9813SOL    HW230339   4.483   0.544   1.983
 9814SOL     OW30340   6.621   1.462   6.518
 9814SOL    HW130341   6.557   1.488   6.446
 9814SOL    HW230342   6.582   1.387   6.572
 9815SOL     OW30343   5.383   2.388   4.595
 9815SOL    HW130344   5.314   2.348   4.534
 9815SOL    HW230345   5.338   2.431   4.673
 9816SOL     OW30346   3.548   0.831   0.177
 9816SOL    HW130347   3.633   0.879   0.201
 9816SOL    HW230348   3.543   0.746   0.229
 9817SOL     OW30349   6.244   0.048   1.222
 9817SOL    HW130350   6.173   0.014   1.160
 9817SOL    HW230351   6.254   7.009   1.298
 9818SOL     OW30352   4.050   2.157   5.183
 9818SOL    HW130353   4.125   2.106   5.224
 9818SOL    HW230354   4.027   2.117   5.094
 9819SOL     OW30355   2.540   0.399   1.994
 9819SOL    HW130356   2.461   0.377   1.938
 9819SOL    HW230357   2.545   0.337   2.072
 9820SOL     OW30358   4.071   2.820   6.981
 9820SOL    HW130359   3.985   2.773   7.002
 9820SOL    HW230360   4.053   2.899   6.922
 9821SOL     OW30361   0.913   6.341   6.521
 9821SOL    HW130362   0.851   6.398   6.468
 9821SOL    HW230363   0.869   6.312   6.605
 9822SOL     OW30364   7.016   1.366   2.526
 9822SOL    HW130365   6.948   1.422   2.573
 9822SOL    HW230366   0.058   1.426   2.480
 9823SOL     OW30367   3.394   6.655   2.448
 9823SOL    HW130368   3.356   6.745   2.426
 9823SOL    HW230369   3.392   6.598   2.366
 9824SOL     OW30370   2.251   3.902   5.352
 9824SOL    HW130371   2.238   3.980   5.413
 9824SOL    HW230372   2.290   3.933   5.266
 9825SOL     OW30373   4.150   4.728   5.296
 9825SOL    HW130374   4.151   4.784   5.379
 9825SOL    HW230375   4.058   4.692   5.281
 9826SOL     OW30376   5.936   0.258   5.177
 9826SOL    HW130377   6.012   0.193   5.172
 9826SOL    HW230378   5.878   0.235   5.255
 9827SOL     OW30379   1.040   5.355   4.785
 9827SOL    HW130380   0.941   5.362   4.781
 9827SOL    HW230381   1.078   5.357   4.693
 9828SOL     OW30382   2.429   1.372   0.277
 9828SOL    HW130383   2.431   1.453   0.217
 9828SOL    HW230384   2.345   1.374   0.331
 9829SOL     OW30385   3.045   4.143   1.482
 9829SOL    HW130386   3.076   4.048   1.480
 9829SOL    HW230387   2.980   4.158   1.407
 9830SOL     OW30388   5.825   1.156   1.429
 9830SOL    HW130389   5.784   1.246   1.443
 9830SOL    HW230390   5.924   1.166   1.417
 9831SOL     OW30391   6.785   5.943   1.471
 9831SOL    HW130392   6.713   5.954   1.403
 9831SOL    HW230393   6.754   5.880   1.542
 9832SOL     OW30394   2.932   3.689   0.996
 9832SOL    HW130395   2.975   3.770   0.957
 9832SOL    HW230396   2.902   3.628   0.922
 9833SOL     OW30397   4.962   4.558   0.495
 9833SOL    HW130398   4.880   4.538   0.441
 9833SOL    HW230399   5.044   4.531   0.443
 9834SOL     OW30400   1.678   3.119   3.999
 9834SOL    HW130401   1.687   3.060   4.080
 9834SOL    HW230402   1.721   3.207   4.017
 9835SOL     OW30403   4.879   2.233   4.537
 9835SOL    HW130404   4.824   2.158   4.500
 9835SOL    HW230405   4.836   2.269   4.619
 9836SOL     OW30406   5.850   5.199   1.436
 9836SOL    HW130407   5.890   5.216   1.527
 9836SOL    HW230408   5.757   5.236   1.434
 9837SOL     OW30409   2.515   5.388   5.329
 9837SOL    HW130410   2.471   5.385   5.240
 9837SOL    HW230411   2.595   5.328   5.329
 9838SOL     OW30412   6.906   6.729   5.077
 9838SOL    HW130413   6.949   6.819   5.074
 9838SOL    HW230414   6.977   6.658   5.068
 9839SOL     OW30415   5.976   3.076   3.392
 9839SOL    HW130416   6.071   3.057   3.368
 9839SOL    HW230417   5.968   3.168   3.429
 9840SOL     OW30418   5.814   0.100   0.501
 9840SOL    HW130419   5.856   0.189   0.479
 9840SOL    HW230420   5.737   0.114   0.563
 9841SOL     OW30421   1.885   2.971   4.168
 9841SOL    HW130422   1.854   2.881   4.200
 9841SOL    HW230423   1.972   2.961   4.120
 9842SOL     OW30424   3.066   3.238   4.052
 9842SOL    HW130425   3.045   3.311   4.117
 9842SOL    HW230426   3.110   3.162   4.100
 9843SOL     OW30427   6.129   4.630   3.230
 9843SOL    HW130428   6.078   4.708   3.194
 9843SOL    HW230429   6.078   4.546   3.213
 9844SOL     OW30430   4.418   0.196   1.909
 9844SOL    HW130431   4.412   0.276   1.969
 9844SOL    HW230432   4.384   0.220   1.818
 9845SOL     OW30433   1.232   1.874   4.115
 9845SOL    HW130434   1.329   1.859   4.098
 9845SOL    HW230435   1.202   1.955   4.064
 9846SOL     OW30436   2.889   3.542   4.120
 9846SOL    HW130437   2.806   3.496   4.153
 9846SOL    HW230438   2.965   3.522   4.182
 9847SOL     OW30439   2.489   4.600   3.998
 9847SOL    HW130440   2.435   4.535   3.944
 9847SOL    HW230441   2.429   4.674   4.028
 9848SOL     OW30442   6.781   4.323   6.839
 9848SOL    HW130443   6.868   4.285   6.809
 9848SOL    HW230444   6.771   4.307   6.938
 9849SOL     OW30445   6.916   6.298   5.100
 9849SOL    HW130446   6.962   6.210   5.093
 9849SOL    HW230447   6.885   6.311   5.194
 9850SOL     OW30448   5.226   0.328   3.690
 9850SOL    HW130449   5.190   0.252   3.745
 9850SOL    HW230450   5.178   0.332   3.603
 9851SOL     OW30451   5.154   2.487   5.073
 9851SOL    HW130452   5.193   2.423   5.140
 9851SOL    HW230453   5.178   2.580   5.098
 9852SOL     OW30454   5.253   2.085   3.948
 9852SOL    HW130455   5.201   2.157   3.994
 9852SOL    HW230456   5.191   2.024   3.899
 9853SOL     OW30457   0.297   5.210   0.896
 9853SOL    HW130458   0.294   5.145   0.820
 9853SOL    HW230459   0.311   5.161   0.982
 9854SOL     OW30460   3.515   6.584   4.182
 9854SOL    HW130461   3.528   6.659   4.246
 9854SOL    HW230462   3.540   6.614   4.090
 9855SOL     OW30463   2.466   4.358   0.804
 9855SOL    HW130464   2.517   4.320   0.881
 9855SOL    HW230465   2.390   4.413   0.838
 9856SOL     OW30466   3.802   3.589   0.962
 9856SOL    HW130467   3.895   3.623   0.953
 9856SOL    HW230468   3.738   3.665   0.954
 9857SOL     OW30469   6.394   4.660   3.221
 9857SOL    HW130470   6.294   4.665   3.226
 9857SOL    HW230471   6.422   4.569   3.191
 9858SOL     OW30472   3.510   1.359   1.376
 9858SOL    HW130473   3.433   1.421   1.365
 9858SOL    HW230474   3.581   1.382   1.309
 9859SOL     OW30475   0.359   6.566   1.351
 9859SOL    HW130476   0.443   6.618   1.336
 9859SOL    HW230477   0.281   6.616   1.313
 9860SOL     OW30478   1.188   1.025   2.816
 9860SOL    HW130479   1.179   1.101   2.752
 9860SOL    HW230480   1.281   0.987   2.809
 9861SOL     OW30481   2.254   6.058   3.693
 9861SOL    HW130482   2.258   6.150   3.653
 9861SOL    HW230483   2.347   6.024   3.705
 9862SOL     OW30484   0.385   1.846   0.772
 9862SOL    HW130485   0.388   1.903   0.690
 9862SOL    HW230486   0.398   1.903   0.853
 9863SOL     OW30487   4.743   0.592   0.797
 9863SOL    HW130488   4.686   0.626   0.722
 9863SOL    HW230489   4.832   0.564   0.761
 9864SOL     OW30490   3.577   5.644   3.463
 9864SOL    HW130491   3.528   5.569   3.507
 9864SOL    HW230492   3.637   5.608   3.392
 9865SOL     OW30493   1.838   3.340   4.043
 9865SOL    HW130494   1.935   3.349   4.019
 9865SOL    HW230495   1.808   3.425   4.088
 9866SOL     OW30496   2.763   4.803   3.422
 9866SOL    HW130497   2.815   4.803   3.337
 9866SOL    HW230498   2.702   4.883   3.423
 9867SOL     OW30499   3.476   6.407   5.961
 9867SOL    HW130500   3.470   6.478   5.891
 9867SOL    HW230501   3.499   6.448   6.049
 9868SOL     OW30502   1.200   5.234   6.048
 9868SOL    HW130503   1.148   5.150   6.029
 9868SOL    HW230504   1.225   5.278   5.962
 9869SOL     OW30505   0.937   4.822   2.646
 9869SOL    HW130506   1.035   4.813   2.633
 9869SOL    HW230507   0.912   4.788   2.737
 9870SOL     OW30508   4.366   5.561   1.606
 9870SOL    HW130509   4.385   5.614   1.689
 9870SOL    HW230510   4.450   5.552   1.553
 9871SOL     OW30511   2.483   2.525   5.927
 9871SOL    HW130512   2.391   2.560   5.943
 9871SOL    HW230513   2.550   2.589   5.964
 9872SOL     OW30514   1.317   3.878   2.942
 9872SOL    HW130515   1.334   3.853   2.847
 9872SOL    HW230516   1.387   3.838   3.001
 9873SOL     OW30517   2.129   2.012   1.215
 9873SOL    HW130518   2.084   2.019   1.304
 9873SOL    HW230519   2.087   2.076   1.150
 9874SOL     OW30520   1.048   4.137   4.452
 9874SOL    HW130521   1.019   4.200   4.380
 9874SOL    HW230522   1.051   4.184   4.539
 9875SOL     OW30523   1.338   1.456   3.243
 9875SOL    HW130524   1.361   1.455   3.146
 9875SOL    HW230525   1.328   1.362   3.276
 9876SOL     OW30526   6.772   5.976   2.154
 9876SOL    HW130527   6.819   5.889   2.141
 9876SOL    HW230528   6.677   5.959   2.180
 9877SOL     OW30529   4.132   0.609   1.379
 9877SOL    HW130530   4.047   0.562   1.401
 9877SOL    HW230531   4.188   0.617   1.462
 9878SOL     OW30532   6.686   1.499   5.027
 9878SOL    HW130533   6.774   1.476   4.986
 9878SOL    HW230534   6.672   1.598   5.024
 9879SOL     OW30535   5.129   5.212   5.258
 9879SOL    HW130536   5.136   5.250   5.166
 9879SOL    HW230537   5.060   5.263   5.310
 9880SOL     OW30538   1.258   2.598   3.773
 9880SOL    HW130539   1.186   2.529   3.780
 9880SOL    HW230540   1.287   2.607   3.678
 9881SOL     OW30541   0.342   1.424   5.955
 9881SOL    HW130542   0.323   1.330   5.927
 9881SOL    HW230543   0.421   1.425   6.016
 9882SOL     OW30544   1.789   2.588   3.340
 9882SOL    HW130545   1.877   2.628   3.365
 9882SOL    HW230546   1.734   2.656   3.292
 9883SOL     OW30547   2.659   1.636   2.390
 9883SOL    HW130548   2.606   1.565   2.436
 9883SOL    HW230549   2.743   1.597   2.352
 9884SOL     OW30550   3.187   0.653   3.689
 9884SOL    HW130551   3.196   0.741   3.642
 9884SOL    HW230552   3.131   0.592   3.633
 9885SOL     OW30553   6.543   2.948   4.973
 9885SOL    HW130554   6.548   3.048   4.981
 9885SOL    HW230555   6.490   2.923   4.892
 9886SOL     OW30556   6.992   2.872   1.718
 9886SOL    HW130557   6.977   2.858   1.816
 9886SOL    HW230558   6.939   2.950   1.687
 9887SOL     OW30559   4.668   6.286   5.851
 9887SOL    HW130560   4.728   6.286   5.771
 9887SOL    HW230561   4.594   6.352   5.838
 9888SOL     OW30562   6.350   4.925   5.195
 9888SOL    HW130563   6.337   4.901   5.291
 9888SOL    HW230564   6.393   5.015   5.189
 9889SOL     OW30565   0.704   5.623   0.825
 9889SOL    HW130566   0.619   5.662   0.859
 9889SOL    HW230567   0.753   5.579   0.900
 9890SOL     OW30568   0.711   2.800   1.040
 9890SOL    HW130569   0.649   2.722   1.025
 9890SOL    HW230570   0.717   2.854   0.957
 9891SOL     OW30571   4.905   1.163   2.154
 9891SOL    HW130572   4.848   1.160   2.236
 9891SOL    HW230573   4.979   1.229   2.167
 9892SOL     OW30574   0.867   0.152   6.467
 9892SOL    HW130575   0.774   0.185   6.483
 9892SOL    HW230576   0.919   0.222   6.418
 9893SOL     OW30577   2.227   1.369   0.450
 9893SOL    HW130578   2.196   1.463   0.440
 9893SOL    HW230579   2.186   1.313   0.377
 9894SOL     OW30580   1.947   0.736   1.624
 9894SOL    HW130581   1.848   0.737   1.640
 9894SOL    HW230582   1.993   0.789   1.695
 9895SOL     OW30583   4.483   2.637   5.550
 9895SOL    HW130584   4.457   2.689   5.469
 9895SOL    HW230585   4.561   2.682   5.594
 9896SOL     OW30586   6.278   6.819   5.880
 9896SOL    HW130587   6.251   6.869   5.963
 9896SOL    HW230588   6.377   6.805   5.881
 9897SOL     OW30589   5.617   5.020   5.032
 9897SOL    HW130590   5.566   4.949   4.982
 9897SOL    HW230591   5.554   5.072   5.089
 9898SOL     OW30592   2.495   0.007   6.717
 9898SOL    HW130593   2.470   0.047   6.629
 9898SOL    HW230594   2.413   6.998   6.763
 9899SOL     OW30595   0.034   4.837   6.899
 9899SOL    HW130596   7.014   4.754   6.936
 9899SOL    HW230597   6.995   4.914   6.907
 9900SOL     OW30598   2.210   4.745   3.517
 9900SOL    HW130599   2.278   4.672   3.526
 9900SOL    HW230600   2.205   4.773   3.421
 9901SOL     OW30601   2.049   3.413   5.350
 9901SOL    HW130602   2.069   3.503   5.312
 9901SOL    HW230603   2.119   3.348   5.318
 9902SOL     OW30604   2.790   4.340   0.950
 9902SOL    HW130605   2.768   4.394   1.031
 9902SOL    HW230606   2.723   4.265   0.942
 9903SOL     OW30607   5.596   1.283   5.196
 9903SOL    HW130608   5.639   1.225   5.265
 9903SOL    HW230609   5.658   1.296   5.119
 9904SOL     OW30610   6.270   1.788   0.355
 9904SOL    HW130611   6.186   1.842   0.348
 9904SOL    HW230612   6.348   1.849   0.365
 9905SOL     OW30613   5.209   0.069   0.314
 9905SOL    HW130614   5.159   7.021   0.363
 9905SOL    HW230615   5.306   0.047   0.312
 9906SOL     OW30616   3.139   3.423   5.028
 9906SOL    HW130617   3.142   3.515   5.067
 9906SOL    HW230618   3.074   3.366   5.079
 9907SOL     OW30619   1.526   6.585   1.674
 9907SOL    HW130620   1.454   6.547   1.617
 9907SOL    HW230621   1.609   6.530   1.665
 9908SOL     OW30622   5.306   3.560   1.895
 9908SOL    HW130623   5.229   3.580   1.834
 9908SOL    HW230624   5.363   3.489   1.854
 9909SOL     OW30625   1.805   0.290   4.414
 9909SOL    HW130626   1.722   0.240   4.439
 9909SOL    HW230627   1.879   0.225   4.396
 9910SOL     OW30628   0.126   4.575   4.230
 9910SOL    HW130629   0.071   4.514   4.288
 9910SOL    HW230630   0.110   4.670   4.257
 9911SOL     OW30631   2.472   6.405   2.346
 9911SOL    HW130632   2.477   6.323   2.288
 9911SOL    HW230633   2.557   6.457   2.337
 9912SOL     OW30634   4.585   0.691   5.625
 9912SOL    HW130635   4.549   0.702   5.717
 9912SOL    HW230636   4.602   0.781   5.584
 9913SOL     OW30637   5.226   2.935   0.571
 9913SOL    HW130638   5.326   2.938   0.574
 9913SOL    HW230639   5.189   3.015   0.618
 9914SOL     OW30640   6.967   3.414   4.710
 9914SOL    HW130641   6.985   3.511   4.692
 9914SOL    HW230642   7.009   3.359   4.637
 9915SOL     OW30643   4.414   1.283   3.738
 9915SOL    HW130644   4.409   1.364   3.680
 9915SOL    HW230645   4.359   1.298   3.820
 9916SOL     OW30646   1.470   3.041   1.390
 9916SOL    HW130647   1.409   3.034   1.469
 9916SOL    HW230648   1.564   3.057   1.421
 9917SOL     OW30649   6.186   4.631   5.741
 9917SOL    HW130650   6.201   4.674   5.829
 9917SOL    HW230651   6.115   4.681   5.691
 9918SOL     OW30652   4.993   3.138   2.451
 9918SOL    HW130653   5.061   3.151   2.379
 9918SOL    HW230654   4.947   3.225   2.468
 9919SOL     OW30655   5.328   5.791   0.500
 9919SOL    HW130656   5.244   5.778   0.552
 9919SOL    HW230657   5.390   5.852   0.550
 9920SOL     OW30658   4.863   1.110   2.659
 9920SOL    HW130659   4.864   1.126   2.758
 9920SOL    HW230660   4.932   1.041   2.636
 9921SOL     OW30661   4.084   4.763   6.199
 9921SOL    HW130662   4.081   4.663   6.197
 9921SOL    HW230663   4.025   4.797   6.272
 9922SOL     OW30664   0.364   6.017   1.226
 9922SOL    HW130665   0.294   5.958   1.266
 9922SOL    HW230666   0.326   6.108   1.209
 9923SOL     OW30667   6.303   4.282   0.262
 9923SOL    HW130668   6.380   4.236   0.307
 9923SOL    HW230669   6.219   4.231   0.280
 9924SOL     OW30670   1.515   4.585   4.579
 9924SOL    HW130671   1.496   4.580   4.677
 9924SOL    HW230672   1.431   4.564   4.528
 9925SOL     OW30673   4.855   2.540   4.047
 9925SOL    HW130674   4.905   2.627   4.050
 9925SOL    HW230675   4.859   2.497   4.138
 9926SOL     OW30676   3.811   5.099   1.495
 9926SOL    HW130677   3.769   5.103   1.586
 9926SOL    HW230678   3.795   5.186   1.447
 9927SOL     OW30679   5.560   0.272   4.463
 9927SOL    HW130680   5.562   0.221   4.377
 9927SOL    HW230681   5.570   0.370   4.445
 9928SOL     OW30682   5.010   4.297   2.506
 9928SOL    HW130683   5.021   4.286   2.407
 9928SOL    HW230684   5.094   4.270   2.552
 9929SOL     OW30685   0.610   3.835   3.358
 9929SOL    HW130686   0.551   3.916   3.362
 9929SOL    HW230687   0.688   3.853   3.298
 9930SOL     OW30688   5.376   0.825   3.017
 9930SOL    HW130689   5.299   0.889   3.020
 9930SOL    HW230690   5.399   0.796   3.110
 9931SOL     OW30691   1.314   5.717   5.724
 9931SOL    HW130692   1.377   5.698   5.648
 9931SOL    HW230693   1.264   5.633   5.747
 9932SOL     OW30694   0.381   5.753   4.145
 9932SOL    HW130695   0.364   5.851   4.140
 9932SOL    HW230696   0.453   5.729   4.080
 9933SOL     OW30697   6.889   6.671   2.805
 9933SOL    HW130698   6.848   6.652   2.894
 9933SOL    HW230699   6.821   6.661   2.733
 9934SOL     OW30700   6.989   2.452   4.728
 9934SOL    HW130701   6.933   2.380   4.769
 9934SOL    HW230702   6.945   2.540   4.744
 9935SOL     OW30703   2.105   0.335   6.002
 9935SOL    HW130704   2.083   0.373   5.912
 9935SOL    HW230705   2.066   0.244   6.011
 9936SOL     OW30706   1.908   4.273   3.852
 9936SOL    HW130707   1.945   4.278   3.945
 9936SOL    HW230708   1.978   4.237   3.790
 9937SOL     OW30709   6.278   2.300   5.864
 9937SOL    HW130710   6.179   2.301   5.872
 9937SOL    HW230711   6.313   2.213   5.899
 9938SOL     OW30712   6.761   6.052   2.818
 9938SOL    HW130713   6.777   6.051   2.719
 9938SOL    HW230714   6.848   6.062   2.866
 9939SOL     OW30715   3.273   2.915   3.983
 9939SOL    HW130716   3.328   2.949   4.059
 9939SOL    HW230717   3.323   2.843   3.935
 9940SOL     OW30718   0.225   1.070   0.859
 9940SOL    HW130719   0.272   1.151   0.893
 9940SOL    HW230720   0.270   0.988   0.895
 9941SOL     OW30721   3.393   5.916   4.817
 9941SOL    HW130722   3.431   5.827   4.793
 9941SOL    HW230723   3.387   5.924   4.917
 9942SOL     OW30724   2.726   6.173   3.871
 9942SOL    HW130725   2.660   6.235   3.828
 9942SOL    HW230726   2.761   6.215   3.954
 9943SOL     OW30727   0.535   6.631   4.821
 9943SOL    HW130728   0.601   6.584   4.879
 9943SOL    HW230729   0.583   6.677   4.746
 9944SOL     OW30730   1.964   4.401   6.221
 9944SOL    HW130731   1.943   4.475   6.285
 9944SOL    HW230732   2.022   4.436   6.147
 9945SOL     OW30733   0.394   5.719   6.406
 9945SOL    HW130734   0.342   5.760   6.331
 9945SOL    HW230735   0.440   5.792   6.458
 9946SOL     OW30736   5.514   0.204   4.183
 9946SOL    HW130737   5.470   0.136   4.125
 9946SOL    HW230738   5.560   0.272   4.125
 9947SOL     OW30739   6.115   4.343   4.056
 9947SOL    HW130740   6.107   4.384   4.147
 9947SOL    HW230741   6.161   4.407   3.994
 9948SOL     OW30742   5.404   4.085   3.690
 9948SOL    HW130743   5.408   4.114   3.785
 9948SOL    HW230744   5.481   4.024   3.670
 9949SOL     OW30745   6.183   4.862   2.062
 9949SOL    HW130746   6.205   4.782   2.118
 9949SOL    HW230747   6.100   4.844   2.009
 9950SOL     OW30748   4.255   6.003   0.176
 9950SOL    HW130749   4.239   6.052   0.261
 9950SOL    HW230750   4.335   6.041   0.130
 9951SOL     OW30751   5.854   3.110   2.637
 9951SOL    HW130752   5.886   3.199   2.603
 9951SOL    HW230753   5.836   3.117   2.735
 9952SOL     OW30754   0.647   4.528   6.383
 9952SOL    HW130755   0.725   4.488   6.433
 9952SOL    HW230756   0.646   4.492   6.290
 9953SOL     OW30757   5.569   3.195   3.783
 9953SOL    HW130758   5.539   3.151   3.868
 9953SOL    HW230759   5.551   3.293   3.788
 9954SOL     OW30760   4.935   0.780   5.095
 9954SOL    HW130761   4.983   0.745   5.015
 9954SOL    HW230762   4.857   0.836   5.066
 9955SOL     OW30763   0.628   4.911   4.504
 9955SOL    HW130764   0.709   4.854   4.516
 9955SOL    HW230765   0.639   4.995   4.557
 9956SOL     OW30766   0.905   6.166   0.311
 9956SOL    HW130767   0.866   6.085   0.355
 9956SOL    HW230768   0.834   6.236   0.302
 9957SOL     OW30769   5.652   5.557   2.279
 9957SOL    HW130770   5.596   5.590   2.202
 9957SOL    HW230771   5.749   5.565   2.257
 9958SOL     OW30772   3.117   4.341   0.525
 9958SOL    HW130773   3.208   4.333   0.484
 9958SOL    HW230774   3.086   4.436   0.520
 9959SOL     OW30775   3.425   4.059   1.024
 9959SOL    HW130776   3.406   3.961   1.017
 9959SOL    HW230777   3.433   4.084   1.120
 9960SOL     OW30778   0.760   0.932   2.219
 9960SOL    HW130779   0.678   0.875   2.223
 9960SOL    HW230780   0.841   0.876   2.236
 9961SOL     OW30781   2.241   3.989   4.457
 9961SOL    HW130782   2.181   3.977   4.378
 9961SOL    HW230783   2.240   3.906   4.513
 9962SOL     OW30784   5.900   6.281   4.540
 9962SOL    HW130785   5.969   6.332   4.591
 9962SOL    HW230786   5.944   6.225   4.471
 9963SOL     OW30787   3.070   2.422   0.503
 9963SOL    HW130788   3.159   2.378   0.521
 9963SOL    HW230789   3.082   2.494   0.435
 9964SOL     OW30790   5.593   6.470   4.804
 9964SOL    HW130791   5.685   6.494   4.835
 9964SOL    HW230792   5.526   6.499   4.872
 9965SOL     OW30793   4.991   6.996   1.909
 9965SOL    HW130794   4.957   6.982   1.816
 9965SOL    HW230795   4.915   7.009   1.972
 9966SOL     OW30796   6.761   1.067   2.683
 9966SOL    HW130797   6.735   1.134   2.614
 9966SOL    HW230798   6.716   0.980   2.663
 9967SOL     OW30799   1.004   5.540   0.241
 9967SOL    HW130800   0.907   5.518   0.242
 9967SOL    HW230801   1.058   5.456   0.247
 9968SOL     OW30802   3.724   3.003   3.184
 9968SOL    HW130803   3.699   2.940   3.258
 9968SOL    HW230804   3.790   3.070   3.219
 9969SOL     OW30805   1.727   3.302   0.898
 9969SOL    HW130806   1.634   3.314   0.864
 9969SOL    HW230807   1.772   3.391   0.906
 9970SOL     OW30808   6.804   4.136   2.491
 9970SOL    HW130809   6.816   4.140   2.590
 9970SOL    HW230810   6.716   4.093   2.469
 9971SOL     OW30811   2.549   6.979   7.006
 9971SOL    HW130812   2.594   6.925   6.935
 9971SOL    HW230813   2.612   6.997   0.056
 9972SOL     OW30814   6.772   5.031   1.727
 9972SOL    HW130815   6.760   4.932   1.737
 9972SOL    HW230816   6.774   5.074   1.817
 9973SOL     OW30817   5.002   6.536   3.773
 9973SOL    HW130818   4.905   6.558   3.762
 9973SOL    HW230819   5.048   6.611   3.819
 9974SOL     OW30820   2.668   1.022   4.241
 9974SOL    HW130821   2.659   1.093   4.172
 9974SOL    HW230822   2.683   0.934   4.196
 9975SOL     OW30823   6.691   4.076   0.947
 9975SOL    HW130824   6.747   4.102   1.026
 9975SOL    HW230825   6.595   4.071   0.974
 9976SOL     OW30826   3.047   6.448   4.400
 9976SOL    HW130827   2.961   6.402   4.420
 9976SOL    HW230828   3.031   6.522   4.335
 9977SOL     OW30829   6.436   4.985   4.238
 9977SOL    HW130830   6.531   5.016   4.233
 9977SOL    HW230831   6.410   4.974   4.334
 9978SOL     OW30832   6.881   3.233   4.313
 9978SOL    HW130833   6.937   3.197   4.239
 9978SOL    HW230834   6.939   3.257   4.391
 9979SOL     OW30835   0.976   3.312   5.117
 9979SOL    HW130836   0.993   3.410   5.132
 9979SOL    HW230837   0.877   3.296   5.111
 9980SOL     OW30838   3.115   6.558   5.792
 9980SOL    HW130839   3.175   6.543   5.713
 9980SOL    HW230840   3.039   6.617   5.766
 9981SOL     OW30841   3.668   1.923   3.224
 9981SOL    HW130842   3.735   1.984   3.267
 9981SOL    HW230843   3.593   1.978   3.186
 9982SOL     OW30844   6.199   6.753   2.989
 9982SOL    HW130845   6.261   6.775   3.064
 9982SOL    HW230846   6.252   6.730   2.907
 9983SOL     OW30847   6.517   0.747   1.200
 9983SOL    HW130848   6.550   0.836   1.168
 9983SOL    HW230849   6.539   0.677   1.133
 9984SOL     OW30850   3.184   0.497   6.812
 9984SOL    HW130851   3.212   0.557   6.888
 9984SOL    HW230852   3.085   0.481   6.816
 9985SOL     OW30853   1.506   1.830   0.739
 9985SOL    HW130854   1.476   1.737   0.759
 9985SOL    HW230855   1.603   1.830   0.716
 9986SOL     OW30856   5.071   4.087   4.565
 9986SOL    HW130857   5.073   4.070   4.664
 9986SOL    HW230858   5.008   4.022   4.522
 9987SOL     OW30859   0.261   4.164   5.092
 9987SOL    HW130860   0.312   4.078   5.085
 9987SOL    HW230861   0.252   4.189   5.188
 9988SOL     OW30862   6.386   1.125   3.969
 9988SOL    HW130863   6.320   1.087   3.905
 9988SOL    HW230864   6.371   1.223   3.978
 9989SOL     OW30865   1.799   2.501   4.886
 9989SOL    HW130866   1.896   2.505   4.909
 9989SOL    HW230867   1.754   2.434   4.945
 9990SOL     OW30868   1.140   4.478   1.231
 9990SOL    HW130869   1.081   4.495   1.152
 9990SOL    HW230870   1.143   4.560   1.288
 9991SOL     OW30871   3.872   2.055   3.341
 9991SOL    HW130872   3.918   2.134   3.301
 9991SOL    HW230873   3.838   2.079   3.432
 9992SOL     OW30874   6.377   4.999   6.499
 9992SOL    HW130875   6.384   5.098   6.496
 9992SOL    HW230876   6.449   4.958   6.443
 9993SOL     OW30877   1.265   0.954   1.964
 9993SOL    HW130878   1.279   0.962   1.865
 9993SOL    HW230879   1.212   1.032   1.997
 9994SOL     OW30880   5.949   4.284   3.339
 9994SOL    HW130881   5.930   4.327   3.251
 9994SOL    HW230882   5.865   4.283   3.394
 9995SOL     OW30883   5.459   1.921   4.276
 9995SOL    HW130884   5.469   1.823   4.256
 9995SOL    HW230885   5.469   1.974   4.192
 9996SOL     OW30886   3.232   3.159   1.192
 9996SOL    HW130887   3.257   3.062   1.190
 9996SOL    HW230888   3.276   3.207   1.117
 9997SOL     OW30889   2.518   0.878   4.440
 9997SOL    HW130890   2.572   0.931   4.375
 9997SOL    HW230891   2.580   0.830   4.503
 9998SOL     OW30892   6.058   6.023   5.170
 9998SOL    HW130893   6.107   6.082   5.107
 9998SOL    HW230894   6.036   6.073   5.254
 9999SOL     OW30895   0.314   0.554   5.260
 9999SOL    HW130896   0.304   0.653   5.255
 9999SOL    HW230897   0.224   0.512   5.267
10000SOL     OW30898   6.471   5.001   0.576
10000SOL    HW130899   6.468   5.097   0.548
10000SOL    HW230900   6.390   4.979   0.630
10001SOL     OW30901   3.530   0.704   3.323
10001SOL    HW130902   3.433   0.705   3.349
10001SOL    HW230903   3.582   0.764   3.384
10002SOL     OW30904   1.286   2.183   1.781
10002SOL    HW130905   1.233   2.267   1.770
10002SOL    HW230906   1.261   2.140   1.868
10003SOL     OW30907   5.154   3.854   1.399
10003SOL    HW130908   5.070   3.889   1.439
10003SOL    HW230909   5.190   3.919   1.332
10004SOL     OW30910   5.886   3.709   4.172
10004SOL    HW130911   5.977   3.704   4.133
10004SOL    HW230912   5.866   3.624   4.223
10005SOL     OW30913   4.554   6.824   3.376
10005SOL    HW130914   4.468   6.866   3.405
10005SOL    HW230915   4.615   6.894   3.339
10006SOL     OW30916   5.189   2.710   4.250
10006SOL    HW130917   5.221   2.745   4.338
10006SOL    HW230918   5.181   2.611   4.253
10007SOL     OW30919   4.984   5.104   3.875
10007SOL    HW130920   5.043   5.127   3.953
10007SOL    HW230921   5.040   5.085   3.795
10008SOL     OW30922   2.424   6.679   4.170
10008SOL    HW130923   2.516   6.717   4.157
10008SOL    HW230924   2.383   6.719   4.252
10009SOL     OW30925   2.503   4.344   1.678
10009SOL    HW130926   2.496   4.259   1.732
10009SOL    HW230927   2.512   4.422   1.740
10010SOL     OW30928   5.176   0.891   5.447
10010SOL    HW130929   5.118   0.876   5.368
10010SOL    HW230930   5.125   0.870   5.531
10011SOL     OW30931   6.260   6.830   3.962
10011SOL    HW130932   6.202   6.750   3.950
10011SOL    HW230933   6.342   6.805   4.014
10012SOL     OW30934   4.745   1.554   4.980
10012SOL    HW130935   4.670   1.569   5.045
10012SOL    HW230936   4.771   1.457   4.980
10013SOL     OW30937   1.583   0.661   1.399
10013SOL    HW130938   1.601   0.650   1.301
10013SOL    HW230939   1.518   0.591   1.428
10014SOL     OW30940   1.516   5.002   5.909
10014SOL    HW130941   1.505   4.970   5.815
10014SOL    HW230942   1.492   4.929   5.972
10015SOL     OW30943   2.729   5.864   6.314
10015SOL    HW130944   2.774   5.856   6.225
10015SOL    HW230945   2.634   5.895   6.301
10016SOL     OW30946   2.376   1.362   5.085
10016SOL    HW130947   2.348   1.284   5.029
10016SOL    HW230948   2.305   1.381   5.153
10017SOL     OW30949   6.377   1.967   3.187
10017SOL    HW130950   6.361   2.028   3.110
10017SOL    HW230951   6.383   1.872   3.155
10018SOL     OW30952   4.215   6.885   6.163
10018SOL    HW130953   4.205   6.806   6.102
10018SOL    HW230954   4.290   6.868   6.227
10019SOL     OW30955   0.934   0.796   3.626
10019SOL    HW130956   1.008   0.813   3.561
10019SOL    HW230957   0.856   0.854   3.603
10020SOL     OW30958   1.229   3.828   0.442
10020SOL    HW130959   1.225   3.817   0.342
10020SOL    HW230960   1.151   3.781   0.483
10021SOL     OW30961   4.944   2.957   1.596
10021SOL    HW130962   4.998   2.876   1.574
10021SOL    HW230963   4.879   2.934   1.669
10022SOL     OW30964   2.555   0.984   5.976
10022SOL    HW130965   2.563   1.062   6.037
10022SOL    HW230966   2.554   1.015   5.881
10023SOL     OW30967   0.689   2.999   0.138
10023SOL    HW130968   0.649   2.909   0.153
10023SOL    HW230969   0.682   3.024   0.042
10024SOL     OW30970   0.821   3.610   2.660
10024SOL    HW130971   0.777   3.672   2.594
10024SOL    HW230972   0.912   3.644   2.682
10025SOL     OW30973   1.254   1.609   1.042
10025SOL    HW130974   1.276   1.608   0.944
10025SOL    HW230975   1.239   1.516   1.074
10026SOL     OW30976   6.212   0.690   4.496
10026SOL    HW130977   6.273   0.703   4.574
10026SOL    HW230978   6.256   0.725   4.413
10027SOL     OW30979   6.078   2.748   5.981
10027SOL    HW130980   6.052   2.813   5.910
10027SOL    HW230981   6.078   2.793   6.070
10028SOL     OW30982   1.614   2.028   1.453
10028SOL    HW130983   1.581   2.084   1.378
10028SOL    HW230984   1.543   2.022   1.524
10029SOL     OW30985   3.810   1.289   4.410
10029SOL    HW130986   3.806   1.299   4.310
10029SOL    HW230987   3.904   1.273   4.438
10030SOL     OW30988   0.553   1.238   1.625
10030SOL    HW130989   0.597   1.151   1.649
10030SOL    HW230990   0.601   1.278   1.547
10031SOL     OW30991   0.355   5.457   2.840
10031SOL    HW130992   0.287   5.523   2.806
10031SOL    HW230993   0.308   5.378   2.879
10032SOL     OW30994   3.756   2.153   5.202
10032SOL    HW130995   3.854   2.170   5.194
10032SOL    HW230996   3.734   2.064   5.163
10033SOL     OW30997   6.101   2.894   4.194
10033SOL    HW130998   6.106   2.876   4.293
10033SOL    HW230999   6.006   2.913   4.169
10034SOL     OW31000   3.876   6.483   6.159
10034SOL    HW131001   3.866   6.384   6.154
10034SOL    HW231002   3.962   6.510   6.115
10035SOL     OW31003   0.338   6.256   4.386
10035SOL    HW131004   0.257   6.206   4.414
10035SOL    HW231005   0.415   6.193   4.374
10036SOL     OW31006   6.111   0.099   0.171
10036SOL    HW131007   6.052   0.022   0.192
10036SOL    HW231008   6.058   0.171   0.126
10037SOL     OW31009   6.781   0.134   1.491
10037SOL    HW131010   6.825   0.132   1.580
10037SOL    HW231011   6.696   0.081   1.493
10038SOL     OW31012   5.793   6.879   1.727
10038SOL    HW131013   5.873   6.819   1.725
10038SOL    HW231014   5.721   6.840   1.670
10039SOL     OW31015   3.773   1.149   2.884
10039SOL    HW131016   3.738   1.105   2.966
10039SOL    HW231017   3.697   1.168   2.821
10040SOL     OW31018   0.860   1.547   0.506
10040SOL    HW131019   0.917   1.611   0.557
10040SOL    HW231020   0.847   1.463   0.558
10041SOL     OW31021   0.715   6.551   7.003
10041SOL    HW131022   0.657   6.472   7.024
10041SOL    HW231023   0.661   6.620   6.955
10042SOL     OW31024   6.450   1.847   3.936
10042SOL    HW131025   6.538   1.878   3.898
10042SOL    HW231026   6.466   1.769   3.997
10043SOL     OW31027   2.486   3.213   5.368
10043SOL    HW131028   2.471   3.205   5.467
10043SOL    HW231029   2.502   3.122   5.330
10044SOL     OW31030   3.977   0.857   6.454
10044SOL    HW131031   3.933   0.917   6.387
10044SOL    HW231032   3.909   0.794   6.492
10045SOL     OW31033   2.739   0.003   1.440
10045SOL    HW131034   2.782   6.951   1.392
10045SOL    HW231035   2.639   7.021   1.431
10046SOL     OW31036   0.881   6.443   6.816
10046SOL    HW131037   0.843   6.504   6.747
10046SOL    HW231038   0.853   6.473   6.907
10047SOL     OW31039   1.729   4.275   1.060
10047SOL    HW131040   1.719   4.180   1.033
10047SOL    HW231041   1.732   4.282   1.160
10048SOL     OW31042   6.583   3.391   1.088
10048SOL    HW131043   6.620   3.331   1.016
10048SOL    HW231044   6.487   3.410   1.069
10049SOL     OW31045   6.690   2.000   4.418
10049SOL    HW131046   6.747   1.967   4.343
10049SOL    HW231047   6.740   1.992   4.504
10050SOL     OW31048   0.304   2.018   5.832
10050SOL    HW131049   0.292   1.938   5.889
10050SOL    HW231050   0.399   2.049   5.837
10051SOL     OW31051   1.675   0.584   2.535
10051SOL    HW131052   1.700   0.536   2.619
10051SOL    HW231053   1.673   0.519   2.459
10052SOL     OW31054   0.698   0.029   4.459
10052SOL    HW131055   0.789   0.058   4.429
10052SOL    HW231056   0.629   0.074   4.402
10053SOL     OW31057   5.994   5.204   2.346
10053SOL    HW131058   5.947   5.118   2.364
10053SOL    HW231059   6.031   5.241   2.432
10054SOL     OW31060   4.888   4.396   3.611
10054SOL    HW131061   4.830   4.347   3.676
10054SOL    HW231062   4.984   4.377   3.630
10055SOL     OW31063   1.936   1.831   6.864
10055SOL    HW131064   1.902   1.914   6.819
10055SOL    HW231065   1.973   1.769   6.796
10056SOL     OW31066   4.897   2.869   4.524
10056SOL    HW131067   4.874   2.883   4.428
10056SOL    HW231068   4.902   2.770   4.542
10057SOL     OW31069   5.840   4.402   4.626
10057SOL    HW131070   5.785   4.371   4.704
10057SOL    HW231071   5.870   4.323   4.573
10058SOL     OW31072   5.970   3.975   4.138
10058SOL    HW131073   6.056   3.963   4.187
10058SOL    HW231074   5.913   3.893   4.152
10059SOL     OW31075   5.353   6.043   6.155
10059SOL    HW131076   5.335   6.032   6.252
10059SOL    HW231077   5.452   6.037   6.138
10060SOL     OW31078   3.306   1.090   1.745
10060SOL    HW131079   3.254   1.068   1.827
10060SOL    HW231080   3.278   1.180   1.711
10061SOL     OW31081   4.088   0.270   3.032
10061SOL    HW131082   4.075   0.248   2.935
10061SOL    HW231083   4.004   0.312   3.067
10062SOL     OW31084   6.343   6.959   4.467
10062SOL    HW131085   6.262   6.979   4.522
10062SOL    HW231086   6.364   0.014   4.409
10063SOL     OW31087   4.346   2.259   3.160
10063SOL    HW131088   4.395   2.345   3.178
10063SOL    HW231089   4.352   2.238   3.062
10064SOL     OW31090   2.231   6.350   2.428
10064SOL    HW131091   2.323   6.388   2.412
10064SOL    HW231092   2.199   6.376   2.519
10065SOL     OW31093   6.549   1.779   1.572
10065SOL    HW131094   6.579   1.874   1.577
10065SOL    HW231095   6.569   1.743   1.481
10066SOL     OW31096   5.989   4.319   3.645
10066SOL    HW131097   5.989   4.255   3.568
10066SOL    HW231098   5.977   4.268   3.730
10067SOL     OW31099   5.423   3.576   5.251
10067SOL    HW131100   5.479   3.494   5.242
10067SOL    HW231101   5.482   3.654   5.272
10068SOL     OW31102   2.141   4.186   3.105
10068SOL    HW131103   2.086   4.111   3.070
10068SOL    HW231104   2.113   4.272   3.061
10069SOL     OW31105   2.929   5.515   1.174
10069SOL    HW131106   2.898   5.452   1.103
10069SOL    HW231107   3.017   5.484   1.211
10070SOL     OW31108   5.193   0.310   6.865
10070SOL    HW131109   5.098   0.340   6.878
10070SOL    HW231110   5.232   0.282   6.953
10071SOL     OW31111   5.194   1.446   4.626
10071SOL    HW131112   5.201   1.533   4.674
10071SOL    HW231113   5.135   1.455   4.546
10072SOL     OW31114   5.654   3.053   1.794
10072SOL    HW131115   5.661   2.992   1.873
10072SOL    HW231116   5.573   3.029   1.740
10073SOL     OW31117   5.515   5.541   5.494
10073SOL    HW131118   5.416   5.549   5.481
10073SOL    HW231119   5.562   5.590   5.420
10074SOL     OW31120   2.185   4.446   1.245
10074SOL    HW131121   2.119   4.515   1.276
10074SOL    HW231122   2.136   4.372   1.200
10075SOL     OW31123   0.513   3.621   1.551
10075SOL    HW131124   0.483   3.538   1.598
10075SOL    HW231125   0.613   3.626   1.552
10076SOL     OW31126   6.289   4.835   4.024
10076SOL    HW131127   6.285   4.884   3.937
10076SOL    HW231128   6.335   4.892   4.092
10077SOL     OW31129   4.070   3.927   0.084
10077SOL    HW131130   4.142   3.974   0.032
10077SOL    HW231131   4.065   3.965   0.176
10078SOL     OW31132   5.730   6.267   3.805
10078SOL    HW131133   5.706   6.174   3.778
10078SOL    HW231134   5.646   6.317   3.827
10079SOL     OW31135   6.349   5.058   3.258
10079SOL    HW131136   6.411   5.039   3.334
10079SOL    HW231137   6.399   5.049   3.171
10080SOL     OW31138   5.237   2.786   4.743
10080SOL    HW131139   5.227   2.686   4.741
10080SOL    HW231140   5.203   2.821   4.830
10081SOL     OW31141   1.500   5.151   0.710
10081SOL    HW131142   1.401   5.156   0.723
10081SOL    HW231143   1.529   5.224   0.648
10082SOL     OW31144   6.889   4.484   1.751
10082SOL    HW131145   6.796   4.448   1.762
10082SOL    HW231146   6.939   4.428   1.684
10083SOL     OW31147   3.211   5.664   2.654
10083SOL    HW131148   3.168   5.574   2.652
10083SOL    HW231149   3.184   5.712   2.738
10084SOL     OW31150   1.852   3.911   4.739
10084SOL    HW131151   1.829   3.815   4.756
10084SOL    HW231152   1.946   3.928   4.767
10085SOL     OW31153   3.569   6.911   1.889
10085SOL    HW131154   3.648   6.921   1.949
10085SOL    HW231155   3.581   6.831   1.830
10086SOL     OW31156   2.446   0.956   3.183
10086SOL    HW131157   2.357   0.911   3.183
10086SOL    HW231158   2.475   0.974   3.277
10087SOL     OW31159   1.253   5.518   6.883
10087SOL    HW131160   1.172   5.533   6.827
10087SOL    HW231161   1.318   5.592   6.867
10088SOL     OW31162   5.279   1.675   0.881
10088SOL    HW131163   5.353   1.700   0.820
10088SOL    HW231164   5.311   1.608   0.948
10089SOL     OW31165   3.693   6.877   3.279
10089SOL    HW131166   3.608   6.895   3.329
10089SOL    HW231167   3.697   6.780   3.254
10090SOL     OW31168   3.485   6.114   2.810
10090SOL    HW131169   3.558   6.068   2.861
10090SOL    HW231170   3.431   6.046   2.760
10091SOL     OW31171   4.844   5.944   3.467
10091SOL    HW131172   4.869   6.041   3.464
10091SOL    HW231173   4.745   5.935   3.470
10092SOL     OW31174   6.543   1.273   2.215
10092SOL    HW131175   6.541   1.370   2.191
10092SOL    HW231176   6.610   1.226   2.156
10093SOL     OW31177   4.445   4.223   6.326
10093SOL    HW131178   4.362   4.220   6.382
10093SOL    HW231179   4.481   4.316   6.325
10094SOL     OW31180   4.499   2.973   0.020
10094SOL    HW131181   4.537   3.057   7.004
10094SOL    HW231182   4.521   2.971   0.117
10095SOL     OW31183   4.363   2.721   5.326
10095SOL    HW131184   4.266   2.701   5.319
10095SOL    HW231185   4.415   2.654   5.273
10096SOL     OW31186   6.165   4.718   1.575
10096SOL    HW131187   6.085   4.675   1.534
10096SOL    HW231188   6.203   4.785   1.511
10097SOL     OW31189   0.488   0.624   1.186
10097SOL    HW131190   0.472   0.718   1.155
10097SOL    HW231191   0.447   0.560   1.122
10098SOL     OW31192   4.017   4.754   0.481
10098SOL    HW131193   3.963   4.743   0.564
10098SOL    HW231194   4.069   4.840   0.485
10099SOL     OW31195   0.268   6.218   3.202
10099SOL    HW131196   0.254   6.121   3.221
10099SOL    HW231197   0.351   6.230   3.148
10100SOL     OW31198   5.362   5.750   3.963
10100SOL    HW131199   5.348   5.832   4.018
10100SOL    HW231200   5.458   5.743   3.937
10101SOL     OW31201   6.927   2.169   6.183
10101SOL    HW131202   6.948   2.074   6.206
10101SOL    HW231203   7.003   2.207   6.130
10102SOL     OW31204   6.870   4.995   3.524
10102SOL    HW131205   6.962   4.957   3.514
10102SOL    HW231206   6.818   4.938   3.588
10103SOL     OW31207   0.572   0.694   6.700
10103SOL    HW131208   0.633   0.656   6.632
10103SOL    HW231209   0.573   0.637   6.782
10104SOL     OW31210   2.967   1.783   4.356
10104SOL    HW131211   2.964   1.807   4.453
10104SOL    HW231212   3.062   1.762   4.330
10105SOL     OW31213   3.570   1.551   4.438
10105SOL    HW131214   3.535   1.458   4.430
10105SOL    HW231215   3.494   1.614   4.453
10106SOL     OW31216   6.823   3.577   1.261
10106SOL    HW131217   6.791   3.669   1.238
10106SOL    HW231218   6.917   3.566   1.230
10107SOL     OW31219   4.528   5.548   5.437
10107SOL    HW131220   4.499   5.634   5.394
10107SOL    HW231221   4.597   5.505   5.379
10108SOL     OW31222   3.260   1.854   4.779
10108SOL    HW131223   3.182   1.888   4.832
10108SOL    HW231224   3.307   1.931   4.737
10109SOL     OW31225   1.569   3.033   0.527
10109SOL    HW131226   1.525   3.036   0.616
10109SOL    HW231227   1.599   2.939   0.508
10110SOL     OW31228   6.478   6.160   1.965
10110SOL    HW131229   6.459   6.121   1.875
10110SOL    HW231230   6.562   6.214   1.961
10111SOL     OW31231   6.208   2.360   1.691
10111SOL    HW131232   6.233   2.415   1.610
10111SOL    HW231233   6.156   2.280   1.662
10112SOL     OW31234   0.281   3.017   3.740
10112SOL    HW131235   0.224   2.949   3.786
10112SOL    HW231236   0.224   3.077   3.685
10113SOL     OW31237   6.840   6.787   5.996
10113SOL    HW131238   6.781   6.863   5.968
10113SOL    HW231239   6.866   6.734   5.916
10114SOL     OW31240   6.104   4.498   1.264
10114SOL    HW131241   6.104   4.449   1.352
10114SOL    HW231242   6.130   4.593   1.279
10115SOL     OW31243   2.637   1.855   6.700
10115SOL    HW131244   2.591   1.939   6.730
10115SOL    HW231245   2.583   1.812   6.628
10116SOL     OW31246   1.146   0.122   6.194
10116SOL    HW131247   1.062   0.097   6.145
10116SOL    HW231248   1.217   0.147   6.128
10117SOL     OW31249   0.888   4.614   0.860
10117SOL    HW131250   0.798   4.607   0.903
10117SOL    HW231251   0.893   4.698   0.805
10118SOL     OW31252   3.876   5.331   3.034
10118SOL    HW131253   3.969   5.331   3.071
10118SOL    HW231254   3.850   5.238   3.011
10119SOL     OW31255   5.878   5.703   6.785
10119SOL    HW131256   5.899   5.606   6.798
10119SOL    HW231257   5.824   5.737   6.861
10120SOL     OW31258   2.379   2.432   2.424
10120SOL    HW131259   2.299   2.486   2.451
10120SOL    HW231260   2.386   2.428   2.325
10121SOL     OW31261   6.503   5.967   2.178
10121SOL    HW131262   6.457   6.020   2.106
10121SOL    HW231263   6.448   5.887   2.200
10122SOL     OW31264   2.098   6.811   3.720
10122SOL    HW131265   2.194   6.796   3.696
10122SOL    HW231266   2.086   6.904   3.755
10123SOL     OW31267   6.082   6.409   6.437
10123SOL    HW131268   6.135   6.363   6.508
10123SOL    HW231269   6.091   6.508   6.446
10124SOL     OW31270   0.465   4.531   3.335
10124SOL    HW131271   0.394   4.482   3.285
10124SOL    HW231272   0.423   4.582   3.411
10125SOL     OW31273   2.233   2.469   4.124
10125SOL    HW131274   2.155   2.522   4.090
10125SOL    HW231275   2.203   2.412   4.201
10126SOL     OW31276   0.221   6.047   4.801
10126SOL    HW131277   0.192   6.075   4.893
10126SOL    HW231278   0.271   6.122   4.758
10127SOL     OW31279   2.709   0.726   4.816
10127SOL    HW131280   2.632   0.788   4.802
10127SOL    HW231281   2.762   0.719   4.731
10128SOL     OW31282   2.856   0.852   0.601
10128SOL    HW131283   2.938   0.812   0.642
10128SOL    HW231284   2.819   0.921   0.664
10129SOL     OW31285   6.830   1.943   5.897
10129SOL    HW131286   6.831   1.978   5.804
10129SOL    HW231287   6.740   1.959   5.937
10130SOL     OW31288   0.940   2.844   3.417
10130SOL    HW131289   1.021   2.802   3.376
10130SOL    HW231290   0.862   2.781   3.407
10131SOL     OW31291   2.473   0.866   4.753
10131SOL    HW131292   2.508   0.951   4.713
10131SOL    HW231293   2.393   0.835   4.701
10132SOL     OW31294   5.794   0.907   2.081
10132SOL    HW131295   5.771   0.917   2.178
10132SOL    HW231296   5.852   0.827   2.069
10133SOL     OW31297   4.940   5.346   1.241
10133SOL    HW131298   4.975   5.437   1.219
10133SOL    HW231299   5.003   5.276   1.205
10134SOL     OW31300   6.412   1.111   2.681
10134SOL    HW131301   6.467   1.150   2.754
10134SOL    HW231302   6.432   1.157   2.594
10135SOL     OW31303   6.326   6.495   3.223
10135SOL    HW131304   6.396   6.464   3.288
10135SOL    HW231305   6.299   6.589   3.246
10136SOL     OW31306   5.487   0.187   2.992
10136SOL    HW131307   5.479   0.206   3.090
10136SOL    HW231308   5.399   0.202   2.948
10137SOL     OW31309   5.931   5.596   2.226
10137SOL    HW131310   6.006   5.532   2.211
10137SOL    HW231311   5.933   5.629   2.321
10138SOL     OW31312   0.166   1.553   1.684
10138SOL    HW131313   0.230   1.495   1.733
10138SOL    HW231314   0.193   1.559   1.588
10139SOL     OW31315   4.177   2.356   0.742
10139SOL    HW131316   4.142   2.264   0.756
10139SOL    HW231317   4.187   2.401   0.831
10140SOL     OW31318   6.051   6.221   3.481
10140SOL    HW131319   6.025   6.317   3.472
10140SOL    HW231320   6.027   6.172   3.397
10141SOL     OW31321   1.131   1.773   5.557
10141SOL    HW131322   1.138   1.749   5.460
10141SOL    HW231323   1.118   1.872   5.566
10142SOL     OW31324   3.871   6.192   1.832
10142SOL    HW131325   3.822   6.258   1.889
10142SOL    HW231326   3.814   6.111   1.819
10143SOL     OW31327   0.728   3.289   6.706
10143SOL    HW131328   0.783   3.365   6.672
10143SOL    HW231329   0.710   3.303   6.804
10144SOL     OW31330   4.821   0.198   2.888
10144SOL    HW131331   4.767   0.243   2.817
10144SOL    HW231332   4.882   0.130   2.845
10145SOL     OW31333   6.348   1.291   5.231
10145SOL    HW131334   6.318   1.373   5.183
10145SOL    HW231335   6.284   1.216   5.213
10146SOL     OW31336   1.794   1.382   5.244
10146SOL    HW131337   1.750   1.385   5.154
10146SOL    HW231338   1.739   1.435   5.309
10147SOL     OW31339   4.361   4.605   0.006
10147SOL    HW131340   4.426   4.680   7.021
10147SOL    HW231341   4.365   4.568   0.098
10148SOL     OW31342   6.470   6.173   6.470
10148SOL    HW131343   6.483   6.157   6.373
10148SOL    HW231344   6.402   6.109   6.506
10149SOL     OW31345   3.672   3.092   4.340
10149SOL    HW131346   3.688   3.190   4.331
10149SOL    HW231347   3.702   3.061   4.431
10150SOL     OW31348   6.655   4.006   6.721
10150SOL    HW131349   6.652   4.054   6.633
10150SOL    HW231350   6.750   3.990   6.748
10151SOL     OW31351   0.240   0.319   0.029
10151SOL    HW131352   0.239   0.357   6.961
10151SOL    HW231353   0.218   0.391   0.095
10152SOL     OW31354   3.475   6.889   4.064
10152SOL    HW131355   3.385   6.849   4.045
10152SOL    HW231356   3.546   6.820   4.049
10153SOL     OW31357   4.282   4.616   0.497
10153SOL    HW131358   4.262   4.544   0.563
10153SOL    HW231359   4.198   4.670   0.481
10154SOL     OW31360   4.840   4.957   6.448
10154SOL    HW131361   4.799   5.046   6.428
10154SOL    HW231362   4.768   4.893   6.477
10155SOL     OW31363   4.970   2.515   4.744
10155SOL    HW131364   4.934   2.547   4.656
10155SOL    HW231365   4.975   2.592   4.808
10156SOL     OW31366   3.128   1.969   6.613
10156SOL    HW131367   3.152   1.909   6.536
10156SOL    HW231368   3.029   1.971   6.624
10157SOL     OW31369   0.216   5.788   2.168
10157SOL    HW131370   0.282   5.798   2.093
10157SOL    HW231371   0.248   5.718   2.232
10158SOL     OW31372   0.307   4.660   5.965
10158SOL    HW131373   0.315   4.586   5.899
10158SOL    HW231374   0.265   4.627   6.049
10159SOL     OW31375   4.076   2.975   1.757
10159SOL    HW131376   3.985   2.942   1.729
10159SOL    HW231377   4.146   2.929   1.703
10160SOL     OW31378   6.717   4.370   2.710
10160SOL    HW131379   6.739   4.415   2.624
10160SOL    HW231380   6.633   4.410   2.748
10161SOL     OW31381   6.773   2.653   0.522
10161SOL    HW131382   6.818   2.676   0.436
10161SOL    HW231383   6.731   2.562   0.516
10162SOL     OW31384   2.000   2.176   2.379
10162SOL    HW131385   2.047   2.099   2.424
10162SOL    HW231386   2.044   2.261   2.405
10163SOL     OW31387   4.045   5.163   4.644
10163SOL    HW131388   4.075   5.166   4.548
10163SOL    HW231389   3.986   5.241   4.662
10164SOL     OW31390   0.026   1.759   3.323
10164SOL    HW131391   0.050   1.663   3.340
10164SOL    HW231392   0.109   1.811   3.304
10165SOL     OW31393   2.043   2.957   3.764
10165SOL    HW131394   2.022   2.868   3.723
10165SOL    HW231395   2.056   3.025   3.691
10166SOL     OW31396   3.503   6.206   3.926
10166SOL    HW131397   3.512   6.109   3.907
10166SOL    HW231398   3.413   6.224   3.967
10167SOL     OW31399   3.670   2.043   0.346
10167SOL    HW131400   3.706   2.102   0.274
10167SOL    HW231401   3.731   2.045   0.425
10168SOL     OW31402   0.295   1.043   6.718
10168SOL    HW131403   0.196   1.037   6.706
10168SOL    HW231404   0.318   1.133   6.755
10169SOL     OW31405   4.784   4.936   2.572
10169SOL    HW131406   4.725   4.859   2.547
10169SOL    HW231407   4.727   5.016   2.591
10170SOL     OW31408   4.567   6.817   6.898
10170SOL    HW131409   4.661   6.850   6.891
10170SOL    HW231410   4.508   6.893   6.927
10171SOL     OW31411   1.538   4.791   3.114
10171SOL    HW131412   1.577   4.772   3.204
10171SOL    HW231413   1.540   4.708   3.058
10172SOL     OW31414   0.256   0.231   3.215
10172SOL    HW131415   0.290   0.324   3.205
10172SOL    HW231416   0.224   0.197   3.126
10173SOL     OW31417   4.301   2.377   3.964
10173SOL    HW131418   4.378   2.410   4.018
10173SOL    HW231419   4.231   2.339   4.025
10174SOL     OW31420   3.929   5.713   1.012
10174SOL    HW131421   4.018   5.677   1.040
10174SOL    HW231422   3.939   5.808   0.981
10175SOL     OW31423   6.757   6.936   4.456
10175SOL    HW131424   6.777   6.990   4.538
10175SOL    HW231425   6.837   6.882   4.432
10176SOL     OW31426   0.305   1.752   4.746
10176SOL    HW131427   0.291   1.702   4.660
10176SOL    HW231428   0.217   1.769   4.789
10177SOL     OW31429   3.109   0.469   5.006
10177SOL    HW131430   3.095   0.377   4.969
10177SOL    HW231431   3.147   0.462   5.098
10178SOL     OW31432   5.803   1.444   1.853
10178SOL    HW131433   5.755   1.429   1.940
10178SOL    HW231434   5.891   1.487   1.871
10179SOL     OW31435   6.887   6.119   0.979
10179SOL    HW131436   6.809   6.134   1.039
10179SOL    HW231437   6.937   6.205   0.967
10180SOL     OW31438   2.202   0.355   6.258
10180SOL    HW131439   2.149   0.397   6.332
10180SOL    HW231440   2.163   0.381   6.170
10181SOL     OW31441   0.161   4.163   2.388
10181SOL    HW131442   0.140   4.105   2.466
10181SOL    HW231443   0.177   4.257   2.420
10182SOL     OW31444   2.704   0.030   6.369
10182SOL    HW131445   2.607   0.052   6.377
10182SOL    HW231446   2.721   6.964   6.408
10183SOL     OW31447   3.658   5.985   6.695
10183SOL    HW131448   3.712   5.942   6.767
10183SOL    HW231449   3.646   5.921   6.619
10184SOL     OW31450   4.845   3.128   4.302
10184SOL    HW131451   4.904   3.162   4.375
10184SOL    HW231452   4.876   3.164   4.214
10185SOL     OW31453   2.731   4.789   1.765
10185SOL    HW131454   2.746   4.736   1.849
10185SOL    HW231455   2.779   4.745   1.689
10186SOL     OW31456   3.495   3.415   1.793
10186SOL    HW131457   3.450   3.326   1.796
10186SOL    HW231458   3.433   3.482   1.751
10187SOL     OW31459   1.329   3.517   4.727
10187SOL    HW131460   1.349   3.586   4.796
10187SOL    HW231461   1.281   3.559   4.650
10188SOL     OW31462   2.566   6.647   6.951
10188SOL    HW131463   2.480   6.698   6.962
10188SOL    HW231464   2.639   6.709   6.926
10189SOL     OW31465   1.628   1.531   5.443
10189SOL    HW131466   1.648   1.611   5.386
10189SOL    HW231467   1.534   1.501   5.427
10190SOL     OW31468   2.566   4.168   0.990
10190SOL    HW131469   2.497   4.173   1.062
10190SOL    HW231470   2.566   4.077   0.949
10191SOL     OW31471   6.531   0.363   6.840
10191SOL    HW131472   6.532   0.263   6.829
10191SOL    HW231473   6.515   0.386   6.936
10192SOL     OW31474   3.263   0.923   3.959
10192SOL    HW131475   3.168   0.930   3.988
10192SOL    HW231476   3.282   0.831   3.925
10193SOL     OW31477   4.167   3.489   3.924
10193SOL    HW131478   4.155   3.457   3.829
10193SOL    HW231479   4.214   3.418   3.976
10194SOL     OW31480   3.140   6.017   3.267
10194SOL    HW131481   3.189   6.031   3.181
10194SOL    HW231482   3.139   6.102   3.320
10195SOL     OW31483   5.263   6.423   2.142
10195SOL    HW131484   5.320   6.500   2.169
10195SOL    HW231485   5.296   6.386   2.054
10196SOL     OW31486   4.814   4.587   4.016
10196SOL    HW131487   4.838   4.674   3.973
10196SOL    HW231488   4.722   4.560   3.988
10197SOL     OW31489   5.838   1.957   2.528
10197SOL    HW131490   5.752   1.994   2.494
10197SOL    HW231491   5.820   1.877   2.584
10198SOL     OW31492   3.271   1.208   2.069
10198SOL    HW131493   3.280   1.307   2.055
10198SOL    HW231494   3.355   1.172   2.110
10199SOL     OW31495   1.546   1.843   6.867
10199SOL    HW131496   1.571   1.926   6.918
10199SOL    HW231497   1.587   1.847   6.776
10200SOL     OW31498   4.211   6.874   4.091
10200SOL    HW131499   4.295   6.884   4.038
10200SOL    HW231500   4.188   6.777   4.099
10201SOL     OW31501   0.517   5.074   2.765
10201SOL    HW131502   0.528   5.112   2.673
10201SOL    HW231503   0.583   5.115   2.827
10202SOL     OW31504   1.280   3.053   3.810
10202SOL    HW131505   1.356   3.011   3.859
10202SOL    HW231506   1.287   3.033   3.713
10203SOL     OW31507   6.428   2.330   1.353
10203SOL    HW131508   6.525   2.332   1.376
10203SOL    HW231509   6.380   2.404   1.401
10204SOL     OW31510   1.359   5.847   4.029
10204SOL    HW131511   1.325   5.820   3.939
10204SOL    HW231512   1.282   5.868   4.089
10205SOL     OW31513   3.864   6.815   1.631
10205SOL    HW131514   3.863   6.915   1.635
10205SOL    HW231515   3.771   6.780   1.644
10206SOL     OW31516   6.139   5.801   6.771
10206SOL    HW131517   6.164   5.783   6.866
10206SOL    HW231518   6.040   5.793   6.760
10207SOL     OW31519   3.351   1.464   2.025
10207SOL    HW131520   3.375   1.544   2.081
10207SOL    HW231521   3.343   1.491   1.929
10208SOL     OW31522   0.994   2.101   6.203
10208SOL    HW131523   1.039   2.190   6.208
10208SOL    HW231524   0.926   2.093   6.276
10209SOL     OW31525   4.261   6.206   0.376
10209SOL    HW131526   4.186   6.233   0.436
10209SOL    HW231527   4.347   6.205   0.428
10210SOL     OW31528   4.177   6.413   6.640
10210SOL    HW131529   4.089   6.405   6.687
10210SOL    HW231530   4.235   6.480   6.687
10211SOL     OW31531   4.128   4.910   4.450
10211SOL    HW131532   4.173   4.972   4.386
10211SOL    HW231533   4.176   4.822   4.449
10212SOL     OW31534   6.599   5.899   5.437
10212SOL    HW131535   6.524   5.952   5.401
10212SOL    HW231536   6.671   5.890   5.368
10213SOL     OW31537   3.348   0.099   4.744
10213SOL    HW131538   3.442   0.067   4.755
10213SOL    HW231539   3.347   0.199   4.741
10214SOL     OW31540   6.882   6.977   0.516
10214SOL    HW131541   6.907   0.030   0.458
10214SOL    HW231542   6.941   6.899   0.495
10215SOL     OW31543   4.625   2.404   0.069
10215SOL    HW131544   4.603   2.474   0.137
10215SOL    HW231545   4.540   2.367   0.031
10216SOL     OW31546   5.032   0.314   3.196
10216SOL    HW131547   5.008   0.391   3.137
10216SOL    HW231548   5.055   0.235   3.139
10217SOL     OW31549   2.466   1.692   6.111
10217SOL    HW131550   2.455   1.741   6.025
10217SOL    HW231551   2.418   1.604   6.106
10218SOL     OW31552   3.582   0.520   6.038
10218SOL    HW131553   3.588   0.435   5.986
10218SOL    HW231554   3.610   0.504   6.132
10219SOL     OW31555   6.758   5.426   0.958
10219SOL    HW131556   6.823   5.488   0.913
10219SOL    HW231557   6.732   5.463   1.047
10220SOL     OW31558   4.493   2.546   6.439
10220SOL    HW131559   4.419   2.612   6.442
10220SOL    HW231560   4.484   2.488   6.358
10221SOL     OW31561   1.928   0.012   4.635
10221SOL    HW131562   1.976   0.041   4.553
10221SOL    HW231563   1.829   0.018   4.620
10222SOL     OW31564   2.855   5.066   5.140
10222SOL    HW131565   2.766   5.022   5.155
10222SOL    HW231566   2.909   5.011   5.077
10223SOL     OW31567   2.375   5.888   5.808
10223SOL    HW131568   2.323   5.943   5.873
10223SOL    HW231569   2.468   5.924   5.800
10224SOL     OW31570   4.265   5.849   5.612
10224SOL    HW131571   4.205   5.886   5.541
10224SOL    HW231572   4.321   5.923   5.650
10225SOL     OW31573   4.615   0.989   5.196
10225SOL    HW131574   4.642   1.058   5.263
10225SOL    HW231575   4.684   0.984   5.124
10226SOL     OW31576   6.611   2.395   6.397
10226SOL    HW131577   6.597   2.402   6.495
10226SOL    HW231578   6.525   2.368   6.352
10227SOL     OW31579   4.391   4.918   5.142
10227SOL    HW131580   4.448   4.924   5.060
10227SOL    HW231581   4.415   4.992   5.205
10228SOL     OW31582   0.923   2.919   1.512
10228SOL    HW131583   0.966   2.852   1.572
10228SOL    HW231584   0.832   2.887   1.487
10229SOL     OW31585   2.725   0.320   1.774
10229SOL    HW131586   2.704   0.355   1.683
10229SOL    HW231587   2.664   0.363   1.841
10230SOL     OW31588   5.376   0.054   3.288
10230SOL    HW131589   5.440   0.117   3.331
10230SOL    HW231590   5.293   0.047   3.345
10231SOL     OW31591   5.236   0.052   4.927
10231SOL    HW131592   5.279   0.000   4.853
10231SOL    HW231593   5.190   7.014   4.989
10232SOL     OW31594   4.138   2.002   2.615
10232SOL    HW131595   4.180   2.092   2.615
10232SOL    HW231596   4.138   1.964   2.523
10233SOL     OW31597   5.169   6.917   5.157
10233SOL    HW131598   5.248   6.857   5.141
10233SOL    HW231599   5.142   6.910   5.253
10234SOL     OW31600   4.088   4.125   1.134
10234SOL    HW131601   4.128   4.046   1.179
10234SOL    HW231602   4.032   4.176   1.199
10235SOL     OW31603   5.228   6.581   0.010
10235SOL    HW131604   5.188   6.492   7.015
10235SOL    HW231605   5.313   6.592   6.984
10236SOL     OW31606   0.965   5.122   1.386
10236SOL    HW131607   0.902   5.196   1.361
10236SOL    HW231608   0.971   5.116   1.486
10237SOL     OW31609   5.796   2.354   2.407
10237SOL    HW131610   5.703   2.345   2.444
10237SOL    HW231611   5.799   2.315   2.315
10238SOL     OW31612   4.997   4.595   6.123
10238SOL    HW131613   4.975   4.613   6.219
10238SOL    HW231614   4.915   4.565   6.074
10239SOL     OW31615   5.689   4.267   3.837
10239SOL    HW131616   5.669   4.348   3.781
10239SOL    HW231617   5.776   4.228   3.809
10240SOL     OW31618   5.389   3.858   2.617
10240SOL    HW131619   5.302   3.898   2.586
10240SOL    HW231620   5.401   3.768   2.577
10241SOL     OW31621   1.235   2.296   2.756
10241SOL    HW131622   1.237   2.202   2.789
10241SOL    HW231623   1.327   2.334   2.759
10242SOL     OW31624   0.946   5.611   6.396
10242SOL    HW131625   0.981   5.533   6.448
10242SOL    HW231626   0.986   5.695   6.430
10243SOL     OW31627   6.778   5.875   3.679
10243SOL    HW131628   6.878   5.883   3.667
10243SOL    HW231629   6.736   5.963   3.662
10244SOL     OW31630   2.608   6.032   0.040
10244SOL    HW131631   2.535   6.076   0.092
10244SOL    HW231632   2.693   6.034   0.094
10245SOL     OW31633   4.075   3.547   0.990
10245SOL    HW131634   4.151   3.504   0.942
10245SOL    HW231635   4.056   3.498   1.076
10246SOL     OW31636   3.637   3.798   4.768
10246SOL    HW131637   3.561   3.781   4.831
10246SOL    HW231638   3.601   3.838   4.683
10247SOL     OW31639   1.016   5.355   6.578
10247SOL    HW131640   0.959   5.390   6.652
10247SOL    HW231641   1.035   5.258   6.593
10248SOL     OW31642   5.882   6.672   3.581
10248SOL    HW131643   5.970   6.634   3.611
10248SOL    HW231644   5.835   6.604   3.524
10249SOL     OW31645   4.306   1.662   5.990
10249SOL    HW131646   4.319   1.563   5.996
10249SOL    HW231647   4.365   1.708   6.055
10250SOL     OW31648   4.699   5.498   0.727
10250SOL    HW131649   4.623   5.548   0.769
10250SOL    HW231650   4.767   5.477   0.797
10251SOL     OW31651   4.110   4.477   1.113
10251SOL    HW131652   4.199   4.461   1.156
10251SOL    HW231653   4.097   4.412   1.038
10252SOL     OW31654   0.030   4.555   0.516
10252SOL    HW131655   0.033   4.573   0.614
10252SOL    HW231656   0.083   4.625   0.468
10253SOL     OW31657   5.587   3.934   0.420
10253SOL    HW131658   5.627   3.978   0.340
10253SOL    HW231659   5.551   4.004   0.482
10254SOL     OW31660   3.653   2.114   5.659
10254SOL    HW131661   3.733   2.055   5.667
10254SOL    HW231662   3.599   2.087   5.580
10255SOL     OW31663   2.879   4.861   3.815
10255SOL    HW131664   2.889   4.953   3.853
10255SOL    HW231665   2.930   4.854   3.730
10256SOL     OW31666   5.525   4.790   0.141
10256SOL    HW131667   5.621   4.786   0.167
10256SOL    HW231668   5.470   4.744   0.211
10257SOL     OW31669   1.731   4.411   4.594
10257SOL    HW131670   1.821   4.455   4.601
10257SOL    HW231671   1.660   4.481   4.585
10258SOL     OW31672   3.737   1.520   2.178
10258SOL    HW131673   3.726   1.607   2.129
10258SOL    HW231674   3.804   1.531   2.251
10259SOL     OW31675   5.575   3.106   3.521
10259SOL    HW131676   5.560   3.008   3.506
10259SOL    HW231677   5.587   3.124   3.618
10260SOL     OW31678   6.886   5.824   2.366
10260SOL    HW131679   6.973   5.812   2.318
10260SOL    HW231680   6.827   5.746   2.348
10261SOL     OW31681   1.663   0.140   2.660
10261SOL    HW131682   1.717   0.064   2.623
10261SOL    HW231683   1.583   0.155   2.602
10262SOL     OW31684   6.699   6.139   3.707
10262SOL    HW131685   6.611   6.109   3.742
10262SOL    HW231686   6.765   6.147   3.782
10263SOL     OW31687   6.542   3.902   5.139
10263SOL    HW131688   6.612   3.831   5.129
10263SOL    HW231689   6.475   3.874   5.208
10264SOL     OW31690   0.449   0.282   1.052
10264SOL    HW131691   0.351   0.305   1.052
10264SOL    HW231692   0.466   0.205   1.113
10265SOL     OW31693   5.141   2.266   4.460
10265SOL    HW131694   5.049   2.257   4.500
10265SOL    HW231695   5.178   2.174   4.442
10266SOL     OW31696   3.101   3.734   0.265
10266SOL    HW131697   3.106   3.709   0.169
10266SOL    HW231698   3.051   3.664   0.316
10267SOL     OW31699   6.703   0.734   6.014
10267SOL    HW131700   6.780   0.699   6.069
10267SOL    HW231701   6.736   0.759   5.923
10268SOL     OW31702   6.964   4.706   0.170
10268SOL    HW131703   6.981   4.656   0.255
10268SOL    HW231704   6.945   4.640   0.097
10269SOL     OW31705   4.086   1.875   5.737
10269SOL    HW131706   4.122   1.926   5.815
10269SOL    HW231707   4.160   1.822   5.695
10270SOL     OW31708   3.389   6.146   3.408
10270SOL    HW131709   3.382   6.176   3.313
10270SOL    HW231710   3.392   6.046   3.412
10271SOL     OW31711   1.082   4.965   0.871
10271SOL    HW131712   1.149   4.904   0.914
10271SOL    HW231713   1.041   4.920   0.792
10272SOL     OW31714   1.473   3.474   4.317
10272SOL    HW131715   1.442   3.389   4.360
10272SOL    HW231716   1.537   3.521   4.379
10273SOL     OW31717   4.920   0.397   4.403
10273SOL    HW131718   4.852   0.450   4.453
10273SOL    HW231719   4.928   0.306   4.443
10274SOL     OW31720   1.799   4.647   6.928
10274SOL    HW131721   1.745   4.728   6.949
10274SOL    HW231722   1.742   4.565   6.941
10275SOL     OW31723   6.967   5.770   1.918
10275SOL    HW131724   6.968   5.869   1.927
10275SOL    HW231725   6.901   5.731   1.983
10276SOL     OW31726   3.174   6.893   0.301
10276SOL    HW131727   3.092   6.918   0.353
10276SOL    HW231728   3.216   6.975   0.263
10277SOL     OW31729   5.809   5.623   1.967
10277SOL    HW131730   5.713   5.631   1.995
10277SOL    HW231731   5.862   5.586   2.043
10278SOL     OW31732   6.333   1.096   4.628
10278SOL    HW131733   6.335   1.086   4.529
10278SOL    HW231734   6.416   1.058   4.667
10279SOL     OW31735   3.905   6.897   4.278
10279SOL    HW131736   3.847   6.837   4.332
10279SOL    HW231737   3.988   6.849   4.251
10280SOL     OW31738   2.716   2.455   6.822
10280SOL    HW131739   2.797   2.508   6.847
10280SOL    HW231740   2.742   2.383   6.757
10281SOL     OW31741   4.100   1.231   4.265
10281SOL    HW131742   4.053   1.168   4.327
10281SOL    HW231743   4.145   1.303   4.318
10282SOL     OW31744   1.347   3.376   3.869
10282SOL    HW131745   1.288   3.447   3.831
10282SOL    HW231746   1.327   3.289   3.823
10283SOL     OW31747   1.865   5.680   6.974
10283SOL    HW131748   1.817   5.735   6.905
10283SOL    HW231749   1.961   5.671   6.947
10284SOL     OW31750   5.742   2.471   0.462
10284SOL    HW131751   5.693   2.400   0.513
10284SOL    HW231752   5.725   2.560   0.504
10285SOL     OW31753   4.954   1.309   0.618
10285SOL    HW131754   5.017   1.231   0.615
10285SOL    HW231755   4.992   1.385   0.565
10286SOL     OW31756   3.012   6.646   3.599
10286SOL    HW131757   2.982   6.555   3.625
10286SOL    HW231758   3.005   6.708   3.677
10287SOL     OW31759   1.840   4.013   2.476
10287SOL    HW131760   1.810   3.937   2.418
10287SOL    HW231761   1.917   4.060   2.433
10288SOL     OW31762   5.021   7.023   4.725
10288SOL    HW131763   4.979   6.953   4.783
10288SOL    HW231764   5.072   0.063   4.782
10289SOL     OW31765   2.406   1.656   2.609
10289SOL    HW131766   2.467   1.734   2.629
10289SOL    HW231767   2.462   1.576   2.586
10290SOL     OW31768   3.269   3.663   2.979
10290SOL    HW131769   3.212   3.630   3.054
10290SOL    HW231770   3.224   3.645   2.892
10291SOL     OW31771   4.064   0.465   3.341
10291SOL    HW131772   3.981   0.416   3.314
10291SOL    HW231773   4.123   0.478   3.261
10292SOL     OW31774   6.634   3.102   4.263
10292SOL    HW131775   6.727   3.140   4.263
10292SOL    HW231776   6.592   3.117   4.352
10293SOL     OW31777   1.714   5.045   3.327
10293SOL    HW131778   1.637   4.982   3.337
10293SOL    HW231779   1.789   4.999   3.279
10294SOL     OW31780   6.292   0.599   3.130
10294SOL    HW131781   6.326   0.687   3.163
10294SOL    HW231782   6.235   0.613   3.049
10295SOL     OW31783   1.587   4.205   3.511
10295SOL    HW131784   1.677   4.226   3.551
10295SOL    HW231785   1.565   4.109   3.529
10296SOL     OW31786   6.909   3.284   1.305
10296SOL    HW131787   6.861   3.215   1.250
10296SOL    HW231788   6.850   3.362   1.321
10297SOL     OW31789   3.850   4.242   6.107
10297SOL    HW131790   3.915   4.193   6.049
10297SOL    HW231791   3.767   4.187   6.119
10298SOL     OW31792   5.770   3.145   2.943
10298SOL    HW131793   5.692   3.106   2.894
10298SOL    HW231794   5.740   3.180   3.032
10299SOL     OW31795   4.090   4.861   2.743
10299SOL    HW131796   4.138   4.910   2.815
10299SOL    HW231797   4.156   4.817   2.682
10300SOL     OW31798   0.224   5.849   2.508
10300SOL    HW131799   0.279   5.918   2.459
10300SOL    HW231800   0.232   5.761   2.461
10301SOL     OW31801   4.482   0.907   1.897
10301SOL    HW131802   4.494   0.813   1.928
10301SOL    HW231803   4.572   0.952   1.894
10302SOL     OW31804   6.938   4.221   3.415
10302SOL    HW131805   6.923   4.165   3.334
10302SOL    HW231806   0.012   4.238   3.426
10303SOL     OW31807   4.834   3.436   0.970
10303SOL    HW131808   4.851   3.367   1.041
10303SOL    HW231809   4.920   3.483   0.949
10304SOL     OW31810   5.547   6.248   4.230
10304SOL    HW131811   5.584   6.159   4.205
10304SOL    HW231812   5.524   6.249   4.327
10305SOL     OW31813   1.170   5.075   1.206
10305SOL    HW131814   1.154   5.122   1.119
10305SOL    HW231815   1.093   5.094   1.268
10306SOL     OW31816   4.760   3.630   6.675
10306SOL    HW131817   4.679   3.578   6.649
10306SOL    HW231818   4.786   3.691   6.600
10307SOL     OW31819   2.800   2.377   5.954
10307SOL    HW131820   2.801   2.277   5.947
10307SOL    HW231821   2.779   2.404   6.048
10308SOL     OW31822   3.151   4.956   4.274
10308SOL    HW131823   3.069   4.906   4.245
10308SOL    HW231824   3.131   5.054   4.274
10309SOL     OW31825   6.615   6.357   4.220
10309SOL    HW131826   6.520   6.341   4.249
10309SOL    HW231827   6.643   6.449   4.247
10310SOL     OW31828   3.987   3.973   4.601
10310SOL    HW131829   4.080   4.000   4.626
10310SOL    HW231830   3.989   3.923   4.515
10311SOL     OW31831   1.911   0.570   0.569
10311SOL    HW131832   2.008   0.546   0.570
10311SOL    HW231833   1.864   0.516   0.500
10312SOL     OW31834   3.404   4.479   0.530
10312SOL    HW131835   3.416   4.414   0.605
10312SOL    HW231836   3.373   4.567   0.566
10313SOL     OW31837   6.617   5.621   3.180
10313SOL    HW131838   6.550   5.650   3.248
10313SOL    HW231839   6.654   5.531   3.206
10314SOL     OW31840   6.511   5.465   5.217
10314SOL    HW131841   6.588   5.403   5.234
10314SOL    HW231842   6.436   5.441   5.278
10315SOL     OW31843   4.270   5.454   5.492
10315SOL    HW131844   4.230   5.513   5.563
10315SOL    HW231845   4.368   5.473   5.484
10316SOL     OW31846   0.196   2.921   4.084
10316SOL    HW131847   0.240   2.847   4.135
10316SOL    HW231848   0.179   2.892   3.990
10317SOL     OW31849   6.137   4.047   6.096
10317SOL    HW131850   6.154   4.095   6.183
10317SOL    HW231851   6.206   3.977   6.083
10318SOL     OW31852   4.983   4.665   2.328
10318SOL    HW131853   5.030   4.750   2.305
10318SOL    HW231854   5.049   4.592   2.340
10319SOL     OW31855   6.167   6.375   3.702
10319SOL    HW131856   6.137   6.412   3.614
10319SOL    HW231857   6.237   6.305   3.686
10320SOL     OW31858   3.254   6.660   1.616
10320SOL    HW131859   3.323   6.588   1.607
10320SOL    HW231860   3.251   6.692   1.711
10321SOL     OW31861   4.805   6.892   5.311
10321SOL    HW131862   4.840   6.808   5.269
10321SOL    HW231863   4.881   6.944   5.349
10322SOL     OW31864   0.079   1.496   6.081
10322SOL    HW131865   0.093   1.593   6.096
10322SOL    HW231866   0.151   1.460   6.021
10323SOL     OW31867   6.979   2.099   5.121
10323SOL    HW131868   6.898   2.081   5.177
10323SOL    HW231869   0.008   2.016   5.111
10324SOL     OW31870   3.137   3.658   5.163
10324SOL    HW131871   3.112   3.744   5.120
10324SOL    HW231872   3.187   3.676   5.248
10325SOL     OW31873   0.645   3.137   4.070
10325SOL    HW131874   0.555   3.134   4.027
10325SOL    HW231875   0.678   3.231   4.071
10326SOL     OW31876   6.133   0.929   0.803
10326SOL    HW131877   6.137   0.846   0.747
10326SOL    HW231878   6.064   0.918   0.875
10327SOL     OW31879   6.128   2.022   3.961
10327SOL    HW131880   6.172   2.106   3.928
10327SOL    HW231881   6.032   2.022   3.934
10328SOL     OW31882   6.998   3.279   1.547
10328SOL    HW131883   6.972   3.273   1.451
10328SOL    HW231884   6.979   3.192   1.593
10329SOL     OW31885   2.035   5.987   2.634
10329SOL    HW131886   1.951   5.950   2.595
10329SOL    HW231887   2.016   6.077   2.674
10330SOL     OW31888   4.185   3.312   0.473
10330SOL    HW131889   4.100   3.266   0.498
10330SOL    HW231890   4.169   3.370   0.393
10331SOL     OW31891   4.853   2.132   3.896
10331SOL    HW131892   4.773   2.158   3.951
10331SOL    HW231893   4.906   2.064   3.946
10332SOL     OW31894   1.927   3.037   6.514
10332SOL    HW131895   2.012   3.076   6.480
10332SOL    HW231896   1.942   2.998   6.606
10333SOL     OW31897   6.750   4.295   5.494
10333SOL    HW131898   6.748   4.393   5.513
10333SOL    HW231899   6.661   4.266   5.459
10334SOL     OW31900   0.609   5.043   6.023
10334SOL    HW131901   0.583   5.120   6.080
10334SOL    HW231902   0.570   4.959   6.061
10335SOL     OW31903   2.620   5.263   2.765
10335SOL    HW131904   2.610   5.221   2.855
10335SOL    HW231905   2.686   5.338   2.771
10336SOL     OW31906   4.149   0.574   3.073
10336SOL    HW131907   4.078   0.561   3.004
10336SOL    HW231908   4.221   0.506   3.061
10337SOL     OW31909   1.702   3.052   5.694
10337SOL    HW131910   1.766   2.977   5.713
10337SOL    HW231911   1.747   3.119   5.635
10338SOL     OW31912   2.111   3.895   3.017
10338SOL    HW131913   2.092   3.799   2.996
10338SOL    HW231914   2.130   3.944   2.932
10339SOL     OW31915   3.578   6.777   6.687
10339SOL    HW131916   3.536   6.701   6.737
10339SOL    HW231917   3.541   6.779   6.594
10340SOL     OW31918   2.122   5.796   1.046
10340SOL    HW131919   2.183   5.864   1.087
10340SOL    HW231920   2.042   5.783   1.105
10341SOL     OW31921   0.032   2.496   1.973
10341SOL    HW131922   6.981   2.561   1.966
10341SOL    HW231923   0.119   2.546   1.978
10342SOL     OW31924   3.261   5.079   3.786
10342SOL    HW131925   3.345   5.063   3.838
10342SOL    HW231926   3.183   5.079   3.849
10343SOL     OW31927   2.835   2.264   4.660
10343SOL    HW131928   2.889   2.306   4.734
10343SOL    HW231929   2.760   2.211   4.699
10344SOL     OW31930   5.026   4.470   1.113
10344SOL    HW131931   4.999   4.556   1.069
10344SOL    HW231932   5.091   4.489   1.187
10345SOL     OW31933   2.829   2.030   6.318
10345SOL    HW131934   2.756   1.975   6.276
10345SOL    HW231935   2.896   1.969   6.360
10346SOL     OW31936   6.690   4.757   6.549
10346SOL    HW131937   6.728   4.833   6.602
10346SOL    HW231938   6.761   4.719   6.489
10347SOL     OW31939   3.675   6.534   2.238
10347SOL    HW131940   3.683   6.520   2.337
10347SOL    HW231941   3.638   6.625   2.220
10348SOL     OW31942   0.384   3.037   4.330
10348SOL    HW131943   0.390   2.939   4.313
10348SOL    HW231944   0.469   3.082   4.302
10349SOL     OW31945   6.300   1.554   0.218
10349SOL    HW131946   6.361   1.577   0.142
10349SOL    HW231947   6.299   1.629   0.284
10350SOL     OW31948   1.783   5.484   3.989
10350SOL    HW131949   1.735   5.571   3.996
10350SOL    HW231950   1.865   5.486   4.047
10351SOL     OW31951   3.853   5.705   5.581
10351SOL    HW131952   3.849   5.800   5.610
10351SOL    HW231953   3.876   5.701   5.484
10352SOL     OW31954   0.849   1.292   1.961
10352SOL    HW131955   0.798   1.348   1.895
10352SOL    HW231956   0.800   1.207   1.978
10353SOL     OW31957   5.228   2.933   3.297
10353SOL    HW131958   5.205   2.874   3.220
10353SOL    HW231959   5.319   2.973   3.283
10354SOL     OW31960   6.923   2.403   2.214
10354SOL    HW131961   6.931   2.304   2.215
10354SOL    HW231962   6.963   2.440   2.131
10355SOL     OW31963   6.563   1.757   0.623
10355SOL    HW131964   6.600   1.732   0.533
10355SOL    HW231965   6.549   1.856   0.627
10356SOL     OW31966   6.340   2.336   6.294
10356SOL    HW131967   6.263   2.367   6.349
10356SOL    HW231968   6.333   2.376   6.202
10357SOL     OW31969   0.397   6.585   6.459
10357SOL    HW131970   0.336   6.506   6.464
10357SOL    HW231971   0.491   6.554   6.446
10358SOL     OW31972   0.385   3.627   4.046
10358SOL    HW131973   0.338   3.630   3.957
10358SOL    HW231974   0.437   3.542   4.053
10359SOL     OW31975   0.682   2.752   2.258
10359SOL    HW131976   0.679   2.660   2.217
10359SOL    HW231977   0.771   2.766   2.302
10360SOL     OW31978   5.730   4.625   1.250
10360SOL    HW131979   5.716   4.533   1.287
10360SOL    HW231980   5.647   4.654   1.202
10361SOL     OW31981   5.832   2.048   3.916
10361SOL    HW131982   5.738   2.018   3.932
10361SOL    HW231983   5.831   2.137   3.871
10362SOL     OW31984   6.852   6.507   2.209
10362SOL    HW131985   6.797   6.537   2.131
10362SOL    HW231986   6.836   6.410   2.226
10363SOL     OW31987   4.569   5.149   6.490
10363SOL    HW131988   4.573   5.155   6.391
10363SOL    HW231989   4.590   5.238   6.531
10364SOL     OW31990   6.554   5.278   1.301
10364SOL    HW131991   6.609   5.249   1.379
10364SOL    HW231992   6.524   5.372   1.315
10365SOL     OW31993   6.267   6.303   6.624
10365SOL    HW131994   6.250   6.211   6.660
10365SOL    HW231995   6.333   6.297   6.549
10366SOL     OW31996   2.318   0.412   3.405
10366SOL    HW131997   2.394   0.470   3.376
10366SOL    HW231998   2.239   0.429   3.346
10367SOL     OW31999   3.879   6.130   2.661
10367SOL    HW132000   3.956   6.074   2.630
10367SOL    HW232001   3.852   6.102   2.753
10368SOL     OW32002   1.412   5.582   2.172
10368SOL    HW132003   1.426   5.599   2.075
10368SOL    HW232004   1.392   5.668   2.218
10369SOL     OW32005   2.843   0.943   5.586
10369SOL    HW132006   2.828   1.018   5.650
10369SOL    HW232007   2.815   0.970   5.494
10370SOL     OW32008   2.484   2.082   6.809
10370SOL    HW132009   2.420   2.022   6.856
10370SOL    HW232010   2.436   2.165   6.779
10371SOL     OW32011   3.702   5.407   2.614
10371SOL    HW132012   3.683   5.309   2.623
10371SOL    HW232013   3.793   5.427   2.648
10372SOL     OW32014   1.138   6.290   1.098
10372SOL    HW132015   1.201   6.332   1.033
10372SOL    HW232016   1.159   6.192   1.106
10373SOL     OW32017   6.690   1.075   5.374
10373SOL    HW132018   6.690   1.102   5.278
10373SOL    HW232019   6.784   1.053   5.403
10374SOL     OW32020   2.027   5.519   1.996
10374SOL    HW132021   2.045   5.515   2.094
10374SOL    HW232022   2.008   5.427   1.961
10375SOL     OW32023   2.358   5.664   6.498
10375SOL    HW132024   2.291   5.605   6.542
10375SOL    HW232025   2.389   5.622   6.412
10376SOL     OW32026   2.239   4.953   3.678
10376SOL    HW132027   2.218   4.874   3.620
10376SOL    HW232028   2.167   4.964   3.746
10377SOL     OW32029   3.297   1.182   3.904
10377SOL    HW132030   3.271   1.106   3.964
10377SOL    HW232031   3.256   1.266   3.938
10378SOL     OW32032   6.739   6.961   5.251
10378SOL    HW132033   6.680   6.974   5.330
10378SOL    HW232034   6.827   6.923   5.280
10379SOL     OW32035   0.334   5.415   3.321
10379SOL    HW132036   0.300   5.509   3.311
10379SOL    HW232037   0.433   5.417   3.335
10380SOL     OW32038   3.205   1.429   4.024
10380SOL    HW132039   3.129   1.484   4.057
10380SOL    HW232040   3.277   1.425   4.093
10381SOL     OW32041   2.163   6.652   4.020
10381SOL    HW132042   2.245   6.664   4.075
10381SOL    HW232043   2.107   6.734   4.024
10382SOL     OW32044   3.651   5.736   2.585
10382SOL    HW132045   3.676   5.671   2.513
10382SOL    HW232046   3.730   5.793   2.608
10383SOL     OW32047   0.523   6.836   0.021
10383SOL    HW132048   0.556   6.914   6.992
10383SOL    HW232049   0.481   6.869   0.105
10384SOL     OW32050   5.477   5.166   0.971
10384SOL    HW132051   5.457   5.264   0.980
10384SOL    HW232052   5.566   5.154   0.928
10385SOL     OW32053   3.682   4.248   6.673
10385SOL    HW132054   3.727   4.189   6.741
10385SOL    HW232055   3.727   4.239   6.585
10386SOL     OW32056   0.125   0.470   1.946
10386SOL    HW132057   0.050   0.404   1.937
10386SOL    HW232058   0.181   0.469   1.864
10387SOL     OW32059   5.402   0.644   2.341
10387SOL    HW132060   5.490   0.651   2.293
10387SOL    HW232061   5.363   0.553   2.325
10388SOL     OW32062   1.120   6.912   4.933
10388SOL    HW132063   1.048   6.846   4.955
10388SOL    HW232064   1.090   7.004   4.962
10389SOL     OW32065   0.612   3.996   0.935
10389SOL    HW132066   0.704   3.993   0.897
10389SOL    HW232067   0.617   4.016   1.033
10390SOL     OW32068   1.451   2.483   2.082
10390SOL    HW132069   1.478   2.393   2.119
10390SOL    HW232070   1.533   2.534   2.056
10391SOL     OW32071   5.981   0.303   3.497
10391SOL    HW132072   6.054   0.357   3.455
10391SOL    HW232073   5.929   0.257   3.425
10392SOL     OW32074   5.662   3.142   4.233
10392SOL    HW132075   5.655   3.046   4.209
10392SOL    HW232076   5.759   3.168   4.241
10393SOL     OW32077   1.950   2.644   1.320
10393SOL    HW132078   1.959   2.546   1.338
10393SOL    HW232079   1.972   2.663   1.224
10394SOL     OW32080   2.614   5.551   4.071
10394SOL    HW132081   2.702   5.574   4.113
10394SOL    HW232082   2.615   5.577   3.975
10395SOL     OW32083   0.672   1.338   1.109
10395SOL    HW132084   0.637   1.379   1.194
10395SOL    HW232085   0.603   1.348   1.037
10396SOL     OW32086   3.543   1.908   5.288
10396SOL    HW132087   3.526   1.880   5.193
10396SOL    HW232088   3.479   1.980   5.314
10397SOL     OW32089   4.615   1.051   3.894
10397SOL    HW132090   4.559   1.133   3.908
10397SOL    HW232091   4.556   0.970   3.894
10398SOL     OW32092   4.660   2.657   2.771
10398SOL    HW132093   4.663   2.631   2.674
10398SOL    HW232094   4.664   2.757   2.778
10399SOL     OW32095   0.797   2.993   1.883
10399SOL    HW132096   0.891   3.004   1.916
10399SOL    HW232097   0.794   2.921   1.814
10400SOL     OW32098   1.759   6.471   0.389
10400SOL    HW132099   1.670   6.510   0.365
10400SOL    HW232100   1.830   6.541   0.379
10401SOL     OW32101   6.513   0.836   5.067
10401SOL    HW132102   6.473   0.868   5.154
10401SOL    HW232103   6.478   0.745   5.046
10402SOL     OW32104   6.397   4.506   5.565
10402SOL    HW132105   6.323   4.518   5.632
10402SOL    HW232106   6.467   4.447   5.604
10403SOL     OW32107   3.724   0.208   1.424
10403SOL    HW132108   3.754   0.282   1.364
10403SOL    HW232109   3.681   0.246   1.506
10404SOL     OW32110   0.661   5.439   5.747
10404SOL    HW132111   0.736   5.420   5.811
10404SOL    HW232112   0.628   5.353   5.708
10405SOL     OW32113   0.226   1.217   0.062
10405SOL    HW132114   0.244   1.119   0.069
10405SOL    HW232115   0.134   1.236   0.096
10406SOL     OW32116   1.833   5.324   1.414
10406SOL    HW132117   1.803   5.336   1.508
10406SOL    HW232118   1.753   5.318   1.354
10407SOL     OW32119   2.137   6.082   0.529
10407SOL    HW132120   2.144   6.090   0.629
10407SOL    HW232121   2.171   6.166   0.487
10408SOL     OW32122   4.568   0.643   6.995
10408SOL    HW132123   4.667   0.656   7.003
10408SOL    HW232124   4.532   0.608   0.057
10409SOL     OW32125   6.638   3.745   0.354
10409SOL    HW132126   6.700   3.736   0.432
10409SOL    HW232127   6.684   3.715   0.271
10410SOL     OW32128   3.900   6.700   0.761
10410SOL    HW132129   3.875   6.767   0.831
10410SOL    HW232130   3.999   6.691   0.758
10411SOL     OW32131   1.502   5.133   3.955
10411SOL    HW132132   1.539   5.054   4.003
10411SOL    HW232133   1.536   5.217   3.998
10412SOL     OW32134   4.922   0.506   2.179
10412SOL    HW132135   4.870   0.426   2.148
10412SOL    HW232136   4.958   0.555   2.099
10413SOL     OW32137   6.175   3.560   1.614
10413SOL    HW132138   6.194   3.568   1.516
10413SOL    HW232139   6.101   3.623   1.639
10414SOL     OW32140   4.866   3.746   3.790
10414SOL    HW132141   4.954   3.786   3.762
10414SOL    HW232142   4.796   3.818   3.790
10415SOL     OW32143   0.937   0.635   6.937
10415SOL    HW132144   0.858   0.680   6.979
10415SOL    HW232145   1.010   0.702   6.921
10416SOL     OW32146   4.935   2.745   2.919
10416SOL    HW132147   4.850   2.781   2.880
10416SOL    HW232148   5.001   2.819   2.929
10417SOL     OW32149   1.617   3.816   2.433
10417SOL    HW132150   1.600   3.749   2.505
10417SOL    HW232151   1.601   3.908   2.469
10418SOL     OW32152   1.540   5.796   5.957
10418SOL    HW132153   1.493   5.754   5.880
10418SOL    HW232154   1.567   5.889   5.933
10419SOL     OW32155   1.100   0.806   6.131
10419SOL    HW132156   1.124   0.731   6.069
10419SOL    HW232157   1.145   0.890   6.100
10420SOL     OW32158   0.527   3.248   2.399
10420SOL    HW132159   0.542   3.231   2.302
10420SOL    HW232160   0.614   3.269   2.443
10421SOL     OW32161   1.040   2.027   3.012
10421SOL    HW132162   1.093   1.983   2.940
10421SOL    HW232163   0.950   2.052   2.976
10422SOL     OW32164   5.825   1.867   0.153
10422SOL    HW132165   5.831   1.899   0.247
10422SOL    HW232166   5.749   1.913   0.107
10423SOL     OW32167   4.389   5.383   2.671
10423SOL    HW132168   4.383   5.375   2.571
10423SOL    HW232169   4.324   5.320   2.713
10424SOL     OW32170   4.332   1.453   6.346
10424SOL    HW132171   4.416   1.421   6.302
10424SOL    HW232172   4.256   1.446   6.281
10425SOL     OW32173   1.979   6.610   2.026
10425SOL    HW132174   1.972   6.522   2.073
10425SOL    HW232175   1.928   6.607   1.940
10426SOL     OW32176   6.188   3.888   6.392
10426SOL    HW132177   6.240   3.890   6.478
10426SOL    HW232178   6.195   3.977   6.347
10427SOL     OW32179   4.828   0.900   0.617
10427SOL    HW132180   4.804   0.909   0.520
10427SOL    HW232181   4.757   0.942   0.673
10428SOL     OW32182   4.690   2.345   3.535
10428SOL    HW132183   4.689   2.323   3.632
10428SOL    HW232184   4.706   2.443   3.523
10429SOL     OW32185   5.682   5.352   2.490
10429SOL    HW132186   5.630   5.429   2.453
10429SOL    HW232187   5.765   5.386   2.534
10430SOL     OW32188   3.677   5.969   2.914
10430SOL    HW132189   3.712   5.881   2.882
10430SOL    HW232190   3.708   5.985   3.008
10431SOL     OW32191   3.192   1.812   5.686
10431SOL    HW132192   3.267   1.748   5.699
10431SOL    HW232193   3.208   1.865   5.602
10432SOL     OW32194   3.867   0.387   4.669
10432SOL    HW132195   3.898   0.465   4.723
10432SOL    HW232196   3.767   0.383   4.671
10433SOL     OW32197   2.318   5.917   1.467
10433SOL    HW132198   2.250   5.982   1.504
10433SOL    HW232199   2.409   5.944   1.498
10434SOL     OW32200   3.551   2.316   5.339
10434SOL    HW132201   3.611   2.260   5.283
10434SOL    HW232202   3.456   2.302   5.310
10435SOL     OW32203   5.951   5.325   6.614
10435SOL    HW132204   5.989   5.273   6.537
10435SOL    HW232205   5.852   5.311   6.619
10436SOL     OW32206   0.273   1.592   2.528
10436SOL    HW132207   0.269   1.508   2.474
10436SOL    HW232208   0.364   1.634   2.518
10437SOL     OW32209   1.296   2.854   0.351
10437SOL    HW132210   1.271   2.869   0.447
10437SOL    HW232211   1.242   2.778   0.315
10438SOL     OW32212   3.158   6.999   5.664
10438SOL    HW132213   3.130   0.070   5.673
10438SOL    HW232214   3.078   6.943   5.640
10439SOL     OW32215   3.241   0.324   5.603
10439SOL    HW132216   3.231   0.266   5.523
10439SOL    HW232217   3.194   0.283   5.681
10440SOL     OW32218   1.142   5.983   0.681
10440SOL    HW132219   1.066   6.045   0.698
10440SOL    HW232220   1.106   5.893   0.655
10441SOL     OW32221   4.920   6.662   1.203
10441SOL    HW132222   4.839   6.703   1.244
10441SOL    HW232223   5.002   6.708   1.237
10442SOL     OW32224   3.788   6.211   6.592
10442SOL    HW132225   3.837   6.264   6.661
10442SOL    HW232226   3.745   6.131   6.635
10443SOL     OW32227   7.002   2.989   4.950
10443SOL    HW132228   0.045   2.916   4.960
10443SOL    HW232229   0.024   3.076   4.934
10444SOL     OW32230   3.858   4.768   5.309
10444SOL    HW132231   3.779   4.760   5.248
10444SOL    HW232232   3.899   4.858   5.299
10445SOL     OW32233   6.711   6.279   1.897
10445SOL    HW132234   6.785   6.338   1.928
10445SOL    HW232235   6.667   6.320   1.817
10446SOL     OW32236   1.286   6.803   5.911
10446SOL    HW132237   1.362   6.867   5.901
10446SOL    HW232238   1.266   6.761   5.822
10447SOL     OW32239   5.398   2.275   6.665
10447SOL    HW132240   5.336   2.323   6.727
10447SOL    HW232241   5.361   2.278   6.572
10448SOL     OW32242   3.842   3.513   2.671
10448SOL    HW132243   3.824   3.611   2.664
10448SOL    HW232244   3.922   3.490   2.616
10449SOL     OW32245   1.286   5.334   4.944
10449SOL    HW132246   1.209   5.332   4.880
10449SOL    HW232247   1.252   5.321   5.038
10450SOL     OW32248   0.755   3.425   0.278
10450SOL    HW132249   0.682   3.458   0.337
10450SOL    HW232250   0.778   3.330   0.303
10451SOL     OW32251   2.017   4.153   2.297
10451SOL    HW132252   2.103   4.121   2.256
10451SOL    HW232253   2.017   4.253   2.299
10452SOL     OW32254   1.891   3.515   6.074
10452SOL    HW132255   1.814   3.544   6.130
10452SOL    HW232256   1.950   3.593   6.054
10453SOL     OW32257   5.000   0.657   2.408
10453SOL    HW132258   4.996   0.612   2.320
10453SOL    HW232259   5.025   0.753   2.395
10454SOL     OW32260   3.523   5.473   2.413
10454SOL    HW132261   3.569   5.539   2.353
10454SOL    HW232262   3.578   5.458   2.495
10455SOL     OW32263   1.074   4.958   3.445
10455SOL    HW132264   0.993   4.947   3.387
10455SOL    HW232265   1.045   4.963   3.541
10456SOL     OW32266   3.485   7.020   1.127
10456SOL    HW132267   3.400   0.048   1.133
10456SOL    HW232268   3.514   6.993   1.218
10457SOL     OW32269   4.019   3.128   3.588
10457SOL    HW132270   3.977   3.129   3.679
10457SOL    HW232271   4.044   3.034   3.564
10458SOL     OW32272   6.427   6.054   2.520
10458SOL    HW132273   6.479   6.139   2.515
10458SOL    HW232274   6.454   6.002   2.601
10459SOL     OW32275   0.065   5.436   1.761
10459SOL    HW132276   7.006   5.473   1.719
10459SOL    HW232277   0.084   5.486   1.846
10460SOL     OW32278   1.412   4.080   1.184
10460SOL    HW132279   1.485   4.027   1.143
10460SOL    HW232280   1.398   4.165   1.132
10461SOL     OW32281   3.949   0.454   6.481
10461SOL    HW132282   3.986   0.460   6.574
10461SOL    HW232283   3.876   0.386   6.479
10462SOL     OW32284   5.146   6.791   1.350
10462SOL    HW132285   5.175   6.801   1.445
10462SOL    HW232286   5.184   6.867   1.296
10463SOL     OW32287   4.415   3.198   0.440
10463SOL    HW132288   4.412   3.154   0.350
10463SOL    HW232289   4.322   3.219   0.470
10464SOL     OW32290   5.705   6.843   1.988
10464SOL    HW132291   5.735   6.875   1.898
10464SOL    HW232292   5.676   6.921   2.044
10465SOL     OW32293   0.306   4.647   5.552
10465SOL    HW132294   0.382   4.709   5.573
10465SOL    HW232295   0.226   4.673   5.607
10466SOL     OW32296   4.015   5.480   5.643
10466SOL    HW132297   3.936   5.541   5.640
10466SOL    HW232298   3.999   5.401   5.585
10467SOL     OW32299   4.196   1.630   4.064
10467SOL    HW132300   4.113   1.612   4.116
10467SOL    HW232301   4.198   1.725   4.034
10468SOL     OW32302   2.619   5.290   3.387
10468SOL    HW132303   2.680   5.367   3.406
10468SOL    HW232304   2.527   5.325   3.370
10469SOL     OW32305   1.399   4.751   6.002
10469SOL    HW132306   1.325   4.719   5.943
10469SOL    HW232307   1.389   4.711   6.093
10470SOL     OW32308   2.584   1.984   4.563
10470SOL    HW132309   2.518   2.050   4.528
10470SOL    HW232310   2.643   1.954   4.488
10471SOL     OW32311   4.730   4.141   6.641
10471SOL    HW132312   4.815   4.120   6.690
10471SOL    HW232313   4.732   4.097   6.551
10472SOL     OW32314   4.126   1.772   3.770
10472SOL    HW132315   4.072   1.808   3.847
10472SOL    HW232316   4.114   1.673   3.764
10473SOL     OW32317   4.753   4.547   6.724
10473SOL    HW132318   4.674   4.487   6.730
10473SOL    HW232319   4.835   4.493   6.703
10474SOL     OW32320   4.339   1.069   4.261
10474SOL    HW132321   4.318   0.978   4.296
10474SOL    HW232322   4.255   1.120   4.245
10475SOL     OW32323   4.034   6.510   1.082
10475SOL    HW132324   4.098   6.464   1.019
10475SOL    HW232325   4.082   6.582   1.131
10476SOL     OW32326   0.539   4.766   6.815
10476SOL    HW132327   0.593   4.684   6.800
10476SOL    HW232328   0.469   4.748   6.884
10477SOL     OW32329   4.719   4.633   4.681
10477SOL    HW132330   4.706   4.561   4.613
10477SOL    HW232331   4.689   4.601   4.771
10478SOL     OW32332   0.710   0.100   2.802
10478SOL    HW132333   0.761   0.090   2.887
10478SOL    HW232334   0.736   0.185   2.756
10479SOL     OW32335   0.703   4.075   2.877
10479SOL    HW132336   0.675   3.984   2.904
10479SOL    HW232337   0.765   4.114   2.946
10480SOL     OW32338   4.728   1.304   6.941
10480SOL    HW132339   4.690   1.255   7.019
10480SOL    HW232340   4.659   1.309   6.868
10481SOL     OW32341   3.651   1.544   3.482
10481SOL    HW132342   3.575   1.514   3.539
10481SOL    HW232343   3.715   1.596   3.537
10482SOL     OW32344   0.507   6.377   6.005
10482SOL    HW132345   0.548   6.314   5.940
10482SOL    HW232346   0.572   6.451   6.026
10483SOL     OW32347   1.023   6.241   0.734
10483SOL    HW132348   1.031   6.275   0.827
10483SOL    HW232349   1.014   6.318   0.670
10484SOL     OW32350   6.845   1.482   1.591
10484SOL    HW132351   6.916   1.447   1.652
10484SOL    HW232352   6.758   1.437   1.612
10485SOL     OW32353   3.598   4.173   4.760
10485SOL    HW132354   3.510   4.147   4.720
10485SOL    HW232355   3.589   4.177   4.860
10486SOL     OW32356   5.988   4.820   5.699
10486SOL    HW132357   5.895   4.818   5.662
10486SOL    HW232358   5.997   4.895   5.764
10487SOL     OW32359   5.534   3.707   2.770
10487SOL    HW132360   5.467   3.762   2.721
10487SOL    HW232361   5.521   3.719   2.869
10488SOL     OW32362   0.829   1.993   5.529
10488SOL    HW132363   0.768   1.931   5.480
10488SOL    HW232364   0.832   1.968   5.626
10489SOL     OW32365   6.170   4.865   2.974
10489SOL    HW132366   6.149   4.786   2.917
10489SOL    HW232367   6.267   4.863   2.999
10490SOL     OW32368   5.388   6.206   6.421
10490SOL    HW132369   5.321   6.280   6.424
10490SOL    HW232370   5.478   6.242   6.446
10491SOL     OW32371   2.237   1.953   5.581
10491SOL    HW132372   2.180   1.890   5.635
10491SOL    HW232373   2.239   1.922   5.486
10492SOL     OW32374   3.292   6.424   6.948
10492SOL    HW132375   3.331   6.339   6.913
10492SOL    HW232376   3.200   6.437   6.911
10493SOL     OW32377   3.878   6.473   0.496
10493SOL    HW132378   3.814   6.522   0.555
10493SOL    HW232379   3.848   6.479   0.401
10494SOL     OW32380   6.898   5.543   3.567
10494SOL    HW132381   6.801   5.561   3.584
10494SOL    HW232382   6.947   5.536   3.653
10495SOL     OW32383   6.347   6.504   0.288
10495SOL    HW132384   6.414   6.447   0.335
10495SOL    HW232385   6.394   6.582   0.246
10496SOL     OW32386   1.163   3.987   6.290
10496SOL    HW132387   1.186   4.052   6.362
10496SOL    HW232388   1.246   3.964   6.238
10497SOL     OW32389   4.141   6.939   0.058
10497SOL    HW132390   4.123   6.852   0.012
10497SOL    HW232391   4.130   6.928   0.156
10498SOL     OW32392   3.380   3.821   0.221
10498SOL    HW132393   3.303   3.757   0.219
10498SOL    HW232394   3.464   3.771   0.244
10499SOL     OW32395   4.036   4.807   3.646
10499SOL    HW132396   4.086   4.743   3.589
10499SOL    HW232397   4.092   4.835   3.724
10500SOL     OW32398   1.829   2.572   5.308
10500SOL    HW132399   1.768   2.546   5.383
10500SOL    HW232400   1.829   2.672   5.297
10501SOL     OW32401   3.851   4.836   3.065
10501SOL    HW132402   3.845   4.808   2.969
10501SOL    HW232403   3.760   4.860   3.099
10502SOL     OW32404   3.664   3.370   3.156
10502SOL    HW132405   3.684   3.365   3.058
10502SOL    HW232406   3.570   3.340   3.172
10503SOL     OW32407   0.045   6.377   0.651
10503SOL    HW132408   0.078   6.300   0.596
10503SOL    HW232409   6.972   6.393   0.631
10504SOL     OW32410   1.894   2.835   5.749
10504SOL    HW132411   1.986   2.810   5.779
10504SOL    HW232412   1.833   2.756   5.757
10505SOL     OW32413   5.308   6.525   1.892
10505SOL    HW132414   5.347   6.603   1.941
10505SOL    HW232415   5.381   6.460   1.869
10506SOL     OW32416   0.379   5.207   6.119
10506SOL    HW132417   0.418   5.292   6.154
10506SOL    HW232418   0.349   5.151   6.196
10507SOL     OW32419   1.936   6.716   6.125
10507SOL    HW132420   1.967   6.782   6.057
10507SOL    HW232421   1.923   6.627   6.082
10508SOL     OW32422   1.945   6.285   1.401
10508SOL    HW132423   1.888   6.346   1.345
10508SOL    HW232424   2.023   6.337   1.436
10509SOL     OW32425   4.891   3.765   1.986
10509SOL    HW132426   4.870   3.704   1.909
10509SOL    HW232427   4.907   3.857   1.952
10510SOL     OW32428   5.133   6.147   1.905
10510SOL    HW132429   5.183   6.121   1.823
10510SOL    HW232430   5.121   6.068   1.964
10511SOL     OW32431   3.703   1.760   0.835
10511SOL    HW132432   3.658   1.849   0.824
10511SOL    HW232433   3.725   1.746   0.932
10512SOL     OW32434   3.599   6.834   5.217
10512SOL    HW132435   3.597   6.922   5.265
10512SOL    HW232436   3.639   6.764   5.276
10513SOL     OW32437   4.048   3.590   0.681
10513SOL    HW132438   4.009   3.511   0.633
10513SOL    HW232439   4.045   3.573   0.780
10514SOL     OW32440   1.222   4.740   1.606
10514SOL    HW132441   1.207   4.762   1.702
10514SOL    HW232442   1.138   4.704   1.566
10515SOL     OW32443   2.154   3.351   4.985
10515SOL    HW132444   2.091   3.394   5.050
10515SOL    HW232445   2.117   3.361   4.892
10516SOL     OW32446   5.518   2.145   1.337
10516SOL    HW132447   5.523   2.057   1.289
10516SOL    HW232448   5.454   2.138   1.414
10517SOL     OW32449   6.837   2.132   2.343
10517SOL    HW132450   6.747   2.108   2.305
10517SOL    HW232451   6.908   2.100   2.281
10518SOL     OW32452   0.192   5.632   2.736
10518SOL    HW132453   0.144   5.657   2.652
10518SOL    HW232454   0.125   5.606   2.806
10519SOL     OW32455   1.832   6.337   0.601
10519SOL    HW132456   1.791   6.389   0.526
10519SOL    HW232457   1.759   6.294   0.654
10520SOL     OW32458   3.196   2.825   6.040
10520SOL    HW132459   3.202   2.727   6.022
10520SOL    HW232460   3.111   2.845   6.087
10521SOL     OW32461   5.907   1.940   2.255
10521SOL    HW132462   5.907   1.845   2.221
10521SOL    HW232463   5.888   1.941   2.353
10522SOL     OW32464   5.092   1.305   3.198
10522SOL    HW132465   5.055   1.384   3.248
10522SOL    HW232466   5.182   1.327   3.162
10523SOL     OW32467   0.527   3.864   1.413
10523SOL    HW132468   0.576   3.936   1.461
10523SOL    HW232469   0.566   3.775   1.437
10524SOL     OW32470   5.864   6.406   4.850
10524SOL    HW132471   5.868   6.363   4.939
10524SOL    HW232472   5.939   6.374   4.793
10525SOL     OW32473   5.102   2.246   3.310
10525SOL    HW132474   5.004   2.223   3.309
10525SOL    HW232475   5.139   2.236   3.218
10526SOL     OW32476   1.705   6.521   6.535
10526SOL    HW132477   1.682   6.508   6.439
10526SOL    HW232478   1.680   6.613   6.564
10527SOL     OW32479   0.809   6.719   5.882
10527SOL    HW132480   0.866   6.707   5.801
10527SOL    HW232481   0.868   6.731   5.962
10528SOL     OW32482   2.735   6.077   5.222
10528SOL    HW132483   2.688   6.032   5.146
10528SOL    HW232484   2.673   6.145   5.264
10529SOL     OW32485   6.793   5.158   6.179
10529SOL    HW132486   6.890   5.138   6.166
10529SOL    HW232487   6.781   5.255   6.199
10530SOL     OW32488   5.630   0.589   1.507
10530SOL    HW132489   5.637   0.489   1.500
10530SOL    HW232490   5.691   0.621   1.579
10531SOL     OW32491   3.423   1.035   6.582
10531SOL    HW132492   3.468   1.121   6.604
10531SOL    HW232493   3.481   0.983   6.518
10532SOL     OW32494   4.495   5.514   5.827
10532SOL    HW132495   4.401   5.523   5.792
10532SOL    HW232496   4.554   5.480   5.754
10533SOL     OW32497   4.223   6.089   4.087
10533SOL    HW132498   4.263   6.059   4.000
10533SOL    HW232499   4.141   6.143   4.069
10534SOL     OW32500   0.589   5.858   4.618
10534SOL    HW132501   0.669   5.903   4.658
10534SOL    HW232502   0.590   5.761   4.642
10535SOL     OW32503   3.875   1.601   2.395
10535SOL    HW132504   3.841   1.644   2.478
10535SOL    HW232505   3.935   1.664   2.346
10536SOL     OW32506   5.917   3.222   4.235
10536SOL    HW132507   5.968   3.235   4.150
10536SOL    HW232508   5.977   3.239   4.313
10537SOL     OW32509   2.530   1.419   2.522
10537SOL    HW132510   2.585   1.339   2.546
10537SOL    HW232511   2.449   1.391   2.471
10538SOL     OW32512   6.676   2.769   3.366
10538SOL    HW132513   6.615   2.773   3.445
10538SOL    HW232514   6.656   2.687   3.312
10539SOL     OW32515   6.683   0.442   1.916
10539SOL    HW132516   6.626   0.414   1.993
10539SOL    HW232517   6.643   0.410   1.831
10540SOL     OW32518   1.718   2.576   6.088
10540SOL    HW132519   1.675   2.653   6.136
10540SOL    HW232520   1.693   2.491   6.133
10541SOL     OW32521   3.752   2.563   6.732
10541SOL    HW132522   3.766   2.572   6.633
10541SOL    HW232523   3.839   2.547   6.778
10542SOL     OW32524   3.557   6.388   2.727
10542SOL    HW132525   3.531   6.293   2.745
10542SOL    HW232526   3.476   6.441   2.703
10543SOL     OW32527   1.035   2.952   4.074
10543SOL    HW132528   0.961   2.921   4.015
10543SOL    HW232529   0.997   2.994   4.156
10544SOL     OW32530   2.682   2.255   2.225
10544SOL    HW132531   2.587   2.259   2.194
10544SOL    HW232532   2.742   2.288   2.152
10545SOL     OW32533   1.071   3.372   1.211
10545SOL    HW132534   1.014   3.306   1.161
10545SOL    HW232535   1.120   3.430   1.146
10546SOL     OW32536   1.930   0.398   4.901
10546SOL    HW132537   1.875   0.379   4.982
10546SOL    HW232538   2.008   0.456   4.926
10547SOL     OW32539   3.144   5.904   6.469
10547SOL    HW132540   3.177   5.813   6.493
10547SOL    HW232541   3.048   5.912   6.495
10548SOL     OW32542   1.283   4.885   3.181
10548SOL    HW132543   1.373   4.853   3.148
10548SOL    HW232544   1.290   4.981   3.209
10549SOL     OW32545   0.133   1.588   2.769
10549SOL    HW132546   0.154   1.569   2.673
10549SOL    HW232547   0.213   1.568   2.825
10550SOL     OW32548   0.076   4.390   2.810
10550SOL    HW132549   0.008   4.348   2.750
10550SOL    HW232550   0.088   4.486   2.785
10551SOL     OW32551   4.682   0.501   4.544
10551SOL    HW132552   4.611   0.556   4.501
10551SOL    HW232553   4.724   0.553   4.618
10552SOL     OW32554   2.476   6.896   3.813
10552SOL    HW132555   2.559   6.917   3.761
10552SOL    HW232556   2.408   6.967   3.796
10553SOL     OW32557   6.098   5.363   1.302
10553SOL    HW132558   6.103   5.278   1.354
10553SOL    HW232559   6.003   5.394   1.297
10554SOL     OW32560   5.449   5.625   1.430
10554SOL    HW132561   5.378   5.556   1.445
10554SOL    HW232562   5.416   5.692   1.364
10555SOL     OW32563   3.095   3.207   2.175
10555SOL    HW132564   3.130   3.114   2.161
10555SOL    HW232565   3.145   3.271   2.118
10556SOL     OW32566   2.321   1.915   1.959
10556SOL    HW132567   2.346   1.963   2.043
10556SOL    HW232568   2.296   1.821   1.980
10557SOL     OW32569   1.015   4.103   3.242
10557SOL    HW132570   1.003   4.203   3.239
10557SOL    HW232571   1.112   4.081   3.255
10558SOL     OW32572   5.172   5.276   4.362
10558SOL    HW132573   5.131   5.354   4.409
10558SOL    HW232574   5.210   5.212   4.429
10559SOL     OW32575   3.805   5.596   1.730
10559SOL    HW132576   3.891   5.622   1.686
10559SOL    HW232577   3.781   5.664   1.799
10560SOL     OW32578   5.923   6.662   3.959
10560SOL    HW132579   5.950   6.599   4.031
10560SOL    HW232580   5.889   6.747   3.999
10561SOL     OW32581   0.547   5.857   5.506
10561SOL    HW132582   0.537   5.925   5.579
10561SOL    HW232583   0.590   5.900   5.426
10562SOL     OW32584   2.804   1.496   2.769
10562SOL    HW132585   2.714   1.533   2.794
10562SOL    HW232586   2.793   1.405   2.729
10563SOL     OW32587   1.482   5.122   2.459
10563SOL    HW132588   1.522   5.139   2.550
10563SOL    HW232589   1.505   5.197   2.398
10564SOL     OW32590   5.317   5.826   3.394
10564SOL    HW132591   5.413   5.853   3.406
10564SOL    HW232592   5.258   5.902   3.423
10565SOL     OW32593   0.148   0.912   4.544
10565SOL    HW132594   0.158   0.980   4.472
10565SOL    HW232595   0.237   0.868   4.560
10566SOL     OW32596   3.457   1.300   0.642
10566SOL    HW132597   3.411   1.215   0.664
10566SOL    HW232598   3.556   1.288   0.651
10567SOL     OW32599   3.089   1.556   6.384
10567SOL    HW132600   3.092   1.504   6.298
10567SOL    HW232601   3.182   1.574   6.415
10568SOL     OW32602   6.148   1.532   6.652
10568SOL    HW132603   6.148   1.613   6.593
10568SOL    HW232604   6.081   1.467   6.618
10569SOL     OW32605   4.097   0.470   1.882
10569SOL    HW132606   4.187   0.465   1.927
10569SOL    HW232607   4.039   0.534   1.932
10570SOL     OW32608   1.049   3.845   3.047
10570SOL    HW132609   1.142   3.877   3.065
10570SOL    HW232610   1.038   3.751   3.082
10571SOL     OW32611   0.723   3.965   4.800
10571SOL    HW132612   0.643   4.021   4.780
10571SOL    HW232613   0.719   3.881   4.745
10572SOL     OW32614   6.952   5.528   0.735
10572SOL    HW132615   0.027   5.529   0.745
10572SOL    HW232616   6.918   5.620   0.718
10573SOL     OW32617   5.618   2.254   3.037
10573SOL    HW132618   5.580   2.211   2.955
10573SOL    HW232619   5.711   2.220   3.052
10574SOL     OW32620   5.446   2.522   2.857
10574SOL    HW132621   5.514   2.476   2.800
10574SOL    HW232622   5.460   2.621   2.852
10575SOL     OW32623   4.737   0.007   3.320
10575SOL    HW132624   4.823   6.979   3.321
10575SOL    HW232625   4.744   0.082   3.254
10576SOL     OW32626   1.154   3.167   4.983
10576SOL    HW132627   1.097   3.101   4.935
10576SOL    HW232628   1.096   3.228   5.038
10577SOL     OW32629   4.226   4.977   6.336
10577SOL    HW132630   4.175   4.937   6.260
10577SOL    HW232631   4.280   5.054   6.303
10578SOL     OW32632   1.397   3.085   2.018
10578SOL    HW132633   1.388   3.052   2.112
10578SOL    HW232634   1.488   3.064   1.983
10579SOL     OW32635   0.204   3.053   0.368
10579SOL    HW132636   0.257   2.970   0.356
10579SOL    HW232637   0.259   3.132   0.342
10580SOL     OW32638   4.583   6.410   6.177
10580SOL    HW132639   4.608   6.505   6.159
10580SOL    HW232640   4.487   6.395   6.152
10581SOL     OW32641   3.812   0.426   2.550
10581SOL    HW132642   3.840   0.515   2.516
10581SOL    HW232643   3.713   0.424   2.565
10582SOL     OW32644   0.405   3.665   0.450
10582SOL    HW132645   0.306   3.659   0.456
10582SOL    HW232646   0.431   3.734   0.382
10583SOL     OW32647   3.705   1.897   6.042
10583SOL    HW132648   3.767   1.921   6.117
10583SOL    HW232649   3.758   1.866   5.963
10584SOL     OW32650   6.664   0.364   3.983
10584SOL    HW132651   6.727   0.405   4.049
10584SOL    HW232652   6.651   0.427   3.906
10585SOL     OW32653   2.009   0.937   4.711
10585SOL    HW132654   1.936   1.005   4.701
10585SOL    HW232655   1.990   0.860   4.650
10586SOL     OW32656   4.711   3.558   6.259
10586SOL    HW132657   4.750   3.564   6.167
10586SOL    HW232658   4.784   3.544   6.326
10587SOL     OW32659   2.099   5.132   5.945
10587SOL    HW132660   2.131   5.222   5.915
10587SOL    HW232661   2.035   5.095   5.877
10588SOL     OW32662   1.117   4.678   4.639
10588SOL    HW132663   1.023   4.671   4.607
10588SOL    HW232664   1.165   4.593   4.620
10589SOL     OW32665   6.361   0.685   3.408
10589SOL    HW132666   6.388   0.594   3.378
10589SOL    HW232667   6.278   0.679   3.463
10590SOL     OW32668   6.823   6.229   2.252
10590SOL    HW132669   6.789   6.138   2.226
10590SOL    HW232670   6.919   6.237   2.225
10591SOL     OW32671   6.384   4.286   2.559
10591SOL    HW132672   6.434   4.222   2.501
10591SOL    HW232673   6.386   4.377   2.517
10592SOL     OW32674   6.212   3.943   5.282
10592SOL    HW132675   6.274   3.866   5.270
10592SOL    HW232676   6.195   3.957   5.380
10593SOL     OW32677   3.533   5.659   2.844
10593SOL    HW132678   3.622   5.631   2.879
10593SOL    HW232679   3.542   5.687   2.749
10594SOL     OW32680   3.744   5.985   3.611
10594SOL    HW132681   3.779   5.928   3.537
10594SOL    HW232682   3.693   6.062   3.572
10595SOL     OW32683   6.191   5.536   0.468
10595SOL    HW132684   6.276   5.535   0.521
10595SOL    HW232685   6.150   5.445   0.469
10596SOL     OW32686   6.349   3.543   0.972
10596SOL    HW132687   6.273   3.479   0.983
10596SOL    HW232688   6.382   3.539   0.877
10597SOL     OW32689   1.267   6.613   5.216
10597SOL    HW132690   1.238   6.706   5.237
10597SOL    HW232691   1.361   6.600   5.247
10598SOL     OW32692   2.662   1.363   1.365
10598SOL    HW132693   2.586   1.409   1.319
10598SOL    HW232694   2.669   1.269   1.332
10599SOL     OW32695   0.874   1.834   0.958
10599SOL    HW132696   0.823   1.847   0.873
10599SOL    HW232697   0.852   1.745   0.997
10600SOL     OW32698   4.656   1.401   2.083
10600SOL    HW132699   4.747   1.442   2.091
10600SOL    HW232700   4.653   1.344   2.001
10601SOL     OW32701   1.671   1.975   5.536
10601SOL    HW132702   1.725   2.016   5.609
10601SOL    HW232703   1.576   1.963   5.566
10602SOL     OW32704   6.885   6.686   1.131
10602SOL    HW132705   6.818   6.627   1.087
10602SOL    HW232706   6.855   6.782   1.122
10603SOL     OW32707   5.649   0.111   2.782
10603SOL    HW132708   5.613   0.118   2.875
10603SOL    HW232709   5.705   0.191   2.761
10604SOL     OW32710   5.544   1.982   4.839
10604SOL    HW132711   5.467   2.030   4.798
10604SOL    HW232712   5.626   2.040   4.836
10605SOL     OW32713   4.794   1.640   1.133
10605SOL    HW132714   4.771   1.587   1.214
10605SOL    HW232715   4.878   1.604   1.091
10606SOL     OW32716   5.640   1.552   0.760
10606SOL    HW132717   5.675   1.517   0.673
10606SOL    HW232718   5.614   1.476   0.819
10607SOL     OW32719   1.887   5.030   1.254
10607SOL    HW132720   1.966   4.996   1.305
10607SOL    HW232721   1.916   5.098   1.187
10608SOL     OW32722   5.515   4.015   2.382
10608SOL    HW132723   5.486   4.006   2.287
10608SOL    HW232724   5.479   3.939   2.436
10609SOL     OW32725   5.748   6.274   6.763
10609SOL    HW132726   5.806   6.353   6.781
10609SOL    HW232727   5.798   6.190   6.782
10610SOL     OW32728   0.258   2.480   3.258
10610SOL    HW132729   0.168   2.478   3.301
10610SOL    HW232730   0.267   2.402   3.196
10611SOL     OW32731   4.037   5.614   6.283
10611SOL    HW132732   4.003   5.520   6.272
10611SOL    HW232733   4.043   5.657   6.193
10612SOL     OW32734   5.375   2.540   3.910
10612SOL    HW132735   5.299   2.603   3.894
10612SOL    HW232736   5.451   2.564   3.849
10613SOL     OW32737   5.049   4.837   6.006
10613SOL    HW132738   4.994   4.831   5.923
10613SOL    HW232739   5.066   4.744   6.042
10614SOL     OW32740   4.314   2.001   0.256
10614SOL    HW132741   4.412   2.008   0.235
10614SOL    HW232742   4.264   2.068   0.201
10615SOL     OW32743   3.879   2.707   6.065
10615SOL    HW132744   3.910   2.646   5.993
10615SOL    HW232745   3.794   2.671   6.105
10616SOL     OW32746   1.633   5.587   0.228
10616SOL    HW132747   1.680   5.516   0.175
10616SOL    HW232748   1.700   5.642   0.276
10617SOL     OW32749   2.232   3.459   0.140
10617SOL    HW132750   2.150   3.450   0.084
10617SOL    HW232751   2.237   3.552   0.177
10618SOL     OW32752   0.250   4.885   5.026
10618SOL    HW132753   0.345   4.905   5.047
10618SOL    HW232754   0.242   4.856   4.930
10619SOL     OW32755   1.452   2.457   1.197
10619SOL    HW132756   1.400   2.543   1.200
10619SOL    HW232757   1.513   2.458   1.118
10620SOL     OW32758   4.049   1.215   5.619
10620SOL    HW132759   3.972   1.259   5.666
10620SOL    HW232760   4.056   1.120   5.650
10621SOL     OW32761   0.940   5.505   4.552
10621SOL    HW132762   0.944   5.467   4.459
10621SOL    HW232763   0.845   5.509   4.582
10622SOL     OW32764   4.102   2.487   6.198
10622SOL    HW132765   4.024   2.427   6.213
10622SOL    HW232766   4.113   2.503   6.100
10623SOL     OW32767   5.488   4.786   4.928
10623SOL    HW132768   5.396   4.759   4.900
10623SOL    HW232769   5.549   4.786   4.849
10624SOL     OW32770   0.095   1.604   5.575
10624SOL    HW132771   0.073   1.547   5.654
10624SOL    HW232772   0.192   1.595   5.552
10625SOL     OW32773   6.482   5.058   6.858
10625SOL    HW132774   6.521   4.970   6.833
10625SOL    HW232775   6.556   5.123   6.876
10626SOL     OW32776   5.842   3.933   1.898
10626SOL    HW132777   5.820   4.006   1.963
10626SOL    HW232778   5.801   3.848   1.929
10627SOL     OW32779   4.932   5.362   5.389
10627SOL    HW132780   4.839   5.354   5.353
10627SOL    HW232781   4.960   5.458   5.388
10628SOL     OW32782   2.813   6.211   2.133
10628SOL    HW132783   2.803   6.126   2.081
10628SOL    HW232784   2.778   6.198   2.225
10629SOL     OW32785   4.358   5.875   4.257
10629SOL    HW132786   4.348   5.966   4.299
10629SOL    HW232787   4.361   5.885   4.158
10630SOL     OW32788   4.301   1.042   1.739
10630SOL    HW132789   4.359   1.108   1.692
10630SOL    HW232790   4.357   0.984   1.799
10631SOL     OW32791   3.605   6.070   1.849
10631SOL    HW132792   3.598   6.147   1.912
10631SOL    HW232793   3.516   6.024   1.842
10632SOL     OW32794   5.979   0.784   4.353
10632SOL    HW132795   6.031   0.700   4.372
10632SOL    HW232796   5.899   0.761   4.298
10633SOL     OW32797   2.924   3.496   0.156
10633SOL    HW132798   2.833   3.507   0.117
10633SOL    HW232799   2.992   3.541   0.097
10634SOL     OW32800   0.863   4.402   0.687
10634SOL    HW132801   0.864   4.475   0.756
10634SOL    HW232802   0.952   4.397   0.642
10635SOL     OW32803   3.228   4.504   0.217
10635SOL    HW132804   3.173   4.549   0.287
10635SOL    HW232805   3.274   4.424   0.256
10636SOL     OW32806   0.795   2.501   0.644
10636SOL    HW132807   0.853   2.506   0.725
10636SOL    HW232808   0.739   2.584   0.637
10637SOL     OW32809   1.615   6.855   5.613
10637SOL    HW132810   1.573   6.934   5.657
10637SOL    HW232811   1.624   6.872   5.515
10638SOL     OW32812   5.976   4.141   6.713
10638SOL    HW132813   5.993   4.226   6.664
10638SOL    HW232814   5.948   4.160   6.807
10639SOL     OW32815   6.778   4.960   6.693
10639SOL    HW132816   6.793   4.982   6.789
10639SOL    HW232817   6.744   5.041   6.645
10640SOL     OW32818   4.345   5.658   4.961
10640SOL    HW132819   4.326   5.623   5.053
10640SOL    HW232820   4.391   5.587   4.907
10641SOL     OW32821   1.349   1.582   3.482
10641SOL    HW132822   1.372   1.507   3.545
10641SOL    HW232823   1.351   1.548   3.388
10642SOL     OW32824   6.419   2.232   5.618
10642SOL    HW132825   6.429   2.133   5.617
10642SOL    HW232826   6.361   2.259   5.694
10643SOL     OW32827   3.479   5.626   4.767
10643SOL    HW132828   3.465   5.546   4.709
10643SOL    HW232829   3.460   5.603   4.862
10644SOL     OW32830   1.714   3.764   3.769
10644SOL    HW132831   1.678   3.680   3.810
10644SOL    HW232832   1.797   3.742   3.717
10645SOL     OW32833   1.766   3.070   3.756
10645SOL    HW132834   1.725   3.076   3.847
10645SOL    HW232835   1.850   3.016   3.761
10646SOL     OW32836   5.521   1.209   3.296
10646SOL    HW132837   5.614   1.195   3.262
10646SOL    HW232838   5.477   1.121   3.312
10647SOL     OW32839   4.700   5.902   4.762
10647SOL    HW132840   4.712   5.997   4.789
10647SOL    HW232841   4.603   5.879   4.761
10648SOL     OW32842   4.780   3.234   5.795
10648SOL    HW132843   4.712   3.217   5.866
10648SOL    HW232844   4.741   3.292   5.724
10649SOL     OW32845   5.986   3.296   3.138
10649SOL    HW132846   6.014   3.247   3.055
10649SOL    HW232847   6.067   3.329   3.187
10650SOL     OW32848   0.507   0.570   2.792
10650SOL    HW132849   0.444   0.595   2.718
10650SOL    HW232850   0.599   0.602   2.770
10651SOL     OW32851   2.427   5.606   4.835
10651SOL    HW132852   2.395   5.515   4.859
10651SOL    HW232853   2.524   5.602   4.811
10652SOL     OW32854   3.597   0.344   0.495
10652SOL    HW132855   3.540   0.420   0.525
10652SOL    HW232856   3.542   0.281   0.440
10653SOL     OW32857   6.184   6.025   4.790
10653SOL    HW132858   6.099   5.973   4.780
10653SOL    HW232859   6.256   5.965   4.825
10654SOL     OW32860   0.092   1.641   3.695
10654SOL    HW132861   0.114   1.552   3.656
10654SOL    HW232862   0.015   1.681   3.645
10655SOL     OW32863   6.328   5.124   0.333
10655SOL    HW132864   6.313   5.073   0.248
10655SOL    HW232865   6.284   5.076   0.409
10656SOL     OW32866   5.619   0.847   5.912
10656SOL    HW132867   5.541   0.785   5.915
10656SOL    HW232868   5.703   0.795   5.895
10657SOL     OW32869   4.435   0.333   5.380
10657SOL    HW132870   4.460   0.430   5.373
10657SOL    HW232871   4.518   0.279   5.395
10658SOL     OW32872   1.436   0.881   4.984
10658SOL    HW132873   1.360   0.873   5.048
10658SOL    HW232874   1.443   0.976   4.952
10659SOL     OW32875   0.975   5.569   6.780
10659SOL    HW132876   0.924   5.543   6.862
10659SOL    HW232877   0.913   5.610   6.713
10660SOL     OW32878   6.474   2.101   6.215
10660SOL    HW132879   6.421   2.179   6.247
10660SOL    HW232880   6.542   2.076   6.283
10661SOL     OW32881   3.694   5.430   5.611
10661SOL    HW132882   3.600   5.398   5.601
10661SOL    HW232883   3.694   5.529   5.629
10662SOL     OW32884   3.248   1.913   1.069
10662SOL    HW132885   3.177   1.924   1.139
10662SOL    HW232886   3.338   1.926   1.111
10663SOL     OW32887   6.572   3.132   3.945
10663SOL    HW132888   6.630   3.055   3.975
10663SOL    HW232889   6.615   3.177   3.868
10664SOL     OW32890   0.737   6.173   4.708
10664SOL    HW132891   0.722   6.150   4.612
10664SOL    HW232892   0.688   6.107   4.766
10665SOL     OW32893   4.683   3.585   0.606
10665SOL    HW132894   4.693   3.614   0.701
10665SOL    HW232895   4.598   3.533   0.596
10666SOL     OW32896   5.105   3.606   1.718
10666SOL    HW132897   5.011   3.595   1.751
10666SOL    HW232898   5.119   3.548   1.638
10667SOL     OW32899   5.473   2.846   4.083
10667SOL    HW132900   5.505   2.781   4.014
10667SOL    HW232901   5.407   2.801   4.143
10668SOL     OW32902   3.207   2.997   5.822
10668SOL    HW132903   3.190   2.923   5.887
10668SOL    HW232904   3.286   3.050   5.852
10669SOL     OW32905   6.559   2.928   2.029
10669SOL    HW132906   6.603   3.018   2.033
10669SOL    HW232907   6.558   2.897   1.934
10670SOL     OW32908   4.778   4.791   4.206
10670SOL    HW132909   4.864   4.842   4.199
10670SOL    HW232910   4.790   4.700   4.166
10671SOL     OW32911   1.817   3.082   4.422
10671SOL    HW132912   1.871   3.165   4.432
10671SOL    HW232913   1.831   3.043   4.331
10672SOL     OW32914   6.488   4.919   1.447
10672SOL    HW132915   6.537   4.840   1.410
10672SOL    HW232916   6.553   4.981   1.491
10673SOL     OW32917   3.127   0.865   1.701
10673SOL    HW132918   3.163   0.775   1.677
10673SOL    HW232919   3.203   0.928   1.715
10674SOL     OW32920   3.930   3.351   3.453
10674SOL    HW132921   3.938   3.269   3.509
10674SOL    HW232922   3.906   3.325   3.359
10675SOL     OW32923   3.838   6.263   5.928
10675SOL    HW132924   3.899   6.209   5.869
10675SOL    HW232925   3.815   6.348   5.882
10676SOL     OW32926   1.137   1.298   4.416
10676SOL    HW132927   1.208   1.363   4.445
10676SOL    HW232928   1.067   1.347   4.364
10677SOL     OW32929   0.331   1.283   6.865
10677SOL    HW132930   0.298   1.365   6.817
10677SOL    HW232931   0.273   1.267   6.945
10678SOL     OW32932   3.358   4.940   2.508
10678SOL    HW132933   3.304   4.905   2.431
10678SOL    HW232934   3.449   4.965   2.475
10679SOL     OW32935   5.200   3.986   0.394
10679SOL    HW132936   5.143   3.907   0.412
10679SOL    HW232937   5.153   4.069   0.424
10680SOL     OW32938   3.901   1.818   5.191
10680SOL    HW132939   3.858   1.758   5.123
10680SOL    HW232940   3.983   1.773   5.227
10681SOL     OW32941   2.832   3.340   5.554
10681SOL    HW132942   2.833   3.328   5.455
10681SOL    HW232943   2.771   3.416   5.579
10682SOL     OW32944   5.250   3.150   6.257
10682SOL    HW132945   5.161   3.120   6.223
10682SOL    HW232946   5.317   3.077   6.246
10683SOL     OW32947   1.731   0.110   3.171
10683SOL    HW132948   1.789   0.154   3.240
10683SOL    HW232949   1.789   0.072   3.099
10684SOL     OW32950   4.879   4.264   1.360
10684SOL    HW132951   4.929   4.324   1.298
10684SOL    HW232952   4.867   4.310   1.449
10685SOL     OW32953   0.761   0.656   2.742
10685SOL    HW132954   0.766   0.624   2.648
10685SOL    HW232955   0.852   0.656   2.782
10686SOL     OW32956   2.851   1.991   6.777
10686SOL    HW132957   2.823   2.024   6.867
10686SOL    HW232958   2.783   1.927   6.742
10687SOL     OW32959   0.718   3.073   3.393
10687SOL    HW132960   0.809   3.077   3.354
10687SOL    HW232961   0.663   3.149   3.357
10688SOL     OW32962   4.877   1.208   3.768
10688SOL    HW132963   4.889   1.242   3.675
10688SOL    HW232964   4.832   1.118   3.765
10689SOL     OW32965   1.604   1.362   2.815
10689SOL    HW132966   1.507   1.363   2.791
10689SOL    HW232967   1.627   1.446   2.864
10690SOL     OW32968   0.970   6.553   4.800
10690SOL    HW132969   1.027   6.510   4.731
10690SOL    HW232970   0.893   6.493   4.822
10691SOL     OW32971   3.604   6.725   1.630
10691SOL    HW132972   3.658   6.675   1.562
10691SOL    HW232973   3.512   6.740   1.595
10692SOL     OW32974   2.817   2.210   4.397
10692SOL    HW132975   2.900   2.239   4.348
10692SOL    HW232976   2.810   2.259   4.484
10693SOL     OW32977   1.488   4.316   0.237
10693SOL    HW132978   1.430   4.398   0.235
10693SOL    HW232979   1.436   4.238   0.203
10694SOL     OW32980   5.375   2.218   5.687
10694SOL    HW132981   5.433   2.295   5.660
10694SOL    HW232982   5.310   2.248   5.756
10695SOL     OW32983   4.945   4.810   1.489
10695SOL    HW132984   4.940   4.823   1.588
10695SOL    HW232985   4.861   4.844   1.446
10696SOL     OW32986   6.992   5.160   4.321
10696SOL    HW132987   6.913   5.122   4.273
10696SOL    HW232988   0.043   5.175   4.256
10697SOL     OW32989   2.901   5.018   4.719
10697SOL    HW132990   2.945   4.930   4.736
10697SOL    HW232991   2.817   5.023   4.774
10698SOL     OW32992   4.143   4.589   6.884
10698SOL    HW132993   4.054   4.572   6.926
10698SOL    HW232994   4.214   4.591   6.955
10699SOL     OW32995   4.386   3.841   1.627
10699SOL    HW132996   4.348   3.933   1.620
10699SOL    HW232997   4.456   3.839   1.698
10700SOL     OW32998   5.058   0.070   1.599
10700SOL    HW132999   4.965   0.079   1.635
10700SOL    HW233000   5.076   0.144   1.534
10701SOL     OW33001   3.306   6.576   5.579
10701SOL    HW133002   3.255   6.637   5.519
10701SOL    HW233003   3.368   6.630   5.637
10702SOL     OW33004   5.677   2.898   2.263
10702SOL    HW133005   5.720   2.973   2.314
10702SOL    HW233006   5.578   2.913   2.261
10703SOL     OW33007   0.731   1.881   5.795
10703SOL    HW133008   0.780   1.917   5.875
10703SOL    HW233009   0.674   1.804   5.823
10704SOL     OW33010   5.367   6.774   2.014
10704SOL    HW133011   5.438   6.764   2.083
10704SOL    HW233012   5.278   6.790   2.058
10705SOL     OW33013   4.674   3.666   1.526
10705SOL    HW133014   4.682   3.765   1.527
10705SOL    HW233015   4.696   3.632   1.435
10706SOL     OW33016   3.114   0.836   2.189
10706SOL    HW133017   3.112   0.846   2.289
10706SOL    HW233018   3.067   0.914   2.148
10707SOL     OW33019   3.937   6.938   3.358
10707SOL    HW133020   3.839   6.921   3.345
10707SOL    HW233021   3.976   6.974   3.273
10708SOL     OW33022   4.277   1.292   1.420
10708SOL    HW133023   4.241   1.200   1.403
10708SOL    HW233024   4.345   1.288   1.493
10709SOL     OW33025   5.625   4.262   2.786
10709SOL    HW133026   5.657   4.241   2.879
10709SOL    HW233027   5.539   4.215   2.769
10710SOL     OW33028   4.891   1.301   3.471
10710SOL    HW133029   4.921   1.380   3.418
10710SOL    HW233030   4.812   1.259   3.426
10711SOL     OW33031   2.346   6.374   3.333
10711SOL    HW133032   2.337   6.451   3.396
10711SOL    HW233033   2.398   6.301   3.377
10712SOL     OW33034   5.222   0.771   3.604
10712SOL    HW133035   5.176   0.860   3.606
10712SOL    HW233036   5.153   0.699   3.596
10713SOL     OW33037   1.013   3.763   1.143
10713SOL    HW133038   0.976   3.838   1.089
10713SOL    HW233039   1.078   3.711   1.088
10714SOL     OW33040   3.108   3.952   5.078
10714SOL    HW133041   3.089   4.043   5.115
10714SOL    HW233042   3.206   3.936   5.075
10715SOL     OW33043   6.396   1.004   2.041
10715SOL    HW133044   6.371   1.035   1.949
10715SOL    HW233045   6.477   1.054   2.072
10716SOL     OW33046   5.203   1.006   3.264
10716SOL    HW133047   5.291   0.985   3.308
10716SOL    HW233048   5.140   1.044   3.332
10717SOL     OW33049   3.556   3.185   0.461
10717SOL    HW133050   3.489   3.127   0.414
10717SOL    HW233051   3.646   3.141   0.457
10718SOL     OW33052   1.912   5.413   6.425
10718SOL    HW133053   1.834   5.445   6.371
10718SOL    HW233054   1.880   5.374   6.511
10719SOL     OW33055   0.087   4.639   5.380
10719SOL    HW133056   0.076   4.722   5.326
10719SOL    HW233057   0.170   4.646   5.436
10720SOL     OW33058   6.947   5.337   2.658
10720SOL    HW133059   6.913   5.403   2.725
10720SOL    HW233060   6.870   5.293   2.612
10721SOL     OW33061   5.063   2.886   6.277
10721SOL    HW133062   4.993   2.895   6.348
10721SOL    HW233063   5.049   2.956   6.208
10722SOL     OW33064   0.169   3.801   5.445
10722SOL    HW133065   0.239   3.871   5.460
10722SOL    HW233066   0.079   3.841   5.462
10723SOL     OW33067   5.888   6.012   0.588
10723SOL    HW133068   5.816   6.075   0.561
10723SOL    HW233069   5.857   5.918   0.574
10724SOL     OW33070   0.343   6.133   6.044
10724SOL    HW133071   0.411   6.207   6.046
10724SOL    HW233072   0.273   6.151   6.113
10725SOL     OW33073   2.586   6.790   6.085
10725SOL    HW133074   2.675   6.836   6.088
10725SOL    HW233075   2.513   6.857   6.096
10726SOL     OW33076   3.740   0.854   4.267
10726SOL    HW133077   3.650   0.881   4.233
10726SOL    HW233078   3.753   0.755   4.253
10727SOL     OW33079   2.579   6.158   6.834
10727SOL    HW133080   2.503   6.220   6.855
10727SOL    HW233081   2.593   6.095   6.910
10728SOL     OW33082   5.287   5.902   1.846
10728SOL    HW133083   5.270   5.970   1.774
10728SOL    HW233084   5.305   5.814   1.803
10729SOL     OW33085   6.472   2.092   0.446
10729SOL    HW133086   6.393   2.143   0.412
10729SOL    HW233087   6.461   2.076   0.544
10730SOL     OW33088   4.404   0.531   3.285
10730SOL    HW133089   4.448   0.505   3.371
10730SOL    HW233090   4.379   0.448   3.234
10731SOL     OW33091   3.210   0.107   1.020
10731SOL    HW133092   3.140   0.179   1.022
10731SOL    HW233093   3.233   0.086   0.925
10732SOL     OW33094   0.621   3.346   6.095
10732SOL    HW133095   0.648   3.334   6.191
10732SOL    HW233096   0.592   3.258   6.058
10733SOL     OW33097   6.069   0.508   0.104
10733SOL    HW133098   6.156   0.488   0.060
10733SOL    HW233099   6.082   0.512   0.203
10734SOL     OW33100   5.920   2.816   1.914
10734SOL    HW133101   5.885   2.900   1.955
10734SOL    HW233102   6.004   2.836   1.864
10735SOL     OW33103   0.121   5.454   2.498
10735SOL    HW133104   0.210   5.441   2.542
10735SOL    HW233105   0.054   5.392   2.539
10736SOL     OW33106   1.999   1.523   4.905
10736SOL    HW133107   2.052   1.438   4.893
10736SOL    HW233108   2.028   1.568   4.990
10737SOL     OW33109   6.897   1.915   6.319
10737SOL    HW133110   6.915   1.856   6.240
10737SOL    HW233111   6.821   1.877   6.372
10738SOL     OW33112   3.999   0.486   4.429
10738SOL    HW133113   3.954   0.464   4.516
10738SOL    HW233114   4.095   0.509   4.445
10739SOL     OW33115   2.176   1.435   2.033
10739SOL    HW133116   2.134   1.519   1.998
10739SOL    HW233117   2.259   1.415   1.981
10740SOL     OW33118   4.074   6.029   3.708
10740SOL    HW133119   4.077   5.947   3.650
10740SOL    HW233120   4.001   6.020   3.776
10741SOL     OW33121   2.547   0.515   3.317
10741SOL    HW133122   2.638   0.480   3.334
10741SOL    HW233123   2.525   0.506   3.219
10742SOL     OW33124   6.781   5.950   6.857
10742SOL    HW133125   6.746   6.031   6.903
10742SOL    HW233126   6.806   5.880   6.925
10743SOL     OW33127   3.006   1.407   5.141
10743SOL    HW133128   2.970   1.314   5.131
10743SOL    HW233129   2.983   1.461   5.060
10744SOL     OW33130   6.191   1.385   0.482
10744SOL    HW133131   6.161   1.290   0.484
10744SOL    HW233132   6.185   1.419   0.388
10745SOL     OW33133   0.009   5.821   5.815
10745SOL    HW133134   0.102   5.825   5.780
10745SOL    HW233135   6.969   5.811   5.740
10746SOL     OW33136   1.897   4.590   5.159
10746SOL    HW133137   1.931   4.662   5.220
10746SOL    HW233138   1.962   4.514   5.158
10747SOL     OW33139   2.911   2.235   4.928
10747SOL    HW133140   2.995   2.244   4.982
10747SOL    HW233141   2.838   2.198   4.985
10748SOL     OW33142   5.798   1.761   2.716
10748SOL    HW133143   5.812   1.676   2.666
10748SOL    HW233144   5.707   1.760   2.759
10749SOL     OW33145   3.433   0.133   0.415
10749SOL    HW133146   3.467   0.040   0.410
10749SOL    HW233147   3.362   0.146   0.346
10750SOL     OW33148   4.633   6.304   6.433
10750SOL    HW133149   4.547   6.270   6.473
10750SOL    HW233150   4.617   6.329   6.338
10751SOL     OW33151   2.663   5.873   2.976
10751SOL    HW133152   2.731   5.801   2.965
10751SOL    HW233153   2.580   5.848   2.927
10752SOL     OW33154   5.292   5.083   3.948
10752SOL    HW133155   5.299   4.983   3.948
10752SOL    HW233156   5.314   5.118   4.039
10753SOL     OW33157   5.559   4.204   4.383
10753SOL    HW133158   5.588   4.110   4.367
10753SOL    HW233159   5.476   4.205   4.439
10754SOL     OW33160   1.089   6.922   2.636
10754SOL    HW133161   1.113   6.835   2.679
10754SOL    HW233162   0.991   6.939   2.647
10755SOL     OW33163   6.188   5.621   1.339
10755SOL    HW133164   6.173   5.657   1.431
10755SOL    HW233165   6.151   5.529   1.333
10756SOL     OW33166   0.712   6.961   5.148
10756SOL    HW133167   0.675   6.880   5.195
10756SOL    HW233168   0.662   6.976   5.064
10757SOL     OW33169   2.998   2.889   1.810
10757SOL    HW133170   2.917   2.875   1.753
10757SOL    HW233171   3.071   2.827   1.779
10758SOL     OW33172   0.288   5.323   4.414
10758SOL    HW133173   0.309   5.297   4.508
10758SOL    HW233174   0.205   5.275   4.384
10759SOL     OW33175   6.909   0.903   0.099
10759SOL    HW133176   6.866   0.834   0.042
10759SOL    HW233177   6.849   0.927   0.175
10760SOL     OW33178   5.688   1.867   4.625
10760SOL    HW133179   5.699   1.928   4.547
10760SOL    HW233180   5.614   1.901   4.683
10761SOL     OW33181   3.152   5.230   5.544
10761SOL    HW133182   3.054   5.231   5.565
10761SOL    HW233183   3.203   5.209   5.627
10762SOL     OW33184   3.206   1.211   6.410
10762SOL    HW133185   3.212   1.117   6.444
10762SOL    HW233186   3.294   1.256   6.421
10763SOL     OW33187   4.772   5.889   4.206
10763SOL    HW133188   4.829   5.904   4.287
10763SOL    HW233189   4.779   5.793   4.178
10764SOL     OW33190   4.072   0.123   4.969
10764SOL    HW133191   4.164   0.085   4.960
10764SOL    HW233192   4.078   0.216   5.005
10765SOL     OW33193   7.019   3.484   7.015
10765SOL    HW133194   6.974   3.550   6.954
10765SOL    HW233195   0.001   3.523   0.082
10766SOL     OW33196   3.206   3.670   1.758
10766SOL    HW133197   3.135   3.625   1.704
10766SOL    HW233198   3.290   3.676   1.704
10767SOL     OW33199   4.860   2.104   1.960
10767SOL    HW133200   4.817   2.141   2.042
10767SOL    HW233201   4.789   2.067   1.899
10768SOL     OW33202   5.658   4.648   6.157
10768SOL    HW133203   5.626   4.742   6.163
10768SOL    HW233204   5.741   4.638   6.211
10769SOL     OW33205   1.638   3.646   4.747
10769SOL    HW133206   1.580   3.717   4.787
10769SOL    HW233207   1.672   3.586   4.820
10770SOL     OW33208   4.065   5.734   3.528
10770SOL    HW133209   4.139   5.728   3.594
10770SOL    HW233210   3.978   5.741   3.576
10771SOL     OW33211   2.757   1.960   4.341
10771SOL    HW133212   2.826   1.888   4.351
10771SOL    HW233213   2.792   2.046   4.377
10772SOL     OW33214   5.090   6.084   4.169
10772SOL    HW133215   5.102   6.178   4.138
10772SOL    HW233216   5.011   6.044   4.123
10773SOL     OW33217   5.641   5.433   3.053
10773SOL    HW133218   5.674   5.344   3.019
10773SOL    HW233219   5.576   5.418   3.127
10774SOL     OW33220   0.108   6.961   3.406
10774SOL    HW133221   0.047   6.917   3.340
10774SOL    HW233222   0.203   6.948   3.376
10775SOL     OW33223   0.560   3.223   0.976
10775SOL    HW133224   0.522   3.130   0.973
10775SOL    HW233225   0.531   3.269   1.060
10776SOL     OW33226   1.787   0.531   5.649
10776SOL    HW133227   1.715   0.493   5.708
10776SOL    HW233228   1.748   0.603   5.592
10777SOL     OW33229   3.139   5.911   1.351
10777SOL    HW133230   3.053   5.924   1.302
10777SOL    HW233231   3.144   5.816   1.384
10778SOL     OW33232   5.777   5.891   1.990
10778SOL    HW133233   5.707   5.896   1.919
10778SOL    HW233234   5.821   5.801   1.986
10779SOL     OW33235   5.123   3.047   3.513
10779SOL    HW133236   5.177   2.994   3.448
10779SOL    HW233237   5.111   2.994   3.597
10780SOL     OW33238   6.783   0.451   2.370
10780SOL    HW133239   6.816   0.377   2.312
10780SOL    HW233240   6.855   0.520   2.381
10781SOL     OW33241   3.167   0.052   4.060
10781SOL    HW133242   3.130   0.053   3.967
10781SOL    HW233243   3.257   0.009   4.060
10782SOL     OW33244   6.650   5.540   3.639
10782SOL    HW133245   6.683   5.465   3.695
10782SOL    HW233246   6.578   5.590   3.689
10783SOL     OW33247   6.440   2.430   2.728
10783SOL    HW133248   6.456   2.361   2.799
10783SOL    HW233249   6.461   2.392   2.638
10784SOL     OW33250   1.642   1.876   4.894
10784SOL    HW133251   1.706   1.868   4.970
10784SOL    HW233252   1.548   1.869   4.928
10785SOL     OW33253   1.174   2.981   5.989
10785SOL    HW133254   1.240   2.909   5.972
10785SOL    HW233255   1.124   3.001   5.905
10786SOL     OW33256   6.483   4.334   4.792
10786SOL    HW133257   6.395   4.287   4.789
10786SOL    HW233258   6.556   4.268   4.811
10787SOL     OW33259   2.051   2.354   6.011
10787SOL    HW133260   2.021   2.262   5.984
10787SOL    HW233261   2.136   2.346   6.064
10788SOL     OW33262   5.726   3.752   6.279
10788SOL    HW133263   5.646   3.811   6.287
10788SOL    HW233264   5.722   3.680   6.348
10789SOL     OW33265   4.797   0.877   6.923
10789SOL    HW133266   4.761   0.924   6.843
10789SOL    HW233267   4.891   0.848   6.906
10790SOL     OW33268   6.004   6.607   2.732
10790SOL    HW133269   6.013   6.650   2.822
10790SOL    HW233270   5.988   6.509   2.744
10791SOL     OW33271   0.862   6.215   2.404
10791SOL    HW133272   0.816   6.149   2.345
10791SOL    HW233273   0.798   6.248   2.474
10792SOL     OW33274   3.696   4.596   6.254
10792SOL    HW133275   3.637   4.610   6.334
10792SOL    HW233276   3.640   4.579   6.173
10793SOL     OW33277   5.305   4.230   4.558
10793SOL    HW133278   5.281   4.315   4.606
10793SOL    HW233279   5.224   4.172   4.550
10794SOL     OW33280   3.211   3.482   4.644
10794SOL    HW133281   3.123   3.524   4.621
10794SOL    HW233282   3.194   3.393   4.688
10795SOL     OW33283   0.032   4.737   2.938
10795SOL    HW133284   6.974   4.759   2.885
10795SOL    HW233285   0.013   4.746   3.035
10796SOL     OW33286   0.910   6.693   5.630
10796SOL    HW133287   0.984   6.656   5.573
10796SOL    HW233288   0.893   6.788   5.604
10797SOL     OW33289   4.109   2.998   0.404
10797SOL    HW133290   4.092   3.041   0.316
10797SOL    HW233291   4.043   2.924   0.419
10798SOL     OW33292   5.908   1.323   0.763
10798SOL    HW133293   5.937   1.401   0.707
10798SOL    HW233294   5.941   1.238   0.722
10799SOL     OW33295   5.167   1.521   1.258
10799SOL    HW133296   5.148   1.448   1.323
10799SOL    HW233297   5.244   1.495   1.200
10800SOL     OW33298   6.747   6.482   1.034
10800SOL    HW133299   6.816   6.421   1.072
10800SOL    HW233300   6.662   6.432   1.021
10801SOL     OW33301   2.145   0.613   1.102
10801SOL    HW133302   2.174   0.648   1.013
10801SOL    HW233303   2.084   0.679   1.145
10802SOL     OW33304   5.737   1.651   3.631
10802SOL    HW133305   5.784   1.736   3.655
10802SOL    HW233306   5.653   1.643   3.685
10803SOL     OW33307   2.263   5.114   5.198
10803SOL    HW133308   2.285   5.137   5.293
10803SOL    HW233309   2.230   5.020   5.194
10804SOL     OW33310   6.101   3.567   4.035
10804SOL    HW133311   6.173   3.525   3.979
10804SOL    HW233312   6.016   3.515   4.025
10805SOL     OW33313   0.086   6.877   6.701
10805SOL    HW133314   0.029   6.958   6.688
10805SOL    HW233315   0.126   6.879   6.793
10806SOL     OW33316   1.623   5.346   1.264
10806SOL    HW133317   1.632   5.402   1.182
10806SOL    HW233318   1.529   5.316   1.274
10807SOL     OW33319   3.340   5.374   4.657
10807SOL    HW133320   3.288   5.290   4.671
10807SOL    HW233321   3.283   5.442   4.611
10808SOL     OW33322   1.600   3.291   0.100
10808SOL    HW133323   1.690   3.276   0.140
10808SOL    HW233324   1.532   3.237   0.150
10809SOL     OW33325   1.447   0.813   4.718
10809SOL    HW133326   1.541   0.815   4.684
10809SOL    HW233327   1.447   0.830   4.817
10810SOL     OW33328   6.099   0.716   3.538
10810SOL    HW133329   6.026   0.673   3.590
10810SOL    HW233330   6.070   0.729   3.443
10811SOL     OW33331   5.425   5.497   5.160
10811SOL    HW133332   5.343   5.533   5.203
10811SOL    HW233333   5.506   5.542   5.198
10812SOL     OW33334   0.703   2.935   0.799
10812SOL    HW133335   0.735   2.977   0.714
10812SOL    HW233336   0.612   2.970   0.822
10813SOL     OW33337   1.040   3.766   6.871
10813SOL    HW133338   0.987   3.822   6.935
10813SOL    HW233339   1.025   3.669   6.891
10814SOL     OW33340   3.071   1.873   1.845
10814SOL    HW133341   3.119   1.816   1.911
10814SOL    HW233342   3.083   1.969   1.869
10815SOL     OW33343   5.105   1.063   4.739
10815SOL    HW133344   5.150   1.145   4.774
10815SOL    HW233345   5.007   1.068   4.756
10816SOL     OW33346   3.445   3.063   5.490
10816SOL    HW133347   3.385   3.068   5.410
10816SOL    HW233348   3.422   2.983   5.545
10817SOL     OW33349   1.418   6.335   4.573
10817SOL    HW133350   1.470   6.266   4.523
10817SOL    HW233351   1.451   6.426   4.550
10818SOL     OW33352   4.404   3.994   0.205
10818SOL    HW133353   4.496   3.961   0.184
10818SOL    HW233354   4.390   4.083   0.161
10819SOL     OW33355   6.182   5.698   5.405
10819SOL    HW133356   6.278   5.685   5.429
10819SOL    HW233357   6.126   5.629   5.450
10820SOL     OW33358   1.543   4.845   6.429
10820SOL    HW133359   1.493   4.930   6.410
10820SOL    HW233360   1.615   4.834   6.360
10821SOL     OW33361   3.997   5.594   4.001
10821SOL    HW133362   3.909   5.557   4.031
10821SOL    HW233363   4.031   5.660   4.068
10822SOL     OW33364   5.535   0.544   2.612
10822SOL    HW133365   5.455   0.564   2.668
10822SOL    HW233366   5.510   0.475   2.544
10823SOL     OW33367   5.746   6.781   2.843
10823SOL    HW133368   5.663   6.829   2.815
10823SOL    HW233369   5.729   6.682   2.841
10824SOL     OW33370   1.461   2.641   2.848
10824SOL    HW133371   1.449   2.710   2.776
10824SOL    HW233372   1.506   2.683   2.927
10825SOL     OW33373   6.980   1.521   0.812
10825SOL    HW133374   7.004   1.615   0.832
10825SOL    HW233375   6.962   1.472   0.898
10826SOL     OW33376   6.619   3.144   2.290
10826SOL    HW133377   6.698   3.195   2.256
10826SOL    HW233378   6.650   3.058   2.331
10827SOL     OW33379   7.006   3.081   4.117
10827SOL    HW133380   0.062   3.023   4.128
10827SOL    HW233381   6.948   3.044   4.044
10828SOL     OW33382   7.018   4.051   4.938
10828SOL    HW133383   6.936   4.066   4.994
10828SOL    HW233384   0.065   4.116   4.966
10829SOL     OW33385   4.107   3.100   5.471
10829SOL    HW133386   4.125   3.130   5.564
10829SOL    HW233387   4.037   3.028   5.472
10830SOL     OW33388   5.177   1.971   3.346
10830SOL    HW133389   5.266   2.012   3.364
10830SOL    HW233390   5.118   2.038   3.302
10831SOL     OW33391   4.199   0.183   3.274
10831SOL    HW133392   4.149   0.195   3.188
10831SOL    HW233393   4.134   0.171   3.349
10832SOL     OW33394   6.797   3.128   6.589
10832SOL    HW133395   6.798   3.221   6.624
10832SOL    HW233396   6.850   3.125   6.503
10833SOL     OW33397   0.659   1.192   6.686
10833SOL    HW133398   0.623   1.227   6.773
10833SOL    HW233399   0.702   1.267   6.635
10834SOL     OW33400   0.050   6.360   1.847
10834SOL    HW133401   7.018   6.396   1.773
10834SOL    HW233402   0.113   6.291   1.811
10835SOL     OW33403   6.698   2.617   5.869
10835SOL    HW133404   6.630   2.556   5.910
10835SOL    HW233405   6.725   2.687   5.935
10836SOL     OW33406   6.883   1.712   3.553
10836SOL    HW133407   6.908   1.722   3.457
10836SOL    HW233408   6.877   1.802   3.596
10837SOL     OW33409   6.855   2.962   3.897
10837SOL    HW133410   6.818   2.880   3.940
10837SOL    HW233411   6.844   2.956   3.798
10838SOL     OW33412   0.548   6.566   2.546
10838SOL    HW133413   0.539   6.596   2.641
10838SOL    HW233414   0.458   6.559   2.504
10839SOL     OW33415   4.639   2.702   0.095
10839SOL    HW133416   4.732   2.683   0.064
10839SOL    HW233417   4.609   2.791   0.060
10840SOL     OW33418   2.780   0.547   2.513
10840SOL    HW133419   2.775   0.493   2.429
10840SOL    HW233420   2.693   0.594   2.528
10841SOL     OW33421   2.044   5.239   4.912
10841SOL    HW133422   2.039   5.145   4.946
10841SOL    HW233423   2.020   5.242   4.815
10842SOL     OW33424   6.857   4.746   1.619
10842SOL    HW133425   6.870   4.657   1.664
10842SOL    HW233426   6.936   4.764   1.560
10843SOL     OW33427   3.016   1.257   1.616
10843SOL    HW133428   3.103   1.277   1.660
10843SOL    HW233429   2.962   1.341   1.607
10844SOL     OW33430   1.970   5.139   4.643
10844SOL    HW133431   1.958   5.185   4.554
10844SOL    HW233432   2.008   5.048   4.628
10845SOL     OW33433   3.870   1.037   4.092
10845SOL    HW133434   3.862   1.022   3.994
10845SOL    HW233435   3.804   0.980   4.141
10846SOL     OW33436   5.638   6.469   6.150
10846SOL    HW133437   5.660   6.378   6.114
10846SOL    HW233438   5.686   6.483   6.236
10847SOL     OW33439   3.460   6.990   0.006
10847SOL    HW133440   3.515   6.934   0.068
10847SOL    HW233441   3.386   6.935   6.993
10848SOL     OW33442   1.751   3.146   2.048
10848SOL    HW133443   1.704   3.228   2.082
10848SOL    HW233444   1.749   3.075   2.118
10849SOL     OW33445   1.078   6.263   3.593
10849SOL    HW133446   1.143   6.187   3.603
10849SOL    HW233447   1.092   6.307   3.505
10850SOL     OW33448   4.788   4.507   0.301
10850SOL    HW133449   4.812   4.553   0.215
10850SOL    HW233450   4.735   4.425   0.282
10851SOL     OW33451   1.383   4.635   0.544
10851SOL    HW133452   1.427   4.555   0.584
10851SOL    HW233453   1.450   4.709   0.535
10852SOL     OW33454   3.170   0.641   1.551
10852SOL    HW133455   3.106   0.567   1.530
10852SOL    HW233456   3.261   0.602   1.569
10853SOL     OW33457   3.541   0.796   6.065
10853SOL    HW133458   3.605   0.723   6.041
10853SOL    HW233459   3.589   0.884   6.068
10854SOL     OW33460   2.853   5.825   6.061
10854SOL    HW133461   2.887   5.738   6.097
10854SOL    HW233462   2.915   5.899   6.089
10855SOL     OW33463   4.163   1.147   6.659
10855SOL    HW133464   4.250   1.107   6.688
10855SOL    HW233465   4.088   1.090   6.692
10856SOL     OW33466   0.429   0.453   0.847
10856SOL    HW133467   0.449   0.387   0.920
10856SOL    HW233468   0.507   0.460   0.786
10857SOL     OW33469   0.036   2.055   2.187
10857SOL    HW133470   7.022   2.050   2.095
10857SOL    HW233471   0.077   1.967   2.211
10858SOL     OW33472   1.968   6.396   2.174
10858SOL    HW133473   1.869   6.399   2.164
10858SOL    HW233474   1.991   6.388   2.271
10859SOL     OW33475   1.683   4.851   3.850
10859SOL    HW133476   1.730   4.884   3.931
10859SOL    HW233477   1.720   4.897   3.769
10860SOL     OW33478   0.128   3.650   2.943
10860SOL    HW133479   0.172   3.598   2.870
10860SOL    HW233480   0.029   3.644   2.934
10861SOL     OW33481   4.672   3.334   5.514
10861SOL    HW133482   4.693   3.254   5.458
10861SOL    HW233483   4.578   3.329   5.546
10862SOL     OW33484   1.250   0.767   5.694
10862SOL    HW133485   1.160   0.762   5.738
10862SOL    HW233486   1.321   0.756   5.763
10863SOL     OW33487   1.811   6.625   4.165
10863SOL    HW133488   1.743   6.561   4.130
10863SOL    HW233489   1.883   6.575   4.214
10864SOL     OW33490   3.442   6.964   3.393
10864SOL    HW133491   3.406   6.975   3.300
10864SOL    HW233492   3.452   0.030   3.436
10865SOL     OW33493   6.695   1.100   5.913
10865SOL    HW133494   6.616   1.042   5.930
10865SOL    HW233495   6.708   1.162   5.990
10866SOL     OW33496   6.007   5.138   6.878
10866SOL    HW133497   5.988   5.236   6.875
10866SOL    HW233498   5.956   5.093   6.804
10867SOL     OW33499   3.055   2.158   6.883
10867SOL    HW133500   2.990   2.100   6.835
10867SOL    HW233501   3.105   2.104   6.951
10868SOL     OW33502   1.556   2.482   3.470
10868SOL    HW133503   1.603   2.568   3.452
10868SOL    HW233504   1.533   2.438   3.383
10869NA      NA33505   6.428   2.304   5.289
10870NA      NA33506   4.363   4.683   5.211
10871NA      NA33507   2.042   3.393   1.876
10872NA      NA33508   5.038   3.603   5.056
10873NA      NA33509   4.024   2.386   5.273
10874NA      NA33510   3.570   4.986   1.843
10875NA      NA33511   6.695   6.679   4.961
10876NA      NA33512   3.849   3.327   5.016
10877NA      NA33513   4.671   6.102   6.000
10878NA      NA33514   2.572   6.960   4.804
10879NA      NA33515   0.255   4.763   2.855
10880NA      NA33516   2.039   0.529   2.213
10881NA      NA33517   3.875   4.516   1.220
10882NA      NA33518   3.890   3.813   3.092
   7.02440   7.02440   7.02440
