Generated by trjconv : CNT in water t= 474.00000
33518
    1C        C    1   2.843   2.767   4.746
    1C        C    2   2.899   2.718   4.866
    1C        C    3   2.842   2.772   4.983
    1C        C    4   2.850   2.771   4.257
    1C        C    5   2.901   2.725   4.380
    1C        C    6   2.850   2.771   4.503
    1C        C    7   3.012   2.635   4.625
    1C        C    8   2.898   2.719   4.625
    1C        C    9   3.075   2.597   4.745
    1C        C   10   3.009   2.630   4.865
    1C        C   11   3.182   2.493   4.977
    1C        C   12   3.057   2.556   4.975
    1C        C   13   2.844   2.765   3.769
    1C        C   14   2.899   2.720   3.891
    1C        C   15   2.849   2.773   4.012
    1C        C   16   3.014   2.640   4.136
    1C        C   17   2.900   2.723   4.134
    1C        C   18   3.076   2.607   4.258
    1C        C   19   3.016   2.643   4.381
    1C        C   20   3.202   2.541   4.502
    1C        C   21   3.073   2.599   4.502
    1C        C   22   3.274   2.520   4.621
    1C        C   23   3.206   2.542   4.744
    1C        C   24   3.411   2.482   4.863
    1C        C   25   3.269   2.496   4.863
    1C        C   26   3.491   2.470   4.978
    1C        C   27   2.846   2.759   3.280
    1C        C   28   2.899   2.715   3.403
    1C        C   29   2.851   2.771   3.524
    1C        C   30   3.013   2.637   3.649
    1C        C   31   2.901   2.723   3.647
    1C        C   32   3.074   2.599   3.770
    1C        C   33   3.014   2.638   3.892
    1C        C   34   3.202   2.541   4.015
    1C        C   35   3.072   2.596   4.014
    1C        C   36   3.272   2.524   4.136
    1C        C   37   3.207   2.553   4.258
    1C        C   38   3.412   2.507   4.379
    1C        C   39   3.272   2.524   4.380
    1C        C   40   3.483   2.502   4.501
    1C        C   41   3.414   2.501   4.624
    1C        C   42   3.630   2.486   4.741
    1C        C   43   3.488   2.483   4.743
    1C        C   44   3.705   2.484   4.861
    1C        C   45   3.630   2.477   4.979
    1C        C   46   2.837   2.751   2.791
    1C        C   47   2.895   2.712   2.914
    1C        C   48   2.844   2.761   3.037
    1C        C   49   3.017   2.635   3.160
    1C        C   50   2.900   2.714   3.158
    1C        C   51   3.076   2.597   3.282
    1C        C   52   3.014   2.633   3.404
    1C        C   53   3.204   2.543   3.525
    1C        C   54   3.075   2.600   3.527
    1C        C   55   3.272   2.524   3.648
    1C        C   56   3.204   2.544   3.770
    1C        C   57   3.411   2.507   3.893
    1C        C   58   3.270   2.523   3.893
    1C        C   59   3.483   2.498   4.014
    1C        C   60   3.412   2.501   4.136
    1C        C   61   3.625   2.505   4.258
    1C        C   62   3.484   2.497   4.258
    1C        C   63   3.697   2.509   4.380
    1C        C   64   3.624   2.505   4.500
    1C        C   65   3.836   2.539   4.620
    1C        C   66   3.700   2.504   4.620
    1C        C   67   3.906   2.558   4.741
    1C        C   68   3.841   2.523   4.862
    1C        C   69   4.052   2.582   4.976
    1C        C   70   3.923   2.528   4.975
    1C        C   71   2.819   2.728   2.305
    1C        C   72   2.877   2.685   2.426
    1C        C   73   2.829   2.739   2.548
    1C        C   74   3.004   2.618   2.671
    1C        C   75   2.887   2.698   2.670
    1C        C   76   3.066   2.584   2.793
    1C        C   77   3.009   2.629   2.914
    1C        C   78   3.202   2.539   3.036
    1C        C   79   3.074   2.599   3.036
    1C        C   80   3.271   2.522   3.158
    1C        C   81   3.206   2.541   3.281
    1C        C   82   3.412   2.499   3.402
    1C        C   83   3.273   2.519   3.404
    1C        C   84   3.481   2.500   3.525
    1C        C   85   3.411   2.501   3.648
    1C        C   86   3.622   2.504   3.768
    1C        C   87   3.481   2.497   3.771
    1C        C   88   3.692   2.519   3.889
    1C        C   89   3.624   2.512   4.013
    1C        C   90   3.831   2.553   4.134
    1C        C   91   3.693   2.520   4.135
    1C        C   92   3.898   2.575   4.256
    1C        C   93   3.832   2.549   4.378
    1C        C   94   4.027   2.636   4.498
    1C        C   95   3.902   2.570   4.499
    1C        C   96   4.093   2.668   4.619
    1C        C   97   4.030   2.627   4.739
    1C        C   98   4.192   2.761   4.859
    1C        C   99   4.098   2.654   4.861
    1C        C  100   4.214   2.837   4.975
    1C        C  101   2.823   2.727   2.065
    1C        C  102   2.983   2.583   2.188
    1C        C  103   2.871   2.673   2.185
    1C        C  104   3.060   2.569   2.307
    1C        C  105   2.999   2.614   2.426
    1C        C  106   3.197   2.533   2.548
    1C        C  107   3.066   2.588   2.548
    1C        C  108   3.266   2.515   2.670
    1C        C  109   3.197   2.532   2.792
    1C        C  110   3.408   2.494   2.910
    1C        C  111   3.268   2.513   2.913
    1C        C  112   3.479   2.490   3.032
    1C        C  113   3.411   2.499   3.156
    1C        C  114   3.622   2.505   3.280
    1C        C  115   3.481   2.494   3.278
    1C        C  116   3.692   2.519   3.402
    1C        C  117   3.622   2.512   3.524
    1C        C  118   3.830   2.550   3.644
    1C        C  119   3.693   2.516   3.646
    1C        C  120   3.894   2.579   3.767
    1C        C  121   3.828   2.558   3.890
    1C        C  122   4.023   2.641   4.012
    1C        C  123   3.897   2.577   4.012
    1C        C  124   4.086   2.676   4.134
    1C        C  125   4.025   2.638   4.256
    1C        C  126   4.195   2.767   4.371
    1C        C  127   4.088   2.675   4.377
    1C        C  128   4.245   2.815   4.494
    1C        C  129   4.201   2.759   4.616
    1C        C  130   4.325   2.931   4.737
    1C        C  131   4.245   2.813   4.738
    1C        C  132   4.350   3.002   4.857
    1C        C  133   4.283   2.958   4.971
    1C        C  134   3.172   2.469   2.079
    1C        C  135   3.037   2.509   2.079
    1C        C  136   3.259   2.477   2.189
    1C        C  137   3.193   2.519   2.306
    1C        C  138   3.402   2.481   2.426
    1C        C  139   3.262   2.499   2.428
    1C        C  140   3.476   2.487   2.546
    1C        C  141   3.406   2.497   2.669
    1C        C  142   3.621   2.496   2.790
    1C        C  143   3.480   2.491   2.789
    1C        C  144   3.691   2.509   2.912
    1C        C  145   3.619   2.504   3.033
    1C        C  146   3.826   2.548   3.155
    1C        C  147   3.689   2.516   3.156
    1C        C  148   3.896   2.573   3.276
    1C        C  149   3.830   2.551   3.399
    1C        C  150   4.025   2.631   3.520
    1C        C  151   3.897   2.571   3.521
    1C        C  152   4.084   2.669   3.643
    1C        C  153   4.023   2.637   3.766
    1C        C  154   4.193   2.764   3.886
    1C        C  155   4.081   2.677   3.888
    1C        C  156   4.248   2.810   4.008
    1C        C  157   4.198   2.762   4.131
    1C        C  158   4.348   2.918   4.251
    1C        C  159   4.252   2.813   4.250
    1C        C  160   4.381   2.978   4.374
    1C        C  161   4.331   2.927   4.496
    1C        C  162   4.438   3.113   4.614
    1C        C  163   4.368   2.991   4.617
    1C        C  164   4.467   3.181   4.734
    1C        C  165   4.429   3.119   4.856
    1C        C  166   4.511   3.318   4.969
    1C        C  167   4.469   3.185   4.973
    1C        C  168   3.474   2.433   2.073
    1C        C  169   3.399   2.459   2.188
    1C        C  170   3.617   2.472   2.305
    1C        C  171   3.475   2.468   2.306
    1C        C  172   3.689   2.491   2.425
    1C        C  173   3.618   2.489   2.547
    1C        C  174   3.826   2.546   2.663
    1C        C  175   3.691   2.504   2.667
    1C        C  176   3.892   2.567   2.786
    1C        C  177   3.827   2.548   2.910
    1C        C  178   4.023   2.627   3.030
    1C        C  179   3.893   2.571   3.033
    1C        C  180   4.087   2.662   3.151
    1C        C  181   4.024   2.633   3.274
    1C        C  182   4.198   2.751   3.396
    1C        C  183   4.085   2.665   3.397
    1C        C  184   4.245   2.803   3.518
    1C        C  185   4.194   2.757   3.641
    1C        C  186   4.339   2.914   3.760
    1C        C  187   4.246   2.807   3.762
    1C        C  188   4.385   2.969   3.881
    1C        C  189   4.340   2.917   4.005
    1C        C  190   4.454   3.097   4.126
    1C        C  191   4.383   2.975   4.126
    1C        C  192   4.473   3.166   4.248
    1C        C  193   4.443   3.104   4.372
    1C        C  194   4.507   3.312   4.490
    1C        C  195   4.470   3.176   4.491
    1C        C  196   4.527   3.384   4.610
    1C        C  197   4.509   3.317   4.733
    1C        C  198   4.555   3.532   4.848
    1C        C  199   4.537   3.390   4.852
    1C        C  200   4.575   3.616   4.962
    1C        C  201   3.613   2.411   2.074
    1C        C  202   3.825   2.509   2.180
    1C        C  203   3.691   2.457   2.185
    1C        C  204   3.898   2.537   2.298
    1C        C  205   3.827   2.522   2.419
    1C        C  206   4.019   2.620   2.539
    1C        C  207   3.891   2.561   2.539
    1C        C  208   4.082   2.654   2.661
    1C        C  209   4.021   2.624   2.785
    1C        C  210   4.193   2.749   2.904
    1C        C  211   4.081   2.663   2.907
    1C        C  212   4.249   2.794   3.025
    1C        C  213   4.201   2.745   3.149
    1C        C  214   4.335   2.908   3.269
    1C        C  215   4.247   2.797   3.272
    1C        C  216   4.374   2.967   3.391
    1C        C  217   4.335   2.912   3.516
    1C        C  218   4.445   3.096   3.635
    1C        C  219   4.379   2.971   3.637
    1C        C  220   4.472   3.161   3.758
    1C        C  221   4.448   3.096   3.881
    1C        C  222   4.509   3.299   4.002
    1C        C  223   4.476   3.162   4.002
    1C        C  224   4.515   3.373   4.123
    1C        C  225   4.504   3.304   4.245
    1C        C  226   4.516   3.520   4.362
    1C        C  227   4.510   3.379   4.365
    1C        C  228   4.519   3.592   4.483
    1C        C  229   4.534   3.525   4.606
    1C        C  230   4.506   3.739   4.723
    1C        C  231   4.537   3.601   4.725
    1C        C  232   4.497   3.818   4.840
    1C        C  233   4.543   3.753   4.955
    1C        C  234   4.015   2.615   2.062
    1C        C  235   3.895   2.545   2.064
    1C        C  236   4.082   2.651   2.179
    1C        C  237   4.023   2.605   2.299
    1C        C  238   4.202   2.730   2.417
    1C        C  239   4.088   2.645   2.418
    1C        C  240   4.251   2.782   2.538
    1C        C  241   4.194   2.739   2.661
    1C        C  242   4.338   2.900   2.781
    1C        C  243   4.248   2.792   2.781
    1C        C  244   4.384   2.954   2.903
    1C        C  245   4.343   2.900   3.027
    1C        C  246   4.444   3.090   3.144
    1C        C  247   4.380   2.964   3.148
    1C        C  248   4.465   3.157   3.267
    1C        C  249   4.439   3.092   3.390
    1C        C  250   4.502   3.296   3.513
    1C        C  251   4.470   3.158   3.511
    1C        C  252   4.510   3.368   3.634
    1C        C  253   4.504   3.299   3.757
    1C        C  254   4.520   3.509   3.875
    1C        C  255   4.521   3.368   3.879
    1C        C  256   4.517   3.581   3.997
    1C        C  257   4.521   3.514   4.121
    1C        C  258   4.485   3.729   4.239
    1C        C  259   4.514   3.590   4.240
    1C        C  260   4.465   3.798   4.360
    1C        C  261   4.487   3.730   4.482
    1C        C  262   4.423   3.936   4.601
    1C        C  263   4.470   3.803   4.602
    1C        C  264   4.393   4.005   4.721
    1C        C  265   4.429   3.942   4.842
    1C        C  266   4.321   4.130   4.957
    1C        C  267   4.395   4.012   4.958
    1C        C  268   4.258   2.777   2.056
    1C        C  269   4.199   2.731   2.174
    1C        C  270   4.350   2.883   2.294
    1C        C  271   4.257   2.775   2.295
    1C        C  272   4.383   2.947   2.415
    1C        C  273   4.341   2.891   2.538
    1C        C  274   4.451   3.078   2.659
    1C        C  275   4.382   2.954   2.658
    1C        C  276   4.475   3.146   2.780
    1C        C  277   4.450   3.078   2.902
    1C        C  278   4.511   3.287   3.021
    1C        C  279   4.475   3.151   3.021
    1C        C  280   4.509   3.361   3.141
    1C        C  281   4.496   3.295   3.265
    1C        C  282   4.513   3.504   3.388
    1C        C  283   4.511   3.363   3.388
    1C        C  284   4.504   3.577   3.508
    1C        C  285   4.513   3.509   3.632
    1C        C  286   4.480   3.719   3.751
    1C        C  287   4.510   3.581   3.754
    1C        C  288   4.463   3.786   3.874
    1C        C  289   4.489   3.719   3.996
    1C        C  290   4.416   3.924   4.112
    1C        C  291   4.471   3.794   4.114
    1C        C  292   4.385   3.991   4.233
    1C        C  293   4.412   3.929   4.357
    1C        C  294   4.318   4.119   4.478
    1C        C  295   4.391   3.998   4.479
    1C        C  296   4.280   4.185   4.597
    1C        C  297   4.317   4.126   4.720
    1C        C  298   4.195   4.309   4.837
    1C        C  299   4.278   4.192   4.839
    1C        C  300   4.167   4.396   4.947
    1C        C  301   4.348   2.883   2.059
    1C        C  302   4.477   3.062   2.176
    1C        C  303   4.400   2.942   2.175
    1C        C  304   4.483   3.139   2.295
    1C        C  305   4.446   3.074   2.415
    1C        C  306   4.507   3.279   2.535
    1C        C  307   4.475   3.141   2.535
    1C        C  308   4.518   3.352   2.655
    1C        C  309   4.505   3.284   2.778
    1C        C  310   4.516   3.498   2.898
    1C        C  311   4.519   3.357   2.898
    1C        C  312   4.512   3.570   3.020
    1C        C  313   4.510   3.502   3.144
    1C        C  314   4.481   3.713   3.261
    1C        C  315   4.506   3.574   3.265
    1C        C  316   4.464   3.784   3.382
    1C        C  317   4.481   3.716   3.505
    1C        C  318   4.414   3.918   3.624
    1C        C  319   4.461   3.784   3.627
    1C        C  320   4.386   3.983   3.747
    1C        C  321   4.414   3.918   3.869
    1C        C  322   4.309   4.107   3.990
    1C        C  323   4.382   3.986   3.990
    1C        C  324   4.267   4.167   4.111
    1C        C  325   4.314   4.113   4.233
    1C        C  326   4.180   4.277   4.353
    1C        C  327   4.277   4.175   4.354
    1C        C  328   4.131   4.335   4.472
    1C        C  329   4.186   4.291   4.594
    1C        C  330   4.022   4.432   4.711
    1C        C  331   4.135   4.347   4.713
    1C        C  332   3.970   4.495   4.826
    1C        C  333   4.049   4.470   4.940
    1C        C  334   4.551   3.263   2.058
    1C        C  335   4.536   3.124   2.060
    1C        C  336   4.542   3.344   2.173
    1C        C  337   4.522   3.276   2.295
    1C        C  338   4.517   3.493   2.407
    1C        C  339   4.521   3.351   2.414
    1C        C  340   4.512   3.563   2.529
    1C        C  341   4.516   3.493   2.651
    1C        C  342   4.492   3.704   2.772
    1C        C  343   4.511   3.564   2.773
    1C        C  344   4.467   3.775   2.891
    1C        C  345   4.486   3.709   3.015
    1C        C  346   4.416   3.911   3.136
    1C        C  347   4.465   3.778   3.137
    1C        C  348   4.385   3.977   3.257
    1C        C  349   4.410   3.915   3.381
    1C        C  350   4.315   4.105   3.502
    1C        C  351   4.384   3.982   3.503
    1C        C  352   4.271   4.162   3.624
    1C        C  353   4.311   4.102   3.746
    1C        C  354   4.180   4.271   3.866
    1C        C  355   4.271   4.164   3.867
    1C        C  356   4.126   4.324   3.986
    1C        C  357   4.171   4.271   4.109
    1C        C  358   4.009   4.405   4.228
    1C        C  359   4.123   4.322   4.232
    1C        C  360   3.949   4.446   4.349
    1C        C  361   4.014   4.415   4.470
    1C        C  362   3.825   4.516   4.592
    1C        C  363   3.955   4.460   4.590
    1C        C  364   3.761   4.550   4.714
    1C        C  365   3.838   4.543   4.832
    1C        C  366   3.626   4.592   4.949
    1C        C  367   3.763   4.572   4.947
    1C        C  368   4.512   3.560   2.051
    1C        C  369   4.529   3.484   2.168
    1C        C  370   4.496   3.703   2.285
    1C        C  371   4.515   3.563   2.285
    1C        C  372   4.480   3.773   2.407
    1C        C  373   4.493   3.703   2.529
    1C        C  374   4.420   3.904   2.646
    1C        C  375   4.475   3.773   2.650
    1C        C  376   4.386   3.967   2.768
    1C        C  377   4.416   3.906   2.892
    1C        C  378   4.313   4.093   3.009
    1C        C  379   4.389   3.974   3.013
    1C        C  380   4.270   4.150   3.131
    1C        C  381   4.308   4.095   3.255
    1C        C  382   4.173   4.258   3.375
    1C        C  383   4.270   4.155   3.378
    1C        C  384   4.121   4.307   3.497
    1C        C  385   4.175   4.266   3.621
    1C        C  386   4.008   4.394   3.740
    1C        C  387   4.126   4.317   3.744
    1C        C  388   3.945   4.431   3.861
    1C        C  389   4.009   4.403   3.984
    1C        C  390   3.817   4.495   4.106
    1C        C  391   3.948   4.442   4.106
    1C        C  392   3.750   4.516   4.228
    1C        C  393   3.822   4.508   4.350
    1C        C  394   3.614   4.549   4.474
    1C        C  395   3.754   4.531   4.471
    1C        C  396   3.544   4.562   4.596
    1C        C  397   3.621   4.568   4.714
    1C        C  398   3.409   4.551   4.839
    1C        C  399   3.547   4.577   4.834
    1C        C  400   3.340   4.512   4.955
    1C        C  401   4.501   3.699   2.047
    1C        C  402   4.451   3.911   2.165
    1C        C  403   4.485   3.774   2.164
    1C        C  404   4.413   3.976   2.285
    1C        C  405   4.436   3.907   2.405
    1C        C  406   4.325   4.093   2.522
    1C        C  407   4.395   3.971   2.524
    1C        C  408   4.276   4.147   2.643
    1C        C  409   4.313   4.088   2.766
    1C        C  410   4.175   4.253   2.885
    1C        C  411   4.271   4.150   2.886
    1C        C  412   4.125   4.303   3.008
    1C        C  413   4.172   4.251   3.131
    1C        C  414   3.999   4.374   3.249
    1C        C  415   4.118   4.300   3.252
    1C        C  416   3.940   4.410   3.373
    1C        C  417   4.001   4.381   3.497
    1C        C  418   3.812   4.478   3.616
    1C        C  419   3.943   4.424   3.618
    1C        C  420   3.747   4.502   3.739
    1C        C  421   3.814   4.482   3.862
    1C        C  422   3.609   4.537   3.983
    1C        C  423   3.748   4.511   3.984
    1C        C  424   3.541   4.539   4.107
    1C        C  425   3.611   4.538   4.230
    1C        C  426   3.400   4.548   4.354
    1C        C  427   3.541   4.549   4.353
    1C        C  428   3.330   4.544   4.476
    1C        C  429   3.403   4.555   4.597
    1C        C  430   3.194   4.515   4.721
    1C        C  431   3.334   4.544   4.720
    1C        C  432   3.123   4.489   4.842
    1C        C  433   3.204   4.481   4.956
    1C        C  434   4.377   4.114   2.047
    1C        C  435   4.443   3.990   2.050
    1C        C  436   4.299   4.156   2.159
    1C        C  437   4.331   4.093   2.283
    1C        C  438   4.183   4.253   2.399
    1C        C  439   4.282   4.152   2.401
    1C        C  440   4.126   4.297   2.520
    1C        C  441   4.177   4.248   2.642
    1C        C  442   4.004   4.377   2.762
    1C        C  443   4.118   4.293   2.763
    1C        C  444   3.943   4.413   2.884
    1C        C  445   4.006   4.380   3.006
    1C        C  446   3.810   4.470   3.128
    1C        C  447   3.940   4.413   3.126
    1C        C  448   3.746   4.494   3.251
    1C        C  449   3.812   4.469   3.374
    1C        C  450   3.606   4.525   3.493
    1C        C  451   3.745   4.499   3.494
    1C        C  452   3.538   4.532   3.617
    1C        C  453   3.610   4.534   3.738
    1C        C  454   3.399   4.540   3.862
    1C        C  455   3.540   4.546   3.861
    1C        C  456   3.330   4.530   3.985
    1C        C  457   3.400   4.535   4.107
    1C        C  458   3.194   4.499   4.236
    1C        C  459   3.332   4.531   4.231
    1C        C  460   3.127   4.479   4.359
    1C        C  461   3.193   4.508   4.480
    1C        C  462   2.998   4.428   4.602
    1C        C  463   3.124   4.492   4.601
    1C        C  464   2.929   4.400   4.722
    1C        C  465   2.986   4.449   4.842
    1C        C  466   2.799   4.337   4.957
    1C        C  467   2.905   4.429   4.959
    1C        C  468   4.121   4.283   2.041
    1C        C  469   4.185   4.243   2.159
    1C        C  470   4.005   4.369   2.276
    1C        C  471   4.127   4.297   2.277
    1C        C  472   3.938   4.399   2.396
    1C        C  473   4.004   4.369   2.517
    1C        C  474   3.812   4.461   2.641
    1C        C  475   3.943   4.408   2.639
    1C        C  476   3.746   4.491   2.762
    1C        C  477   3.814   4.470   2.884
    1C        C  478   3.605   4.520   3.007
    1C        C  479   3.743   4.490   3.005
    1C        C  480   3.534   4.526   3.128
    1C        C  481   3.607   4.519   3.249
    1C        C  482   3.395   4.533   3.372
    1C        C  483   3.536   4.534   3.370
    1C        C  484   3.326   4.525   3.495
    1C        C  485   3.397   4.532   3.617
    1C        C  486   3.189   4.499   3.743
    1C        C  487   3.328   4.527   3.741
    1C        C  488   3.127   4.475   3.868
    1C        C  489   3.193   4.496   3.991
    1C        C  490   3.002   4.411   4.116
    1C        C  491   3.126   4.478   4.114
    1C        C  492   2.939   4.381   4.238
    1C        C  493   2.997   4.424   4.360
    1C        C  494   2.827   4.297   4.483
    1C        C  495   2.934   4.389   4.482
    1C        C  496   2.776   4.247   4.605
    1C        C  497   2.819   4.309   4.724
    1C        C  498   2.661   4.164   4.844
    1C        C  499   2.752   4.272   4.842
    1C        C  500   2.590   4.117   4.956
    1C        C  501   4.003   4.356   2.038
    1C        C  502   3.811   4.459   2.153
    1C        C  503   3.939   4.399   2.155
    1C        C  504   3.742   4.478   2.274
    1C        C  505   3.808   4.455   2.397
    1C        C  506   3.605   4.509   2.518
    1C        C  507   3.743   4.481   2.520
    1C        C  508   3.534   4.515   2.640
    1C        C  509   3.606   4.513   2.762
    1C        C  510   3.394   4.520   2.885
    1C        C  511   3.535   4.520   2.884
    1C        C  512   3.321   4.518   3.006
    1C        C  513   3.393   4.529   3.127
    1C        C  514   3.188   4.488   3.254
    1C        C  515   3.324   4.525   3.250
    1C        C  516   3.122   4.461   3.377
    1C        C  517   3.189   4.490   3.498
    1C        C  518   2.999   4.406   3.626
    1C        C  519   3.124   4.471   3.621
    1C        C  520   2.940   4.369   3.749
    1C        C  521   3.003   4.408   3.869
    1C        C  522   2.834   4.282   3.995
    1C        C  523   2.946   4.368   3.993
    1C        C  524   2.785   4.233   4.118
    1C        C  525   2.832   4.289   4.239
    1C        C  526   2.694   4.130   4.363
    1C        C  527   2.778   4.243   4.362
    1C        C  528   2.654   4.072   4.485
    1C        C  529   2.687   4.138   4.606
    1C        C  530   2.579   3.958   4.728
    1C        C  531   2.637   4.088   4.728
    1C        C  532   2.540   3.900   4.852
    1C        C  533   2.522   3.995   4.958
    1C        C  534   3.616   4.558   2.038
    1C        C  535   3.748   4.510   2.039
    1C        C  536   3.535   4.534   2.154
    1C        C  537   3.604   4.513   2.276
    1C        C  538   3.391   4.521   2.399
    1C        C  539   3.532   4.521   2.397
    1C        C  540   3.321   4.512   2.521
    1C        C  541   3.393   4.516   2.643
    1C        C  542   3.183   4.482   2.764
    1C        C  543   3.321   4.513   2.764
    1C        C  544   3.117   4.462   2.888
    1C        C  545   3.184   4.484   3.010
    1C        C  546   2.994   4.397   3.134
    1C        C  547   3.119   4.462   3.134
    1C        C  548   2.936   4.361   3.258
    1C        C  549   2.995   4.400   3.381
    1C        C  550   2.828   4.276   3.504
    1C        C  551   2.935   4.368   3.505
    1C        C  552   2.779   4.229   3.628
    1C        C  553   2.830   4.280   3.750
    1C        C  554   2.696   4.121   3.874
    1C        C  555   2.781   4.234   3.874
    1C        C  556   2.662   4.059   3.996
    1C        C  557   2.702   4.119   4.118
    1C        C  558   2.593   3.942   4.242
    1C        C  559   2.659   4.067   4.242
    1C        C  560   2.565   3.879   4.366
    1C        C  561   2.584   3.949   4.487
    1C        C  562   2.529   3.747   4.612
    1C        C  563   2.554   3.886   4.609
    1C        C  564   2.516   3.680   4.735
    1C        C  565   2.517   3.759   4.853
    1C        C  566   2.535   3.547   4.975
    1C        C  567   2.518   3.685   4.972
    1C        C  568   3.325   4.481   2.038
    1C        C  569   3.394   4.516   2.155
    1C        C  570   3.183   4.476   2.279
    1C        C  571   3.321   4.509   2.277
    1C        C  572   3.114   4.457   2.400
    1C        C  573   3.183   4.480   2.521
    1C        C  574   2.987   4.400   2.644
    1C        C  575   3.113   4.463   2.643
    1C        C  576   2.934   4.356   2.767
    1C        C  577   2.991   4.398   2.889
    1C        C  578   2.822   4.273   3.013
    1C        C  579   2.933   4.360   3.012
    1C        C  580   2.774   4.222   3.136
    1C        C  581   2.829   4.269   3.258
    1C        C  582   2.693   4.113   3.382
    1C        C  583   2.780   4.224   3.382
    1C        C  584   2.656   4.056   3.506
    1C        C  585   2.696   4.115   3.628
    1C        C  586   2.590   3.935   3.753
    1C        C  587   2.657   4.060   3.753
    1C        C  588   2.562   3.872   3.876
    1C        C  589   2.592   3.936   3.998
    1C        C  590   2.534   3.737   4.123
    1C        C  591   2.562   3.875   4.122
    1C        C  592   2.520   3.670   4.247
    1C        C  593   2.532   3.741   4.369
    1C        C  594   2.513   3.532   4.493
    1C        C  595   2.519   3.673   4.492
    1C        C  596   2.518   3.464   4.617
    1C        C  597   2.517   3.537   4.737
    1C        C  598   2.534   3.327   4.861
    1C        C  599   2.526   3.468   4.860
    1C        C  600   2.532   3.249   4.977
    1C        C  601   3.192   4.445   2.042
    1C        C  602   2.981   4.394   2.154
    1C        C  603   3.113   4.448   2.158
    1C        C  604   2.924   4.359   2.279
    1C        C  605   2.986   4.397   2.400
    1C        C  606   2.824   4.262   2.525
    1C        C  607   2.927   4.359   2.522
    1C        C  608   2.771   4.217   2.648
    1C        C  609   2.822   4.270   2.769
    1C        C  610   2.688   4.108   2.894
    1C        C  611   2.772   4.222   2.892
    1C        C  612   2.651   4.049   3.017
    1C        C  613   2.688   4.110   3.139
    1C        C  614   2.584   3.928   3.265
    1C        C  615   2.649   4.053   3.262
    1C        C  616   2.558   3.865   3.389
    1C        C  617   2.589   3.931   3.509
    1C        C  618   2.529   3.729   3.633
    1C        C  619   2.567   3.866   3.632
    1C        C  620   2.520   3.664   3.758
    1C        C  621   2.530   3.735   3.879
    1C        C  622   2.510   3.524   4.009
    1C        C  623   2.521   3.665   4.002
    1C        C  624   2.517   3.455   4.132
    1C        C  625   2.511   3.529   4.251
    1C        C  626   2.536   3.318   4.377
    1C        C  627   2.516   3.458   4.373
    1C        C  628   2.561   3.252   4.499
    1C        C  629   2.541   3.324   4.618
    1C        C  630   2.601   3.121   4.741
    1C        C  631   2.555   3.255   4.741
    1C        C  632   2.613   3.048   4.862
    1C        C  633   2.564   3.113   4.980
    1C        C  634   2.784   4.299   2.050
    1C        C  635   2.889   4.392   2.044
    1C        C  636   2.751   4.225   2.164
    1C        C  637   2.812   4.271   2.283
    1C        C  638   2.680   4.104   2.408
    1C        C  639   2.764   4.218   2.405
    1C        C  640   2.643   4.044   2.530
    1C        C  641   2.689   4.102   2.650
    1C        C  642   2.585   3.919   2.775
    1C        C  643   2.650   4.045   2.773
    1C        C  644   2.560   3.855   2.899
    1C        C  645   2.591   3.921   3.020
    1C        C  646   2.518   3.724   3.147
    1C        C  647   2.560   3.859   3.144
    1C        C  648   2.510   3.655   3.270
    1C        C  649   2.526   3.727   3.390
    1C        C  650   2.508   3.516   3.517
    1C        C  651   2.515   3.657   3.512
    1C        C  652   2.516   3.450   3.642
    1C        C  653   2.513   3.523   3.763
    1C        C  654   2.537   3.314   3.887
    1C        C  655   2.512   3.453   3.886
    1C        C  656   2.557   3.248   4.010
    1C        C  657   2.537   3.315   4.133
    1C        C  658   2.605   3.116   4.253
    1C        C  659   2.551   3.247   4.256
    1C        C  660   2.636   3.054   4.376
    1C        C  661   2.608   3.119   4.498
    1C        C  662   2.714   2.936   4.624
    1C        C  663   2.641   3.057   4.621
    1C        C  664   2.750   2.874   4.746
    1C        C  665   2.698   2.933   4.865
    1C        C  666   2.743   2.869   4.981
    1C        C  667   2.682   4.020   2.052
    1C        C  668   2.682   4.102   2.165
    1C        C  669   2.584   3.912   2.289
    1C        C  670   2.645   4.040   2.287
    1C        C  671   2.553   3.847   2.411
    1C        C  672   2.581   3.918   2.530
    1C        C  673   2.519   3.718   2.657
    1C        C  674   2.557   3.854   2.654
    1C        C  675   2.510   3.648   2.780
    1C        C  676   2.522   3.719   2.902
    1C        C  677   2.505   3.511   3.028
    1C        C  678   2.510   3.652   3.026
    1C        C  679   2.507   3.442   3.151
    1C        C  680   2.505   3.514   3.273
    1C        C  681   2.537   3.305   3.396
    1C        C  682   2.511   3.444   3.396
    1C        C  683   2.552   3.241   3.521
    1C        C  684   2.536   3.311   3.643
    1C        C  685   2.601   3.111   3.766
    1C        C  686   2.552   3.243   3.766
    1C        C  687   2.630   3.048   3.889
    1C        C  688   2.603   3.115   4.011
    1C        C  689   2.713   2.932   4.137
    1C        C  690   2.634   3.049   4.132
    1C        C  691   2.757   2.877   4.260
    1C        C  692   2.716   2.938   4.381
    1C        C  693   2.761   2.881   4.503
    1C        C  694   2.625   3.892   2.054
    1C        C  695   2.532   3.700   2.174
    1C        C  696   2.579   3.833   2.172
    1C        C  697   2.509   3.634   2.297
    1C        C  698   2.523   3.709   2.415
    1C        C  699   2.491   3.502   2.539
    1C        C  700   2.504   3.643   2.539
    1C        C  701   2.507   3.435   2.662
    1C        C  702   2.505   3.507   2.784
    1C        C  703   2.525   3.298   2.909
    1C        C  704   2.507   3.438   2.907
    1C        C  705   2.547   3.230   3.031
    1C        C  706   2.530   3.303   3.151
    1C        C  707   2.599   3.103   3.275
    1C        C  708   2.548   3.235   3.274
    1C        C  709   2.634   3.045   3.399
    1C        C  710   2.607   3.110   3.522
    1C        C  711   2.712   2.929   3.645
    1C        C  712   2.632   3.046   3.645
    1C        C  713   2.756   2.876   3.769
    1C        C  714   2.711   2.932   3.890
    1C        C  715   2.755   2.879   4.013
    1C        C  716   2.449   3.497   2.060
    1C        C  717   2.491   3.630   2.059
    1C        C  718   2.460   3.420   2.180
    1C        C  719   2.479   3.495   2.300
    1C        C  720   2.514   3.285   2.424
    1C        C  721   2.486   3.424   2.422
    1C        C  722   2.535   3.219   2.547
    1C        C  723   2.523   3.295   2.665
    1C        C  724   2.593   3.096   2.787
    1C        C  725   2.538   3.226   2.788
    1C        C  726   2.622   3.031   2.910
    1C        C  727   2.594   3.097   3.031
    1C        C  728   2.705   2.918   3.156
    1C        C  729   2.629   3.037   3.154
    1C        C  730   2.753   2.866   3.278
    1C        C  731   2.712   2.927   3.399
    1C        C  732   2.751   2.871   3.523
    1C        C  733   2.489   3.195   2.073
    1C        C  734   2.487   3.279   2.185
    1C        C  735   2.583   3.082   2.303
    1C        C  736   2.523   3.211   2.304
    1C        C  737   2.610   3.016   2.425
    1C        C  738   2.585   3.087   2.544
    1C        C  739   2.694   2.906   2.666
    1C        C  740   2.621   3.028   2.667
    1C        C  741   2.737   2.850   2.788
    1C        C  742   2.698   2.912   2.909
    1C        C  743   2.747   2.864   3.032
    1C        C  744   2.538   3.065   2.073
    1C        C  745   2.679   2.892   2.184
    1C        C  746   2.613   3.017   2.181
    1C        C  747   2.727   2.836   2.304
    1C        C  748   2.681   2.894   2.425
    1C        C  749   2.734   2.844   2.546
    1C        C  750   2.738   2.837   2.069
    1C        C  751   3.667   2.314   1.976
    1C        O  752   3.670   2.189   1.988
    1C        O  753   3.638   2.338   1.841
    1C        C  754   4.622   3.047   1.968
    1C        O  755   4.588   3.001   1.855
    1C        O  756   4.734   2.982   2.021
    1C        C  757   4.444   4.217   1.964
    1C        O  758   4.518   4.310   2.006
    1C        O  759   4.444   4.206   1.824
    1C        C  760   3.619   4.692   1.977
    1C        O  761   3.665   4.795   2.034
    1C        O  762   3.617   4.713   1.839
    1C        C  763   2.871   4.508   1.953
    1C        O  764   2.879   4.494   1.828
    1C        O  765   2.814   4.626   2.001
    1C        C  766   2.329   3.469   1.979
    1C        O  767   2.347   3.433   1.860
    1C        O  768   2.209   3.538   2.002
    1C        C  769   4.681   3.595   5.064
    1C        O  770   4.655   3.619   5.185
    1C        O  771   4.812   3.632   5.033
    1C        C  772   4.274   4.462   5.025
    1C        O  773   4.301   4.411   5.137
    1C        O  774   4.334   4.586   4.997
    1C        C  775   4.115   2.557   5.108
    1C        O  776   4.223   2.493   5.121
    1C        O  777   4.061   2.602   5.229
    1C        C  778   2.903   4.508   5.084
    1C        O  779   2.830   4.610   5.098
    1C        O  780   2.941   4.448   5.204
    1C        C  781   2.490   3.048   5.091
    1C        O  782   2.379   2.990   5.079
    1C        O  783   2.542   3.059   5.219
    1C        C  784   2.406   3.988   5.050
    1C        O  785   2.296   3.944   5.007
    1C        O  786   2.416   3.979   5.189
    1C        C  787   2.955   2.453   1.969
    1C        O  788   3.003   2.436   1.854
    1C        O  789   2.863   2.352   1.996
    1C        C  790   3.194   2.391   5.082
    1C        O  791   3.172   2.271   5.048
    1C        O  792   3.167   2.414   5.218
    1C        H  793   4.267   3.025   5.054
    1C        H  794   4.216   2.789   5.070
    1C        H  795   4.497   3.137   5.064
    1C        H  796   4.576   3.339   5.052
    1C        H  797   4.570   3.811   5.040
    1C        H  798   4.434   3.978   5.052
    1C        H  799   4.284   4.164   5.052
    1C        H  800   4.021   4.517   5.031
    1C        H  801   3.814   4.582   5.041
    1C        H  802   3.577   4.620   5.040
    1C        H  803   3.380   4.548   5.047
    1C        H  804   3.175   4.413   5.033
    1C        H  805   3.879   2.496   5.067
    1C        H  806   3.681   2.446   5.068
    1C        H  807   3.014   2.577   5.070
    1C        H  808   3.439   2.449   5.069
    1C        H  809   2.897   2.769   5.075
    1C        H  810   2.683   2.876   5.070
    1C        H  811   2.477   3.290   5.060
    1C        H  812   2.544   3.505   5.073
    1C        H  813   2.445   3.720   5.043
    1C        H  814   2.580   4.185   5.038
    1C        H  815   2.785   4.285   5.050
    1C        H  816   2.703   2.869   1.973
    1C        H  817   2.881   2.719   1.975
    1C        H  818   3.212   2.445   1.983
    1C        H  819   3.433   2.463   1.979
    1C        H  820   3.832   2.566   1.980
    1C        H  821   4.054   2.645   1.967
    1C        H  822   4.261   2.713   1.971
    1C        H  823   4.417   2.886   1.976
    1C        H  824   4.605   3.303   1.976
    1C        H  825   4.535   3.511   1.959
    1C        H  826   4.547   3.747   1.963
    1C        H  827   3.784   4.480   1.943
    1C        H  828   3.969   4.382   1.940
    1C        H  829   4.183   4.300   1.955
    1C        H  830   4.530   3.978   1.988
    1C        H  831   2.653   3.833   1.970
    1C        H  832   2.729   4.054   1.961
    1C        H  833   2.698   4.336   1.999
    1C        H  834   3.356   4.528   1.947
    1C        H  835   3.139   4.470   1.952
    1C        H  836   2.470   2.992   2.033
    1C        H  837   2.471   3.238   1.976
    1C        H  838   2.450   3.696   1.985
    2V3OU   H29  839   2.803   3.547   5.277
    2V3OU   C27  840   2.783   3.504   5.379
    2V3OU   H27  841   2.719   3.566   5.446
    2V3OU   H28  842   2.726   3.409   5.360
    2V3OU   O11  843   2.907   3.472   5.442
    2V3OU   C15  844   2.918   3.391   5.553
    2V3OU   C13  845   3.048   3.368   5.603
    2V3OU   C14  846   3.075   3.263   5.692
    2V3OU   C16  847   2.971   3.184   5.741
    2V3OU    H6  848   2.991   3.100   5.809
    2V3OU   C12  849   3.214   3.230   5.732
    2V3OU    O2  850   3.238   3.129   5.801
    2V3OU   C10  851   3.324   3.306   5.671
    2V3OU    C8  852   3.457   3.268   5.686
    2V3OU   O10  853   3.493   3.154   5.750
    2V3OU   H26  854   3.408   3.119   5.784
    2V3OU    C6  855   3.562   3.349   5.633
    2V3OU    C5  856   3.534   3.466   5.564
    2V3OU    C4  857   3.699   3.290   5.627
    2V3OU    H4  858   3.723   3.229   5.719
    2V3OU    H5  859   3.707   3.221   5.537
    2V3OU    C2  860   3.813   3.392   5.629
    2V3OU    O6  861   3.801   3.469   5.749
    2V3OU   H21  862   3.759   3.548   5.711
    2V3OU    C3  863   3.780   3.492   5.518
    2V3OU    H2  864   3.860   3.570   5.520
    2V3OU    H3  865   3.781   3.441   5.418
    2V3OU   C25  866   3.949   3.325   5.609
    2V3OU    O7  867   3.994   3.299   5.498
    2V3OU   C26  868   4.022   3.287   5.737
    2V3OU   H22  869   4.062   3.382   5.779
    2V3OU   H23  870   4.112   3.225   5.714
    2V3OU    O8  871   3.953   3.210   5.833
    2V3OU   H24  872   3.917   3.270   5.900
    2V3OU    C1  873   3.645   3.562   5.531
    2V3OU    H1  874   3.624   3.618   5.435
    2V3OU    O3  875   3.652   3.653   5.640
    2V3OU   C19  876   3.615   3.791   5.625
    2V3OU    H9  877   3.514   3.792   5.573
    2V3OU    O4  878   3.711   3.846   5.537
    2V3OU   C20  879   3.841   3.875   5.589
    2V3OU   H10  880   3.887   3.774   5.610
    2V3OU   C24  881   3.609   3.854   5.764
    2V3OU   H16  882   3.542   3.794   5.831
    2V3OU   H17  883   3.564   3.956   5.753
    2V3OU   C23  884   3.749   3.875   5.822
    2V3OU   H15  885   3.797   3.773   5.841
    2V3OU    N1  886   3.733   3.952   5.944
    2V3OU   H19  887   3.805   3.927   6.009
    2V3OU   H20  888   3.647   3.926   5.987
    2V3OU   C21  889   3.844   3.949   5.723
    2V3OU   H11  890   3.946   3.923   5.766
    2V3OU    O5  891   3.832   4.090   5.729
    2V3OU   H18  892   3.774   4.107   5.805
    2V3OU   C22  893   3.910   3.950   5.477
    2V3OU   H12  894   3.860   4.049   5.461
    2V3OU   H13  895   3.904   3.890   5.382
    2V3OU   H14  896   4.020   3.957   5.497
    2V3OU   C11  897   3.155   3.467   5.580
    2V3OU    O1  898   3.130   3.588   5.565
    2V3OU    C9  899   3.295   3.422   5.595
    2V3OU    C7  900   3.397   3.499   5.540
    2V3OU    O9  901   3.384   3.615   5.465
    2V3OU   H25  902   3.293   3.631   5.436
    2V3OU   C17  903   2.815   3.313   5.610
    2V3OU    H7  904   2.714   3.335   5.576
    2V3OU   C18  905   2.841   3.210   5.699
    2V3OU    H8  906   2.757   3.150   5.737
    3SOL     OW  907   3.869   2.971   4.165
    3SOL    HW1  908   3.934   3.046   4.153
    3SOL    HW2  909   3.814   2.960   4.083
    4SOL     OW  910   6.593   6.286   0.901
    4SOL    HW1  911   6.493   6.291   0.903
    4SOL    HW2  912   6.627   6.294   0.995
    5SOL     OW  913   4.678   1.980   0.392
    5SOL    HW1  914   4.614   1.964   0.317
    5SOL    HW2  915   4.772   1.972   0.359
    6SOL     OW  916   5.066   1.143   3.100
    6SOL    HW1  917   5.046   1.107   3.192
    6SOL    HW2  918   5.008   1.098   3.033
    7SOL     OW  919   1.712   3.958   4.029
    7SOL    HW1  920   1.652   3.994   3.959
    7SOL    HW2  921   1.799   3.930   3.988
    8SOL     OW  922   1.290   3.296   5.209
    8SOL    HW1  923   1.372   3.349   5.189
    8SOL    HW2  924   1.283   3.220   5.145
    9SOL     OW  925   0.193   1.001   6.794
    9SOL    HW1  926   0.258   0.998   6.718
    9SOL    HW2  927   0.112   0.948   6.771
   10SOL     OW  928   5.173   4.780   1.941
   10SOL    HW1  929   5.133   4.709   1.883
   10SOL    HW2  930   5.188   4.863   1.887
   11SOL     OW  931   2.153   2.481   0.170
   11SOL    HW1  932   2.077   2.490   0.105
   11SOL    HW2  933   2.121   2.433   0.251
   12SOL     OW  934   3.449   4.956   2.749
   12SOL    HW1  935   3.369   4.913   2.792
   12SOL    HW2  936   3.494   4.889   2.689
   13SOL     OW  937   5.701   6.047   1.005
   13SOL    HW1  938   5.793   6.009   1.000
   13SOL    HW2  939   5.633   5.974   0.999
   14SOL     OW  940   3.964   5.903   5.116
   14SOL    HW1  941   4.028   5.895   5.192
   14SOL    HW2  942   3.871   5.887   5.150
   15SOL     OW  943   0.517   6.527   6.038
   15SOL    HW1  944   0.546   6.521   5.942
   15SOL    HW2  945   0.419   6.546   6.042
   16SOL     OW  946   1.955   4.399   4.817
   16SOL    HW1  947   2.025   4.452   4.864
   16SOL    HW2  948   1.872   4.396   4.873
   17SOL     OW  949   6.325   1.482   5.870
   17SOL    HW1  950   6.385   1.409   5.905
   17SOL    HW2  951   6.245   1.441   5.828
   18SOL     OW  952   2.551   0.823   6.267
   18SOL    HW1  953   2.572   0.920   6.254
   18SOL    HW2  954   2.464   0.813   6.314
   19SOL     OW  955   2.848   6.966   3.050
   19SOL    HW1  956   2.817   0.039   3.072
   19SOL    HW2  957   2.863   6.958   2.952
   20SOL     OW  958   6.387   1.445   5.394
   20SOL    HW1  959   6.415   1.539   5.411
   20SOL    HW2  960   6.303   1.444   5.340
   21SOL     OW  961   2.573   4.582   2.793
   21SOL    HW1  962   2.499   4.532   2.749
   21SOL    HW2  963   2.632   4.623   2.724
   22SOL     OW  964   1.489   0.695   6.900
   22SOL    HW1  965   1.493   0.782   6.852
   22SOL    HW2  966   1.395   0.677   6.929
   23SOL     OW  967   5.818   4.818   1.536
   23SOL    HW1  968   5.783   4.879   1.607
   23SOL    HW2  969   5.757   4.740   1.527
   24SOL     OW  970   4.332   0.999   0.443
   24SOL    HW1  971   4.260   0.946   0.486
   24SOL    HW2  972   4.395   1.033   0.513
   25SOL     OW  973   1.754   1.207   4.606
   25SOL    HW1  974   1.851   1.211   4.580
   25SOL    HW2  975   1.717   1.299   4.611
   26SOL     OW  976   0.653   2.897   6.443
   26SOL    HW1  977   0.664   2.940   6.353
   26SOL    HW2  978   0.578   2.831   6.439
   27SOL     OW  979   5.844   0.397   1.591
   27SOL    HW1  980   5.934   0.377   1.550
   27SOL    HW2  981   5.773   0.387   1.521
   28SOL     OW  982   2.336   1.058   5.378
   28SOL    HW1  983   2.373   1.057   5.471
   28SOL    HW2  984   2.347   0.968   5.336
   29SOL     OW  985   0.637   6.747   1.201
   29SOL    HW1  986   0.618   6.691   1.282
   29SOL    HW2  987   0.633   6.844   1.226
   30SOL     OW  988   5.139   0.375   5.146
   30SOL    HW1  989   5.189   0.406   5.227
   30SOL    HW2  990   5.202   0.329   5.084
   31SOL     OW  991   0.896   3.285   5.002
   31SOL    HW1  992   0.940   3.306   5.090
   31SOL    HW2  993   0.895   3.186   4.989
   32SOL     OW  994   3.692   0.331   1.136
   32SOL    HW1  995   3.607   0.362   1.176
   32SOL    HW2  996   3.708   0.235   1.161
   33SOL     OW  997   1.563   5.844   6.060
   33SOL    HW1  998   1.492   5.826   6.128
   33SOL    HW2  999   1.650   5.807   6.093
   34SOL     OW 1000   2.522   5.201   5.253
   34SOL    HW1 1001   2.585   5.123   5.244
   34SOL    HW2 1002   2.508   5.222   5.349
   35SOL     OW 1003   2.215   3.541   6.756
   35SOL    HW1 1004   2.248   3.601   6.829
   35SOL    HW2 1005   2.282   3.469   6.740
   36SOL     OW 1006   3.927   1.060   4.108
   36SOL    HW1 1007   3.957   0.987   4.048
   36SOL    HW2 1008   3.839   1.096   4.076
   37SOL     OW 1009   2.835   0.318   4.071
   37SOL    HW1 1010   2.933   0.297   4.079
   37SOL    HW2 1011   2.781   0.242   4.107
   38SOL     OW 1012   1.285   3.656   2.921
   38SOL    HW1 1013   1.198   3.609   2.938
   38SOL    HW2 1014   1.274   3.754   2.939
   39SOL     OW 1015   0.136   4.660   0.692
   39SOL    HW1 1016   0.037   4.652   0.678
   39SOL    HW2 1017   0.156   4.746   0.739
   40SOL     OW 1018   4.722   1.586   0.911
   40SOL    HW1 1019   4.731   1.683   0.930
   40SOL    HW2 1020   4.678   1.573   0.823
   41SOL     OW 1021   5.400   3.864   1.748
   41SOL    HW1 1022   5.307   3.847   1.780
   41SOL    HW2 1023   5.461   3.791   1.779
   42SOL     OW 1024   2.487   4.831   6.651
   42SOL    HW1 1025   2.527   4.920   6.633
   42SOL    HW2 1026   2.397   4.825   6.607
   43SOL     OW 1027   4.221   6.744   4.959
   43SOL    HW1 1028   4.125   6.731   4.983
   43SOL    HW2 1029   4.229   6.762   4.861
   44SOL     OW 1030   6.673   1.202   5.788
   44SOL    HW1 1031   6.762   1.182   5.748
   44SOL    HW2 1032   6.634   1.282   5.743
   45SOL     OW 1033   2.441   4.941   5.900
   45SOL    HW1 1034   2.506   5.012   5.925
   45SOL    HW2 1035   2.348   4.977   5.904
   46SOL     OW 1036   0.702   3.391   4.407
   46SOL    HW1 1037   0.740   3.424   4.320
   46SOL    HW2 1038   0.610   3.427   4.418
   47SOL     OW 1039   6.773   3.782   0.661
   47SOL    HW1 1040   6.722   3.700   0.635
   47SOL    HW2 1041   6.719   3.864   0.639
   48SOL     OW 1042   5.987   3.624   0.828
   48SOL    HW1 1043   5.926   3.673   0.766
   48SOL    HW2 1044   6.029   3.547   0.780
   49SOL     OW 1045   3.274   4.018   6.493
   49SOL    HW1 1046   3.228   4.028   6.581
   49SOL    HW2 1047   3.273   4.105   6.445
   50SOL     OW 1048   6.304   2.220   0.395
   50SOL    HW1 1049   6.341   2.197   0.305
   50SOL    HW2 1050   6.341   2.158   0.464
   51SOL     OW 1051   2.020   5.474   2.988
   51SOL    HW1 1052   1.988   5.388   2.947
   51SOL    HW2 1053   1.964   5.549   2.953
   52SOL     OW 1054   6.060   3.400   1.874
   52SOL    HW1 1055   6.070   3.410   1.973
   52SOL    HW2 1056   6.147   3.420   1.829
   53SOL     OW 1057   3.945   0.709   1.843
   53SOL    HW1 1058   3.938   0.612   1.821
   53SOL    HW2 1059   3.872   0.734   1.908
   54SOL     OW 1060   5.356   0.388   6.705
   54SOL    HW1 1061   5.446   0.345   6.701
   54SOL    HW2 1062   5.362   0.483   6.674
   55SOL     OW 1063   1.358   3.802   6.191
   55SOL    HW1 1064   1.378   3.880   6.250
   55SOL    HW2 1065   1.322   3.727   6.246
   56SOL     OW 1066   0.491   2.453   6.763
   56SOL    HW1 1067   0.394   2.447   6.742
   56SOL    HW2 1068   0.522   2.366   6.803
   57SOL     OW 1069   4.500   6.227   0.227
   57SOL    HW1 1070   4.539   6.254   0.139
   57SOL    HW2 1071   4.473   6.131   0.224
   58SOL     OW 1072   0.345   0.101   0.452
   58SOL    HW1 1073   0.403   0.043   0.509
   58SOL    HW2 1074   0.392   0.122   0.367
   59SOL     OW 1075   4.899   3.157   5.459
   59SOL    HW1 1076   4.965   3.162   5.534
   59SOL    HW2 1077   4.897   3.244   5.411
   60SOL     OW 1078   4.952   1.912   2.063
   60SOL    HW1 1079   4.971   1.992   2.120
   60SOL    HW2 1080   5.005   1.834   2.095
   61SOL     OW 1081   1.050   6.011   4.279
   61SOL    HW1 1082   1.143   6.004   4.314
   61SOL    HW2 1083   1.043   5.962   4.192
   62SOL     OW 1084   5.803   3.153   2.701
   62SOL    HW1 1085   5.745   3.101   2.639
   62SOL    HW2 1086   5.882   3.097   2.727
   63SOL     OW 1087   3.984   7.002   6.117
   63SOL    HW1 1088   3.946   7.009   6.209
   63SOL    HW2 1089   3.932   0.042   6.055
   64SOL     OW 1090   0.749   3.908   5.016
   64SOL    HW1 1091   0.801   3.992   4.996
   64SOL    HW2 1092   0.800   3.829   4.983
   65SOL     OW 1093   0.637   6.282   4.980
   65SOL    HW1 1094   0.550   6.275   4.931
   65SOL    HW2 1095   0.713   6.264   4.917
   66SOL     OW 1096   3.690   1.069   2.504
   66SOL    HW1 1097   3.602   1.080   2.550
   66SOL    HW2 1098   3.684   0.992   2.440
   67SOL     OW 1099   0.114   3.118   1.276
   67SOL    HW1 1100   0.106   3.135   1.178
   67SOL    HW2 1101   0.067   3.033   1.299
   68SOL     OW 1102   6.541   1.679   6.127
   68SOL    HW1 1103   6.549   1.665   6.226
   68SOL    HW2 1104   6.602   1.753   6.099
   69SOL     OW 1105   1.271   6.024   6.265
   69SOL    HW1 1106   1.232   5.943   6.221
   69SOL    HW2 1107   1.258   6.017   6.364
   70SOL     OW 1108   5.246   3.735   3.684
   70SOL    HW1 1109   5.244   3.740   3.784
   70SOL    HW2 1110   5.259   3.826   3.646
   71SOL     OW 1111   5.160   2.265   4.118
   71SOL    HW1 1112   5.179   2.179   4.070
   71SOL    HW2 1113   5.066   2.262   4.154
   72SOL     OW 1114   0.606   0.601   2.797
   72SOL    HW1 1115   0.659   0.684   2.817
   72SOL    HW2 1116   0.636   0.528   2.858
   73SOL     OW 1117   3.271   0.614   0.631
   73SOL    HW1 1118   3.305   0.533   0.678
   73SOL    HW2 1119   3.349   0.673   0.607
   74SOL     OW 1120   2.521   2.919   1.191
   74SOL    HW1 1121   2.573   2.835   1.177
   74SOL    HW2 1122   2.446   2.901   1.255
   75SOL     OW 1123   3.098   3.238   0.938
   75SOL    HW1 1124   3.064   3.197   0.853
   75SOL    HW2 1125   3.187   3.280   0.921
   76SOL     OW 1126   3.493   4.412   5.256
   76SOL    HW1 1127   3.519   4.373   5.344
   76SOL    HW2 1128   3.481   4.339   5.188
   77SOL     OW 1129   0.580   5.539   4.374
   77SOL    HW1 1130   0.514   5.610   4.396
   77SOL    HW2 1131   0.595   5.481   4.455
   78SOL     OW 1132   4.992   1.791   1.362
   78SOL    HW1 1133   4.947   1.817   1.448
   78SOL    HW2 1134   4.987   1.867   1.298
   79SOL     OW 1135   0.812   4.726   3.471
   79SOL    HW1 1136   0.874   4.711   3.394
   79SOL    HW2 1137   0.730   4.670   3.460
   80SOL     OW 1138   3.717   1.278   5.672
   80SOL    HW1 1139   3.788   1.338   5.634
   80SOL    HW2 1140   3.629   1.299   5.629
   81SOL     OW 1141   4.479   5.089   1.716
   81SOL    HW1 1142   4.504   5.039   1.798
   81SOL    HW2 1143   4.542   5.166   1.703
   82SOL     OW 1144   2.785   6.160   2.069
   82SOL    HW1 1145   2.782   6.179   1.970
   82SOL    HW2 1146   2.838   6.076   2.084
   83SOL     OW 1147   5.362   1.317   4.521
   83SOL    HW1 1148   5.324   1.390   4.578
   83SOL    HW2 1149   5.439   1.275   4.569
   84SOL     OW 1150   5.718   2.539   2.265
   84SOL    HW1 1151   5.627   2.543   2.305
   84SOL    HW2 1152   5.784   2.511   2.335
   85SOL     OW 1153   2.727   6.506   4.038
   85SOL    HW1 1154   2.669   6.587   4.048
   85SOL    HW2 1155   2.822   6.534   4.027
   86SOL     OW 1156   5.595   0.016   0.222
   86SOL    HW1 1157   5.601   0.091   0.289
   86SOL    HW2 1158   5.535   0.043   0.147
   87SOL     OW 1159   2.210   3.939   6.170
   87SOL    HW1 1160   2.173   3.878   6.100
   87SOL    HW2 1161   2.242   4.023   6.127
   88SOL     OW 1162   3.081   3.304   1.421
   88SOL    HW1 1163   3.029   3.313   1.336
   88SOL    HW2 1164   3.055   3.219   1.466
   89SOL     OW 1165   3.159   4.050   3.848
   89SOL    HW1 1166   3.255   4.066   3.827
   89SOL    HW2 1167   3.125   3.973   3.793
   90SOL     OW 1168   5.042   3.471   2.018
   90SOL    HW1 1169   5.054   3.473   1.918
   90SOL    HW2 1170   4.967   3.408   2.041
   91SOL     OW 1171   4.512   5.266   5.643
   91SOL    HW1 1172   4.499   5.169   5.664
   91SOL    HW2 1173   4.470   5.287   5.555
   92SOL     OW 1174   5.052   3.994   0.146
   92SOL    HW1 1175   5.078   4.071   0.088
   92SOL    HW2 1176   5.020   3.918   0.089
   93SOL     OW 1177   2.976   3.821   2.022
   93SOL    HW1 1178   2.967   3.832   1.923
   93SOL    HW2 1179   3.032   3.895   2.059
   94SOL     OW 1180   3.433   2.097   4.503
   94SOL    HW1 1181   3.456   2.111   4.599
   94SOL    HW2 1182   3.517   2.078   4.451
   95SOL     OW 1183   0.568   0.270   4.049
   95SOL    HW1 1184   0.491   0.334   4.049
   95SOL    HW2 1185   0.543   0.188   4.100
   96SOL     OW 1186   6.355   5.067   0.057
   96SOL    HW1 1187   6.320   5.161   0.060
   96SOL    HW2 1188   6.431   5.062   7.011
   97SOL     OW 1189   2.157   4.216   5.489
   97SOL    HW1 1190   2.237   4.262   5.527
   97SOL    HW2 1191   2.176   4.119   5.478
   98SOL     OW 1192   2.020   2.341   3.316
   98SOL    HW1 1193   2.096   2.336   3.250
   98SOL    HW2 1194   1.946   2.281   3.285
   99SOL     OW 1195   3.626   3.995   5.280
   99SOL    HW1 1196   3.574   3.994   5.194
   99SOL    HW2 1197   3.665   3.904   5.295
  100SOL     OW 1198   6.779   0.767   4.752
  100SOL    HW1 1199   6.775   0.784   4.850
  100SOL    HW2 1200   6.725   0.685   4.731
  101SOL     OW 1201   5.790   4.155   2.095
  101SOL    HW1 1202   5.850   4.096   2.149
  101SOL    HW2 1203   5.772   4.112   2.007
  102SOL     OW 1204   4.482   0.014   0.329
  102SOL    HW1 1205   4.579   0.003   0.308
  102SOL    HW2 1206   4.472   0.083   0.400
  103SOL     OW 1207   2.243   1.139   2.429
  103SOL    HW1 1208   2.280   1.213   2.372
  103SOL    HW2 1209   2.319   1.089   2.471
  104SOL     OW 1210   6.377   4.994   1.987
  104SOL    HW1 1211   6.440   4.917   1.975
  104SOL    HW2 1212   6.426   5.070   2.029
  105SOL     OW 1213   6.553   0.729   5.733
  105SOL    HW1 1214   6.639   0.731   5.681
  105SOL    HW2 1215   6.542   0.639   5.775
  106SOL     OW 1216   4.494   3.982   1.298
  106SOL    HW1 1217   4.486   4.013   1.393
  106SOL    HW2 1218   4.578   4.019   1.258
  107SOL     OW 1219   5.496   0.375   1.633
  107SOL    HW1 1220   5.545   0.400   1.549
  107SOL    HW2 1221   5.442   0.292   1.617
  108SOL     OW 1222   2.604   1.132   4.210
  108SOL    HW1 1223   2.616   1.095   4.302
  108SOL    HW2 1224   2.536   1.206   4.213
  109SOL     OW 1225   1.877   1.523   4.318
  109SOL    HW1 1226   1.858   1.481   4.229
  109SOL    HW2 1227   1.832   1.470   4.390
  110SOL     OW 1228   3.345   4.085   5.940
  110SOL    HW1 1229   3.306   4.009   5.888
  110SOL    HW2 1230   3.290   4.102   6.021
  111SOL     OW 1231   6.312   3.063   1.325
  111SOL    HW1 1232   6.255   2.999   1.377
  111SOL    HW2 1233   6.306   3.042   1.228
  112SOL     OW 1234   5.094   6.356   6.195
  112SOL    HW1 1235   5.189   6.334   6.215
  112SOL    HW2 1236   5.090   6.414   6.113
  113SOL     OW 1237   0.522   5.544   2.726
  113SOL    HW1 1238   0.508   5.498   2.639
  113SOL    HW2 1239   0.554   5.479   2.794
  114SOL     OW 1240   6.545   2.539   2.063
  114SOL    HW1 1241   6.561   2.637   2.050
  114SOL    HW2 1242   6.598   2.487   1.996
  115SOL     OW 1243   5.673   0.030   3.463
  115SOL    HW1 1244   5.612   0.095   3.417
  115SOL    HW2 1245   5.709   6.984   3.396
  116SOL     OW 1246   0.513   4.919   0.382
  116SOL    HW1 1247   0.490   4.935   0.286
  116SOL    HW2 1248   0.514   5.006   0.432
  117SOL     OW 1249   2.288   2.720   0.166
  117SOL    HW1 1250   2.268   2.622   0.161
  117SOL    HW2 1251   2.380   2.737   0.132
  118SOL     OW 1252   0.137   2.062   2.946
  118SOL    HW1 1253   0.156   1.964   2.945
  118SOL    HW2 1254   0.097   2.087   3.035
  119SOL     OW 1255   6.205   0.203   5.662
  119SOL    HW1 1256   6.124   0.212   5.721
  119SOL    HW2 1257   6.177   0.210   5.566
  120SOL     OW 1258   5.291   2.272   4.653
  120SOL    HW1 1259   5.247   2.182   4.654
  120SOL    HW2 1260   5.303   2.303   4.559
  121SOL     OW 1261   0.756   5.060   6.696
  121SOL    HW1 1262   0.815   5.126   6.649
  121SOL    HW2 1263   0.812   5.000   6.753
  122SOL     OW 1264   6.716   4.657   6.478
  122SOL    HW1 1265   6.775   4.725   6.434
  122SOL    HW2 1266   6.709   4.576   6.419
  123SOL     OW 1267   0.756   2.475   1.581
  123SOL    HW1 1268   0.702   2.515   1.507
  123SOL    HW2 1269   0.816   2.545   1.620
  124SOL     OW 1270   1.744   2.855   6.834
  124SOL    HW1 1271   1.766   2.777   6.776
  124SOL    HW2 1272   1.674   2.911   6.788
  125SOL     OW 1273   4.531   3.309   0.458
  125SOL    HW1 1274   4.551   3.398   0.418
  125SOL    HW2 1275   4.432   3.300   0.471
  126SOL     OW 1276   3.745   2.963   4.639
  126SOL    HW1 1277   3.676   2.894   4.662
  126SOL    HW2 1278   3.708   3.026   4.570
  127SOL     OW 1279   0.217   5.419   5.773
  127SOL    HW1 1280   0.221   5.519   5.761
  127SOL    HW2 1281   0.256   5.394   5.861
  128SOL     OW 1282   4.814   3.900   6.989
  128SOL    HW1 1283   4.874   3.827   0.001
  128SOL    HW2 1284   4.729   3.861   6.953
  129SOL     OW 1285   1.407   5.918   2.348
  129SOL    HW1 1286   1.328   5.948   2.295
  129SOL    HW2 1287   1.413   5.819   2.347
  130SOL     OW 1288   6.419   3.217   3.632
  130SOL    HW1 1289   6.361   3.295   3.609
  130SOL    HW2 1290   6.512   3.249   3.650
  131SOL     OW 1291   0.197   2.646   3.583
  131SOL    HW1 1292   0.136   2.671   3.509
  131SOL    HW2 1293   0.217   2.548   3.578
  132SOL     OW 1294   3.278   2.995   1.567
  132SOL    HW1 1295   3.352   3.060   1.553
  132SOL    HW2 1296   3.274   2.969   1.663
  133SOL     OW 1297   5.884   6.541   6.524
  133SOL    HW1 1298   5.894   6.476   6.600
  133SOL    HW2 1299   5.904   6.633   6.555
  134SOL     OW 1300   5.817   1.428   1.479
  134SOL    HW1 1301   5.812   1.453   1.383
  134SOL    HW2 1302   5.889   1.481   1.524
  135SOL     OW 1303   4.942   3.316   3.943
  135SOL    HW1 1304   4.938   3.377   3.864
  135SOL    HW2 1305   5.007   3.242   3.925
  136SOL     OW 1306   3.354   0.466   6.252
  136SOL    HW1 1307   3.349   0.468   6.152
  136SOL    HW2 1308   3.277   0.516   6.290
  137SOL     OW 1309   3.182   3.348   6.266
  137SOL    HW1 1310   3.254   3.279   6.273
  137SOL    HW2 1311   3.222   3.437   6.244
  138SOL     OW 1312   0.874   5.394   6.104
  138SOL    HW1 1313   0.824   5.364   6.023
  138SOL    HW2 1314   0.955   5.337   6.117
  139SOL     OW 1315   1.684   6.676   0.794
  139SOL    HW1 1316   1.748   6.635   0.730
  139SOL    HW2 1317   1.688   6.775   0.786
  140SOL     OW 1318   3.695   0.297   0.734
  140SOL    HW1 1319   3.618   0.276   0.795
  140SOL    HW2 1320   3.766   0.346   0.785
  141SOL     OW 1321   0.345   2.803   0.908
  141SOL    HW1 1322   0.407   2.745   0.855
  141SOL    HW2 1323   0.386   2.893   0.922
  142SOL     OW 1324   1.749   3.892   1.068
  142SOL    HW1 1325   1.675   3.945   1.109
  142SOL    HW2 1326   1.832   3.947   1.065
  143SOL     OW 1327   4.703   6.586   2.221
  143SOL    HW1 1328   4.658   6.604   2.308
  143SOL    HW2 1329   4.800   6.568   2.236
  144SOL     OW 1330   3.230   5.467   3.546
  144SOL    HW1 1331   3.235   5.408   3.627
  144SOL    HW2 1332   3.244   5.562   3.574
  145SOL     OW 1333   0.118   4.326   3.243
  145SOL    HW1 1334   0.045   4.310   3.177
  145SOL    HW2 1335   0.092   4.289   3.332
  146SOL     OW 1336   5.027   0.389   5.996
  146SOL    HW1 1337   5.011   0.471   5.942
  146SOL    HW2 1338   4.939   0.347   6.019
  147SOL     OW 1339   4.764   1.287   5.151
  147SOL    HW1 1340   4.776   1.382   5.121
  147SOL    HW2 1341   4.673   1.276   5.191
  148SOL     OW 1342   1.753   5.734   1.673
  148SOL    HW1 1343   1.844   5.721   1.634
  148SOL    HW2 1344   1.758   5.802   1.747
  149SOL     OW 1345   2.237   2.214   4.764
  149SOL    HW1 1346   2.297   2.226   4.685
  149SOL    HW2 1347   2.292   2.190   4.844
  150SOL     OW 1348   4.476   1.629   5.275
  150SOL    HW1 1349   4.479   1.643   5.176
  150SOL    HW2 1350   4.459   1.717   5.320
  151SOL     OW 1351   4.567   3.241   1.118
  151SOL    HW1 1352   4.586   3.181   1.040
  151SOL    HW2 1353   4.643   3.236   1.183
  152SOL     OW 1354   0.173   2.271   0.395
  152SOL    HW1 1355   0.256   2.223   0.366
  152SOL    HW2 1356   0.190   2.370   0.394
  153SOL     OW 1357   2.769   1.512   3.495
  153SOL    HW1 1358   2.805   1.496   3.403
  153SOL    HW2 1359   2.801   1.601   3.528
  154SOL     OW 1360   6.927   1.921   2.697
  154SOL    HW1 1361   6.921   1.986   2.621
  154SOL    HW2 1362   0.002   1.886   2.704
  155SOL     OW 1363   0.566   6.191   2.758
  155SOL    HW1 1364   0.484   6.217   2.707
  155SOL    HW2 1365   0.547   6.109   2.812
  156SOL     OW 1366   5.596   2.779   0.554
  156SOL    HW1 1367   5.662   2.835   0.503
  156SOL    HW2 1368   5.522   2.838   0.586
  157SOL     OW 1369   4.758   5.817   0.659
  157SOL    HW1 1370   4.730   5.734   0.706
  157SOL    HW2 1371   4.795   5.882   0.725
  158SOL     OW 1372   0.472   2.886   3.742
  158SOL    HW1 1373   0.434   2.830   3.817
  158SOL    HW2 1374   0.556   2.930   3.772
  159SOL     OW 1375   6.046   5.499   0.304
  159SOL    HW1 1376   5.981   5.497   0.228
  159SOL    HW2 1377   6.081   5.592   0.315
  160SOL     OW 1378   6.231   6.839   1.788
  160SOL    HW1 1379   6.319   6.790   1.792
  160SOL    HW2 1380   6.190   6.841   1.879
  161SOL     OW 1381   0.563   6.492   1.066
  161SOL    HW1 1382   0.578   6.425   1.139
  161SOL    HW2 1383   0.572   6.584   1.102
  162SOL     OW 1384   4.621   6.634   6.357
  162SOL    HW1 1385   4.553   6.664   6.424
  162SOL    HW2 1386   4.688   6.707   6.342
  163SOL     OW 1387   0.718   3.577   2.477
  163SOL    HW1 1388   0.754   3.582   2.383
  163SOL    HW2 1389   0.630   3.625   2.481
  164SOL     OW 1390   2.943   2.197   3.861
  164SOL    HW1 1391   2.853   2.231   3.831
  164SOL    HW2 1392   2.931   2.111   3.912
  165SOL     OW 1393   0.436   6.094   3.584
  165SOL    HW1 1394   0.462   6.010   3.537
  165SOL    HW2 1395   0.340   6.087   3.614
  166SOL     OW 1396   6.551   3.856   2.714
  166SOL    HW1 1397   6.527   3.944   2.672
  166SOL    HW2 1398   6.646   3.834   2.692
  167SOL     OW 1399   2.341   2.235   6.851
  167SOL    HW1 1400   2.423   2.245   6.908
  167SOL    HW2 1401   2.366   2.193   6.764
  168SOL     OW 1402   3.761   3.891   1.443
  168SOL    HW1 1403   3.764   3.873   1.344
  168SOL    HW2 1404   3.796   3.811   1.492
  169SOL     OW 1405   4.972   2.066   0.876
  169SOL    HW1 1406   4.947   2.160   0.901
  169SOL    HW2 1407   4.995   2.063   0.778
  170SOL     OW 1408   6.599   5.966   1.986
  170SOL    HW1 1409   6.627   5.870   1.982
  170SOL    HW2 1410   6.521   5.975   2.048
  171SOL     OW 1411   3.493   3.099   0.955
  171SOL    HW1 1412   3.572   3.089   0.895
  171SOL    HW2 1413   3.522   3.084   1.050
  172SOL     OW 1414   0.894   1.982   6.455
  172SOL    HW1 1415   0.893   1.933   6.367
  172SOL    HW2 1416   0.895   1.916   6.530
  173SOL     OW 1417   6.508   1.298   4.439
  173SOL    HW1 1418   6.586   1.307   4.502
  173SOL    HW2 1419   6.475   1.389   4.414
  174SOL     OW 1420   5.526   4.614   5.186
  174SOL    HW1 1421   5.596   4.659   5.130
  174SOL    HW2 1422   5.445   4.597   5.131
  175SOL     OW 1423   0.261   0.011   1.938
  175SOL    HW1 1424   0.247   6.949   1.995
  175SOL    HW2 1425   0.316   0.078   1.988
  176SOL     OW 1426   5.937   4.067   1.099
  176SOL    HW1 1427   5.908   4.049   1.192
  176SOL    HW2 1428   5.967   3.982   1.056
  177SOL     OW 1429   5.546   2.017   4.303
  177SOL    HW1 1430   5.588   2.047   4.218
  177SOL    HW2 1431   5.572   2.079   4.377
  178SOL     OW 1432   2.799   6.134   5.281
  178SOL    HW1 1433   2.855   6.205   5.239
  178SOL    HW2 1434   2.714   6.174   5.316
  179SOL     OW 1435   3.754   4.609   1.230
  179SOL    HW1 1436   3.668   4.564   1.255
  179SOL    HW2 1437   3.817   4.606   1.308
  180SOL     OW 1438   3.782   1.094   0.329
  180SOL    HW1 1439   3.862   1.129   0.281
  180SOL    HW2 1440   3.744   1.018   0.277
  181SOL     OW 1441   3.017   2.090   5.617
  181SOL    HW1 1442   2.973   2.050   5.697
  181SOL    HW2 1443   2.957   2.160   5.578
  182SOL     OW 1444   3.478   3.056   6.266
  182SOL    HW1 1445   3.440   3.130   6.322
  182SOL    HW2 1446   3.578   3.064   6.262
  183SOL     OW 1447   3.609   0.786   3.465
  183SOL    HW1 1448   3.703   0.817   3.452
  183SOL    HW2 1449   3.586   0.789   3.563
  184SOL     OW 1450   5.227   5.615   3.469
  184SOL    HW1 1451   5.245   5.689   3.405
  184SOL    HW2 1452   5.285   5.536   3.446
  185SOL     OW 1453   0.279   0.286   4.974
  185SOL    HW1 1454   0.253   0.340   5.054
  185SOL    HW2 1455   0.295   0.347   4.896
  186SOL     OW 1456   4.236   6.517   4.297
  186SOL    HW1 1457   4.200   6.424   4.311
  186SOL    HW2 1458   4.204   6.552   4.209
  187SOL     OW 1459   4.244   6.267   1.379
  187SOL    HW1 1460   4.291   6.192   1.424
  187SOL    HW2 1461   4.272   6.354   1.420
  188SOL     OW 1462   1.298   3.082   3.159
  188SOL    HW1 1463   1.231   3.023   3.205
  188SOL    HW2 1464   1.373   3.026   3.124
  189SOL     OW 1465   6.022   5.084   5.873
  189SOL    HW1 1466   6.004   5.182   5.867
  189SOL    HW2 1467   6.092   5.067   5.943
  190SOL     OW 1468   5.743   1.040   0.459
  190SOL    HW1 1469   5.759   1.085   0.371
  190SOL    HW2 1470   5.728   0.943   0.444
  191SOL     OW 1471   0.044   1.172   5.363
  191SOL    HW1 1472   0.081   1.085   5.397
  191SOL    HW2 1473   7.003   1.212   5.432
  192SOL     OW 1474   0.196   5.409   1.015
  192SOL    HW1 1475   0.201   5.368   0.924
  192SOL    HW2 1476   0.164   5.503   1.008
  193SOL     OW 1477   2.728   6.686   0.458
  193SOL    HW1 1478   2.751   6.783   0.470
  193SOL    HW2 1479   2.810   6.630   0.470
  194SOL     OW 1480   3.866   6.495   1.768
  194SOL    HW1 1481   3.954   6.510   1.723
  194SOL    HW2 1482   3.805   6.571   1.748
  195SOL     OW 1483   3.388   1.430   0.909
  195SOL    HW1 1484   3.461   1.373   0.871
  195SOL    HW2 1485   3.354   1.492   0.838
  196SOL     OW 1486   3.171   2.147   0.172
  196SOL    HW1 1487   3.193   2.227   0.116
  196SOL    HW2 1488   3.185   2.064   0.119
  197SOL     OW 1489   1.937   6.658   0.673
  197SOL    HW1 1490   2.006   6.634   0.742
  197SOL    HW2 1491   1.935   6.757   0.661
  198SOL     OW 1492   4.250   0.694   6.746
  198SOL    HW1 1493   4.258   0.733   6.838
  198SOL    HW2 1494   4.311   0.744   6.684
  199SOL     OW 1495   0.022   7.011   2.267
  199SOL    HW1 1496   0.025   0.003   2.167
  199SOL    HW2 1497   0.013   0.081   2.310
  200SOL     OW 1498   0.829   4.249   2.945
  200SOL    HW1 1499   0.788   4.158   2.954
  200SOL    HW2 1500   0.910   4.243   2.887
  201SOL     OW 1501   3.963   1.362   6.751
  201SOL    HW1 1502   4.025   1.295   6.711
  201SOL    HW2 1503   3.961   1.444   6.695
  202SOL     OW 1504   3.444   0.675   2.435
  202SOL    HW1 1505   3.512   0.658   2.506
  202SOL    HW2 1506   3.378   0.742   2.467
  203SOL     OW 1507   5.537   2.637   0.343
  203SOL    HW1 1508   5.626   2.618   0.301
  203SOL    HW2 1509   5.549   2.702   0.419
  204SOL     OW 1510   2.686   5.851   1.056
  204SOL    HW1 1511   2.659   5.756   1.041
  204SOL    HW2 1512   2.619   5.912   1.014
  205SOL     OW 1513   6.389   0.855   0.211
  205SOL    HW1 1514   6.437   0.903   0.284
  205SOL    HW2 1515   6.293   0.843   0.236
  206SOL     OW 1516   0.581   4.340   1.469
  206SOL    HW1 1517   0.636   4.357   1.550
  206SOL    HW2 1518   0.627   4.274   1.410
  207SOL     OW 1519   4.761   1.212   5.473
  207SOL    HW1 1520   4.817   1.129   5.479
  207SOL    HW2 1521   4.811   1.282   5.422
  208SOL     OW 1522   3.403   4.628   6.064
  208SOL    HW1 1523   3.417   4.671   5.975
  208SOL    HW2 1524   3.356   4.540   6.051
  209SOL     OW 1525   6.353   5.323   5.738
  209SOL    HW1 1526   6.338   5.264   5.659
  209SOL    HW2 1527   6.279   5.309   5.804
  210SOL     OW 1528   3.675   2.044   2.250
  210SOL    HW1 1529   3.771   2.026   2.227
  210SOL    HW2 1530   3.629   2.084   2.170
  211SOL     OW 1531   1.138   1.886   1.795
  211SOL    HW1 1532   1.098   1.964   1.843
  211SOL    HW2 1533   1.131   1.804   1.853
  212SOL     OW 1534   0.940   4.879   4.377
  212SOL    HW1 1535   0.848   4.849   4.349
  212SOL    HW2 1536   0.986   4.804   4.424
  213SOL     OW 1537   4.479   2.591   6.726
  213SOL    HW1 1538   4.436   2.618   6.640
  213SOL    HW2 1539   4.477   2.668   6.790
  214SOL     OW 1540   1.023   6.934   2.777
  214SOL    HW1 1541   1.094   6.898   2.718
  214SOL    HW2 1542   1.016   6.878   2.859
  215SOL     OW 1543   3.134   3.483   2.497
  215SOL    HW1 1544   3.037   3.472   2.520
  215SOL    HW2 1545   3.170   3.564   2.542
  216SOL     OW 1546   1.192   6.497   5.864
  216SOL    HW1 1547   1.120   6.481   5.931
  216SOL    HW2 1548   1.213   6.412   5.815
  217SOL     OW 1549   0.409   2.812   3.477
  217SOL    HW1 1550   0.426   2.806   3.575
  217SOL    HW2 1551   0.334   2.750   3.452
  218SOL     OW 1552   1.268   3.806   5.406
  218SOL    HW1 1553   1.232   3.753   5.330
  218SOL    HW2 1554   1.266   3.904   5.383
  219SOL     OW 1555   4.578   5.230   6.918
  219SOL    HW1 1556   4.615   5.140   6.937
  219SOL    HW2 1557   4.517   5.225   6.839
  220SOL     OW 1558   2.807   4.760   0.752
  220SOL    HW1 1559   2.841   4.774   0.845
  220SOL    HW2 1560   2.776   4.665   0.743
  221SOL     OW 1561   6.713   2.439   4.033
  221SOL    HW1 1562   6.624   2.472   4.063
  221SOL    HW2 1563   6.780   2.453   4.105
  222SOL     OW 1564   1.240   6.250   5.047
  222SOL    HW1 1565   1.248   6.307   5.128
  222SOL    HW2 1566   1.324   6.255   4.994
  223SOL     OW 1567   6.395   4.169   1.788
  223SOL    HW1 1568   6.347   4.090   1.749
  223SOL    HW2 1569   6.456   4.138   1.861
  224SOL     OW 1570   3.355   2.125   1.637
  224SOL    HW1 1571   3.312   2.076   1.713
  224SOL    HW2 1572   3.454   2.111   1.640
  225SOL     OW 1573   0.149   6.986   0.598
  225SOL    HW1 1574   0.206   7.005   0.518
  225SOL    HW2 1575   0.202   7.006   0.681
  226SOL     OW 1576   6.880   5.696   1.109
  226SOL    HW1 1577   6.797   5.641   1.098
  226SOL    HW2 1578   6.952   5.639   1.149
  227SOL     OW 1579   1.359   2.996   3.567
  227SOL    HW1 1580   1.341   3.037   3.656
  227SOL    HW2 1581   1.332   3.060   3.495
  228SOL     OW 1582   3.606   6.807   2.853
  228SOL    HW1 1583   3.585   6.903   2.837
  228SOL    HW2 1584   3.704   6.797   2.872
  229SOL     OW 1585   5.891   5.117   2.748
  229SOL    HW1 1586   5.802   5.121   2.794
  229SOL    HW2 1587   5.881   5.070   2.661
  230SOL     OW 1588   1.699   4.014   5.279
  230SOL    HW1 1589   1.748   4.091   5.319
  230SOL    HW2 1590   1.758   3.934   5.275
  231SOL     OW 1591   0.585   1.780   6.904
  231SOL    HW1 1592   0.529   1.837   6.844
  231SOL    HW2 1593   0.527   1.716   6.954
  232SOL     OW 1594   2.112   4.980   6.432
  232SOL    HW1 1595   2.102   4.943   6.340
  232SOL    HW2 1596   2.046   4.936   6.493
  233SOL     OW 1597   2.971   1.139   5.981
  233SOL    HW1 1598   2.966   1.090   6.068
  233SOL    HW2 1599   2.958   1.075   5.905
  234SOL     OW 1600   2.961   6.228   0.013
  234SOL    HW1 1601   3.049   6.255   6.992
  234SOL    HW2 1602   2.887   6.256   6.971
  235SOL     OW 1603   3.545   3.228   4.917
  235SOL    HW1 1604   3.570   3.145   4.966
  235SOL    HW2 1605   3.479   3.207   4.845
  236SOL     OW 1606   6.920   2.308   5.713
  236SOL    HW1 1607   6.907   2.378   5.783
  236SOL    HW2 1608   6.893   2.344   5.624
  237SOL     OW 1609   0.446   6.979   1.732
  237SOL    HW1 1610   0.363   6.987   1.788
  237SOL    HW2 1611   0.514   0.025   1.764
  238SOL     OW 1612   6.120   2.231   2.115
  238SOL    HW1 1613   6.048   2.258   2.051
  238SOL    HW2 1614   6.192   2.300   2.116
  239SOL     OW 1615   0.423   5.804   0.511
  239SOL    HW1 1616   0.498   5.798   0.445
  239SOL    HW2 1617   0.411   5.716   0.556
  240SOL     OW 1618   6.750   3.817   5.193
  240SOL    HW1 1619   6.738   3.733   5.141
  240SOL    HW2 1620   6.694   3.814   5.276
  241SOL     OW 1621   6.800   1.622   3.640
  241SOL    HW1 1622   6.746   1.540   3.662
  241SOL    HW2 1623   6.858   1.603   3.561
  242SOL     OW 1624   2.319   2.681   3.379
  242SOL    HW1 1625   2.350   2.775   3.392
  242SOL    HW2 1626   2.235   2.681   3.324
  243SOL     OW 1627   4.489   1.235   5.201
  243SOL    HW1 1628   4.475   1.136   5.199
  243SOL    HW2 1629   4.421   1.277   5.261
  244SOL     OW 1630   6.729   0.459   5.907
  244SOL    HW1 1631   6.707   0.388   5.840
  244SOL    HW2 1632   6.827   0.461   5.922
  245SOL     OW 1633   6.232   2.016   3.693
  245SOL    HW1 1634   6.282   2.077   3.632
  245SOL    HW2 1635   6.261   2.032   3.787
  246SOL     OW 1636   4.929   3.290   3.427
  246SOL    HW1 1637   4.920   3.264   3.331
  246SOL    HW2 1638   4.882   3.223   3.484
  247SOL     OW 1639   3.539   1.091   3.585
  247SOL    HW1 1640   3.592   1.175   3.593
  247SOL    HW2 1641   3.449   1.110   3.546
  248SOL     OW 1642   5.384   1.416   2.503
  248SOL    HW1 1643   5.432   1.394   2.418
  248SOL    HW2 1644   5.343   1.507   2.495
  249SOL     OW 1645   2.733   6.743   3.634
  249SOL    HW1 1646   2.744   6.811   3.561
  249SOL    HW2 1647   2.753   6.786   3.722
  250SOL     OW 1648   4.899   3.039   5.975
  250SOL    HW1 1649   4.984   3.007   5.933
  250SOL    HW2 1650   4.891   2.999   6.067
  251SOL     OW 1651   2.400   2.455   1.116
  251SOL    HW1 1652   2.361   2.540   1.080
  251SOL    HW2 1653   2.326   2.392   1.138
  252SOL     OW 1654   0.232   1.881   6.555
  252SOL    HW1 1655   0.268   1.816   6.488
  252SOL    HW2 1656   0.180   1.952   6.508
  253SOL     OW 1657   2.047   3.863   5.655
  253SOL    HW1 1658   2.104   3.821   5.585
  253SOL    HW2 1659   1.973   3.800   5.680
  254SOL     OW 1660   5.262   3.549   5.370
  254SOL    HW1 1661   5.284   3.633   5.322
  254SOL    HW2 1662   5.194   3.497   5.318
  255SOL     OW 1663   3.524   2.084   3.454
  255SOL    HW1 1664   3.533   1.985   3.446
  255SOL    HW2 1665   3.584   2.128   3.387
  256SOL     OW 1666   6.593   5.778   0.028
  256SOL    HW1 1667   6.553   5.819   0.109
  256SOL    HW2 1668   6.547   5.812   6.965
  257SOL     OW 1669   3.099   5.748   6.358
  257SOL    HW1 1670   3.132   5.766   6.450
  257SOL    HW2 1671   3.164   5.690   6.310
  258SOL     OW 1672   5.152   4.068   4.061
  258SOL    HW1 1673   5.073   4.026   4.016
  258SOL    HW2 1674   5.199   3.999   4.116
  259SOL     OW 1675   1.358   2.025   2.854
  259SOL    HW1 1676   1.448   1.989   2.827
  259SOL    HW2 1677   1.311   2.060   2.773
  260SOL     OW 1678   6.240   6.883   6.079
  260SOL    HW1 1679   6.233   6.784   6.085
  260SOL    HW2 1680   6.157   6.921   6.038
  261SOL     OW 1681   1.385   1.529   2.768
  261SOL    HW1 1682   1.357   1.552   2.675
  261SOL    HW2 1683   1.397   1.430   2.776
  262SOL     OW 1684   1.960   5.076   1.861
  262SOL    HW1 1685   1.958   5.087   1.961
  262SOL    HW2 1686   1.946   4.979   1.838
  263SOL     OW 1687   0.326   1.971   4.703
  263SOL    HW1 1688   0.368   2.046   4.653
  263SOL    HW2 1689   0.251   1.933   4.648
  264SOL     OW 1690   2.846   4.631   5.921
  264SOL    HW1 1691   2.858   4.700   5.992
  264SOL    HW2 1692   2.854   4.674   5.831
  265SOL     OW 1693   5.586   5.427   5.599
  265SOL    HW1 1694   5.652   5.376   5.654
  265SOL    HW2 1695   5.544   5.498   5.654
  266SOL     OW 1696   3.743   2.426   0.344
  266SOL    HW1 1697   3.779   2.470   0.426
  266SOL    HW2 1698   3.808   2.437   0.268
  267SOL     OW 1699   1.800   1.073   6.256
  267SOL    HW1 1700   1.855   1.075   6.173
  267SOL    HW2 1701   1.735   0.997   6.250
  268SOL     OW 1702   3.508   5.654   4.347
  268SOL    HW1 1703   3.481   5.575   4.292
  268SOL    HW2 1704   3.601   5.639   4.382
  269SOL     OW 1705   1.520   1.134   5.846
  269SOL    HW1 1706   1.529   1.205   5.775
  269SOL    HW2 1707   1.495   1.047   5.803
  270SOL     OW 1708   5.425   0.181   4.065
  270SOL    HW1 1709   5.508   0.233   4.082
  270SOL    HW2 1710   5.352   0.244   4.037
  271SOL     OW 1711   1.651   1.770   7.011
  271SOL    HW1 1712   1.642   1.674   0.019
  271SOL    HW2 1713   1.741   1.804   0.017
  272SOL     OW 1714   4.840   5.900   2.792
  272SOL    HW1 1715   4.889   5.829   2.741
  272SOL    HW2 1716   4.891   5.921   2.876
  273SOL     OW 1717   3.028   0.251   5.260
  273SOL    HW1 1718   2.975   0.335   5.275
  273SOL    HW2 1719   3.100   0.268   5.193
  274SOL     OW 1720   5.695   1.640   1.003
  274SOL    HW1 1721   5.783   1.637   0.956
  274SOL    HW2 1722   5.681   1.556   1.055
  275SOL     OW 1723   5.314   5.751   4.801
  275SOL    HW1 1724   5.267   5.840   4.801
  275SOL    HW2 1725   5.357   5.737   4.890
  276SOL     OW 1726   7.006   6.378   3.685
  276SOL    HW1 1727   0.067   6.390   3.626
  276SOL    HW2 1728   0.014   6.330   3.769
  277SOL     OW 1729   5.017   1.671   5.628
  277SOL    HW1 1730   4.930   1.713   5.606
  277SOL    HW2 1731   5.062   1.640   5.544
  278SOL     OW 1732   6.006   3.208   3.427
  278SOL    HW1 1733   5.965   3.264   3.355
  278SOL    HW2 1734   6.084   3.257   3.466
  279SOL     OW 1735   0.775   3.698   4.403
  279SOL    HW1 1736   0.868   3.721   4.374
  279SOL    HW2 1737   0.759   3.734   4.495
  280SOL     OW 1738   3.378   0.676   3.432
  280SOL    HW1 1739   3.460   0.734   3.437
  280SOL    HW2 1740   3.406   0.580   3.423
  281SOL     OW 1741   5.720   6.834   4.302
  281SOL    HW1 1742   5.629   6.856   4.339
  281SOL    HW2 1743   5.789   6.849   4.373
  282SOL     OW 1744   2.097   2.337   0.423
  282SOL    HW1 1745   2.189   2.299   0.429
  282SOL    HW2 1746   2.030   2.265   0.436
  283SOL     OW 1747   6.470   2.526   4.920
  283SOL    HW1 1748   6.425   2.598   4.972
  283SOL    HW2 1749   6.556   2.501   4.964
  284SOL     OW 1750   4.732   5.675   3.039
  284SOL    HW1 1751   4.679   5.597   3.007
  284SOL    HW2 1752   4.679   5.758   3.029
  285SOL     OW 1753   4.559   0.288   5.703
  285SOL    HW1 1754   4.497   0.358   5.667
  285SOL    HW2 1755   4.636   0.332   5.747
  286SOL     OW 1756   2.542   4.651   5.459
  286SOL    HW1 1757   2.609   4.680   5.390
  286SOL    HW2 1758   2.561   4.696   5.546
  287SOL     OW 1759   3.260   0.265   6.800
  287SOL    HW1 1760   3.208   0.349   6.784
  287SOL    HW2 1761   3.346   0.270   6.749
  288SOL     OW 1762   4.242   0.781   1.096
  288SOL    HW1 1763   4.277   0.776   1.002
  288SOL    HW2 1764   4.150   0.822   1.095
  289SOL     OW 1765   5.896   6.272   3.561
  289SOL    HW1 1766   5.886   6.226   3.473
  289SOL    HW2 1767   5.930   6.208   3.629
  290SOL     OW 1768   3.666   0.271   6.292
  290SOL    HW1 1769   3.587   0.321   6.330
  290SOL    HW2 1770   3.746   0.331   6.293
  291SOL     OW 1771   3.313   6.969   4.853
  291SOL    HW1 1772   3.343   6.942   4.761
  291SOL    HW2 1773   3.215   6.987   4.852
  292SOL     OW 1774   5.179   0.544   4.052
  292SOL    HW1 1775   5.093   0.593   4.039
  292SOL    HW2 1776   5.209   0.505   3.964
  293SOL     OW 1777   5.861   0.072   2.062
  293SOL    HW1 1778   5.906   0.154   2.027
  293SOL    HW2 1779   5.912   0.036   2.139
  294SOL     OW 1780   6.169   0.858   6.584
  294SOL    HW1 1781   6.108   0.927   6.546
  294SOL    HW2 1782   6.121   0.804   6.652
  295SOL     OW 1783   1.407   1.448   5.071
  295SOL    HW1 1784   1.346   1.451   4.991
  295SOL    HW2 1785   1.372   1.509   5.142
  296SOL     OW 1786   0.034   2.128   0.978
  296SOL    HW1 1787   0.039   2.057   0.908
  296SOL    HW2 1788   6.966   2.121   1.027
  297SOL     OW 1789   5.407   3.182   3.309
  297SOL    HW1 1790   5.323   3.231   3.288
  297SOL    HW2 1791   5.452   3.224   3.388
  298SOL     OW 1792   4.176   0.386   5.799
  298SOL    HW1 1793   4.245   0.426   5.859
  298SOL    HW2 1794   4.152   0.452   5.727
  299SOL     OW 1795   0.695   0.712   0.198
  299SOL    HW1 1796   0.740   0.739   0.284
  299SOL    HW2 1797   0.713   0.615   0.180
  300SOL     OW 1798   4.146   0.267   3.632
  300SOL    HW1 1799   4.051   0.282   3.657
  300SOL    HW2 1800   4.183   0.190   3.685
  301SOL     OW 1801   6.648   5.624   0.513
  301SOL    HW1 1802   6.678   5.716   0.487
  301SOL    HW2 1803   6.715   5.558   0.480
  302SOL     OW 1804   0.441   5.564   2.153
  302SOL    HW1 1805   0.481   5.627   2.220
  302SOL    HW2 1806   0.406   5.615   2.075
  303SOL     OW 1807   5.353   5.842   3.247
  303SOL    HW1 1808   5.296   5.833   3.165
  303SOL    HW2 1809   5.358   5.938   3.273
  304SOL     OW 1810   2.496   5.797   4.812
  304SOL    HW1 1811   2.592   5.800   4.839
  304SOL    HW2 1812   2.439   5.843   4.880
  305SOL     OW 1813   0.824   3.004   1.989
  305SOL    HW1 1814   0.902   3.051   1.946
  305SOL    HW2 1815   0.835   3.009   2.089
  306SOL     OW 1816   0.195   6.677   3.447
  306SOL    HW1 1817   0.171   6.768   3.481
  306SOL    HW2 1818   0.262   6.686   3.373
  307SOL     OW 1819   3.230   2.924   3.876
  307SOL    HW1 1820   3.162   2.990   3.845
  307SOL    HW2 1821   3.288   2.897   3.800
  308SOL     OW 1822   6.139   2.335   3.238
  308SOL    HW1 1823   6.090   2.319   3.153
  308SOL    HW2 1824   6.129   2.431   3.265
  309SOL     OW 1825   1.745   6.226   6.792
  309SOL    HW1 1826   1.653   6.246   6.825
  309SOL    HW2 1827   1.773   6.296   6.727
  310SOL     OW 1828   5.404   0.176   5.665
  310SOL    HW1 1829   5.415   0.204   5.761
  310SOL    HW2 1830   5.380   0.080   5.661
  311SOL     OW 1831   1.812   5.910   2.514
  311SOL    HW1 1832   1.887   5.923   2.450
  311SOL    HW2 1833   1.841   5.850   2.589
  312SOL     OW 1834   3.785   0.551   3.394
  312SOL    HW1 1835   3.883   0.542   3.374
  312SOL    HW2 1836   3.751   0.636   3.353
  313SOL     OW 1837   3.730   3.479   2.640
  313SOL    HW1 1838   3.740   3.407   2.709
  313SOL    HW2 1839   3.685   3.558   2.682
  314SOL     OW 1840   3.002   5.646   5.706
  314SOL    HW1 1841   2.958   5.557   5.721
  314SOL    HW2 1842   2.935   5.711   5.673
  315SOL     OW 1843   6.206   0.641   4.017
  315SOL    HW1 1844   6.269   0.597   3.953
  315SOL    HW2 1845   6.212   0.740   4.007
  316SOL     OW 1846   4.070   1.544   6.210
  316SOL    HW1 1847   4.047   1.641   6.220
  316SOL    HW2 1848   4.144   1.534   6.143
  317SOL     OW 1849   1.111   2.040   1.566
  317SOL    HW1 1850   1.016   2.038   1.534
  317SOL    HW2 1851   1.127   1.963   1.628
  318SOL     OW 1852   0.812   0.470   4.764
  318SOL    HW1 1853   0.746   0.397   4.746
  318SOL    HW2 1854   0.855   0.499   4.679
  319SOL     OW 1855   1.048   1.317   2.688
  319SOL    HW1 1856   1.020   1.408   2.657
  319SOL    HW2 1857   1.033   1.309   2.787
  320SOL     OW 1858   5.944   2.277   6.120
  320SOL    HW1 1859   5.897   2.361   6.149
  320SOL    HW2 1860   5.934   2.207   6.190
  321SOL     OW 1861   4.960   3.238   0.530
  321SOL    HW1 1862   4.953   3.236   0.430
  321SOL    HW2 1863   4.995   3.327   0.559
  322SOL     OW 1864   3.010   3.306   6.051
  322SOL    HW1 1865   3.081   3.279   6.116
  322SOL    HW2 1866   2.978   3.226   6.000
  323SOL     OW 1867   0.866   3.433   2.063
  323SOL    HW1 1868   0.923   3.507   2.026
  323SOL    HW2 1869   0.908   3.399   2.147
  324SOL     OW 1870   0.103   0.247   3.301
  324SOL    HW1 1871   0.179   0.215   3.244
  324SOL    HW2 1872   0.080   0.341   3.277
  325SOL     OW 1873   6.864   3.762   1.554
  325SOL    HW1 1874   6.860   3.861   1.540
  325SOL    HW2 1875   6.949   3.739   1.602
  326SOL     OW 1876   1.099   6.484   6.146
  326SOL    HW1 1877   1.166   6.508   6.216
  326SOL    HW2 1878   1.021   6.438   6.189
  327SOL     OW 1879   5.256   5.401   4.025
  327SOL    HW1 1880   5.349   5.372   4.050
  327SOL    HW2 1881   5.207   5.324   3.984
  328SOL     OW 1882   1.927   3.665   2.690
  328SOL    HW1 1883   2.019   3.701   2.674
  328SOL    HW2 1884   1.892   3.625   2.605
  329SOL     OW 1885   3.104   2.937   1.804
  329SOL    HW1 1886   3.126   2.975   1.894
  329SOL    HW2 1887   3.118   2.838   1.806
  330SOL     OW 1888   3.145   5.154   0.812
  330SOL    HW1 1889   3.214   5.221   0.784
  330SOL    HW2 1890   3.079   5.198   0.873
  331SOL     OW 1891   5.993   5.499   6.793
  331SOL    HW1 1892   6.079   5.452   6.773
  331SOL    HW2 1893   5.929   5.436   6.838
  332SOL     OW 1894   5.849   2.421   3.779
  332SOL    HW1 1895   5.934   2.370   3.768
  332SOL    HW2 1896   5.820   2.458   3.691
  333SOL     OW 1897   3.038   0.931   5.722
  333SOL    HW1 1898   3.014   0.876   5.643
  333SOL    HW2 1899   3.062   1.024   5.693
  334SOL     OW 1900   3.395   3.309   3.459
  334SOL    HW1 1901   3.425   3.396   3.498
  334SOL    HW2 1902   3.396   3.314   3.359
  335SOL     OW 1903   3.767   1.048   0.743
  335SOL    HW1 1904   3.856   1.037   0.700
  335SOL    HW2 1905   3.695   1.024   0.678
  336SOL     OW 1906   2.621   1.945   3.694
  336SOL    HW1 1907   2.624   1.959   3.793
  336SOL    HW2 1908   2.563   2.015   3.652
  337SOL     OW 1909   1.068   0.611   5.931
  337SOL    HW1 1910   0.982   0.566   5.907
  337SOL    HW2 1911   1.131   0.607   5.853
  338SOL     OW 1912   4.147   1.393   1.226
  338SOL    HW1 1913   4.066   1.344   1.260
  338SOL    HW2 1914   4.196   1.434   1.302
  339SOL     OW 1915   3.778   6.186   4.867
  339SOL    HW1 1916   3.721   6.219   4.942
  339SOL    HW2 1917   3.729   6.116   4.816
  340SOL     OW 1918   5.270   2.399   4.409
  340SOL    HW1 1919   5.212   2.367   4.334
  340SOL    HW2 1920   5.213   2.441   4.480
  341SOL     OW 1921   6.201   6.791   2.956
  341SOL    HW1 1922   6.252   6.799   3.041
  341SOL    HW2 1923   6.264   6.778   2.880
  342SOL     OW 1924   4.367   2.404   2.325
  342SOL    HW1 1925   4.342   2.404   2.228
  342SOL    HW2 1926   4.292   2.365   2.379
  343SOL     OW 1927   0.276   5.897   2.641
  343SOL    HW1 1928   0.296   5.809   2.598
  343SOL    HW2 1929   0.180   5.902   2.666
  344SOL     OW 1930   1.376   2.458   0.988
  344SOL    HW1 1931   1.338   2.383   0.934
  344SOL    HW2 1932   1.362   2.440   1.085
  345SOL     OW 1933   6.834   3.661   3.811
  345SOL    HW1 1934   6.768   3.735   3.802
  345SOL    HW2 1935   6.858   3.625   3.721
  346SOL     OW 1936   1.828   6.726   3.523
  346SOL    HW1 1937   1.771   6.656   3.481
  346SOL    HW2 1938   1.806   6.815   3.484
  347SOL     OW 1939   2.184   4.808   0.950
  347SOL    HW1 1940   2.169   4.773   1.042
  347SOL    HW2 1941   2.278   4.843   0.943
  348SOL     OW 1942   4.312   4.994   1.312
  348SOL    HW1 1943   4.400   4.969   1.351
  348SOL    HW2 1944   4.252   5.028   1.385
  349SOL     OW 1945   6.104   4.328   1.269
  349SOL    HW1 1946   6.070   4.246   1.224
  349SOL    HW2 1947   6.066   4.409   1.225
  350SOL     OW 1948   3.375   2.722   0.276
  350SOL    HW1 1949   3.392   2.665   0.357
  350SOL    HW2 1950   3.331   2.807   0.304
  351SOL     OW 1951   3.101   4.312   0.901
  351SOL    HW1 1952   3.152   4.244   0.954
  351SOL    HW2 1953   3.056   4.376   0.964
  352SOL     OW 1954   3.910   0.114   2.914
  352SOL    HW1 1955   3.988   0.171   2.939
  352SOL    HW2 1956   3.919   0.025   2.958
  353SOL     OW 1957   2.357   6.825   6.436
  353SOL    HW1 1958   2.365   6.919   6.403
  353SOL    HW2 1959   2.269   6.787   6.408
  354SOL     OW 1960   0.267   2.793   0.300
  354SOL    HW1 1961   0.330   2.870   0.287
  354SOL    HW2 1962   0.195   2.820   0.365
  355SOL     OW 1963   1.628   1.480   2.301
  355SOL    HW1 1964   1.562   1.555   2.308
  355SOL    HW2 1965   1.672   1.466   2.390
  356SOL     OW 1966   1.525   0.599   6.170
  356SOL    HW1 1967   1.429   0.572   6.175
  356SOL    HW2 1968   1.552   0.610   6.074
  357SOL     OW 1969   5.587   6.866   5.240
  357SOL    HW1 1970   5.565   6.777   5.279
  357SOL    HW2 1971   5.507   6.925   5.245
  358SOL     OW 1972   3.766   5.632   6.963
  358SOL    HW1 1973   3.677   5.660   6.926
  358SOL    HW2 1974   3.832   5.622   6.889
  359SOL     OW 1975   2.050   1.673   2.747
  359SOL    HW1 1976   1.970   1.672   2.687
  359SOL    HW2 1977   2.062   1.765   2.785
  360SOL     OW 1978   1.347   4.133   3.965
  360SOL    HW1 1979   1.309   4.165   3.878
  360SOL    HW2 1980   1.395   4.208   4.011
  361SOL     OW 1981   6.417   1.344   3.023
  361SOL    HW1 1982   6.437   1.305   2.933
  361SOL    HW2 1983   6.370   1.432   3.012
  362SOL     OW 1984   3.999   4.757   0.875
  362SOL    HW1 1985   4.083   4.718   0.836
  362SOL    HW2 1986   4.011   4.855   0.888
  363SOL     OW 1987   5.637   5.540   1.924
  363SOL    HW1 1988   5.636   5.524   2.022
  363SOL    HW2 1989   5.546   5.571   1.894
  364SOL     OW 1990   0.662   6.470   6.299
  364SOL    HW1 1991   0.649   6.530   6.378
  364SOL    HW2 1992   0.670   6.526   6.216
  365SOL     OW 1993   4.769   2.030   3.516
  365SOL    HW1 1994   4.790   1.933   3.524
  365SOL    HW2 1995   4.747   2.067   3.606
  366SOL     OW 1996   5.104   2.223   6.789
  366SOL    HW1 1997   5.181   2.250   6.847
  366SOL    HW2 1998   5.113   2.267   6.699
  367SOL     OW 1999   5.461   1.959   5.747
  367SOL    HW1 2000   5.517   2.006   5.678
  367SOL    HW2 2001   5.374   2.007   5.757
  368SOL     OW 2002   6.589   2.290   5.684
  368SOL    HW1 2003   6.635   2.201   5.692
  368SOL    HW2 2004   6.549   2.315   5.772
  369SOL     OW 2005   5.975   3.391   2.156
  369SOL    HW1 2006   5.973   3.301   2.199
  369SOL    HW2 2007   5.883   3.415   2.124
  370SOL     OW 2008   1.605   3.069   3.849
  370SOL    HW1 2009   1.512   3.037   3.833
  370SOL    HW2 2010   1.670   3.008   3.803
  371SOL     OW 2011   1.550   5.046   0.023
  371SOL    HW1 2012   1.580   5.034   6.948
  371SOL    HW2 2013   1.610   4.996   0.085
  372SOL     OW 2014   3.281   6.027   6.285
  372SOL    HW1 2015   3.189   5.997   6.262
  372SOL    HW2 2016   3.304   6.108   6.231
  373SOL     OW 2017   5.722   5.503   4.021
  373SOL    HW1 2018   5.803   5.444   4.018
  373SOL    HW2 2019   5.722   5.563   3.941
  374SOL     OW 2020   2.689   1.695   3.134
  374SOL    HW1 2021   2.643   1.661   3.216
  374SOL    HW2 2022   2.783   1.720   3.156
  375SOL     OW 2023   1.446   4.990   4.801
  375SOL    HW1 2024   1.526   4.938   4.829
  375SOL    HW2 2025   1.398   5.024   4.881
  376SOL     OW 2026   2.639   0.650   4.611
  376SOL    HW1 2027   2.677   0.739   4.639
  376SOL    HW2 2028   2.546   0.642   4.645
  377SOL     OW 2029   0.866   1.583   6.226
  377SOL    HW1 2030   0.899   1.513   6.163
  377SOL    HW2 2031   0.943   1.628   6.270
  378SOL     OW 2032   4.186   0.835   1.883
  378SOL    HW1 2033   4.252   0.762   1.865
  378SOL    HW2 2034   4.094   0.802   1.864
  379SOL     OW 2035   5.989   1.644   6.523
  379SOL    HW1 2036   5.998   1.712   6.450
  379SOL    HW2 2037   5.941   1.564   6.489
  380SOL     OW 2038   4.086   2.144   1.025
  380SOL    HW1 2039   4.102   2.236   0.990
  380SOL    HW2 2040   3.995   2.139   1.065
  381SOL     OW 2041   1.791   3.787   2.886
  381SOL    HW1 2042   1.865   3.822   2.943
  381SOL    HW2 2043   1.831   3.738   2.808
  382SOL     OW 2044   5.221   0.408   6.954
  382SOL    HW1 2045   5.263   0.392   6.865
  382SOL    HW2 2046   5.293   0.414   0.005
  383SOL     OW 2047   4.179   2.569   0.516
  383SOL    HW1 2048   4.116   2.491   0.512
  383SOL    HW2 2049   4.256   2.553   0.455
  384SOL     OW 2050   5.584   3.984   4.462
  384SOL    HW1 2051   5.509   3.992   4.529
  384SOL    HW2 2052   5.546   3.967   4.371
  385SOL     OW 2053   4.492   3.801   0.279
  385SOL    HW1 2054   4.574   3.858   0.287
  385SOL    HW2 2055   4.423   3.833   0.344
  386SOL     OW 2056   3.341   6.646   3.545
  386SOL    HW1 2057   3.354   6.634   3.446
  386SOL    HW2 2058   3.369   6.563   3.592
  387SOL     OW 2059   2.412   6.082   3.460
  387SOL    HW1 2060   2.388   6.142   3.383
  387SOL    HW2 2061   2.491   6.025   3.434
  388SOL     OW 2062   1.905   3.736   6.457
  388SOL    HW1 2063   1.959   3.808   6.415
  388SOL    HW2 2064   1.946   3.647   6.439
  389SOL     OW 2065   3.159   3.960   2.958
  389SOL    HW1 2066   3.181   4.020   2.881
  389SOL    HW2 2067   3.128   3.872   2.923
  390SOL     OW 2068   2.208   1.103   4.338
  390SOL    HW1 2069   2.249   1.174   4.283
  390SOL    HW2 2070   2.280   1.047   4.380
  391SOL     OW 2071   0.792   3.356   6.945
  391SOL    HW1 2072   0.762   3.342   0.021
  391SOL    HW2 2073   0.722   3.407   6.895
  392SOL     OW 2074   2.424   5.340   2.985
  392SOL    HW1 2075   2.521   5.317   3.001
  392SOL    HW2 2076   2.402   5.424   3.034
  393SOL     OW 2077   6.543   4.598   4.753
  393SOL    HW1 2078   6.628   4.548   4.770
  393SOL    HW2 2079   6.481   4.542   4.698
  394SOL     OW 2080   2.285   0.378   0.047
  394SOL    HW1 2081   2.342   0.435   0.105
  394SOL    HW2 2082   2.206   0.430   0.016
  395SOL     OW 2083   5.453   3.660   1.252
  395SOL    HW1 2084   5.504   3.687   1.334
  395SOL    HW2 2085   5.433   3.562   1.256
  396SOL     OW 2086   3.541   4.138   3.875
  396SOL    HW1 2087   3.480   4.149   3.796
  396SOL    HW2 2088   3.635   4.126   3.843
  397SOL     OW 2089   4.362   2.299   5.718
  397SOL    HW1 2090   4.442   2.359   5.722
  397SOL    HW2 2091   4.292   2.341   5.661
  398SOL     OW 2092   1.455   5.240   2.324
  398SOL    HW1 2093   1.431   5.235   2.227
  398SOL    HW2 2094   1.499   5.154   2.352
  399SOL     OW 2095   4.709   5.173   1.491
  399SOL    HW1 2096   4.746   5.174   1.398
  399SOL    HW2 2097   4.784   5.188   1.556
  400SOL     OW 2098   0.604   6.049   5.121
  400SOL    HW1 2099   0.575   5.983   5.052
  400SOL    HW2 2100   0.621   6.138   5.077
  401SOL     OW 2101   4.650   2.120   6.619
  401SOL    HW1 2102   4.725   2.068   6.660
  401SOL    HW2 2103   4.668   2.218   6.628
  402SOL     OW 2104   5.396   5.604   1.866
  402SOL    HW1 2105   5.400   5.543   1.786
  402SOL    HW2 2106   5.321   5.668   1.855
  403SOL     OW 2107   4.910   2.406   5.978
  403SOL    HW1 2108   4.962   2.490   5.996
  403SOL    HW2 2109   4.857   2.382   6.059
  404SOL     OW 2110   1.200   0.182   4.511
  404SOL    HW1 2111   1.292   0.153   4.484
  404SOL    HW2 2112   1.147   0.207   4.430
  405SOL     OW 2113   0.626   2.347   0.683
  405SOL    HW1 2114   0.711   2.294   0.679
  405SOL    HW2 2115   0.574   2.334   0.598
  406SOL     OW 2116   2.067   2.787   4.157
  406SOL    HW1 2117   1.992   2.839   4.114
  406SOL    HW2 2118   2.029   2.725   4.225
  407SOL     OW 2119   3.006   0.502   4.961
  407SOL    HW1 2120   2.992   0.530   4.866
  407SOL    HW2 2121   3.102   0.516   4.987
  408SOL     OW 2122   2.272   0.588   3.695
  408SOL    HW1 2123   2.242   0.638   3.776
  408SOL    HW2 2124   2.193   0.552   3.646
  409SOL     OW 2125   5.515   3.398   3.610
  409SOL    HW1 2126   5.459   3.359   3.684
  409SOL    HW2 2127   5.609   3.366   3.620
  410SOL     OW 2128   2.954   1.289   6.613
  410SOL    HW1 2129   2.890   1.241   6.553
  410SOL    HW2 2130   2.953   1.387   6.591
  411SOL     OW 2131   6.214   4.465   5.101
  411SOL    HW1 2132   6.228   4.560   5.070
  411SOL    HW2 2133   6.117   4.450   5.119
  412SOL     OW 2134   3.646   0.404   2.529
  412SOL    HW1 2135   3.718   0.411   2.460
  412SOL    HW2 2136   3.647   0.486   2.587
  413SOL     OW 2137   3.067   6.576   0.666
  413SOL    HW1 2138   3.022   6.518   0.598
  413SOL    HW2 2139   3.009   6.581   0.748
  414SOL     OW 2140   4.285   3.853   0.449
  414SOL    HW1 2141   4.299   3.952   0.456
  414SOL    HW2 2142   4.204   3.834   0.395
  415SOL     OW 2143   2.057   6.487   1.417
  415SOL    HW1 2144   2.149   6.460   1.386
  415SOL    HW2 2145   2.054   6.486   1.517
  416SOL     OW 2146   4.475   6.473   4.782
  416SOL    HW1 2147   4.540   6.513   4.717
  416SOL    HW2 2148   4.392   6.445   4.734
  417SOL     OW 2149   4.333   6.072   1.782
  417SOL    HW1 2150   4.262   6.138   1.808
  417SOL    HW2 2151   4.369   6.096   1.692
  418SOL     OW 2152   4.961   5.660   0.799
  418SOL    HW1 2153   4.948   5.743   0.853
  418SOL    HW2 2154   4.872   5.623   0.772
  419SOL     OW 2155   0.332   6.801   1.287
  419SOL    HW1 2156   0.373   6.734   1.349
  419SOL    HW2 2157   0.357   6.778   1.193
  420SOL     OW 2158   5.029   4.794   0.227
  420SOL    HW1 2159   5.003   4.729   0.299
  420SOL    HW2 2160   5.014   4.752   0.138
  421SOL     OW 2161   2.582   6.337   6.397
  421SOL    HW1 2162   2.645   6.415   6.396
  421SOL    HW2 2163   2.580   6.297   6.488
  422SOL     OW 2164   5.692   4.238   6.950
  422SOL    HW1 2165   5.617   4.269   6.891
  422SOL    HW2 2166   5.772   4.219   6.894
  423SOL     OW 2167   6.561   3.539   6.911
  423SOL    HW1 2168   6.525   3.466   6.852
  423SOL    HW2 2169   6.574   3.503   7.003
  424SOL     OW 2170   3.185   3.949   0.179
  424SOL    HW1 2171   3.224   3.918   0.092
  424SOL    HW2 2172   3.259   3.964   0.244
  425SOL     OW 2173   3.577   1.267   0.812
  425SOL    HW1 2174   3.664   1.304   0.845
  425SOL    HW2 2175   3.587   1.170   0.791
  426SOL     OW 2176   5.427   3.777   6.431
  426SOL    HW1 2177   5.328   3.763   6.432
  426SOL    HW2 2178   5.466   3.731   6.351
  427SOL     OW 2179   5.373   3.986   1.497
  427SOL    HW1 2180   5.464   3.980   1.456
  427SOL    HW2 2181   5.375   3.948   1.589
  428SOL     OW 2182   4.087   0.410   5.338
  428SOL    HW1 2183   4.084   0.334   5.403
  428SOL    HW2 2184   4.044   0.382   5.252
  429SOL     OW 2185   1.679   4.862   0.170
  429SOL    HW1 2186   1.648   4.775   0.208
  429SOL    HW2 2187   1.738   4.908   0.236
  430SOL     OW 2188   1.381   6.765   4.869
  430SOL    HW1 2189   1.393   6.667   4.883
  430SOL    HW2 2190   1.470   6.809   4.860
  431SOL     OW 2191   3.602   1.652   0.803
  431SOL    HW1 2192   3.660   1.714   0.750
  431SOL    HW2 2193   3.508   1.658   0.769
  432SOL     OW 2194   0.172   1.332   0.771
  432SOL    HW1 2195   0.199   1.348   0.676
  432SOL    HW2 2196   0.183   1.234   0.792
  433SOL     OW 2197   3.114   6.690   4.932
  433SOL    HW1 2198   3.174   6.636   4.874
  433SOL    HW2 2199   3.106   6.783   4.895
  434SOL     OW 2200   6.075   3.440   1.058
  434SOL    HW1 2201   6.004   3.385   1.102
  434SOL    HW2 2202   6.033   3.509   0.999
  435SOL     OW 2203   3.116   4.254   6.761
  435SOL    HW1 2204   3.089   4.318   6.689
  435SOL    HW2 2205   3.172   4.301   6.829
  436SOL     OW 2206   1.680   0.994   0.554
  436SOL    HW1 2207   1.603   0.992   0.490
  436SOL    HW2 2208   1.764   1.017   0.505
  437SOL     OW 2209   6.859   7.018   6.511
  437SOL    HW1 2210   6.832   0.023   6.418
  437SOL    HW2 2211   6.790   6.956   6.551
  438SOL     OW 2212   1.442   3.339   1.716
  438SOL    HW1 2213   1.512   3.397   1.674
  438SOL    HW2 2214   1.485   3.284   1.788
  439SOL     OW 2215   6.214   5.058   2.620
  439SOL    HW1 2216   6.259   5.091   2.703
  439SOL    HW2 2217   6.146   5.125   2.590
  440SOL     OW 2218   0.921   2.452   3.717
  440SOL    HW1 2219   1.017   2.479   3.705
  440SOL    HW2 2220   0.878   2.443   3.627
  441SOL     OW 2221   1.550   1.552   3.010
  441SOL    HW1 2222   1.527   1.465   3.052
  441SOL    HW2 2223   1.506   1.559   2.921
  442SOL     OW 2224   6.893   4.231   0.000
  442SOL    HW1 2225   6.935   4.257   0.087
  442SOL    HW2 2226   6.874   4.133   0.001
  443SOL     OW 2227   1.227   3.854   4.870
  443SOL    HW1 2228   1.262   3.898   4.953
  443SOL    HW2 2229   1.210   3.757   4.887
  444SOL     OW 2230   4.650   2.631   5.979
  444SOL    HW1 2231   4.694   2.545   6.004
  444SOL    HW2 2232   4.555   2.630   6.009
  445SOL     OW 2233   2.408   4.596   3.784
  445SOL    HW1 2234   2.351   4.672   3.753
  445SOL    HW2 2235   2.382   4.513   3.735
  446SOL     OW 2236   3.755   5.105   3.914
  446SOL    HW1 2237   3.712   5.057   3.990
  446SOL    HW2 2238   3.737   5.203   3.922
  447SOL     OW 2239   0.140   5.456   0.539
  447SOL    HW1 2240   0.112   5.432   0.632
  447SOL    HW2 2241   0.150   5.555   0.532
  448SOL     OW 2242   4.475   1.148   4.775
  448SOL    HW1 2243   4.518   1.105   4.854
  448SOL    HW2 2244   4.375   1.140   4.783
  449SOL     OW 2245   5.730   1.234   4.865
  449SOL    HW1 2246   5.732   1.185   4.952
  449SOL    HW2 2247   5.809   1.207   4.810
  450SOL     OW 2248   0.290   5.810   3.574
  450SOL    HW1 2249   0.352   5.816   3.496
  450SOL    HW2 2250   0.338   5.770   3.652
  451SOL     OW 2251   0.413   1.478   2.743
  451SOL    HW1 2252   0.399   1.461   2.645
  451SOL    HW2 2253   0.325   1.474   2.790
  452SOL     OW 2254   0.351   4.249   7.002
  452SOL    HW1 2255   0.325   4.301   0.064
  452SOL    HW2 2256   0.451   4.245   6.996
  453SOL     OW 2257   3.034   1.808   6.494
  453SOL    HW1 2258   3.088   1.892   6.494
  453SOL    HW2 2259   3.010   1.784   6.400
  454SOL     OW 2260   0.736   6.183   6.684
  454SOL    HW1 2261   0.779   6.256   6.737
  454SOL    HW2 2262   0.793   6.162   6.605
  455SOL     OW 2263   6.095   0.600   4.281
  455SOL    HW1 2264   6.025   0.669   4.263
  455SOL    HW2 2265   6.145   0.580   4.197
  456SOL     OW 2266   4.221   6.189   6.313
  456SOL    HW1 2267   4.156   6.145   6.252
  456SOL    HW2 2268   4.205   6.158   6.407
  457SOL     OW 2269   2.414   4.477   3.489
  457SOL    HW1 2270   2.381   4.415   3.417
  457SOL    HW2 2271   2.452   4.423   3.564
  458SOL     OW 2272   5.967   5.352   5.812
  458SOL    HW1 2273   5.951   5.305   5.725
  458SOL    HW2 2274   5.942   5.448   5.804
  459SOL     OW 2275   1.538   0.515   2.727
  459SOL    HW1 2276   1.537   0.449   2.653
  459SOL    HW2 2277   1.527   0.468   2.815
  460SOL     OW 2278   6.662   1.799   2.703
  460SOL    HW1 2279   6.588   1.858   2.736
  460SOL    HW2 2280   6.750   1.838   2.729
  461SOL     OW 2281   4.837   6.891   5.089
  461SOL    HW1 2282   4.901   6.962   5.116
  461SOL    HW2 2283   4.820   6.898   4.990
  462SOL     OW 2284   3.137   3.035   6.442
  462SOL    HW1 2285   3.205   3.040   6.369
  462SOL    HW2 2286   3.137   3.122   6.492
  463SOL     OW 2287   6.974   5.245   3.336
  463SOL    HW1 2288   0.017   5.244   3.257
  463SOL    HW2 2289   6.994   5.167   3.396
  464SOL     OW 2290   1.363   1.232   6.336
  464SOL    HW1 2291   1.269   1.265   6.339
  464SOL    HW2 2292   1.384   1.197   6.245
  465SOL     OW 2293   0.674   2.173   3.834
  465SOL    HW1 2294   0.706   2.148   3.742
  465SOL    HW2 2295   0.595   2.116   3.857
  466SOL     OW 2296   1.057   6.964   4.227
  466SOL    HW1 2297   1.142   6.926   4.263
  466SOL    HW2 2298   1.012   6.896   4.169
  467SOL     OW 2299   1.596   0.256   5.427
  467SOL    HW1 2300   1.639   0.248   5.337
  467SOL    HW2 2301   1.642   0.328   5.479
  468SOL     OW 2302   4.094   5.589   1.205
  468SOL    HW1 2303   4.064   5.666   1.261
  468SOL    HW2 2304   4.193   5.592   1.194
  469SOL     OW 2305   2.338   6.054   6.957
  469SOL    HW1 2306   2.348   5.964   7.000
  469SOL    HW2 2307   2.255   6.056   6.902
  470SOL     OW 2308   4.013   0.677   2.475
  470SOL    HW1 2309   4.081   0.730   2.424
  470SOL    HW2 2310   4.054   0.591   2.506
  471SOL     OW 2311   2.220   2.664   4.940
  471SOL    HW1 2312   2.171   2.752   4.944
  471SOL    HW2 2313   2.318   2.680   4.948
  472SOL     OW 2314   4.678   5.801   6.307
  472SOL    HW1 2315   4.635   5.861   6.239
  472SOL    HW2 2316   4.613   5.732   6.337
  473SOL     OW 2317   0.417   2.798   2.663
  473SOL    HW1 2318   0.365   2.715   2.680
  473SOL    HW2 2319   0.393   2.867   2.732
  474SOL     OW 2320   4.010   5.271   4.843
  474SOL    HW1 2321   4.088   5.276   4.781
  474SOL    HW2 2322   4.024   5.333   4.920
  475SOL     OW 2323   0.220   6.736   6.393
  475SOL    HW1 2324   0.121   6.722   6.385
  475SOL    HW2 2325   0.258   6.668   6.456
  476SOL     OW 2326   5.966   4.752   2.217
  476SOL    HW1 2327   6.033   4.810   2.169
  476SOL    HW2 2328   5.902   4.809   2.267
  477SOL     OW 2329   2.087   4.957   4.180
  477SOL    HW1 2330   2.166   4.998   4.134
  477SOL    HW2 2331   2.095   4.857   4.178
  478SOL     OW 2332   3.532   5.567   3.503
  478SOL    HW1 2333   3.511   5.470   3.489
  478SOL    HW2 2334   3.452   5.613   3.542
  479SOL     OW 2335   2.918   2.819   0.710
  479SOL    HW1 2336   3.010   2.781   0.712
  479SOL    HW2 2337   2.880   2.818   0.803
  480SOL     OW 2338   1.417   0.090   2.325
  480SOL    HW1 2339   1.494   0.132   2.277
  480SOL    HW2 2340   1.394   0.003   2.282
  481SOL     OW 2341   2.788   0.195   1.528
  481SOL    HW1 2342   2.779   0.103   1.566
  481SOL    HW2 2343   2.844   0.251   1.590
  482SOL     OW 2344   5.566   4.537   2.389
  482SOL    HW1 2345   5.503   4.468   2.353
  482SOL    HW2 2346   5.519   4.625   2.395
  483SOL     OW 2347   6.055   1.818   1.926
  483SOL    HW1 2348   6.060   1.718   1.918
  483SOL    HW2 2349   6.014   1.842   2.014
  484SOL     OW 2350   0.474   3.129   4.113
  484SOL    HW1 2351   0.433   3.219   4.097
  484SOL    HW2 2352   0.402   3.059   4.109
  485SOL     OW 2353   3.448   4.880   2.433
  485SOL    HW1 2354   3.431   4.923   2.345
  485SOL    HW2 2355   3.412   4.787   2.432
  486SOL     OW 2356   1.050   1.461   0.683
  486SOL    HW1 2357   1.125   1.517   0.718
  486SOL    HW2 2358   1.082   1.403   0.608
  487SOL     OW 2359   0.753   2.151   0.086
  487SOL    HW1 2360   0.829   2.187   0.031
  487SOL    HW2 2361   0.706   2.079   0.035
  488SOL     OW 2362   0.300   2.044   2.055
  488SOL    HW1 2363   0.254   2.131   2.037
  488SOL    HW2 2364   0.283   2.017   2.150
  489SOL     OW 2365   3.529   5.778   0.404
  489SOL    HW1 2366   3.518   5.848   0.334
  489SOL    HW2 2367   3.440   5.757   0.444
  490SOL     OW 2368   6.394   6.568   4.354
  490SOL    HW1 2369   6.439   6.559   4.265
  490SOL    HW2 2370   6.341   6.652   4.356
  491SOL     OW 2371   0.168   2.286   3.120
  491SOL    HW1 2372   0.091   2.223   3.120
  491SOL    HW2 2373   0.185   2.318   3.027
  492SOL     OW 2374   2.791   0.424   6.271
  492SOL    HW1 2375   2.825   0.481   6.197
  492SOL    HW2 2376   2.707   0.464   6.308
  493SOL     OW 2377   6.387   4.599   5.738
  493SOL    HW1 2378   6.446   4.518   5.740
  493SOL    HW2 2379   6.295   4.573   5.768
  494SOL     OW 2380   0.395   6.720   6.897
  494SOL    HW1 2381   0.430   6.628   6.879
  494SOL    HW2 2382   0.295   6.719   6.894
  495SOL     OW 2383   4.897   4.743   2.107
  495SOL    HW1 2384   4.937   4.829   2.139
  495SOL    HW2 2385   4.947   4.711   2.027
  496SOL     OW 2386   5.477   3.320   2.914
  496SOL    HW1 2387   5.399   3.368   2.954
  496SOL    HW2 2388   5.514   3.374   2.838
  497SOL     OW 2389   3.460   1.374   5.025
  497SOL    HW1 2390   3.484   1.287   4.983
  497SOL    HW2 2391   3.531   1.442   5.006
  498SOL     OW 2392   0.244   2.948   2.327
  498SOL    HW1 2393   0.322   2.998   2.365
  498SOL    HW2 2394   0.196   2.900   2.400
  499SOL     OW 2395   3.408   0.218   4.569
  499SOL    HW1 2396   3.351   0.247   4.646
  499SOL    HW2 2397   3.459   0.297   4.534
  500SOL     OW 2398   0.703   3.739   2.828
  500SOL    HW1 2399   0.729   3.755   2.923
  500SOL    HW2 2400   0.761   3.667   2.790
  501SOL     OW 2401   2.334   3.322   6.667
  501SOL    HW1 2402   2.293   3.231   6.659
  501SOL    HW2 2403   2.375   3.348   6.580
  502SOL     OW 2404   4.879   4.951   6.228
  502SOL    HW1 2405   4.839   4.859   6.230
  502SOL    HW2 2406   4.844   5.000   6.148
  503SOL     OW 2407   6.071   4.513   5.502
  503SOL    HW1 2408   6.148   4.474   5.452
  503SOL    HW2 2409   5.991   4.454   5.491
  504SOL     OW 2410   2.243   6.112   4.477
  504SOL    HW1 2411   2.220   6.088   4.383
  504SOL    HW2 2412   2.338   6.142   4.482
  505SOL     OW 2413   4.642   0.469   5.989
  505SOL    HW1 2414   4.712   0.447   5.922
  505SOL    HW2 2415   4.637   0.569   6.002
  506SOL     OW 2416   1.879   4.177   5.433
  506SOL    HW1 2417   1.975   4.205   5.440
  506SOL    HW2 2418   1.820   4.256   5.448
  507SOL     OW 2419   3.066   6.976   4.269
  507SOL    HW1 2420   3.133   0.030   4.284
  507SOL    HW2 2421   2.999   6.978   4.342
  508SOL     OW 2422   5.961   3.834   2.705
  508SOL    HW1 2423   5.984   3.931   2.717
  508SOL    HW2 2424   5.861   3.825   2.701
  509SOL     OW 2425   4.319   1.430   1.437
  509SOL    HW1 2426   4.397   1.385   1.393
  509SOL    HW2 2427   4.314   1.403   1.533
  510SOL     OW 2428   6.862   4.688   5.602
  510SOL    HW1 2429   6.839   4.674   5.698
  510SOL    HW2 2430   6.908   4.777   5.591
  511SOL     OW 2431   0.216   6.338   0.355
  511SOL    HW1 2432   0.311   6.358   0.331
  511SOL    HW2 2433   0.210   6.245   0.391
  512SOL     OW 2434   1.500   3.264   6.818
  512SOL    HW1 2435   1.429   3.228   6.878
  512SOL    HW2 2436   1.523   3.358   6.845
  513SOL     OW 2437   6.334   5.983   3.446
  513SOL    HW1 2438   6.360   6.064   3.393
  513SOL    HW2 2439   6.375   5.902   3.404
  514SOL     OW 2440   6.427   2.128   4.168
  514SOL    HW1 2441   6.444   2.203   4.232
  514SOL    HW2 2442   6.474   2.146   4.082
  515SOL     OW 2443   2.179   0.186   5.854
  515SOL    HW1 2444   2.169   0.163   5.951
  515SOL    HW2 2445   2.099   0.153   5.804
  516SOL     OW 2446   2.208   4.903   1.576
  516SOL    HW1 2447   2.267   4.944   1.506
  516SOL    HW2 2448   2.219   4.951   1.662
  517SOL     OW 2449   5.290   7.013   1.833
  517SOL    HW1 2450   5.365   6.950   1.850
  517SOL    HW2 2451   5.260   0.035   1.919
  518SOL     OW 2452   2.221   2.382   1.355
  518SOL    HW1 2453   2.290   2.386   1.427
  518SOL    HW2 2454   2.239   2.303   1.297
  519SOL     OW 2455   0.524   0.435   5.667
  519SOL    HW1 2456   0.546   0.511   5.728
  519SOL    HW2 2457   0.539   0.462   5.572
  520SOL     OW 2458   5.732   4.996   6.027
  520SOL    HW1 2459   5.826   5.017   6.001
  520SOL    HW2 2460   5.709   4.904   5.998
  521SOL     OW 2461   0.096   2.077   6.412
  521SOL    HW1 2462   0.092   2.027   6.325
  521SOL    HW2 2463   0.121   2.172   6.395
  522SOL     OW 2464   3.698   3.091   5.280
  522SOL    HW1 2465   3.645   3.017   5.322
  522SOL    HW2 2466   3.720   3.067   5.186
  523SOL     OW 2467   6.989   6.965   3.719
  523SOL    HW1 2468   0.050   0.003   3.699
  523SOL    HW2 2469   6.907   0.002   3.712
  524SOL     OW 2470   3.035   1.059   6.761
  524SOL    HW1 2471   2.980   1.139   6.736
  524SOL    HW2 2472   3.118   1.090   6.809
  525SOL     OW 2473   2.982   3.820   6.640
  525SOL    HW1 2474   2.939   3.828   6.730
  525SOL    HW2 2475   3.079   3.840   6.647
  526SOL     OW 2476   3.121   5.403   4.635
  526SOL    HW1 2477   3.027   5.374   4.651
  526SOL    HW2 2478   3.147   5.383   4.541
  527SOL     OW 2479   6.862   1.704   6.397
  527SOL    HW1 2480   6.838   1.789   6.444
  527SOL    HW2 2481   6.961   1.697   6.390
  528SOL     OW 2482   1.774   1.403   5.300
  528SOL    HW1 2483   1.737   1.491   5.331
  528SOL    HW2 2484   1.707   1.358   5.242
  529SOL     OW 2485   1.279   5.047   5.027
  529SOL    HW1 2486   1.235   4.957   5.022
  529SOL    HW2 2487   1.228   5.113   4.972
  530SOL     OW 2488   2.354   3.194   5.356
  530SOL    HW1 2489   2.301   3.220   5.276
  530SOL    HW2 2490   2.439   3.151   5.328
  531SOL     OW 2491   0.682   0.437   1.116
  531SOL    HW1 2492   0.652   0.396   1.202
  531SOL    HW2 2493   0.731   0.522   1.135
  532SOL     OW 2494   1.357   1.991   5.954
  532SOL    HW1 2495   1.452   1.989   5.923
  532SOL    HW2 2496   1.353   2.018   6.050
  533SOL     OW 2497   5.397   6.216   4.555
  533SOL    HW1 2498   5.462   6.141   4.541
  533SOL    HW2 2499   5.442   6.290   4.606
  534SOL     OW 2500   4.275   5.472   3.020
  534SOL    HW1 2501   4.181   5.493   3.049
  534SOL    HW2 2502   4.316   5.409   3.086
  535SOL     OW 2503   0.486   4.100   3.683
  535SOL    HW1 2504   0.507   4.027   3.748
  535SOL    HW2 2505   0.568   4.125   3.633
  536SOL     OW 2506   1.310   5.486   1.351
  536SOL    HW1 2507   1.287   5.572   1.398
  536SOL    HW2 2508   1.386   5.442   1.399
  537SOL     OW 2509   2.454   6.584   2.847
  537SOL    HW1 2510   2.527   6.652   2.853
  537SOL    HW2 2511   2.492   6.497   2.817
  538SOL     OW 2512   1.137   5.848   3.340
  538SOL    HW1 2513   1.200   5.770   3.341
  538SOL    HW2 2514   1.122   5.877   3.246
  539SOL     OW 2515   1.505   5.350   1.498
  539SOL    HW1 2516   1.456   5.276   1.545
  539SOL    HW2 2517   1.597   5.358   1.537
  540SOL     OW 2518   1.168   2.152   2.176
  540SOL    HW1 2519   1.180   2.247   2.204
  540SOL    HW2 2520   1.152   2.094   2.256
  541SOL     OW 2521   3.026   6.439   5.386
  541SOL    HW1 2522   2.977   6.526   5.388
  541SOL    HW2 2523   3.008   6.393   5.299
  542SOL     OW 2524   5.637   6.040   6.997
  542SOL    HW1 2525   5.736   6.047   7.012
  542SOL    HW2 2526   5.604   5.955   0.019
  543SOL     OW 2527   1.198   4.571   6.905
  543SOL    HW1 2528   1.194   4.663   6.944
  543SOL    HW2 2529   1.222   4.505   6.977
  544SOL     OW 2530   0.679   5.468   0.755
  544SOL    HW1 2531   0.773   5.499   0.770
  544SOL    HW2 2532   0.672   5.371   0.778
  545SOL     OW 2533   3.938   1.318   2.799
  545SOL    HW1 2534   3.921   1.413   2.826
  545SOL    HW2 2535   4.030   1.310   2.761
  546SOL     OW 2536   1.017   3.639   1.181
  546SOL    HW1 2537   1.064   3.564   1.134
  546SOL    HW2 2538   0.926   3.609   1.209
  547SOL     OW 2539   2.602   3.158   0.628
  547SOL    HW1 2540   2.626   3.246   0.586
  547SOL    HW2 2541   2.505   3.158   0.650
  548SOL     OW 2542   3.421   3.104   4.256
  548SOL    HW1 2543   3.413   3.033   4.186
  548SOL    HW2 2544   3.380   3.072   4.341
  549SOL     OW 2545   5.037   3.680   1.475
  549SOL    HW1 2546   5.003   3.649   1.387
  549SOL    HW2 2547   5.092   3.607   1.517
  550SOL     OW 2548   6.297   2.894   2.532
  550SOL    HW1 2549   6.207   2.866   2.567
  550SOL    HW2 2550   6.289   2.916   2.434
  551SOL     OW 2551   6.571   1.672   1.097
  551SOL    HW1 2552   6.483   1.675   1.145
  551SOL    HW2 2553   6.554   1.665   0.998
  552SOL     OW 2554   3.605   5.274   0.726
  552SOL    HW1 2555   3.576   5.263   0.631
  552SOL    HW2 2556   3.541   5.227   0.786
  553SOL     OW 2557   2.576   1.175   1.204
  553SOL    HW1 2558   2.610   1.189   1.297
  553SOL    HW2 2559   2.535   1.260   1.171
  554SOL     OW 2560   6.115   6.795   5.595
  554SOL    HW1 2561   6.037   6.851   5.567
  554SOL    HW2 2562   6.100   6.700   5.569
  555SOL     OW 2563   1.413   4.565   4.287
  555SOL    HW1 2564   1.428   4.544   4.384
  555SOL    HW2 2565   1.483   4.629   4.255
  556SOL     OW 2566   5.969   2.745   3.632
  556SOL    HW1 2567   5.908   2.677   3.591
  556SOL    HW2 2568   5.926   2.782   3.715
  557SOL     OW 2569   6.999   6.023   6.336
  557SOL    HW1 2570   0.024   6.057   6.253
  557SOL    HW2 2571   6.903   6.001   6.317
  558SOL     OW 2572   4.229   3.625   5.117
  558SOL    HW1 2573   4.200   3.531   5.138
  558SOL    HW2 2574   4.273   3.627   5.028
  559SOL     OW 2575   0.586   5.795   6.449
  559SOL    HW1 2576   0.529   5.863   6.403
  559SOL    HW2 2577   0.532   5.713   6.466
  560SOL     OW 2578   4.784   6.798   0.457
  560SOL    HW1 2579   4.691   6.804   0.494
  560SOL    HW2 2580   4.850   6.810   0.531
  561SOL     OW 2581   6.057   6.891   0.528
  561SOL    HW1 2582   6.007   6.867   0.445
  561SOL    HW2 2583   6.155   6.886   0.510
  562SOL     OW 2584   5.101   1.096   6.124
  562SOL    HW1 2585   5.193   1.127   6.148
  562SOL    HW2 2586   5.099   1.066   6.029
  563SOL     OW 2587   2.857   6.312   4.398
  563SOL    HW1 2588   2.867   6.277   4.305
  563SOL    HW2 2589   2.842   6.236   4.461
  564SOL     OW 2590   0.370   1.310   6.860
  564SOL    HW1 2591   0.363   1.220   6.818
  564SOL    HW2 2592   0.452   1.314   6.917
  565SOL     OW 2593   4.580   3.962   5.615
  565SOL    HW1 2594   4.506   3.963   5.682
  565SOL    HW2 2595   4.579   4.046   5.561
  566SOL     OW 2596   4.420   4.511   3.402
  566SOL    HW1 2597   4.393   4.484   3.494
  566SOL    HW2 2598   4.447   4.429   3.350
  567SOL     OW 2599   3.150   3.559   5.004
  567SOL    HW1 2600   3.111   3.599   4.921
  567SOL    HW2 2601   3.167   3.461   4.989
  568SOL     OW 2602   2.506   1.836   0.326
  568SOL    HW1 2603   2.599   1.870   0.314
  568SOL    HW2 2604   2.489   1.817   0.422
  569SOL     OW 2605   1.626   3.123   0.929
  569SOL    HW1 2606   1.562   3.080   0.993
  569SOL    HW2 2607   1.617   3.081   0.839
  570SOL     OW 2608   0.868   6.282   0.583
  570SOL    HW1 2609   0.954   6.331   0.568
  570SOL    HW2 2610   0.791   6.341   0.563
  571SOL     OW 2611   3.706   5.309   2.748
  571SOL    HW1 2612   3.668   5.299   2.656
  571SOL    HW2 2613   3.805   5.325   2.742
  572SOL     OW 2614   1.512   4.152   5.133
  572SOL    HW1 2615   1.596   4.110   5.169
  572SOL    HW2 2616   1.486   4.229   5.191
  573SOL     OW 2617   3.929   1.414   5.540
  573SOL    HW1 2618   3.962   1.431   5.634
  573SOL    HW2 2619   3.912   1.502   5.495
  574SOL     OW 2620   2.268   2.107   4.292
  574SOL    HW1 2621   2.350   2.155   4.262
  574SOL    HW2 2622   2.208   2.171   4.340
  575SOL     OW 2623   6.403   2.624   0.269
  575SOL    HW1 2624   6.416   2.602   0.172
  575SOL    HW2 2625   6.487   2.662   0.306
  576SOL     OW 2626   1.322   1.795   2.623
  576SOL    HW1 2627   1.300   1.892   2.619
  576SOL    HW2 2628   1.357   1.772   2.713
  577SOL     OW 2629   2.935   1.916   3.505
  577SOL    HW1 2630   2.990   1.982   3.556
  577SOL    HW2 2631   2.853   1.892   3.557
  578SOL     OW 2632   0.619   3.278   3.435
  578SOL    HW1 2633   0.541   3.340   3.423
  578SOL    HW2 2634   0.697   3.330   3.471
  579SOL     OW 2635   5.189   2.292   0.211
  579SOL    HW1 2636   5.100   2.254   0.236
  579SOL    HW2 2637   5.254   2.217   0.199
  580SOL     OW 2638   1.532   5.332   6.561
  580SOL    HW1 2639   1.476   5.322   6.643
  580SOL    HW2 2640   1.624   5.363   6.587
  581SOL     OW 2641   3.700   2.948   2.781
  581SOL    HW1 2642   3.625   2.910   2.727
  581SOL    HW2 2643   3.678   2.941   2.878
  582SOL     OW 2644   5.356   3.544   2.575
  582SOL    HW1 2645   5.304   3.577   2.497
  582SOL    HW2 2646   5.398   3.456   2.554
  583SOL     OW 2647   2.400   4.432   0.243
  583SOL    HW1 2648   2.396   4.456   0.146
  583SOL    HW2 2649   2.495   4.440   0.275
  584SOL     OW 2650   6.980   4.514   5.001
  584SOL    HW1 2651   7.004   4.543   4.909
  584SOL    HW2 2652   0.034   4.540   5.064
  585SOL     OW 2653   0.133   1.627   6.397
  585SOL    HW1 2654   0.158   1.544   6.447
  585SOL    HW2 2655   0.146   1.612   6.299
  586SOL     OW 2656   2.068   6.956   0.639
  586SOL    HW1 2657   1.969   6.969   0.640
  586SOL    HW2 2658   2.112   0.014   0.685
  587SOL     OW 2659   1.134   3.472   5.655
  587SOL    HW1 2660   1.188   3.554   5.674
  587SOL    HW2 2661   1.188   3.390   5.676
  588SOL     OW 2662   3.204   6.313   1.784
  588SOL    HW1 2663   3.293   6.291   1.744
  588SOL    HW2 2664   3.217   6.341   1.880
  589SOL     OW 2665   3.544   5.207   2.550
  589SOL    HW1 2666   3.459   5.201   2.498
  589SOL    HW2 2667   3.581   5.114   2.564
  590SOL     OW 2668   0.175   1.766   1.731
  590SOL    HW1 2669   0.172   1.749   1.829
  590SOL    HW2 2670   0.082   1.763   1.694
  591SOL     OW 2671   3.834   6.922   3.336
  591SOL    HW1 2672   3.863   6.897   3.243
  591SOL    HW2 2673   3.765   6.857   3.367
  592SOL     OW 2674   5.091   0.881   7.002
  592SOL    HW1 2675   5.131   0.818   0.050
  592SOL    HW2 2676   5.067   0.967   0.029
  593SOL     OW 2677   4.819   2.367   3.724
  593SOL    HW1 2678   4.907   2.346   3.681
  593SOL    HW2 2679   4.772   2.282   3.746
  594SOL     OW 2680   3.801   3.895   1.171
  594SOL    HW1 2681   3.782   3.812   1.119
  594SOL    HW2 2682   3.884   3.938   1.136
  595SOL     OW 2683   3.527   6.137   3.902
  595SOL    HW1 2684   3.513   6.149   3.804
  595SOL    HW2 2685   3.519   6.225   3.948
  596SOL     OW 2686   1.251   3.926   2.936
  596SOL    HW1 2687   1.312   3.955   2.863
  596SOL    HW2 2688   1.156   3.933   2.906
  597SOL     OW 2689   4.315   1.018   5.176
  597SOL    HW1 2690   4.289   0.951   5.246
  597SOL    HW2 2691   4.247   1.017   5.103
  598SOL     OW 2692   3.939   4.502   0.684
  598SOL    HW1 2693   3.884   4.472   0.762
  598SOL    HW2 2694   3.946   4.602   0.683
  599SOL     OW 2695   6.365   0.211   2.558
  599SOL    HW1 2696   6.338   0.117   2.578
  599SOL    HW2 2697   6.448   0.234   2.610
  600SOL     OW 2698   2.300   0.093   0.176
  600SOL    HW1 2699   2.255   0.173   0.216
  600SOL    HW2 2700   2.233   0.022   0.158
  601SOL     OW 2701   3.147   5.482   4.191
  601SOL    HW1 2702   3.235   5.454   4.153
  601SOL    HW2 2703   3.129   5.430   4.275
  602SOL     OW 2704   2.117   0.340   1.392
  602SOL    HW1 2705   2.176   0.261   1.406
  602SOL    HW2 2706   2.154   0.419   1.441
  603SOL     OW 2707   4.019   2.223   3.227
  603SOL    HW1 2708   4.062   2.267   3.306
  603SOL    HW2 2709   4.057   2.263   3.143
  604SOL     OW 2710   0.720   4.074   6.299
  604SOL    HW1 2711   0.743   4.158   6.349
  604SOL    HW2 2712   0.784   4.063   6.222
  605SOL     OW 2713   5.848   0.109   3.870
  605SOL    HW1 2714   5.941   0.133   3.897
  605SOL    HW2 2715   5.812   0.038   3.931
  606SOL     OW 2716   3.885   0.302   3.739
  606SOL    HW1 2717   3.848   0.257   3.819
  606SOL    HW2 2718   3.829   0.280   3.659
  607SOL     OW 2719   5.266   0.907   4.248
  607SOL    HW1 2720   5.175   0.936   4.279
  607SOL    HW2 2721   5.335   0.959   4.297
  608SOL     OW 2722   3.673   1.054   1.017
  608SOL    HW1 2723   3.721   1.064   0.929
  608SOL    HW2 2724   3.734   1.085   1.090
  609SOL     OW 2725   3.479   3.506   4.304
  609SOL    HW1 2726   3.515   3.425   4.257
  609SOL    HW2 2727   3.405   3.546   4.250
  610SOL     OW 2728   5.101   2.530   4.156
  610SOL    HW1 2729   5.136   2.447   4.112
  610SOL    HW2 2730   5.069   2.594   4.086
  611SOL     OW 2731   0.289   6.778   0.285
  611SOL    HW1 2732   0.248   6.696   0.245
  611SOL    HW2 2733   0.272   6.856   0.225
  612SOL     OW 2734   2.917   5.663   6.102
  612SOL    HW1 2735   2.857   5.722   6.047
  612SOL    HW2 2736   3.013   5.684   6.080
  613SOL     OW 2737   3.323   1.711   0.032
  613SOL    HW1 2738   3.324   1.611   0.028
  613SOL    HW2 2739   3.319   1.740   0.128
  614SOL     OW 2740   5.248   4.899   1.081
  614SOL    HW1 2741   5.309   4.919   1.157
  614SOL    HW2 2742   5.248   4.976   1.017
  615SOL     OW 2743   6.931   6.957   1.019
  615SOL    HW1 2744   6.958   6.967   1.115
  615SOL    HW2 2745   7.004   6.910   0.970
  616SOL     OW 2746   6.185   1.233   4.302
  616SOL    HW1 2747   6.281   1.213   4.282
  616SOL    HW2 2748   6.158   1.316   4.254
  617SOL     OW 2749   0.661   4.798   5.588
  617SOL    HW1 2750   0.673   4.864   5.662
  617SOL    HW2 2751   0.742   4.799   5.529
  618SOL     OW 2752   6.363   3.276   0.268
  618SOL    HW1 2753   6.359   3.247   0.364
  618SOL    HW2 2754   6.443   3.237   0.224
  619SOL     OW 2755   2.466   0.327   0.382
  619SOL    HW1 2756   2.450   0.411   0.331
  619SOL    HW2 2757   2.480   0.251   0.318
  620SOL     OW 2758   6.650   1.788   2.409
  620SOL    HW1 2759   6.646   1.779   2.509
  620SOL    HW2 2760   6.601   1.712   2.367
  621SOL     OW 2761   3.499   1.256   6.651
  621SOL    HW1 2762   3.427   1.198   6.615
  621SOL    HW2 2763   3.513   1.334   6.590
  622SOL     OW 2764   1.168   1.842   5.057
  622SOL    HW1 2765   1.247   1.904   5.050
  622SOL    HW2 2766   1.194   1.751   5.024
  623SOL     OW 2767   5.812   6.957   4.511
  623SOL    HW1 2768   5.724   6.995   4.540
  623SOL    HW2 2769   5.883   6.987   4.574
  624SOL     OW 2770   6.351   0.668   6.431
  624SOL    HW1 2771   6.333   0.673   6.333
  624SOL    HW2 2772   6.331   0.757   6.473
  625SOL     OW 2773   2.322   1.474   0.309
  625SOL    HW1 2774   2.340   1.544   0.240
  625SOL    HW2 2775   2.401   1.412   0.314
  626SOL     OW 2776   0.710   5.243   3.767
  626SOL    HW1 2777   0.644   5.172   3.740
  626SOL    HW2 2778   0.762   5.210   3.846
  627SOL     OW 2779   6.387   0.003   6.792
  627SOL    HW1 2780   6.456   6.968   6.744
  627SOL    HW2 2781   6.332   6.962   6.851
  628SOL     OW 2782   4.842   4.963   5.679
  628SOL    HW1 2783   4.895   4.987   5.760
  628SOL    HW2 2784   4.884   4.883   5.634
  629SOL     OW 2785   0.205   6.287   6.049
  629SOL    HW1 2786   0.202   6.387   6.049
  629SOL    HW2 2787   0.288   6.256   6.096
  630SOL     OW 2788   6.784   0.984   1.090
  630SOL    HW1 2789   6.738   0.904   1.129
  630SOL    HW2 2790   6.856   0.953   1.027
  631SOL     OW 2791   2.102   2.408   4.957
  631SOL    HW1 2792   2.152   2.349   4.894
  631SOL    HW2 2793   2.136   2.502   4.949
  632SOL     OW 2794   2.910   3.255   6.978
  632SOL    HW1 2795   2.845   3.182   6.961
  632SOL    HW2 2796   2.911   3.318   6.900
  633SOL     OW 2797   1.938   5.585   1.517
  633SOL    HW1 2798   1.915   5.565   1.421
  633SOL    HW2 2799   2.036   5.574   1.530
  634SOL     OW 2800   3.030   3.149   3.825
  634SOL    HW1 2801   2.954   3.207   3.852
  634SOL    HW2 2802   3.064   3.178   3.735
  635SOL     OW 2803   5.609   0.892   6.414
  635SOL    HW1 2804   5.702   0.869   6.385
  635SOL    HW2 2805   5.589   0.848   6.502
  636SOL     OW 2806   2.720   1.069   6.636
  636SOL    HW1 2807   2.684   1.137   6.700
  636SOL    HW2 2808   2.773   1.114   6.565
  637SOL     OW 2809   6.669   0.911   1.799
  637SOL    HW1 2810   6.695   0.818   1.824
  637SOL    HW2 2811   6.711   0.976   1.862
  638SOL     OW 2812   6.534   3.565   3.874
  638SOL    HW1 2813   6.588   3.585   3.956
  638SOL    HW2 2814   6.585   3.501   3.816
  639SOL     OW 2815   4.755   4.851   2.863
  639SOL    HW1 2816   4.772   4.753   2.850
  639SOL    HW2 2817   4.658   4.870   2.846
  640SOL     OW 2818   0.879   2.338   2.060
  640SOL    HW1 2819   0.825   2.259   2.029
  640SOL    HW2 2820   0.819   2.401   2.110
  641SOL     OW 2821   1.975   5.076   4.394
  641SOL    HW1 2822   2.020   5.039   4.313
  641SOL    HW2 2823   1.990   5.015   4.472
  642SOL     OW 2824   0.742   3.499   4.721
  642SOL    HW1 2825   0.743   3.400   4.734
  642SOL    HW2 2826   0.707   3.521   4.630
  643SOL     OW 2827   5.092   5.143   6.822
  643SOL    HW1 2828   5.125   5.160   6.915
  643SOL    HW2 2829   5.070   5.046   6.811
  644SOL     OW 2830   6.629   7.016   4.952
  644SOL    HW1 2831   6.632   6.926   4.908
  644SOL    HW2 2832   6.721   0.024   4.979
  645SOL     OW 2833   4.198   4.971   2.035
  645SOL    HW1 2834   4.257   4.933   1.964
  645SOL    HW2 2835   4.115   4.916   2.042
  646SOL     OW 2836   3.813   1.008   5.298
  646SOL    HW1 2837   3.739   1.072   5.276
  646SOL    HW2 2838   3.799   0.972   5.390
  647SOL     OW 2839   4.549   2.483   5.674
  647SOL    HW1 2840   4.513   2.511   5.585
  647SOL    HW2 2841   4.525   2.551   5.743
  648SOL     OW 2842   5.566   1.912   3.465
  648SOL    HW1 2843   5.559   1.934   3.562
  648SOL    HW2 2844   5.485   1.945   3.417
  649SOL     OW 2845   2.361   5.892   0.664
  649SOL    HW1 2846   2.376   5.807   0.614
  649SOL    HW2 2847   2.287   5.879   0.731
  650SOL     OW 2848   0.043   4.894   1.124
  650SOL    HW1 2849   6.963   4.877   1.115
  650SOL    HW2 2850   0.072   4.870   1.216
  651SOL     OW 2851   1.431   0.241   4.837
  651SOL    HW1 2852   1.440   0.318   4.774
  651SOL    HW2 2853   1.338   0.240   4.875
  652SOL     OW 2854   3.470   6.412   1.678
  652SOL    HW1 2855   3.403   6.454   1.617
  652SOL    HW2 2856   3.515   6.336   1.632
  653SOL     OW 2857   0.726   6.998   1.836
  653SOL    HW1 2858   0.784   0.024   1.768
  653SOL    HW2 2859   0.755   6.903   1.847
  654SOL     OW 2860   6.946   6.752   4.867
  654SOL    HW1 2861   6.931   6.732   4.964
  654SOL    HW2 2862   0.004   6.698   4.834
  655SOL     OW 2863   6.874   4.201   1.900
  655SOL    HW1 2864   6.906   4.119   1.948
  655SOL    HW2 2865   6.797   4.241   1.949
  656SOL     OW 2866   3.575   6.367   0.723
  656SOL    HW1 2867   3.518   6.285   0.713
  656SOL    HW2 2868   3.626   6.363   0.808
  657SOL     OW 2869   3.844   2.914   2.235
  657SOL    HW1 2870   3.932   2.870   2.216
  657SOL    HW2 2871   3.810   2.957   2.152
  658SOL     OW 2872   2.219   3.036   4.068
  658SOL    HW1 2873   2.148   2.997   4.127
  658SOL    HW2 2874   2.182   3.114   4.018
  659SOL     OW 2875   2.651   6.308   5.976
  659SOL    HW1 2876   2.737   6.256   5.972
  659SOL    HW2 2877   2.592   6.270   6.047
  660SOL     OW 2878   5.084   4.327   2.395
  660SOL    HW1 2879   5.143   4.385   2.338
  660SOL    HW2 2880   5.085   4.233   2.360
  661SOL     OW 2881   4.246   4.693   4.319
  661SOL    HW1 2882   4.264   4.750   4.238
  661SOL    HW2 2883   4.168   4.731   4.369
  662SOL     OW 2884   4.898   3.516   0.280
  662SOL    HW1 2885   4.879   3.469   0.194
  662SOL    HW2 2886   4.813   3.556   0.316
  663SOL     OW 2887   0.380   4.154   0.547
  663SOL    HW1 2888   0.403   4.111   0.634
  663SOL    HW2 2889   0.319   4.231   0.562
  664SOL     OW 2890   2.111   6.930   0.096
  664SOL    HW1 2891   2.046   6.889   0.160
  664SOL    HW2 2892   2.100   6.887   0.006
  665SOL     OW 2893   4.351   5.379   1.091
  665SOL    HW1 2894   4.409   5.305   1.058
  665SOL    HW2 2895   4.357   5.456   1.027
  666SOL     OW 2896   3.297   1.775   0.285
  666SOL    HW1 2897   3.200   1.766   0.304
  666SOL    HW2 2898   3.349   1.772   0.371
  667SOL     OW 2899   0.808   2.386   2.830
  667SOL    HW1 2900   0.762   2.471   2.858
  667SOL    HW2 2901   0.809   2.323   2.908
  668SOL     OW 2902   5.476   0.037   0.555
  668SOL    HW1 2903   5.561   0.006   0.598
  668SOL    HW2 2904   5.432   6.978   0.509
  669SOL     OW 2905   1.893   6.346   3.113
  669SOL    HW1 2906   1.895   6.412   3.188
  669SOL    HW2 2907   1.951   6.380   3.038
  670SOL     OW 2908   3.112   3.513   3.564
  670SOL    HW1 2909   3.115   3.414   3.570
  670SOL    HW2 2910   3.162   3.554   3.640
  671SOL     OW 2911   1.817   0.129   6.214
  671SOL    HW1 2912   1.781   0.178   6.134
  671SOL    HW2 2913   1.895   0.179   6.251
  672SOL     OW 2914   2.318   2.784   4.054
  672SOL    HW1 2915   2.241   2.758   4.112
  672SOL    HW2 2916   2.311   2.882   4.032
  673SOL     OW 2917   5.791   0.069   1.193
  673SOL    HW1 2918   5.841   0.138   1.246
  673SOL    HW2 2919   5.737   0.115   1.122
  674SOL     OW 2920   0.582   1.667   3.529
  674SOL    HW1 2921   0.597   1.745   3.468
  674SOL    HW2 2922   0.498   1.681   3.581
  675SOL     OW 2923   6.751   2.779   4.823
  675SOL    HW1 2924   6.842   2.795   4.787
  675SOL    HW2 2925   6.708   2.704   4.773
  676SOL     OW 2926   2.176   4.765   4.493
  676SOL    HW1 2927   2.267   4.725   4.504
  676SOL    HW2 2928   2.135   4.732   4.408
  677SOL     OW 2929   6.542   0.079   0.918
  677SOL    HW1 2930   6.484   0.016   0.866
  677SOL    HW2 2931   6.637   0.070   0.887
  678SOL     OW 2932   2.546   1.600   6.135
  678SOL    HW1 2933   2.461   1.648   6.114
  678SOL    HW2 2934   2.574   1.546   6.056
  679SOL     OW 2935   4.572   0.017   2.659
  679SOL    HW1 2936   4.484   0.024   2.613
  679SOL    HW2 2937   4.616   6.950   2.634
  680SOL     OW 2938   4.912   4.086   5.412
  680SOL    HW1 2939   4.832   4.091   5.351
  680SOL    HW2 2940   4.906   4.004   5.469
  681SOL     OW 2941   1.129   0.000   1.640
  681SOL    HW1 2942   1.059   0.004   1.568
  681SOL    HW2 2943   1.127   0.085   1.692
  682SOL     OW 2944   2.071   5.962   0.332
  682SOL    HW1 2945   1.974   5.984   0.342
  682SOL    HW2 2946   2.125   6.019   0.395
  683SOL     OW 2947   5.466   1.318   0.230
  683SOL    HW1 2948   5.459   1.307   0.329
  683SOL    HW2 2949   5.429   1.238   0.184
  684SOL     OW 2950   0.217   5.434   6.195
  684SOL    HW1 2951   0.156   5.500   6.150
  684SOL    HW2 2952   0.294   5.415   6.135
  685SOL     OW 2953   6.213   0.294   5.351
  685SOL    HW1 2954   6.175   0.381   5.380
  685SOL    HW2 2955   6.240   0.300   5.255
  686SOL     OW 2956   5.358   4.895   2.711
  686SOL    HW1 2957   5.293   4.968   2.730
  686SOL    HW2 2958   5.324   4.809   2.747
  687SOL     OW 2959   6.488   3.553   5.752
  687SOL    HW1 2960   6.444   3.500   5.824
  687SOL    HW2 2961   6.441   3.641   5.742
  688SOL     OW 2962   6.712   3.705   5.711
  688SOL    HW1 2963   6.780   3.713   5.784
  688SOL    HW2 2964   6.643   3.638   5.737
  689SOL     OW 2965   5.695   3.528   5.985
  689SOL    HW1 2966   5.633   3.559   5.913
  689SOL    HW2 2967   5.693   3.593   6.061
  690SOL     OW 2968   1.524   2.208   2.983
  690SOL    HW1 2969   1.429   2.189   2.959
  690SOL    HW2 2970   1.555   2.141   3.051
  691SOL     OW 2971   0.934   2.821   6.383
  691SOL    HW1 2972   1.025   2.780   6.385
  691SOL    HW2 2973   0.913   2.852   6.290
  692SOL     OW 2974   2.542   7.017   2.905
  692SOL    HW1 2975   2.597   6.950   2.956
  692SOL    HW2 2976   2.477   6.969   2.846
  693SOL     OW 2977   6.903   2.249   1.993
  693SOL    HW1 2978   6.875   2.236   2.088
  693SOL    HW2 2979   7.003   2.250   1.987
  694SOL     OW 2980   1.884   0.433   1.238
  694SOL    HW1 2981   1.863   0.390   1.150
  694SOL    HW2 2982   1.979   0.413   1.264
  695SOL     OW 2983   4.529   6.160   5.425
  695SOL    HW1 2984   4.580   6.191   5.345
  695SOL    HW2 2985   4.437   6.134   5.397
  696SOL     OW 2986   4.332   5.082   2.551
  696SOL    HW1 2987   4.423   5.122   2.560
  696SOL    HW2 2988   4.338   4.983   2.553
  697SOL     OW 2989   1.269   4.287   3.726
  697SOL    HW1 2990   1.360   4.268   3.691
  697SOL    HW2 2991   1.202   4.228   3.680
  698SOL     OW 2992   4.548   0.238   3.613
  698SOL    HW1 2993   4.599   0.247   3.699
  698SOL    HW2 2994   4.456   0.276   3.625
  699SOL     OW 2995   1.700   4.503   1.116
  699SOL    HW1 2996   1.758   4.577   1.082
  699SOL    HW2 2997   1.733   4.416   1.081
  700SOL     OW 2998   2.542   2.053   4.481
  700SOL    HW1 2999   2.602   1.995   4.426
  700SOL    HW2 3000   2.461   2.001   4.508
  701SOL     OW 3001   0.056   4.184   5.967
  701SOL    HW1 3002   0.133   4.247   5.970
  701SOL    HW2 3003   6.994   4.232   5.931
  702SOL     OW 3004   5.467   5.990   4.240
  702SOL    HW1 3005   5.433   5.904   4.278
  702SOL    HW2 3006   5.405   6.064   4.265
  703SOL     OW 3007   3.799   3.867   6.559
  703SOL    HW1 3008   3.800   3.770   6.584
  703SOL    HW2 3009   3.767   3.877   6.465
  704SOL     OW 3010   1.720   0.314   0.121
  704SOL    HW1 3011   1.819   0.319   0.108
  704SOL    HW2 3012   1.676   0.388   0.071
  705SOL     OW 3013   6.072   2.019   2.537
  705SOL    HW1 3014   5.973   2.009   2.547
  705SOL    HW2 3015   6.097   2.016   2.441
  706SOL     OW 3016   3.626   1.794   3.467
  706SOL    HW1 3017   3.601   1.772   3.562
  706SOL    HW2 3018   3.723   1.775   3.453
  707SOL     OW 3019   4.709   0.452   1.537
  707SOL    HW1 3020   4.788   0.511   1.524
  707SOL    HW2 3021   4.708   0.381   1.467
  708SOL     OW 3022   4.076   0.648   1.441
  708SOL    HW1 3023   3.991   0.604   1.469
  708SOL    HW2 3024   4.057   0.742   1.413
  709SOL     OW 3025   0.815   4.468   0.248
  709SOL    HW1 3026   0.722   4.460   0.212
  709SOL    HW2 3027   0.859   4.547   0.206
  710SOL     OW 3028   3.071   3.728   2.852
  710SOL    HW1 3029   3.004   3.741   2.779
  710SOL    HW2 3030   3.029   3.681   2.929
  711SOL     OW 3031   0.174   0.698   4.251
  711SOL    HW1 3032   0.083   0.712   4.213
  711SOL    HW2 3033   0.236   0.768   4.215
  712SOL     OW 3034   1.382   4.021   1.480
  712SOL    HW1 3035   1.421   4.112   1.464
  712SOL    HW2 3036   1.301   4.029   1.538
  713SOL     OW 3037   3.484   2.835   2.650
  713SOL    HW1 3038   3.445   2.762   2.706
  713SOL    HW2 3039   3.410   2.883   2.602
  714SOL     OW 3040   4.743   4.820   4.924
  714SOL    HW1 3041   4.664   4.855   4.875
  714SOL    HW2 3042   4.813   4.792   4.858
  715SOL     OW 3043   4.675   6.966   6.454
  715SOL    HW1 3044   4.750   6.969   6.388
  715SOL    HW2 3045   4.588   6.968   6.405
  716SOL     OW 3046   0.211   4.792   1.560
  716SOL    HW1 3047   0.117   4.824   1.568
  716SOL    HW2 3048   0.236   4.785   1.463
  717SOL     OW 3049   6.387   2.429   0.553
  717SOL    HW1 3050   6.367   2.366   0.478
  717SOL    HW2 3051   6.372   2.383   0.640
  718SOL     OW 3052   3.623   3.554   5.947
  718SOL    HW1 3053   3.539   3.572   5.897
  718SOL    HW2 3054   3.675   3.483   5.899
  719SOL     OW 3055   5.647   4.004   1.428
  719SOL    HW1 3056   5.729   4.013   1.372
  719SOL    HW2 3057   5.629   4.090   1.476
  720SOL     OW 3058   2.331   1.697   6.017
  720SOL    HW1 3059   2.329   1.787   5.972
  720SOL    HW2 3060   2.357   1.627   5.950
  721SOL     OW 3061   1.511   0.125   6.021
  721SOL    HW1 3062   1.571   0.050   5.997
  721SOL    HW2 3063   1.447   0.096   6.092
  722SOL     OW 3064   3.843   0.174   4.714
  722SOL    HW1 3065   3.916   0.239   4.692
  722SOL    HW2 3066   3.821   0.120   4.633
  723SOL     OW 3067   1.140   2.921   2.125
  723SOL    HW1 3068   1.111   2.898   2.032
  723SOL    HW2 3069   1.170   2.839   2.172
  724SOL     OW 3070   6.994   1.122   4.656
  724SOL    HW1 3071   6.967   1.170   4.572
  724SOL    HW2 3072   6.979   1.024   4.646
  725SOL     OW 3073   1.949   4.610   2.227
  725SOL    HW1 3074   1.928   4.658   2.312
  725SOL    HW2 3075   1.885   4.638   2.156
  726SOL     OW 3076   4.153   0.054   6.745
  726SOL    HW1 3077   4.152   0.026   6.649
  726SOL    HW2 3078   4.072   0.111   6.763
  727SOL     OW 3079   2.697   5.330   4.085
  727SOL    HW1 3080   2.601   5.312   4.105
  727SOL    HW2 3081   2.748   5.337   4.171
  728SOL     OW 3082   6.827   4.162   4.492
  728SOL    HW1 3083   6.897   4.092   4.507
  728SOL    HW2 3084   6.864   4.252   4.517
  729SOL     OW 3085   2.484   0.179   1.641
  729SOL    HW1 3086   2.548   0.185   1.564
  729SOL    HW2 3087   2.501   0.255   1.704
  730SOL     OW 3088   6.225   0.831   3.575
  730SOL    HW1 3089   6.311   0.881   3.567
  730SOL    HW2 3090   6.243   0.734   3.590
  731SOL     OW 3091   5.591   3.675   4.371
  731SOL    HW1 3092   5.651   3.649   4.295
  731SOL    HW2 3093   5.635   3.652   4.457
  732SOL     OW 3094   6.432   2.603   1.252
  732SOL    HW1 3095   6.378   2.640   1.328
  732SOL    HW2 3096   6.410   2.506   1.239
  733SOL     OW 3097   4.607   4.317   3.950
  733SOL    HW1 3098   4.596   4.242   4.015
  733SOL    HW2 3099   4.633   4.279   3.860
  734SOL     OW 3100   6.160   4.750   1.211
  734SOL    HW1 3101   6.070   4.774   1.246
  734SOL    HW2 3102   6.157   4.658   1.172
  735SOL     OW 3103   1.406   4.545   6.013
  735SOL    HW1 3104   1.339   4.492   6.064
  735SOL    HW2 3105   1.407   4.513   5.918
  736SOL     OW 3106   6.588   0.959   3.371
  736SOL    HW1 3107   6.523   0.965   3.294
  736SOL    HW2 3108   6.681   0.973   3.336
  737SOL     OW 3109   5.458   3.273   0.945
  737SOL    HW1 3110   5.508   3.213   0.883
  737SOL    HW2 3111   5.477   3.369   0.922
  738SOL     OW 3112   0.615   3.852   3.874
  738SOL    HW1 3113   0.558   3.783   3.920
  738SOL    HW2 3114   0.634   3.823   3.781
  739SOL     OW 3115   4.032   6.160   5.592
  739SOL    HW1 3116   4.037   6.071   5.639
  739SOL    HW2 3117   4.002   6.146   5.498
  740SOL     OW 3118   6.434   6.580   1.636
  740SOL    HW1 3119   6.465   6.551   1.545
  740SOL    HW2 3120   6.373   6.511   1.674
  741SOL     OW 3121   2.244   6.774   3.003
  741SOL    HW1 3122   2.153   6.815   3.001
  741SOL    HW2 3123   2.300   6.812   2.930
  742SOL     OW 3124   1.462   0.236   3.313
  742SOL    HW1 3125   1.530   0.205   3.246
  742SOL    HW2 3126   1.370   0.225   3.275
  743SOL     OW 3127   1.813   3.777   4.436
  743SOL    HW1 3128   1.799   3.875   4.432
  743SOL    HW2 3129   1.903   3.757   4.475
  744SOL     OW 3130   0.220   5.453   0.279
  744SOL    HW1 3131   0.194   5.542   0.242
  744SOL    HW2 3132   0.208   5.454   0.378
  745SOL     OW 3133   1.595   6.327   2.724
  745SOL    HW1 3134   1.683   6.282   2.742
  745SOL    HW2 3135   1.563   6.303   2.633
  746SOL     OW 3136   1.577   0.730   5.164
  746SOL    HW1 3137   1.528   0.667   5.224
  746SOL    HW2 3138   1.525   0.814   5.153
  747SOL     OW 3139   4.930   4.646   3.479
  747SOL    HW1 3140   4.951   4.578   3.550
  747SOL    HW2 3141   4.923   4.601   3.390
  748SOL     OW 3142   4.936   3.539   1.257
  748SOL    HW1 3143   4.946   3.443   1.281
  748SOL    HW2 3144   4.839   3.564   1.257
  749SOL     OW 3145   0.315   2.196   5.395
  749SOL    HW1 3146   0.301   2.099   5.417
  749SOL    HW2 3147   0.325   2.208   5.297
  750SOL     OW 3148   2.368   4.094   6.886
  750SOL    HW1 3149   2.392   3.999   6.865
  750SOL    HW2 3150   2.402   4.154   6.812
  751SOL     OW 3151   3.964   0.772   0.107
  751SOL    HW1 3152   4.056   0.806   0.088
  751SOL    HW2 3153   3.937   0.708   0.035
  752SOL     OW 3154   4.747   2.360   1.711
  752SOL    HW1 3155   4.771   2.389   1.618
  752SOL    HW2 3156   4.730   2.261   1.711
  753SOL     OW 3157   2.357   2.742   4.644
  753SOL    HW1 3158   2.344   2.750   4.545
  753SOL    HW2 3159   2.344   2.831   4.687
  754SOL     OW 3160   4.008   5.396   7.011
  754SOL    HW1 3161   4.068   5.322   6.980
  754SOL    HW2 3162   3.913   5.370   6.996
  755SOL     OW 3163   0.507   6.102   0.267
  755SOL    HW1 3164   0.422   6.085   0.218
  755SOL    HW2 3165   0.535   6.020   0.315
  756SOL     OW 3166   5.038   0.753   2.278
  756SOL    HW1 3167   5.043   0.729   2.375
  756SOL    HW2 3168   5.021   0.851   2.269
  757SOL     OW 3169   0.597   6.558   3.717
  757SOL    HW1 3170   0.535   6.485   3.747
  757SOL    HW2 3171   0.676   6.517   3.671
  758SOL     OW 3172   3.835   1.906   1.418
  758SOL    HW1 3173   3.888   1.835   1.463
  758SOL    HW2 3174   3.747   1.868   1.387
  759SOL     OW 3175   1.187   2.096   0.417
  759SOL    HW1 3176   1.207   2.020   0.479
  759SOL    HW2 3177   1.128   2.162   0.464
  760SOL     OW 3178   5.144   0.864   6.673
  760SOL    HW1 3179   5.054   0.899   6.648
  760SOL    HW2 3180   5.134   0.788   6.737
  761SOL     OW 3181   5.767   2.479   6.882
  761SOL    HW1 3182   5.699   2.460   6.811
  761SOL    HW2 3183   5.824   2.555   6.854
  762SOL     OW 3184   2.430   6.515   3.850
  762SOL    HW1 3185   2.457   6.600   3.895
  762SOL    HW2 3186   2.458   6.518   3.754
  763SOL     OW 3187   4.051   6.403   6.634
  763SOL    HW1 3188   4.012   6.313   6.614
  763SOL    HW2 3189   4.014   6.437   6.720
  764SOL     OW 3190   3.774   1.672   1.694
  764SOL    HW1 3191   3.683   1.712   1.682
  764SOL    HW2 3192   3.772   1.606   1.769
  765SOL     OW 3193   7.000   0.243   2.907
  765SOL    HW1 3194   0.048   0.312   2.933
  765SOL    HW2 3195   7.007   0.164   2.968
  766SOL     OW 3196   0.211   6.463   6.943
  766SOL    HW1 3197   0.188   6.376   6.899
  766SOL    HW2 3198   0.144   6.483   7.014
  767SOL     OW 3199   6.198   6.759   2.660
  767SOL    HW1 3200   6.215   6.855   2.641
  767SOL    HW2 3201   6.257   6.702   2.602
  768SOL     OW 3202   2.673   6.399   2.610
  768SOL    HW1 3203   2.639   6.493   2.609
  768SOL    HW2 3204   2.761   6.396   2.659
  769SOL     OW 3205   4.528   0.475   5.191
  769SOL    HW1 3206   4.499   0.381   5.172
  769SOL    HW2 3207   4.570   0.479   5.282
  770SOL     OW 3208   2.830   4.746   3.987
  770SOL    HW1 3209   2.816   4.679   4.060
  770SOL    HW2 3210   2.783   4.715   3.904
  771SOL     OW 3211   0.623   5.185   3.452
  771SOL    HW1 3212   0.629   5.282   3.426
  771SOL    HW2 3213   0.560   5.138   3.390
  772SOL     OW 3214   6.833   3.977   7.012
  772SOL    HW1 3215   6.750   3.964   6.957
  772SOL    HW2 3216   6.813   3.953   0.088
  773SOL     OW 3217   6.690   3.847   2.257
  773SOL    HW1 3218   6.759   3.880   2.322
  773SOL    HW2 3219   6.603   3.834   2.304
  774SOL     OW 3220   1.661   1.286   1.056
  774SOL    HW1 3221   1.597   1.209   1.057
  774SOL    HW2 3222   1.743   1.262   1.109
  775SOL     OW 3223   1.091   2.047   4.695
  775SOL    HW1 3224   1.069   2.038   4.792
  775SOL    HW2 3225   1.187   2.023   4.680
  776SOL     OW 3226   2.301   0.389   6.291
  776SOL    HW1 3227   2.322   0.418   6.385
  776SOL    HW2 3228   2.203   0.378   6.281
  777SOL     OW 3229   4.287   1.364   0.984
  777SOL    HW1 3230   4.382   1.381   0.958
  777SOL    HW2 3231   4.276   1.385   1.081
  778SOL     OW 3232   4.560   6.993   3.612
  778SOL    HW1 3233   4.560   6.928   3.536
  778SOL    HW2 3234   4.529   0.063   3.580
  779SOL     OW 3235   0.521   2.190   2.384
  779SOL    HW1 3236   0.593   2.179   2.451
  779SOL    HW2 3237   0.475   2.102   2.370
  780SOL     OW 3238   5.934   3.520   4.412
  780SOL    HW1 3239   6.027   3.514   4.447
  780SOL    HW2 3240   5.921   3.454   4.338
  781SOL     OW 3241   6.737   1.040   6.420
  781SOL    HW1 3242   6.828   1.002   6.437
  781SOL    HW2 3243   6.680   1.028   6.501
  782SOL     OW 3244   0.069   2.872   0.933
  782SOL    HW1 3245   0.147   2.849   0.875
  782SOL    HW2 3246   0.076   2.822   1.020
  783SOL     OW 3247   3.183   5.093   0.155
  783SOL    HW1 3248   3.165   5.049   0.067
  783SOL    HW2 3249   3.099   5.094   0.209
  784SOL     OW 3250   4.304   0.694   4.898
  784SOL    HW1 3251   4.280   0.610   4.850
  784SOL    HW2 3252   4.392   0.681   4.944
  785SOL     OW 3253   6.250   1.713   3.660
  785SOL    HW1 3254   6.308   1.790   3.686
  785SOL    HW2 3255   6.211   1.729   3.569
  786SOL     OW 3256   6.807   6.482   0.191
  786SOL    HW1 3257   6.882   6.482   0.125
  786SOL    HW2 3258   6.842   6.460   0.282
  787SOL     OW 3259   2.558   2.284   6.368
  787SOL    HW1 3260   2.646   2.316   6.403
  787SOL    HW2 3261   2.504   2.363   6.337
  788SOL     OW 3262   1.793   3.240   3.935
  788SOL    HW1 3263   1.762   3.321   3.985
  788SOL    HW2 3264   1.722   3.169   3.939
  789SOL     OW 3265   5.465   3.641   1.902
  789SOL    HW1 3266   5.378   3.656   1.949
  789SOL    HW2 3267   5.477   3.544   1.884
  790SOL     OW 3268   3.055   1.327   3.689
  790SOL    HW1 3269   3.082   1.383   3.611
  790SOL    HW2 3270   3.018   1.386   3.761
  791SOL     OW 3271   3.450   1.263   4.746
  791SOL    HW1 3272   3.449   1.215   4.833
  791SOL    HW2 3273   3.452   1.197   4.671
  792SOL     OW 3274   5.921   0.088   2.977
  792SOL    HW1 3275   5.943   0.094   2.880
  792SOL    HW2 3276   5.919   7.012   3.006
  793SOL     OW 3277   5.365   0.401   0.156
  793SOL    HW1 3278   5.275   0.370   0.188
  793SOL    HW2 3279   5.412   0.449   0.230
  794SOL     OW 3280   2.202   5.043   5.811
  794SOL    HW1 3281   2.133   4.997   5.754
  794SOL    HW2 3282   2.160   5.120   5.859
  795SOL     OW 3283   4.727   4.689   6.349
  795SOL    HW1 3284   4.661   4.757   6.380
  795SOL    HW2 3285   4.679   4.610   6.311
  796SOL     OW 3286   6.908   2.264   6.715
  796SOL    HW1 3287   6.887   2.344   6.770
  796SOL    HW2 3288   6.966   2.201   6.768
  797SOL     OW 3289   6.122   2.849   4.435
  797SOL    HW1 3290   6.145   2.795   4.354
  797SOL    HW2 3291   6.033   2.819   4.471
  798SOL     OW 3292   5.388   0.671   6.618
  798SOL    HW1 3293   5.345   0.711   6.538
  798SOL    HW2 3294   5.459   0.733   6.652
  799SOL     OW 3295   6.636   2.252   3.309
  799SOL    HW1 3296   6.617   2.155   3.293
  799SOL    HW2 3297   6.555   2.306   3.288
  800SOL     OW 3298   5.804   1.001   2.509
  800SOL    HW1 3299   5.880   1.043   2.558
  800SOL    HW2 3300   5.739   1.072   2.480
  801SOL     OW 3301   6.921   2.107   3.569
  801SOL    HW1 3302   6.979   2.075   3.644
  801SOL    HW2 3303   6.967   2.180   3.519
  802SOL     OW 3304   5.686   1.131   0.209
  802SOL    HW1 3305   5.661   1.210   0.153
  802SOL    HW2 3306   5.661   1.047   0.161
  803SOL     OW 3307   6.364   5.645   4.201
  803SOL    HW1 3308   6.430   5.580   4.238
  803SOL    HW2 3309   6.413   5.725   4.165
  804SOL     OW 3310   0.765   6.676   7.011
  804SOL    HW1 3311   0.865   6.671   7.007
  804SOL    HW2 3312   0.729   6.585   0.013
  805SOL     OW 3313   3.130   2.870   5.933
  805SOL    HW1 3314   3.215   2.920   5.918
  805SOL    HW2 3315   3.140   2.810   6.012
  806SOL     OW 3316   5.102   1.491   0.105
  806SOL    HW1 3317   5.055   1.562   0.054
  806SOL    HW2 3318   5.069   1.490   0.199
  807SOL     OW 3319   1.308   0.468   3.175
  807SOL    HW1 3320   1.243   0.543   3.166
  807SOL    HW2 3321   1.340   0.463   3.269
  808SOL     OW 3322   5.485   3.195   5.749
  808SOL    HW1 3323   5.548   3.262   5.710
  808SOL    HW2 3324   5.395   3.206   5.708
  809SOL     OW 3325   0.719   4.173   0.181
  809SOL    HW1 3326   0.735   4.230   0.261
  809SOL    HW2 3327   0.787   4.101   0.177
  810SOL     OW 3328   5.716   3.818   0.125
  810SOL    HW1 3329   5.784   3.892   0.122
  810SOL    HW2 3330   5.625   3.857   0.136
  811SOL     OW 3331   5.314   5.004   3.575
  811SOL    HW1 3332   5.367   5.016   3.659
  811SOL    HW2 3333   5.223   4.969   3.597
  812SOL     OW 3334   0.451   0.108   1.451
  812SOL    HW1 3335   0.400   0.176   1.503
  812SOL    HW2 3336   0.405   0.020   1.457
  813SOL     OW 3337   4.914   5.283   2.154
  813SOL    HW1 3338   4.947   5.299   2.061
  813SOL    HW2 3339   4.921   5.368   2.206
  814SOL     OW 3340   6.344   6.200   2.338
  814SOL    HW1 3341   6.247   6.192   2.359
  814SOL    HW2 3342   6.357   6.263   2.262
  815SOL     OW 3343   6.562   2.071   0.862
  815SOL    HW1 3344   6.632   2.128   0.818
  815SOL    HW2 3345   6.599   2.032   0.946
  816SOL     OW 3346   6.412   6.090   1.242
  816SOL    HW1 3347   6.370   6.175   1.271
  816SOL    HW2 3348   6.343   6.030   1.203
  817SOL     OW 3349   2.031   3.255   2.460
  817SOL    HW1 3350   2.080   3.300   2.385
  817SOL    HW2 3351   1.993   3.169   2.427
  818SOL     OW 3352   5.929   1.169   0.972
  818SOL    HW1 3353   5.940   1.075   1.002
  818SOL    HW2 3354   5.923   1.172   0.872
  819SOL     OW 3355   0.064   2.949   3.352
  819SOL    HW1 3356   0.041   2.979   3.444
  819SOL    HW2 3357   0.063   3.028   3.290
  820SOL     OW 3358   1.035   2.628   4.577
  820SOL    HW1 3359   1.034   2.657   4.673
  820SOL    HW2 3360   1.111   2.565   4.562
  821SOL     OW 3361   1.365   3.504   6.665
  821SOL    HW1 3362   1.269   3.499   6.691
  821SOL    HW2 3363   1.422   3.512   6.747
  822SOL     OW 3364   1.341   3.847   4.361
  822SOL    HW1 3365   1.343   3.895   4.449
  822SOL    HW2 3366   1.432   3.809   4.342
  823SOL     OW 3367   4.433   4.478   6.867
  823SOL    HW1 3368   4.430   4.496   6.965
  823SOL    HW2 3369   4.506   4.532   6.826
  824SOL     OW 3370   5.243   2.630   4.918
  824SOL    HW1 3371   5.148   2.660   4.920
  824SOL    HW2 3372   5.248   2.532   4.938
  825SOL     OW 3373   2.163   3.775   2.652
  825SOL    HW1 3374   2.238   3.718   2.683
  825SOL    HW2 3375   2.185   3.871   2.668
  826SOL     OW 3376   6.696   3.077   6.319
  826SOL    HW1 3377   6.789   3.042   6.324
  826SOL    HW2 3378   6.685   3.152   6.384
  827SOL     OW 3379   3.634   5.509   0.335
  827SOL    HW1 3380   3.723   5.516   0.378
  827SOL    HW2 3381   3.591   5.600   0.331
  828SOL     OW 3382   5.726   0.697   5.619
  828SOL    HW1 3383   5.800   0.653   5.669
  828SOL    HW2 3384   5.638   0.667   5.658
  829SOL     OW 3385   3.257   2.976   4.449
  829SOL    HW1 3386   3.309   2.923   4.517
  829SOL    HW2 3387   3.196   3.039   4.496
  830SOL     OW 3388   4.680   4.051   5.270
  830SOL    HW1 3389   4.635   3.969   5.305
  830SOL    HW2 3390   4.611   4.120   5.248
  831SOL     OW 3391   6.909   0.846   5.724
  831SOL    HW1 3392   6.894   0.891   5.812
  831SOL    HW2 3393   6.936   0.751   5.739
  832SOL     OW 3394   2.208   2.152   6.349
  832SOL    HW1 3395   2.232   2.216   6.422
  832SOL    HW2 3396   2.291   2.113   6.309
  833SOL     OW 3397   6.251   6.661   6.567
  833SOL    HW1 3398   6.264   6.753   6.530
  833SOL    HW2 3399   6.191   6.609   6.506
  834SOL     OW 3400   3.001   3.742   4.315
  834SOL    HW1 3401   3.017   3.805   4.238
  834SOL    HW2 3402   3.006   3.792   4.401
  835SOL     OW 3403   3.648   6.989   3.569
  835SOL    HW1 3404   3.584   0.046   3.580
  835SOL    HW2 3405   3.723   7.018   3.508
  836SOL     OW 3406   3.061   0.560   0.286
  836SOL    HW1 3407   3.079   0.658   0.275
  836SOL    HW2 3408   2.980   0.535   0.233
  837SOL     OW 3409   4.865   0.809   5.634
  837SOL    HW1 3410   4.850   0.866   5.715
  837SOL    HW2 3411   4.888   0.866   5.556
  838SOL     OW 3412   2.108   5.638   3.950
  838SOL    HW1 3413   2.129   5.710   3.885
  838SOL    HW2 3414   2.147   5.661   4.039
  839SOL     OW 3415   3.114   1.987   3.125
  839SOL    HW1 3416   3.052   2.052   3.080
  839SOL    HW2 3417   3.180   1.953   3.058
  840SOL     OW 3418   0.776   1.210   6.653
  840SOL    HW1 3419   0.744   1.144   6.586
  840SOL    HW2 3420   0.701   1.271   6.679
  841SOL     OW 3421   0.145   3.559   6.801
  841SOL    HW1 3422   0.106   3.650   6.787
  841SOL    HW2 3423   0.187   3.528   6.715
  842SOL     OW 3424   3.909   4.821   3.023
  842SOL    HW1 3425   4.005   4.836   3.002
  842SOL    HW2 3426   3.854   4.894   2.982
  843SOL     OW 3427   6.470   1.991   2.294
  843SOL    HW1 3428   6.542   2.055   2.267
  843SOL    HW2 3429   6.511   1.907   2.330
  844SOL     OW 3430   4.811   5.879   0.956
  844SOL    HW1 3431   4.861   5.926   1.029
  844SOL    HW2 3432   4.716   5.910   0.955
  845SOL     OW 3433   0.155   4.679   4.361
  845SOL    HW1 3434   0.216   4.665   4.283
  845SOL    HW2 3435   0.201   4.737   4.429
  846SOL     OW 3436   6.366   1.632   6.874
  846SOL    HW1 3437   6.437   1.694   6.907
  846SOL    HW2 3438   6.400   1.581   6.795
  847SOL     OW 3439   5.446   3.208   2.244
  847SOL    HW1 3440   5.505   3.203   2.164
  847SOL    HW2 3441   5.377   3.279   2.230
  848SOL     OW 3442   5.908   0.445   6.031
  848SOL    HW1 3443   5.998   0.466   6.068
  848SOL    HW2 3444   5.837   0.464   6.099
  849SOL     OW 3445   0.410   5.049   4.567
  849SOL    HW1 3446   0.492   5.019   4.519
  849SOL    HW2 3447   0.436   5.091   4.654
  850SOL     OW 3448   4.174   0.957   2.930
  850SOL    HW1 3449   4.138   0.978   2.839
  850SOL    HW2 3450   4.110   0.987   3.000
  851SOL     OW 3451   1.039   0.829   0.132
  851SOL    HW1 3452   0.981   0.907   0.156
  851SOL    HW2 3453   1.043   0.765   0.209
  852SOL     OW 3454   2.242   3.538   6.475
  852SOL    HW1 3455   2.317   3.474   6.457
  852SOL    HW2 3456   2.258   3.585   6.562
  853SOL     OW 3457   0.853   3.139   1.267
  853SOL    HW1 3458   0.772   3.178   1.224
  853SOL    HW2 3459   0.889   3.065   1.211
  854SOL     OW 3460   5.150   5.675   2.394
  854SOL    HW1 3461   5.233   5.707   2.438
  854SOL    HW2 3462   5.105   5.751   2.347
  855SOL     OW 3463   5.325   6.646   2.050
  855SOL    HW1 3464   5.382   6.700   1.988
  855SOL    HW2 3465   5.370   6.559   2.070
  856SOL     OW 3466   2.298   6.358   5.149
  856SOL    HW1 3467   2.204   6.332   5.170
  856SOL    HW2 3468   2.335   6.411   5.225
  857SOL     OW 3469   6.290   3.280   1.494
  857SOL    HW1 3470   6.321   3.215   1.425
  857SOL    HW2 3471   6.194   3.261   1.517
  858SOL     OW 3472   2.997   5.073   1.067
  858SOL    HW1 3473   2.979   4.994   1.125
  858SOL    HW2 3474   2.912   5.100   1.020
  859SOL     OW 3475   6.809   4.990   0.215
  859SOL    HW1 3476   6.874   5.031   0.279
  859SOL    HW2 3477   6.792   5.054   0.139
  860SOL     OW 3478   2.070   5.038   1.213
  860SOL    HW1 3479   2.109   4.948   1.231
  860SOL    HW2 3480   1.972   5.029   1.194
  861SOL     OW 3481   3.605   5.800   5.865
  861SOL    HW1 3482   3.526   5.741   5.852
  861SOL    HW2 3483   3.684   5.760   5.818
  862SOL     OW 3484   4.623   4.350   4.393
  862SOL    HW1 3485   4.642   4.370   4.489
  862SOL    HW2 3486   4.687   4.281   4.360
  863SOL     OW 3487   6.203   0.969   1.357
  863SOL    HW1 3488   6.215   0.983   1.259
  863SOL    HW2 3489   6.278   0.913   1.392
  864SOL     OW 3490   6.364   4.422   2.585
  864SOL    HW1 3491   6.385   4.421   2.487
  864SOL    HW2 3492   6.448   4.438   2.637
  865SOL     OW 3493   2.004   6.444   4.125
  865SOL    HW1 3494   2.046   6.456   4.215
  865SOL    HW2 3495   1.905   6.456   4.133
  866SOL     OW 3496   3.071   1.658   2.190
  866SOL    HW1 3497   3.010   1.683   2.115
  866SOL    HW2 3498   3.119   1.574   2.167
  867SOL     OW 3499   2.460   3.354   6.420
  867SOL    HW1 3500   2.558   3.358   6.402
  867SOL    HW2 3501   2.416   3.292   6.355
  868SOL     OW 3502   5.328   1.825   3.122
  868SOL    HW1 3503   5.382   1.750   3.158
  868SOL    HW2 3504   5.294   1.882   3.197
  869SOL     OW 3505   6.431   6.093   2.706
  869SOL    HW1 3506   6.485   6.086   2.790
  869SOL    HW2 3507   6.343   6.048   2.719
  870SOL     OW 3508   6.799   1.283   1.049
  870SOL    HW1 3509   6.711   1.311   1.009
  870SOL    HW2 3510   6.803   1.183   1.055
  871SOL     OW 3511   5.776   2.441   1.182
  871SOL    HW1 3512   5.705   2.506   1.210
  871SOL    HW2 3513   5.770   2.425   1.084
  872SOL     OW 3514   6.405   2.150   3.518
  872SOL    HW1 3515   6.398   2.160   3.419
  872SOL    HW2 3516   6.497   2.175   3.548
  873SOL     OW 3517   3.964   6.679   4.998
  873SOL    HW1 3518   3.899   6.701   4.925
  873SOL    HW2 3519   3.930   6.713   5.085
  874SOL     OW 3520   0.981   3.553   5.129
  874SOL    HW1 3521   0.886   3.570   5.102
  874SOL    HW2 3522   0.984   3.471   5.187
  875SOL     OW 3523   6.249   4.107   0.237
  875SOL    HW1 3524   6.166   4.051   0.250
  875SOL    HW2 3525   6.262   4.166   0.316
  876SOL     OW 3526   0.058   3.401   1.794
  876SOL    HW1 3527   0.119   3.321   1.796
  876SOL    HW2 3528   6.988   3.374   1.757
  877SOL     OW 3529   5.292   5.828   0.230
  877SOL    HW1 3530   5.333   5.883   0.303
  877SOL    HW2 3531   5.235   5.886   0.174
  878SOL     OW 3532   2.582   4.757   0.535
  878SOL    HW1 3533   2.647   4.764   0.610
  878SOL    HW2 3534   2.492   4.732   0.571
  879SOL     OW 3535   4.506   2.502   2.536
  879SOL    HW1 3536   4.571   2.575   2.515
  879SOL    HW2 3537   4.446   2.487   2.456
  880SOL     OW 3538   4.018   5.374   0.344
  880SOL    HW1 3539   3.993   5.455   0.291
  880SOL    HW2 3540   3.958   5.367   0.424
  881SOL     OW 3541   3.949   4.881   5.144
  881SOL    HW1 3542   4.013   4.945   5.102
  881SOL    HW2 3543   3.895   4.836   5.073
  882SOL     OW 3544   1.116   1.401   4.553
  882SOL    HW1 3545   1.171   1.320   4.576
  882SOL    HW2 3546   1.132   1.426   4.458
  883SOL     OW 3547   3.317   5.599   6.177
  883SOL    HW1 3548   3.251   5.609   6.102
  883SOL    HW2 3549   3.318   5.504   6.208
  884SOL     OW 3550   5.155   3.275   1.806
  884SOL    HW1 3551   5.157   3.207   1.733
  884SOL    HW2 3552   5.085   3.250   1.873
  885SOL     OW 3553   5.415   6.375   0.362
  885SOL    HW1 3554   5.361   6.293   0.343
  885SOL    HW2 3555   5.360   6.456   0.343
  886SOL     OW 3556   4.229   1.918   6.079
  886SOL    HW1 3557   4.228   2.012   6.044
  886SOL    HW2 3558   4.193   1.916   6.172
  887SOL     OW 3559   3.989   0.283   5.976
  887SOL    HW1 3560   3.952   0.373   5.996
  887SOL    HW2 3561   4.061   0.291   5.907
  888SOL     OW 3562   6.327   6.057   3.080
  888SOL    HW1 3563   6.297   6.115   3.156
  888SOL    HW2 3564   6.248   6.034   3.023
  889SOL     OW 3565   0.804   6.722   4.681
  889SOL    HW1 3566   0.728   6.657   4.680
  889SOL    HW2 3567   0.769   6.815   4.684
  890SOL     OW 3568   2.672   4.656   2.223
  890SOL    HW1 3569   2.656   4.560   2.245
  890SOL    HW2 3570   2.740   4.663   2.150
  891SOL     OW 3571   5.368   3.207   6.633
  891SOL    HW1 3572   5.432   3.269   6.589
  891SOL    HW2 3573   5.337   3.138   6.566
  892SOL     OW 3574   2.459   4.698   1.294
  892SOL    HW1 3575   2.464   4.793   1.325
  892SOL    HW2 3576   2.484   4.638   1.369
  893SOL     OW 3577   1.158   0.210   0.029
  893SOL    HW1 3578   1.180   0.185   6.954
  893SOL    HW2 3579   1.200   0.143   0.091
  894SOL     OW 3580   1.103   5.508   4.272
  894SOL    HW1 3581   1.114   5.607   4.268
  894SOL    HW2 3582   1.171   5.469   4.334
  895SOL     OW 3583   2.517   6.528   5.041
  895SOL    HW1 3584   2.553   6.508   5.132
  895SOL    HW2 3585   2.508   6.442   4.989
  896SOL     OW 3586   5.577   6.795   2.745
  896SOL    HW1 3587   5.499   6.743   2.708
  896SOL    HW2 3588   5.660   6.768   2.698
  897SOL     OW 3589   5.111   2.220   5.926
  897SOL    HW1 3590   5.030   2.273   5.950
  897SOL    HW2 3591   5.190   2.281   5.920
  898SOL     OW 3592   5.837   6.553   3.602
  898SOL    HW1 3593   5.857   6.456   3.591
  898SOL    HW2 3594   5.809   6.571   3.696
  899SOL     OW 3595   0.675   4.681   5.169
  899SOL    HW1 3596   0.671   4.780   5.180
  899SOL    HW2 3597   0.647   4.637   5.254
  900SOL     OW 3598   0.884   5.803   3.103
  900SOL    HW1 3599   0.815   5.741   3.065
  900SOL    HW2 3600   0.843   5.854   3.179
  901SOL     OW 3601   6.148   1.377   4.005
  901SOL    HW1 3602   6.084   1.419   4.069
  901SOL    HW2 3603   6.111   1.383   3.912
  902SOL     OW 3604   0.024   6.218   0.112
  902SOL    HW1 3605   0.091   6.208   0.038
  902SOL    HW2 3606   0.051   6.163   0.190
  903SOL     OW 3607   1.369   5.014   0.265
  903SOL    HW1 3608   1.414   5.050   0.183
  903SOL    HW2 3609   1.346   4.918   0.251
  904SOL     OW 3610   1.983   1.487   3.446
  904SOL    HW1 3611   2.042   1.475   3.366
  904SOL    HW2 3612   2.026   1.445   3.526
  905SOL     OW 3613   5.611   2.592   5.186
  905SOL    HW1 3614   5.537   2.656   5.165
  905SOL    HW2 3615   5.679   2.638   5.245
  906SOL     OW 3616   6.217   3.484   5.923
  906SOL    HW1 3617   6.127   3.492   5.967
  906SOL    HW2 3618   6.250   3.390   5.931
  907SOL     OW 3619   6.494   2.693   2.806
  907SOL    HW1 3620   6.397   2.717   2.809
  907SOL    HW2 3621   6.505   2.596   2.825
  908SOL     OW 3622   1.928   0.731   4.098
  908SOL    HW1 3623   1.888   0.815   4.061
  908SOL    HW2 3624   1.982   0.752   4.179
  909SOL     OW 3625   3.604   1.117   1.991
  909SOL    HW1 3626   3.549   1.139   1.910
  909SOL    HW2 3627   3.696   1.153   1.979
  910SOL     OW 3628   2.175   2.268   1.067
  910SOL    HW1 3629   2.212   2.176   1.054
  910SOL    HW2 3630   2.124   2.295   0.985
  911SOL     OW 3631   0.544   4.344   0.799
  911SOL    HW1 3632   0.638   4.379   0.794
  911SOL    HW2 3633   0.480   4.421   0.802
  912SOL     OW 3634   0.993   0.607   6.189
  912SOL    HW1 3635   0.894   0.595   6.189
  912SOL    HW2 3636   1.027   0.607   6.095
  913SOL     OW 3637   2.678   0.868   2.320
  913SOL    HW1 3638   2.616   0.943   2.298
  913SOL    HW2 3639   2.714   0.879   2.413
  914SOL     OW 3640   3.351   6.400   2.937
  914SOL    HW1 3641   3.397   6.456   2.868
  914SOL    HW2 3642   3.302   6.460   3.001
  915SOL     OW 3643   0.626   2.628   0.310
  915SOL    HW1 3644   0.575   2.635   0.224
  915SOL    HW2 3645   0.563   2.637   0.387
  916SOL     OW 3646   2.100   3.005   2.760
  916SOL    HW1 3647   2.138   3.095   2.780
  916SOL    HW2 3648   2.170   2.948   2.718
  917SOL     OW 3649   3.921   1.956   0.435
  917SOL    HW1 3650   3.951   1.996   0.348
  917SOL    HW2 3651   3.839   1.901   0.420
  918SOL     OW 3652   1.623   0.474   6.415
  918SOL    HW1 3653   1.593   0.511   6.327
  918SOL    HW2 3654   1.644   0.377   6.405
  919SOL     OW 3655   2.720   6.146   2.538
  919SOL    HW1 3656   2.812   6.125   2.573
  919SOL    HW2 3657   2.693   6.237   2.569
  920SOL     OW 3658   2.744   0.359   3.801
  920SOL    HW1 3659   2.765   0.304   3.883
  920SOL    HW2 3660   2.793   0.445   3.806
  921SOL     OW 3661   5.653   4.529   5.424
  921SOL    HW1 3662   5.657   4.610   5.483
  921SOL    HW2 3663   5.613   4.554   5.336
  922SOL     OW 3664   2.808   3.858   6.901
  922SOL    HW1 3665   2.713   3.864   6.934
  922SOL    HW2 3666   2.849   3.950   6.902
  923SOL     OW 3667   4.079   0.247   6.313
  923SOL    HW1 3668   4.087   0.233   6.214
  923SOL    HW2 3669   3.996   0.299   6.332
  924SOL     OW 3670   5.740   3.459   3.349
  924SOL    HW1 3671   5.782   3.449   3.440
  924SOL    HW2 3672   5.760   3.378   3.294
  925SOL     OW 3673   6.630   1.985   3.214
  925SOL    HW1 3674   6.684   1.971   3.131
  925SOL    HW2 3675   6.640   1.905   3.274
  926SOL     OW 3676   5.102   5.787   1.075
  926SOL    HW1 3677   5.136   5.853   1.142
  926SOL    HW2 3678   5.111   5.825   0.983
  927SOL     OW 3679   3.767   5.194   5.100
  927SOL    HW1 3680   3.730   5.165   5.188
  927SOL    HW2 3681   3.706   5.162   5.027
  928SOL     OW 3682   0.879   1.606   1.266
  928SOL    HW1 3683   0.959   1.575   1.215
  928SOL    HW2 3684   0.902   1.690   1.316
  929SOL     OW 3685   0.269   2.392   2.241
  929SOL    HW1 3686   0.223   2.451   2.308
  929SOL    HW2 3687   0.354   2.356   2.281
  930SOL     OW 3688   5.002   5.981   3.830
  930SOL    HW1 3689   5.070   5.914   3.803
  930SOL    HW2 3690   4.957   5.951   3.915
  931SOL     OW 3691   1.811   2.611   2.409
  931SOL    HW1 3692   1.763   2.597   2.495
  931SOL    HW2 3693   1.851   2.702   2.407
  932SOL     OW 3694   4.757   6.290   0.934
  932SOL    HW1 3695   4.800   6.365   0.983
  932SOL    HW2 3696   4.820   6.254   0.865
  933SOL     OW 3697   1.940   6.011   2.861
  933SOL    HW1 3698   1.878   6.082   2.826
  933SOL    HW2 3699   1.997   5.977   2.786
  934SOL     OW 3700   3.362   0.826   5.292
  934SOL    HW1 3701   3.389   0.842   5.197
  934SOL    HW2 3702   3.361   0.728   5.310
  935SOL     OW 3703   3.294   3.606   6.270
  935SOL    HW1 3704   3.295   3.645   6.362
  935SOL    HW2 3705   3.386   3.612   6.231
  936SOL     OW 3706   0.660   1.834   1.278
  936SOL    HW1 3707   0.653   1.761   1.346
  936SOL    HW2 3708   0.569   1.858   1.244
  937SOL     OW 3709   4.838   2.348   4.447
  937SOL    HW1 3710   4.860   2.443   4.468
  937SOL    HW2 3711   4.741   2.340   4.422
  938SOL     OW 3712   0.245   2.370   6.678
  938SOL    HW1 3713   0.183   2.448   6.679
  938SOL    HW2 3714   0.201   2.292   6.723
  939SOL     OW 3715   5.979   0.837   6.067
  939SOL    HW1 3716   6.015   0.897   5.995
  939SOL    HW2 3717   6.043   0.762   6.083
  940SOL     OW 3718   6.750   0.956   4.203
  940SOL    HW1 3719   6.818   0.882   4.209
  940SOL    HW2 3720   6.658   0.918   4.214
  941SOL     OW 3721   5.583   2.721   4.751
  941SOL    HW1 3722   5.610   2.725   4.654
  941SOL    HW2 3723   5.535   2.635   4.768
  942SOL     OW 3724   5.670   6.447   4.957
  942SOL    HW1 3725   5.707   6.514   4.893
  942SOL    HW2 3726   5.647   6.363   4.908
  943SOL     OW 3727   5.759   1.743   1.257
  943SOL    HW1 3728   5.737   1.746   1.159
  943SOL    HW2 3729   5.701   1.675   1.302
  944SOL     OW 3730   5.874   4.208   4.209
  944SOL    HW1 3731   5.789   4.219   4.261
  944SOL    HW2 3732   5.920   4.297   4.203
  945SOL     OW 3733   5.153   3.994   4.745
  945SOL    HW1 3734   5.242   3.950   4.737
  945SOL    HW2 3735   5.120   4.021   4.655
  946SOL     OW 3736   5.474   2.535   5.439
  946SOL    HW1 3737   5.548   2.581   5.391
  946SOL    HW2 3738   5.485   2.436   5.429
  947SOL     OW 3739   2.151   2.936   5.714
  947SOL    HW1 3740   2.226   2.875   5.739
  947SOL    HW2 3741   2.084   2.886   5.658
  948SOL     OW 3742   3.672   1.926   0.915
  948SOL    HW1 3743   3.680   1.926   0.815
  948SOL    HW2 3744   3.621   1.845   0.945
  949SOL     OW 3745   5.635   6.003   6.279
  949SOL    HW1 3746   5.695   5.992   6.358
  949SOL    HW2 3747   5.595   6.095   6.280
  950SOL     OW 3748   4.211   5.106   1.571
  950SOL    HW1 3749   4.181   5.199   1.593
  950SOL    HW2 3750   4.311   5.102   1.572
  951SOL     OW 3751   0.630   1.977   2.970
  951SOL    HW1 3752   0.726   1.992   2.945
  951SOL    HW2 3753   0.586   1.924   2.898
  952SOL     OW 3754   4.609   2.045   2.014
  952SOL    HW1 3755   4.614   2.053   2.114
  952SOL    HW2 3756   4.631   2.133   1.973
  953SOL     OW 3757   4.123   6.924   6.969
  953SOL    HW1 3758   4.168   6.978   6.898
  953SOL    HW2 3759   4.189   6.899   0.020
  954SOL     OW 3760   6.307   6.295   0.986
  954SOL    HW1 3761   6.269   6.216   1.033
  954SOL    HW2 3762   6.308   6.373   1.049
  955SOL     OW 3763   0.077   6.489   2.792
  955SOL    HW1 3764   0.011   6.423   2.827
  955SOL    HW2 3765   0.040   6.531   2.709
  956SOL     OW 3766   0.891   2.552   0.664
  956SOL    HW1 3767   0.876   2.651   0.660
  956SOL    HW2 3768   0.895   2.523   0.759
  957SOL     OW 3769   2.329   5.963   4.964
  957SOL    HW1 3770   2.360   5.956   5.059
  957SOL    HW2 3771   2.318   6.060   4.940
  958SOL     OW 3772   4.941   2.373   0.940
  958SOL    HW1 3773   5.021   2.426   0.968
  958SOL    HW2 3774   4.913   2.402   0.848
  959SOL     OW 3775   1.775   4.432   2.571
  959SOL    HW1 3776   1.685   4.394   2.592
  959SOL    HW2 3777   1.831   4.362   2.526
  960SOL     OW 3778   1.214   5.454   4.927
  960SOL    HW1 3779   1.170   5.437   4.839
  960SOL    HW2 3780   1.310   5.425   4.922
  961SOL     OW 3781   3.694   0.513   1.834
  961SOL    HW1 3782   3.705   0.595   1.890
  961SOL    HW2 3783   3.612   0.522   1.777
  962SOL     OW 3784   1.534   0.344   4.452
  962SOL    HW1 3785   1.610   0.328   4.515
  962SOL    HW2 3786   1.565   0.401   4.376
  963SOL     OW 3787   6.751   6.585   0.814
  963SOL    HW1 3788   6.715   6.511   0.758
  963SOL    HW2 3789   6.729   6.673   0.772
  964SOL     OW 3790   5.160   3.717   2.034
  964SOL    HW1 3791   5.116   3.628   2.022
  964SOL    HW2 3792   5.093   3.782   2.069
  965SOL     OW 3793   0.591   2.002   0.786
  965SOL    HW1 3794   0.497   2.000   0.821
  965SOL    HW2 3795   0.593   2.054   0.700
  966SOL     OW 3796   6.754   2.412   2.581
  966SOL    HW1 3797   6.782   2.505   2.557
  966SOL    HW2 3798   6.730   2.362   2.497
  967SOL     OW 3799   1.259   6.358   2.492
  967SOL    HW1 3800   1.290   6.450   2.465
  967SOL    HW2 3801   1.197   6.322   2.422
  968SOL     OW 3802   5.280   2.933   2.672
  968SOL    HW1 3803   5.373   2.969   2.674
  968SOL    HW2 3804   5.218   2.996   2.718
  969SOL     OW 3805   4.378   5.862   5.382
  969SOL    HW1 3806   4.412   5.865   5.287
  969SOL    HW2 3807   4.454   5.839   5.443
  970SOL     OW 3808   4.409   2.329   5.346
  970SOL    HW1 3809   4.424   2.250   5.406
  970SOL    HW2 3810   4.326   2.377   5.374
  971SOL     OW 3811   6.954   1.714   1.916
  971SOL    HW1 3812   6.900   1.792   1.947
  971SOL    HW2 3813   0.024   1.714   1.962
  972SOL     OW 3814   6.648   5.548   1.104
  972SOL    HW1 3815   6.617   5.463   1.145
  972SOL    HW2 3816   6.595   5.567   1.021
  973SOL     OW 3817   5.559   4.174   5.795
  973SOL    HW1 3818   5.579   4.247   5.860
  973SOL    HW2 3819   5.621   4.097   5.812
  974SOL     OW 3820   2.704   0.800   4.092
  974SOL    HW1 3821   2.730   0.875   4.031
  974SOL    HW2 3822   2.694   0.835   4.185
  975SOL     OW 3823   3.265   6.587   5.458
  975SOL    HW1 3824   3.201   6.514   5.436
  975SOL    HW2 3825   3.248   6.666   5.399
  976SOL     OW 3826   0.224   4.342   3.829
  976SOL    HW1 3827   0.277   4.339   3.744
  976SOL    HW2 3828   0.155   4.414   3.822
  977SOL     OW 3829   2.350   1.203   3.746
  977SOL    HW1 3830   2.319   1.136   3.813
  977SOL    HW2 3831   2.438   1.174   3.708
  978SOL     OW 3832   5.914   3.348   4.182
  978SOL    HW1 3833   5.851   3.405   4.130
  978SOL    HW2 3834   5.962   3.286   4.120
  979SOL     OW 3835   6.116   1.076   3.459
  979SOL    HW1 3836   6.016   1.087   3.452
  979SOL    HW2 3837   6.141   0.982   3.434
  980SOL     OW 3838   6.643   0.983   4.608
  980SOL    HW1 3839   6.697   1.056   4.566
  980SOL    HW2 3840   6.704   0.918   4.653
  981SOL     OW 3841   6.951   2.333   5.087
  981SOL    HW1 3842   6.949   2.233   5.092
  981SOL    HW2 3843   7.011   2.370   5.158
  982SOL     OW 3844   1.593   3.291   1.299
  982SOL    HW1 3845   1.495   3.291   1.317
  982SOL    HW2 3846   1.644   3.291   1.385
  983SOL     OW 3847   5.840   1.816   3.387
  983SOL    HW1 3848   5.817   1.784   3.295
  983SOL    HW2 3849   5.759   1.854   3.431
  984SOL     OW 3850   4.568   1.696   4.656
  984SOL    HW1 3851   4.579   1.672   4.752
  984SOL    HW2 3852   4.503   1.772   4.648
  985SOL     OW 3853   3.453   5.371   0.487
  985SOL    HW1 3854   3.450   5.286   0.434
  985SOL    HW2 3855   3.515   5.435   0.441
  986SOL     OW 3856   4.559   4.998   6.176
  986SOL    HW1 3857   4.604   5.041   6.098
  986SOL    HW2 3858   4.608   5.021   6.260
  987SOL     OW 3859   4.245   6.665   2.363
  987SOL    HW1 3860   4.265   6.740   2.300
  987SOL    HW2 3861   4.267   6.692   2.456
  988SOL     OW 3862   3.636   3.794   2.016
  988SOL    HW1 3863   3.723   3.833   1.985
  988SOL    HW2 3864   3.618   3.710   1.965
  989SOL     OW 3865   0.183   0.167   6.099
  989SOL    HW1 3866   0.103   0.165   6.158
  989SOL    HW2 3867   0.154   0.174   6.003
  990SOL     OW 3868   4.698   6.997   3.849
  990SOL    HW1 3869   4.748   6.919   3.886
  990SOL    HW2 3870   4.669   6.977   3.755
  991SOL     OW 3871   6.636   1.270   5.034
  991SOL    HW1 3872   6.715   1.285   4.975
  991SOL    HW2 3873   6.637   1.337   5.109
  992SOL     OW 3874   0.496   3.423   0.325
  992SOL    HW1 3875   0.444   3.407   0.242
  992SOL    HW2 3876   0.543   3.511   0.319
  993SOL     OW 3877   3.134   5.010   3.088
  993SOL    HW1 3878   3.094   5.019   3.179
  993SOL    HW2 3879   3.213   5.072   3.080
  994SOL     OW 3880   2.941   3.603   3.059
  994SOL    HW1 3881   2.903   3.525   3.107
  994SOL    HW2 3882   2.928   3.686   3.113
  995SOL     OW 3883   1.921   1.774   4.780
  995SOL    HW1 3884   1.983   1.727   4.717
  995SOL    HW2 3885   1.973   1.804   4.861
  996SOL     OW 3886   1.937   3.921   2.376
  996SOL    HW1 3887   2.012   3.859   2.352
  996SOL    HW2 3888   1.863   3.910   2.311
  997SOL     OW 3889   6.779   1.111   1.602
  997SOL    HW1 3890   6.877   1.117   1.587
  997SOL    HW2 3891   6.759   1.037   1.666
  998SOL     OW 3892   4.923   0.067   2.650
  998SOL    HW1 3893   4.835   0.113   2.646
  998SOL    HW2 3894   4.983   0.103   2.579
  999SOL     OW 3895   6.969   5.302   1.337
  999SOL    HW1 3896   6.904   5.257   1.399
  999SOL    HW2 3897   6.945   5.281   1.242
 1000SOL     OW 3898   3.592   1.741   4.081
 1000SOL    HW1 3899   3.647   1.741   3.998
 1000SOL    HW2 3900   3.647   1.705   4.157
 1001SOL     OW 3901   5.025   0.200   5.733
 1001SOL    HW1 3902   5.054   0.160   5.820
 1001SOL    HW2 3903   5.100   0.255   5.695
 1002SOL     OW 3904   6.531   1.023   0.870
 1002SOL    HW1 3905   6.565   1.007   0.963
 1002SOL    HW2 3906   6.431   1.024   0.870
 1003SOL     OW 3907   3.758   5.797   2.713
 1003SOL    HW1 3908   3.837   5.829   2.766
 1003SOL    HW2 3909   3.718   5.874   2.663
 1004SOL     OW 3910   5.999   6.876   0.256
 1004SOL    HW1 3911   6.029   6.970   0.237
 1004SOL    HW2 3912   5.899   6.875   0.267
 1005SOL     OW 3913   0.442   6.646   3.203
 1005SOL    HW1 3914   0.528   6.638   3.153
 1005SOL    HW2 3915   0.439   6.734   3.250
 1006SOL     OW 3916   2.249   5.220   1.114
 1006SOL    HW1 3917   2.319   5.213   1.186
 1006SOL    HW2 3918   2.179   5.150   1.129
 1007SOL     OW 3919   0.100   1.508   3.782
 1007SOL    HW1 3920   0.079   1.488   3.878
 1007SOL    HW2 3921   0.196   1.486   3.764
 1008SOL     OW 3922   2.192   3.221   3.419
 1008SOL    HW1 3923   2.144   3.268   3.492
 1008SOL    HW2 3924   2.154   3.248   3.330
 1009SOL     OW 3925   0.964   6.368   5.301
 1009SOL    HW1 3926   0.881   6.422   5.306
 1009SOL    HW2 3927   0.948   6.277   5.341
 1010SOL     OW 3928   4.563   2.215   0.112
 1010SOL    HW1 3929   4.559   2.271   0.029
 1010SOL    HW2 3930   4.597   2.271   0.188
 1011SOL     OW 3931   2.673   6.332   3.182
 1011SOL    HW1 3932   2.728   6.312   3.263
 1011SOL    HW2 3933   2.707   6.278   3.105
 1012SOL     OW 3934   5.440   5.297   7.006
 1012SOL    HW1 3935   5.348   5.268   0.010
 1012SOL    HW2 3936   5.461   5.383   0.035
 1013SOL     OW 3937   0.755   1.243   1.322
 1013SOL    HW1 3938   0.738   1.247   1.223
 1013SOL    HW2 3939   0.814   1.165   1.342
 1014SOL     OW 3940   4.351   6.951   5.589
 1014SOL    HW1 3941   4.316   0.004   5.648
 1014SOL    HW2 3942   4.408   6.990   5.517
 1015SOL     OW 3943   3.322   5.781   4.553
 1015SOL    HW1 3944   3.393   5.751   4.489
 1015SOL    HW2 3945   3.300   5.706   4.615
 1016SOL     OW 3946   4.001   2.829   1.174
 1016SOL    HW1 3947   3.990   2.854   1.078
 1016SOL    HW2 3948   4.094   2.849   1.204
 1017SOL     OW 3949   4.218   2.427   6.780
 1017SOL    HW1 3950   4.186   2.356   6.717
 1017SOL    HW2 3951   4.299   2.471   6.741
 1018SOL     OW 3952   1.483   2.691   2.700
 1018SOL    HW1 3953   1.450   2.777   2.738
 1018SOL    HW2 3954   1.431   2.615   2.737
 1019SOL     OW 3955   0.079   1.881   6.798
 1019SOL    HW1 3956   0.063   1.790   6.837
 1019SOL    HW2 3957   0.150   1.874   6.728
 1020SOL     OW 3958   2.958   1.519   1.520
 1020SOL    HW1 3959   2.968   1.533   1.619
 1020SOL    HW2 3960   2.912   1.599   1.480
 1021SOL     OW 3961   6.554   1.376   0.979
 1021SOL    HW1 3962   6.504   1.340   0.901
 1021SOL    HW2 3963   6.557   1.476   0.974
 1022SOL     OW 3964   4.278   3.564   5.962
 1022SOL    HW1 3965   4.348   3.636   5.966
 1022SOL    HW2 3966   4.188   3.605   5.952
 1023SOL     OW 3967   5.429   0.980   2.590
 1023SOL    HW1 3968   5.384   0.989   2.678
 1023SOL    HW2 3969   5.385   0.908   2.537
 1024SOL     OW 3970   6.692   1.367   3.686
 1024SOL    HW1 3971   6.681   1.365   3.586
 1024SOL    HW2 3972   6.778   1.323   3.710
 1025SOL     OW 3973   3.426   4.744   1.042
 1025SOL    HW1 3974   3.522   4.733   1.015
 1025SOL    HW2 3975   3.376   4.790   0.968
 1026SOL     OW 3976   1.746   2.320   0.275
 1026SOL    HW1 3977   1.651   2.325   0.305
 1026SOL    HW2 3978   1.776   2.410   0.244
 1027SOL     OW 3979   2.908   4.876   2.483
 1027SOL    HW1 3980   2.901   4.971   2.453
 1027SOL    HW2 3981   3.001   4.858   2.517
 1028SOL     OW 3982   1.384   5.885   0.751
 1028SOL    HW1 3983   1.297   5.931   0.731
 1028SOL    HW2 3984   1.450   5.952   0.784
 1029SOL     OW 3985   2.101   0.135   6.407
 1029SOL    HW1 3986   2.054   0.223   6.410
 1029SOL    HW2 3987   2.167   0.130   6.482
 1030SOL     OW 3988   4.071   3.256   5.090
 1030SOL    HW1 3989   4.115   3.301   5.168
 1030SOL    HW2 3990   4.022   3.175   5.122
 1031SOL     OW 3991   2.538   5.690   2.312
 1031SOL    HW1 3992   2.496   5.660   2.398
 1031SOL    HW2 3993   2.479   5.663   2.235
 1032SOL     OW 3994   1.362   1.177   4.557
 1032SOL    HW1 3995   1.306   1.112   4.506
 1032SOL    HW2 3996   1.422   1.226   4.494
 1033SOL     OW 3997   2.308   5.844   2.490
 1033SOL    HW1 3998   2.323   5.746   2.504
 1033SOL    HW2 3999   2.395   5.888   2.467
 1034SOL     OW 4000   1.760   4.879   3.946
 1034SOL    HW1 4001   1.827   4.837   3.886
 1034SOL    HW2 4002   1.671   4.882   3.900
 1035SOL     OW 4003   2.687   1.093   4.552
 1035SOL    HW1 4004   2.756   1.163   4.566
 1035SOL    HW2 4005   2.598   1.128   4.581
 1036SOL     OW 4006   4.410   2.326   0.595
 1036SOL    HW1 4007   4.437   2.404   0.538
 1036SOL    HW2 4008   4.398   2.245   0.536
 1037SOL     OW 4009   2.150   1.914   6.878
 1037SOL    HW1 4010   2.076   1.922   6.945
 1037SOL    HW2 4011   2.161   2.000   6.828
 1038SOL     OW 4012   2.094   1.249   5.062
 1038SOL    HW1 4013   2.113   1.200   5.147
 1038SOL    HW2 4014   1.998   1.279   5.062
 1039SOL     OW 4015   4.046   2.212   4.037
 1039SOL    HW1 4016   3.998   2.200   3.950
 1039SOL    HW2 4017   3.996   2.165   4.110
 1040SOL     OW 4018   6.632   4.499   2.660
 1040SOL    HW1 4019   6.684   4.567   2.608
 1040SOL    HW2 4020   6.695   4.442   2.712
 1041SOL     OW 4021   1.024   1.013   4.351
 1041SOL    HW1 4022   0.976   0.993   4.265
 1041SOL    HW2 4023   1.122   1.022   4.334
 1042SOL     OW 4024   5.684   4.869   0.842
 1042SOL    HW1 4025   5.770   4.899   0.800
 1042SOL    HW2 4026   5.666   4.774   0.815
 1043SOL     OW 4027   3.046   2.229   6.409
 1043SOL    HW1 4028   3.097   2.154   6.451
 1043SOL    HW2 4029   2.957   2.195   6.379
 1044SOL     OW 4030   4.090   3.454   1.864
 1044SOL    HW1 4031   4.165   3.491   1.810
 1044SOL    HW2 4032   4.127   3.399   1.939
 1045SOL     OW 4033   3.118   1.524   3.449
 1045SOL    HW1 4034   3.046   1.481   3.394
 1045SOL    HW2 4035   3.076   1.576   3.524
 1046SOL     OW 4036   4.328   0.175   1.807
 1046SOL    HW1 4037   4.379   0.094   1.837
 1046SOL    HW2 4038   4.370   0.212   1.724
 1047SOL     OW 4039   0.947   4.632   2.875
 1047SOL    HW1 4040   0.925   4.723   2.910
 1047SOL    HW2 4041   0.983   4.576   2.949
 1048SOL     OW 4042   4.909   4.381   5.356
 1048SOL    HW1 4043   4.906   4.422   5.448
 1048SOL    HW2 4044   4.934   4.285   5.363
 1049SOL     OW 4045   0.227   3.487   5.137
 1049SOL    HW1 4046   0.213   3.559   5.205
 1049SOL    HW2 4047   0.173   3.406   5.164
 1050SOL     OW 4048   3.487   0.605   6.901
 1050SOL    HW1 4049   3.496   0.511   6.934
 1050SOL    HW2 4050   3.453   0.664   6.975
 1051SOL     OW 4051   4.774   4.328   1.339
 1051SOL    HW1 4052   4.702   4.392   1.368
 1051SOL    HW2 4053   4.862   4.359   1.374
 1052SOL     OW 4054   3.747   0.231   4.352
 1052SOL    HW1 4055   3.677   0.168   4.384
 1052SOL    HW2 4056   3.722   0.325   4.378
 1053SOL     OW 4057   4.601   4.616   4.032
 1053SOL    HW1 4058   4.630   4.639   4.125
 1053SOL    HW2 4059   4.624   4.520   4.012
 1054SOL     OW 4060   3.377   5.912   4.832
 1054SOL    HW1 4061   3.290   5.959   4.820
 1054SOL    HW2 4062   3.360   5.820   4.869
 1055SOL     OW 4063   4.365   6.131   5.182
 1055SOL    HW1 4064   4.385   6.035   5.163
 1055SOL    HW2 4065   4.423   6.190   5.126
 1056SOL     OW 4066   1.899   6.758   5.114
 1056SOL    HW1 4067   1.974   6.702   5.149
 1056SOL    HW2 4068   1.868   6.820   5.186
 1057SOL     OW 4069   3.121   3.999   2.523
 1057SOL    HW1 4070   3.056   4.062   2.482
 1057SOL    HW2 4071   3.201   3.990   2.463
 1058SOL     OW 4072   3.877   0.903   1.636
 1058SOL    HW1 4073   3.887   0.809   1.668
 1058SOL    HW2 4074   3.937   0.918   1.557
 1059SOL     OW 4075   4.156   1.818   1.583
 1059SOL    HW1 4076   4.080   1.764   1.547
 1059SOL    HW2 4077   4.165   1.903   1.531
 1060SOL     OW 4078   1.779   1.879   5.592
 1060SOL    HW1 4079   1.810   1.785   5.602
 1060SOL    HW2 4080   1.856   1.941   5.607
 1061SOL     OW 4081   3.211   5.070   1.577
 1061SOL    HW1 4082   3.253   5.028   1.657
 1061SOL    HW2 4083   3.132   5.016   1.548
 1062SOL     OW 4084   5.691   5.565   4.756
 1062SOL    HW1 4085   5.670   5.474   4.719
 1062SOL    HW2 4086   5.683   5.563   4.855
 1063SOL     OW 4087   1.556   2.647   6.622
 1063SOL    HW1 4088   1.539   2.691   6.710
 1063SOL    HW2 4089   1.470   2.611   6.586
 1064SOL     OW 4090   6.563   2.800   2.084
 1064SOL    HW1 4091   6.607   2.855   2.154
 1064SOL    HW2 4092   6.559   2.852   1.998
 1065SOL     OW 4093   6.469   6.500   4.816
 1065SOL    HW1 4094   6.477   6.419   4.757
 1065SOL    HW2 4095   6.374   6.511   4.845
 1066SOL     OW 4096   4.686   0.530   3.409
 1066SOL    HW1 4097   4.737   0.509   3.492
 1066SOL    HW2 4098   4.708   0.622   3.378
 1067SOL     OW 4099   1.873   3.110   1.970
 1067SOL    HW1 4100   1.827   3.021   1.980
 1067SOL    HW2 4101   1.846   3.170   2.045
 1068SOL     OW 4102   0.472   3.576   1.894
 1068SOL    HW1 4103   0.491   3.641   1.819
 1068SOL    HW2 4104   0.376   3.580   1.918
 1069SOL     OW 4105   3.823   4.165   1.376
 1069SOL    HW1 4106   3.851   4.215   1.458
 1069SOL    HW2 4107   3.818   4.068   1.397
 1070SOL     OW 4108   2.403   0.940   0.264
 1070SOL    HW1 4109   2.317   0.892   0.283
 1070SOL    HW2 4110   2.451   0.893   0.190
 1071SOL     OW 4111   4.036   6.584   3.050
 1071SOL    HW1 4112   4.066   6.488   3.049
 1071SOL    HW2 4113   4.024   6.613   3.145
 1072SOL     OW 4114   3.990   5.841   2.848
 1072SOL    HW1 4115   4.077   5.888   2.862
 1072SOL    HW2 4116   3.951   5.816   2.936
 1073SOL     OW 4117   2.221   4.747   2.636
 1073SOL    HW1 4118   2.315   4.759   2.605
 1073SOL    HW2 4119   2.214   4.668   2.696
 1074SOL     OW 4120   1.383   5.494   1.796
 1074SOL    HW1 4121   1.449   5.477   1.724
 1074SOL    HW2 4122   1.308   5.428   1.790
 1075SOL     OW 4123   6.383   4.576   4.408
 1075SOL    HW1 4124   6.390   4.668   4.446
 1075SOL    HW2 4125   6.449   4.567   4.333
 1076SOL     OW 4126   0.338   4.684   3.650
 1076SOL    HW1 4127   0.316   4.667   3.554
 1076SOL    HW2 4128   0.270   4.639   3.708
 1077SOL     OW 4129   4.554   0.076   0.954
 1077SOL    HW1 4130   4.530   0.015   0.878
 1077SOL    HW2 4131   4.573   0.167   0.918
 1078SOL     OW 4132   0.918   2.284   1.363
 1078SOL    HW1 4133   0.884   2.329   1.445
 1078SOL    HW2 4134   0.840   2.253   1.308
 1079SOL     OW 4135   2.395   5.663   3.529
 1079SOL    HW1 4136   2.366   5.628   3.619
 1079SOL    HW2 4137   2.346   5.748   3.510
 1080SOL     OW 4138   1.468   5.330   4.869
 1080SOL    HW1 4139   1.522   5.266   4.925
 1080SOL    HW2 4140   1.464   5.296   4.775
 1081SOL     OW 4141   1.586   1.052   0.307
 1081SOL    HW1 4142   1.608   1.150   0.298
 1081SOL    HW2 4143   1.620   1.003   0.227
 1082SOL     OW 4144   2.020   6.732   6.139
 1082SOL    HW1 4145   2.103   6.678   6.155
 1082SOL    HW2 4146   1.982   6.762   6.226
 1083SOL     OW 4147   3.717   3.349   1.169
 1083SOL    HW1 4148   3.638   3.391   1.125
 1083SOL    HW2 4149   3.716   3.369   1.267
 1084SOL     OW 4150   6.309   3.997   0.648
 1084SOL    HW1 4151   6.343   3.929   0.714
 1084SOL    HW2 4152   6.211   3.983   0.634
 1085SOL     OW 4153   2.184   3.859   3.977
 1085SOL    HW1 4154   2.169   3.761   3.985
 1085SOL    HW2 4155   2.201   3.898   4.067
 1086SOL     OW 4156   4.330   4.703   2.339
 1086SOL    HW1 4157   4.245   4.686   2.290
 1086SOL    HW2 4158   4.386   4.620   2.337
 1087SOL     OW 4159   4.240   2.938   5.367
 1087SOL    HW1 4160   4.147   2.955   5.335
 1087SOL    HW2 4161   4.295   3.021   5.357
 1088SOL     OW 4162   4.894   3.997   3.592
 1088SOL    HW1 4163   4.930   3.915   3.547
 1088SOL    HW2 4164   4.924   4.078   3.541
 1089SOL     OW 4165   6.992   6.800   3.179
 1089SOL    HW1 4166   6.946   6.796   3.268
 1089SOL    HW2 4167   0.024   6.716   3.163
 1090SOL     OW 4168   0.863   1.591   5.863
 1090SOL    HW1 4169   0.958   1.606   5.892
 1090SOL    HW2 4170   0.801   1.613   5.938
 1091SOL     OW 4171   1.391   1.997   4.965
 1091SOL    HW1 4172   1.380   2.092   4.935
 1091SOL    HW2 4173   1.472   1.990   5.023
 1092SOL     OW 4174   2.323   4.229   1.485
 1092SOL    HW1 4175   2.331   4.162   1.559
 1092SOL    HW2 4176   2.415   4.256   1.455
 1093SOL     OW 4177   0.487   1.632   2.274
 1093SOL    HW1 4178   0.414   1.588   2.222
 1093SOL    HW2 4179   0.491   1.592   2.365
 1094SOL     OW 4180   0.582   6.146   1.411
 1094SOL    HW1 4181   0.618   6.148   1.505
 1094SOL    HW2 4182   0.582   6.052   1.378
 1095SOL     OW 4183   5.815   3.933   6.294
 1095SOL    HW1 4184   5.861   4.000   6.236
 1095SOL    HW2 4185   5.820   3.963   6.389
 1096SOL     OW 4186   3.440   4.700   1.646
 1096SOL    HW1 4187   3.346   4.712   1.677
 1096SOL    HW2 4188   3.503   4.718   1.722
 1097SOL     OW 4189   1.109   5.437   5.707
 1097SOL    HW1 4190   1.115   5.341   5.678
 1097SOL    HW2 4191   1.034   5.482   5.660
 1098SOL     OW 4192   4.195   1.964   2.668
 1098SOL    HW1 4193   4.229   1.959   2.762
 1098SOL    HW2 4194   4.192   2.059   2.638
 1099SOL     OW 4195   4.018   1.933   3.300
 1099SOL    HW1 4196   3.939   1.916   3.241
 1099SOL    HW2 4197   4.071   2.010   3.264
 1100SOL     OW 4198   0.766   0.856   0.437
 1100SOL    HW1 4199   0.691   0.917   0.462
 1100SOL    HW2 4200   0.844   0.873   0.496
 1101SOL     OW 4201   5.564   2.580   1.000
 1101SOL    HW1 4202   5.477   2.619   0.968
 1101SOL    HW2 4203   5.574   2.487   0.965
 1102SOL     OW 4204   0.578   4.600   3.438
 1102SOL    HW1 4205   0.547   4.518   3.390
 1102SOL    HW2 4206   0.500   4.658   3.460
 1103SOL     OW 4207   0.744   2.951   0.993
 1103SOL    HW1 4208   0.652   2.986   1.015
 1103SOL    HW2 4209   0.768   2.879   1.057
 1104SOL     OW 4210   3.060   5.059   6.275
 1104SOL    HW1 4211   3.089   4.999   6.350
 1104SOL    HW2 4212   3.123   5.049   6.198
 1105SOL     OW 4213   4.356   4.866   6.644
 1105SOL    HW1 4214   4.443   4.818   6.635
 1105SOL    HW2 4215   4.306   4.831   6.723
 1106SOL     OW 4216   0.230   2.313   6.357
 1106SOL    HW1 4217   0.269   2.282   6.444
 1106SOL    HW2 4218   0.291   2.286   6.282
 1107SOL     OW 4219   0.843   0.681   0.693
 1107SOL    HW1 4220   0.911   0.686   0.766
 1107SOL    HW2 4221   0.778   0.756   0.701
 1108SOL     OW 4222   0.638   1.844   5.105
 1108SOL    HW1 4223   0.727   1.847   5.149
 1108SOL    HW2 4224   0.641   1.782   5.026
 1109SOL     OW 4225   4.831   0.591   4.016
 1109SOL    HW1 4226   4.828   0.547   3.926
 1109SOL    HW2 4227   4.813   0.523   4.087
 1110SOL     OW 4228   2.969   3.140   2.203
 1110SOL    HW1 4229   2.948   3.128   2.106
 1110SOL    HW2 4230   2.952   3.234   2.230
 1111SOL     OW 4231   5.777   6.983   6.899
 1111SOL    HW1 4232   5.705   6.936   6.848
 1111SOL    HW2 4233   5.758   6.977   6.997
 1112SOL     OW 4234   6.608   0.693   2.535
 1112SOL    HW1 4235   6.631   0.790   2.544
 1112SOL    HW2 4236   6.526   0.672   2.587
 1113SOL     OW 4237   6.495   3.783   1.935
 1113SOL    HW1 4238   6.481   3.728   2.017
 1113SOL    HW2 4239   6.479   3.879   1.957
 1114SOL     OW 4240   4.941   1.494   4.680
 1114SOL    HW1 4241   4.866   1.470   4.618
 1114SOL    HW2 4242   4.935   1.590   4.704
 1115SOL     OW 4243   2.871   3.618   0.761
 1115SOL    HW1 4244   2.876   3.530   0.808
 1115SOL    HW2 4245   2.957   3.635   0.712
 1116SOL     OW 4246   4.882   6.977   4.336
 1116SOL    HW1 4247   4.891   0.053   4.367
 1116SOL    HW2 4248   4.790   6.963   4.300
 1117SOL     OW 4249   2.613   3.144   1.390
 1117SOL    HW1 4250   2.645   3.066   1.444
 1117SOL    HW2 4251   2.513   3.144   1.388
 1118SOL     OW 4252   2.152   3.398   3.710
 1118SOL    HW1 4253   2.081   3.460   3.742
 1118SOL    HW2 4254   2.202   3.441   3.635
 1119SOL     OW 4255   3.875   3.789   1.889
 1119SOL    HW1 4256   3.940   3.790   1.965
 1119SOL    HW2 4257   3.903   3.858   1.822
 1120SOL     OW 4258   4.125   0.882   4.716
 1120SOL    HW1 4259   4.163   0.974   4.712
 1120SOL    HW2 4260   4.182   0.825   4.776
 1121SOL     OW 4261   5.591   2.778   1.906
 1121SOL    HW1 4262   5.542   2.694   1.880
 1121SOL    HW2 4263   5.672   2.788   1.849
 1122SOL     OW 4264   5.136   4.209   7.004
 1122SOL    HW1 4265   5.102   4.192   6.912
 1122SOL    HW2 4266   5.125   4.306   0.008
 1123SOL     OW 4267   3.390   0.157   2.302
 1123SOL    HW1 4268   3.487   0.135   2.293
 1123SOL    HW2 4269   3.356   0.195   2.216
 1124SOL     OW 4270   0.691   4.022   4.619
 1124SOL    HW1 4271   0.751   3.942   4.622
 1124SOL    HW2 4272   0.672   4.054   4.712
 1125SOL     OW 4273   3.456   3.303   5.224
 1125SOL    HW1 4274   3.469   3.205   5.244
 1125SOL    HW2 4275   3.375   3.315   5.168
 1126SOL     OW 4276   5.416   6.377   2.026
 1126SOL    HW1 4277   5.488   6.399   2.092
 1126SOL    HW2 4278   5.444   6.298   1.971
 1127SOL     OW 4279   1.657   4.960   6.797
 1127SOL    HW1 4280   1.665   4.939   6.699
 1127SOL    HW2 4281   1.745   4.944   6.841
 1128SOL     OW 4282   2.503   2.009   4.859
 1128SOL    HW1 4283   2.455   2.092   4.888
 1128SOL    HW2 4284   2.597   2.012   4.893
 1129SOL     OW 4285   5.587   0.587   6.930
 1129SOL    HW1 4286   5.513   0.655   6.930
 1129SOL    HW2 4287   5.651   0.608   6.855
 1130SOL     OW 4288   0.312   4.628   6.400
 1130SOL    HW1 4289   0.240   4.602   6.464
 1130SOL    HW2 4290   0.359   4.546   6.366
 1131SOL     OW 4291   0.615   5.360   5.472
 1131SOL    HW1 4292   0.521   5.382   5.496
 1131SOL    HW2 4293   0.639   5.406   5.386
 1132SOL     OW 4294   5.654   6.833   5.554
 1132SOL    HW1 4295   5.700   6.873   5.474
 1132SOL    HW2 4296   5.556   6.826   5.536
 1133SOL     OW 4297   0.270   3.683   1.518
 1133SOL    HW1 4298   0.317   3.628   1.449
 1133SOL    HW2 4299   0.336   3.720   1.583
 1134SOL     OW 4300   5.224   2.509   6.218
 1134SOL    HW1 4301   5.215   2.410   6.223
 1134SOL    HW2 4302   5.215   2.539   6.123
 1135SOL     OW 4303   3.042   2.196   2.953
 1135SOL    HW1 4304   3.133   2.162   2.929
 1135SOL    HW2 4305   3.047   2.246   3.040
 1136SOL     OW 4306   3.446   5.166   3.878
 1136SOL    HW1 4307   3.366   5.190   3.824
 1136SOL    HW2 4308   3.527   5.212   3.842
 1137SOL     OW 4309   1.639   0.846   6.224
 1137SOL    HW1 4310   1.540   0.842   6.215
 1137SOL    HW2 4311   1.674   0.754   6.244
 1138SOL     OW 4312   0.701   4.169   5.465
 1138SOL    HW1 4313   0.690   4.072   5.487
 1138SOL    HW2 4314   0.620   4.201   5.416
 1139SOL     OW 4315   1.503   6.283   1.973
 1139SOL    HW1 4316   1.573   6.235   1.919
 1139SOL    HW2 4317   1.494   6.377   1.940
 1140SOL     OW 4318   3.810   1.617   3.796
 1140SOL    HW1 4319   3.798   1.519   3.809
 1140SOL    HW2 4320   3.721   1.662   3.791
 1141SOL     OW 4321   6.433   5.549   5.454
 1141SOL    HW1 4322   6.407   5.564   5.359
 1141SOL    HW2 4323   6.352   5.560   5.513
 1142SOL     OW 4324   6.506   0.778   4.057
 1142SOL    HW1 4325   6.528   0.749   3.964
 1142SOL    HW2 4326   6.447   0.860   4.053
 1143SOL     OW 4327   4.394   2.153   2.852
 1143SOL    HW1 4328   4.485   2.165   2.892
 1143SOL    HW2 4329   4.392   2.194   2.760
 1144SOL     OW 4330   0.381   5.562   4.598
 1144SOL    HW1 4331   0.333   5.637   4.642
 1144SOL    HW2 4332   0.329   5.532   4.517
 1145SOL     OW 4333   1.059   5.804   4.802
 1145SOL    HW1 4334   1.056   5.763   4.710
 1145SOL    HW2 4335   1.009   5.891   4.801
 1146SOL     OW 4336   5.732   2.013   0.621
 1146SOL    HW1 4337   5.681   1.927   0.611
 1146SOL    HW2 4338   5.674   2.079   0.669
 1147SOL     OW 4339   6.793   2.708   1.858
 1147SOL    HW1 4340   6.890   2.721   1.838
 1147SOL    HW2 4341   6.738   2.733   1.778
 1148SOL     OW 4342   3.686   0.011   0.649
 1148SOL    HW1 4343   3.707   0.109   0.651
 1148SOL    HW2 4344   3.588   7.017   0.666
 1149SOL     OW 4345   6.210   3.034   2.037
 1149SOL    HW1 4346   6.135   2.969   2.023
 1149SOL    HW2 4347   6.266   3.039   1.954
 1150SOL     OW 4348   1.456   4.662   6.874
 1150SOL    HW1 4349   1.456   4.760   6.855
 1150SOL    HW2 4350   1.366   4.624   6.852
 1151SOL     OW 4351   4.800   5.370   6.418
 1151SOL    HW1 4352   4.815   5.457   6.465
 1151SOL    HW2 4353   4.867   5.360   6.344
 1152SOL     OW 4354   1.129   0.182   4.781
 1152SOL    HW1 4355   1.149   0.171   4.684
 1152SOL    HW2 4356   1.190   0.124   4.835
 1153SOL     OW 4357   2.286   4.881   3.150
 1153SOL    HW1 4358   2.268   4.790   3.113
 1153SOL    HW2 4359   2.382   4.886   3.178
 1154SOL     OW 4360   1.323   5.194   1.644
 1154SOL    HW1 4361   1.290   5.135   1.571
 1154SOL    HW2 4362   1.246   5.225   1.699
 1155SOL     OW 4363   3.430   6.074   1.783
 1155SOL    HW1 4364   3.465   6.081   1.689
 1155SOL    HW2 4365   3.385   5.985   1.795
 1156SOL     OW 4366   2.406   0.233   4.139
 1156SOL    HW1 4367   2.330   0.234   4.205
 1156SOL    HW2 4368   2.389   0.161   4.071
 1157SOL     OW 4369   0.856   2.828   3.898
 1157SOL    HW1 4370   0.808   2.741   3.888
 1157SOL    HW2 4371   0.790   2.899   3.922
 1158SOL     OW 4372   4.469   5.472   5.420
 1158SOL    HW1 4373   4.559   5.454   5.381
 1158SOL    HW2 4374   4.400   5.467   5.348
 1159SOL     OW 4375   4.505   4.838   3.662
 1159SOL    HW1 4376   4.487   4.786   3.745
 1159SOL    HW2 4377   4.579   4.794   3.610
 1160SOL     OW 4378   3.190   3.902   0.700
 1160SOL    HW1 4379   3.150   3.993   0.689
 1160SOL    HW2 4380   3.122   3.833   0.673
 1161SOL     OW 4381   5.201   0.826   3.616
 1161SOL    HW1 4382   5.120   0.777   3.650
 1161SOL    HW2 4383   5.206   0.916   3.661
 1162SOL     OW 4384   3.603   4.126   1.744
 1162SOL    HW1 4385   3.589   4.099   1.839
 1162SOL    HW2 4386   3.593   4.225   1.736
 1163SOL     OW 4387   5.061   2.146   2.863
 1163SOL    HW1 4388   5.024   2.175   2.775
 1163SOL    HW2 4389   5.101   2.055   2.854
 1164SOL     OW 4390   5.821   3.491   3.928
 1164SOL    HW1 4391   5.761   3.547   3.871
 1164SOL    HW2 4392   5.916   3.502   3.899
 1165SOL     OW 4393   0.994   5.024   2.973
 1165SOL    HW1 4394   1.054   5.094   2.935
 1165SOL    HW2 4395   1.048   4.942   2.993
 1166SOL     OW 4396   4.177   2.934   6.546
 1166SOL    HW1 4397   4.088   2.899   6.516
 1166SOL    HW2 4398   4.241   2.858   6.558
 1167SOL     OW 4399   4.763   1.560   5.122
 1167SOL    HW1 4400   4.667   1.550   5.097
 1167SOL    HW2 4401   4.772   1.575   5.220
 1168SOL     OW 4402   5.847   6.614   3.321
 1168SOL    HW1 4403   5.893   6.609   3.410
 1168SOL    HW2 4404   5.751   6.585   3.331
 1169SOL     OW 4405   0.606   3.359   1.961
 1169SOL    HW1 4406   0.547   3.434   1.934
 1169SOL    HW2 4407   0.702   3.388   1.955
 1170SOL     OW 4408   2.717   0.874   1.058
 1170SOL    HW1 4409   2.687   0.942   1.124
 1170SOL    HW2 4410   2.648   0.802   1.049
 1171SOL     OW 4411   2.951   6.338   0.262
 1171SOL    HW1 4412   3.050   6.341   0.275
 1171SOL    HW2 4413   2.931   6.303   0.171
 1172SOL     OW 4414   3.170   3.556   5.273
 1172SOL    HW1 4415   3.098   3.615   5.310
 1172SOL    HW2 4416   3.173   3.564   5.173
 1173SOL     OW 4417   3.697   1.093   6.484
 1173SOL    HW1 4418   3.664   1.170   6.539
 1173SOL    HW2 4419   3.718   1.016   6.544
 1174SOL     OW 4420   2.914   6.138   0.819
 1174SOL    HW1 4421   2.938   6.119   0.725
 1174SOL    HW2 4422   2.891   6.053   0.867
 1175SOL     OW 4423   6.173   4.912   6.074
 1175SOL    HW1 4424   6.116   4.833   6.053
 1175SOL    HW2 4425   6.263   4.881   6.104
 1176SOL     OW 4426   5.934   4.154   0.781
 1176SOL    HW1 4427   5.978   4.072   0.745
 1176SOL    HW2 4428   5.951   4.231   0.719
 1177SOL     OW 4429   6.581   2.513   6.342
 1177SOL    HW1 4430   6.603   2.444   6.274
 1177SOL    HW2 4431   6.483   2.508   6.364
 1178SOL     OW 4432   6.038   3.751   1.915
 1178SOL    HW1 4433   6.027   3.689   1.837
 1178SOL    HW2 4434   6.047   3.845   1.882
 1179SOL     OW 4435   2.777   5.574   6.304
 1179SOL    HW1 4436   2.690   5.552   6.260
 1179SOL    HW2 4437   2.840   5.614   6.237
 1180SOL     OW 4438   2.586   1.939   4.014
 1180SOL    HW1 4439   2.560   1.848   4.045
 1180SOL    HW2 4440   2.506   1.999   4.016
 1181SOL     OW 4441   2.177   4.231   2.892
 1181SOL    HW1 4442   2.265   4.265   2.924
 1181SOL    HW2 4443   2.116   4.309   2.875
 1182SOL     OW 4444   1.759   4.165   3.422
 1182SOL    HW1 4445   1.787   4.076   3.459
 1182SOL    HW2 4446   1.669   4.155   3.378
 1183SOL     OW 4447   4.500   5.508   1.285
 1183SOL    HW1 4448   4.452   5.512   1.372
 1183SOL    HW2 4449   4.453   5.446   1.223
 1184SOL     OW 4450   3.070   2.916   5.305
 1184SOL    HW1 4451   2.987   2.971   5.308
 1184SOL    HW2 4452   3.048   2.821   5.327
 1185SOL     OW 4453   2.126   1.204   6.640
 1185SOL    HW1 4454   2.179   1.286   6.660
 1185SOL    HW2 4455   2.035   1.229   6.610
 1186SOL     OW 4456   4.513   1.564   4.985
 1186SOL    HW1 4457   4.431   1.618   4.967
 1186SOL    HW2 4458   4.529   1.502   4.909
 1187SOL     OW 4459   6.744   0.733   5.532
 1187SOL    HW1 4460   6.811   0.799   5.567
 1187SOL    HW2 4461   6.792   0.664   5.477
 1188SOL     OW 4462   1.515   0.412   5.701
 1188SOL    HW1 4463   1.604   0.402   5.658
 1188SOL    HW2 4464   1.454   0.341   5.667
 1189SOL     OW 4465   5.628   1.017   2.035
 1189SOL    HW1 4466   5.563   0.979   2.101
 1189SOL    HW2 4467   5.589   1.012   1.943
 1190SOL     OW 4468   4.135   4.959   2.973
 1190SOL    HW1 4469   4.136   5.045   2.923
 1190SOL    HW2 4470   4.164   4.976   3.068
 1191SOL     OW 4471   3.598   5.326   6.275
 1191SOL    HW1 4472   3.652   5.255   6.321
 1191SOL    HW2 4473   3.577   5.400   6.339
 1192SOL     OW 4474   5.291   5.294   2.900
 1192SOL    HW1 4475   5.289   5.350   2.983
 1192SOL    HW2 4476   5.332   5.346   2.826
 1193SOL     OW 4477   4.723   0.488   3.719
 1193SOL    HW1 4478   4.706   0.407   3.774
 1193SOL    HW2 4479   4.636   0.527   3.689
 1194SOL     OW 4480   6.060   0.108   0.896
 1194SOL    HW1 4481   6.062   0.165   0.814
 1194SOL    HW2 4482   6.108   0.022   0.878
 1195SOL     OW 4483   4.366   0.668   6.358
 1195SOL    HW1 4484   4.383   0.569   6.361
 1195SOL    HW2 4485   4.274   0.687   6.394
 1196SOL     OW 4486   0.932   5.394   2.237
 1196SOL    HW1 4487   1.007   5.398   2.172
 1196SOL    HW2 4488   0.846   5.416   2.190
 1197SOL     OW 4489   3.629   5.091   5.985
 1197SOL    HW1 4490   3.622   5.188   6.008
 1197SOL    HW2 4491   3.612   5.036   6.067
 1198SOL     OW 4492   2.706   1.781   2.889
 1198SOL    HW1 4493   2.614   1.792   2.850
 1198SOL    HW2 4494   2.701   1.789   2.988
 1199SOL     OW 4495   4.058   3.514   2.990
 1199SOL    HW1 4496   4.043   3.426   2.945
 1199SOL    HW2 4497   4.068   3.500   3.088
 1200SOL     OW 4498   3.440   4.124   0.472
 1200SOL    HW1 4499   3.434   4.105   0.570
 1200SOL    HW2 4500   3.467   4.042   0.423
 1201SOL     OW 4501   1.191   0.826   5.229
 1201SOL    HW1 4502   1.281   0.869   5.221
 1201SOL    HW2 4503   1.123   0.895   5.252
 1202SOL     OW 4504   6.162   6.905   4.559
 1202SOL    HW1 4505   6.140   7.001   4.579
 1202SOL    HW2 4506   6.210   6.865   4.636
 1203SOL     OW 4507   5.304   0.129   1.590
 1203SOL    HW1 4508   5.303   0.084   1.680
 1203SOL    HW2 4509   5.286   0.061   1.519
 1204SOL     OW 4510   3.016   0.667   0.544
 1204SOL    HW1 4511   3.107   0.678   0.585
 1204SOL    HW2 4512   3.025   0.627   0.452
 1205SOL     OW 4513   0.083   2.816   5.613
 1205SOL    HW1 4514   7.005   2.827   5.591
 1205SOL    HW2 4515   0.105   2.872   5.693
 1206SOL     OW 4516   2.285   1.227   4.857
 1206SOL    HW1 4517   2.208   1.215   4.920
 1206SOL    HW2 4518   2.344   1.300   4.890
 1207SOL     OW 4519   5.662   6.978   6.641
 1207SOL    HW1 4520   5.690   6.892   6.599
 1207SOL    HW2 4521   5.742   0.007   6.677
 1208SOL     OW 4522   4.164   3.498   3.763
 1208SOL    HW1 4523   4.130   3.404   3.759
 1208SOL    HW2 4524   4.087   3.561   3.772
 1209SOL     OW 4525   6.051   5.430   4.241
 1209SOL    HW1 4526   6.144   5.396   4.251
 1209SOL    HW2 4527   5.990   5.354   4.218
 1210SOL     OW 4528   3.348   6.688   2.471
 1210SOL    HW1 4529   3.446   6.705   2.465
 1210SOL    HW2 4530   3.307   6.694   2.380
 1211SOL     OW 4531   0.602   4.308   4.568
 1211SOL    HW1 4532   0.506   4.307   4.542
 1211SOL    HW2 4533   0.640   4.216   4.560
 1212SOL     OW 4534   1.904   3.973   4.995
 1212SOL    HW1 4535   1.949   3.979   5.084
 1212SOL    HW2 4536   1.844   4.053   4.983
 1213SOL     OW 4537   5.723   2.143   5.845
 1213SOL    HW1 4538   5.689   2.105   5.759
 1213SOL    HW2 4539   5.661   2.215   5.877
 1214SOL     OW 4540   2.244   2.950   3.435
 1214SOL    HW1 4541   2.245   3.046   3.409
 1214SOL    HW2 4542   2.171   2.903   3.386
 1215SOL     OW 4543   0.887   4.625   1.795
 1215SOL    HW1 4544   0.838   4.711   1.810
 1215SOL    HW2 4545   0.855   4.583   1.710
 1216SOL     OW 4546   2.541   0.449   1.830
 1216SOL    HW1 4547   2.443   0.426   1.831
 1216SOL    HW2 4548   2.556   0.529   1.889
 1217SOL     OW 4549   1.119   0.280   2.054
 1217SOL    HW1 4550   1.090   0.193   2.094
 1217SOL    HW2 4551   1.216   0.295   2.073
 1218SOL     OW 4552   0.874   3.831   3.084
 1218SOL    HW1 4553   0.910   3.898   3.149
 1218SOL    HW2 4554   0.865   3.742   3.131
 1219SOL     OW 4555   3.135   5.686   2.386
 1219SOL    HW1 4556   3.052   5.702   2.440
 1219SOL    HW2 4557   3.215   5.718   2.436
 1220SOL     OW 4558   6.207   3.751   3.261
 1220SOL    HW1 4559   6.108   3.738   3.267
 1220SOL    HW2 4560   6.240   3.798   3.343
 1221SOL     OW 4561   4.847   3.396   0.045
 1221SOL    HW1 4562   4.885   3.324   7.006
 1221SOL    HW2 4563   4.764   3.363   0.089
 1222SOL     OW 4564   6.849   6.222   1.475
 1222SOL    HW1 4565   6.785   6.157   1.436
 1222SOL    HW2 4566   6.943   6.187   1.463
 1223SOL     OW 4567   6.388   6.723   5.722
 1223SOL    HW1 4568   6.454   6.798   5.725
 1223SOL    HW2 4569   6.318   6.743   5.654
 1224SOL     OW 4570   5.483   5.037   2.195
 1224SOL    HW1 4571   5.481   4.945   2.156
 1224SOL    HW2 4572   5.436   5.101   2.134
 1225SOL     OW 4573   4.892   2.442   6.852
 1225SOL    HW1 4574   4.933   2.513   6.910
 1225SOL    HW2 4575   4.952   2.362   6.851
 1226SOL     OW 4576   5.504   5.574   1.066
 1226SOL    HW1 4577   5.448   5.515   1.126
 1226SOL    HW2 4578   5.556   5.517   1.003
 1227SOL     OW 4579   4.531   4.235   6.308
 1227SOL    HW1 4580   4.597   4.210   6.379
 1227SOL    HW2 4581   4.553   4.326   6.273
 1228SOL     OW 4582   3.628   2.969   3.079
 1228SOL    HW1 4583   3.677   2.908   3.142
 1228SOL    HW2 4584   3.660   3.063   3.093
 1229SOL     OW 4585   2.222   5.147   3.101
 1229SOL    HW1 4586   2.255   5.054   3.118
 1229SOL    HW2 4587   2.285   5.194   3.038
 1230SOL     OW 4588   5.350   5.000   1.318
 1230SOL    HW1 4589   5.350   5.076   1.254
 1230SOL    HW2 4590   5.411   5.021   1.395
 1231SOL     OW 4591   1.497   2.312   6.149
 1231SOL    HW1 4592   1.534   2.222   6.125
 1231SOL    HW2 4593   1.569   2.369   6.187
 1232SOL     OW 4594   3.349   0.427   5.658
 1232SOL    HW1 4595   3.314   0.449   5.566
 1232SOL    HW2 4596   3.274   0.394   5.715
 1233SOL     OW 4597   0.546   5.506   5.238
 1233SOL    HW1 4598   0.610   5.580   5.214
 1233SOL    HW2 4599   0.458   5.546   5.264
 1234SOL     OW 4600   6.995   3.292   0.094
 1234SOL    HW1 4601   0.004   3.230   0.168
 1234SOL    HW2 4602   0.040   3.282   0.017
 1235SOL     OW 4603   5.978   5.301   1.056
 1235SOL    HW1 4604   6.003   5.231   0.990
 1235SOL    HW2 4605   6.058   5.357   1.078
 1236SOL     OW 4606   1.132   1.949   2.348
 1236SOL    HW1 4607   1.057   1.910   2.401
 1236SOL    HW2 4608   1.219   1.929   2.393
 1237SOL     OW 4609   0.656   6.887   4.477
 1237SOL    HW1 4610   0.738   6.849   4.434
 1237SOL    HW2 4611   0.682   6.935   4.561
 1238SOL     OW 4612   0.288   0.449   4.749
 1238SOL    HW1 4613   0.287   0.453   4.649
 1238SOL    HW2 4614   0.247   0.533   4.786
 1239SOL     OW 4615   5.705   4.664   4.963
 1239SOL    HW1 4616   5.697   4.604   4.884
 1239SOL    HW2 4617   5.802   4.684   4.981
 1240SOL     OW 4618   6.549   4.415   3.094
 1240SOL    HW1 4619   6.641   4.403   3.132
 1240SOL    HW2 4620   6.484   4.431   3.167
 1241SOL     OW 4621   4.506   5.113   5.081
 1241SOL    HW1 4622   4.597   5.152   5.073
 1241SOL    HW2 4623   4.443   5.183   5.116
 1242SOL     OW 4624   1.402   5.306   6.872
 1242SOL    HW1 4625   1.310   5.345   6.869
 1242SOL    HW2 4626   1.399   5.218   6.920
 1243SOL     OW 4627   1.397   4.237   4.690
 1243SOL    HW1 4628   1.307   4.216   4.650
 1243SOL    HW2 4629   1.385   4.261   4.787
 1244SOL     OW 4630   5.862   0.495   5.317
 1244SOL    HW1 4631   5.905   0.455   5.398
 1244SOL    HW2 4632   5.928   0.554   5.270
 1245SOL     OW 4633   4.987   0.031   1.181
 1245SOL    HW1 4634   5.082   0.052   1.159
 1245SOL    HW2 4635   4.982   7.004   1.269
 1246SOL     OW 4636   5.115   1.216   0.006
 1246SOL    HW1 4637   5.125   1.305   0.050
 1246SOL    HW2 4638   5.035   1.218   6.965
 1247SOL     OW 4639   0.281   6.886   3.704
 1247SOL    HW1 4640   0.266   6.799   3.752
 1247SOL    HW2 4641   0.274   6.962   3.769
 1248SOL     OW 4642   1.351   6.535   4.061
 1248SOL    HW1 4643   1.439   6.541   4.014
 1248SOL    HW2 4644   1.293   6.612   4.035
 1249SOL     OW 4645   5.616   5.181   6.863
 1249SOL    HW1 4646   5.577   5.255   6.918
 1249SOL    HW2 4647   5.571   5.095   6.886
 1250SOL     OW 4648   6.462   3.176   4.756
 1250SOL    HW1 4649   6.397   3.202   4.684
 1250SOL    HW2 4650   6.555   3.198   4.727
 1251SOL     OW 4651   3.070   0.717   2.597
 1251SOL    HW1 4652   3.000   0.663   2.644
 1251SOL    HW2 4653   3.083   0.682   2.505
 1252SOL     OW 4654   1.922   5.760   6.862
 1252SOL    HW1 4655   1.863   5.769   6.782
 1252SOL    HW2 4656   2.016   5.744   6.833
 1253SOL     OW 4657   3.218   1.049   1.124
 1253SOL    HW1 4658   3.294   1.005   1.077
 1253SOL    HW2 4659   3.140   0.987   1.126
 1254SOL     OW 4660   6.307   0.916   2.094
 1254SOL    HW1 4661   6.357   0.880   2.173
 1254SOL    HW2 4662   6.330   0.863   2.012
 1255SOL     OW 4663   5.685   1.624   5.421
 1255SOL    HW1 4664   5.718   1.586   5.334
 1255SOL    HW2 4665   5.698   1.556   5.493
 1256SOL     OW 4666   1.356   5.383   4.238
 1256SOL    HW1 4667   1.407   5.304   4.202
 1256SOL    HW2 4668   1.419   5.458   4.258
 1257SOL     OW 4669   0.714   5.735   3.767
 1257SOL    HW1 4670   0.656   5.816   3.775
 1257SOL    HW2 4671   0.686   5.681   3.687
 1258SOL     OW 4672   4.510   6.796   4.797
 1258SOL    HW1 4673   4.460   6.862   4.741
 1258SOL    HW2 4674   4.487   6.703   4.767
 1259SOL     OW 4675   5.926   0.089   4.285
 1259SOL    HW1 4676   5.958   0.177   4.320
 1259SOL    HW2 4677   5.869   0.044   4.354
 1260SOL     OW 4678   2.547   0.931   1.774
 1260SOL    HW1 4679   2.529   0.946   1.676
 1260SOL    HW2 4680   2.534   1.017   1.824
 1261SOL     OW 4681   6.355   4.400   6.240
 1261SOL    HW1 4682   6.419   4.363   6.172
 1261SOL    HW2 4683   6.356   4.499   6.235
 1262SOL     OW 4684   4.446   5.160   0.733
 1262SOL    HW1 4685   4.364   5.216   0.742
 1262SOL    HW2 4686   4.427   5.066   0.763
 1263SOL     OW 4687   6.801   2.178   1.129
 1263SOL    HW1 4688   6.746   2.100   1.098
 1263SOL    HW2 4689   6.836   2.160   1.221
 1264SOL     OW 4690   0.375   3.419   3.424
 1264SOL    HW1 4691   0.368   3.491   3.356
 1264SOL    HW2 4692   0.285   3.376   3.435
 1265SOL     OW 4693   6.433   5.189   5.257
 1265SOL    HW1 4694   6.387   5.114   5.210
 1265SOL    HW2 4695   6.410   5.275   5.212
 1266SOL     OW 4696   2.760   2.122   4.619
 1266SOL    HW1 4697   2.828   2.142   4.548
 1266SOL    HW2 4698   2.669   2.125   4.578
 1267SOL     OW 4699   0.315   4.932   2.569
 1267SOL    HW1 4700   0.308   4.991   2.650
 1267SOL    HW2 4701   0.409   4.901   2.559
 1268SOL     OW 4702   6.152   3.278   0.019
 1268SOL    HW1 4703   6.208   3.356   0.045
 1268SOL    HW2 4704   6.067   3.310   6.995
 1269SOL     OW 4705   6.847   5.356   5.397
 1269SOL    HW1 4706   6.817   5.264   5.373
 1269SOL    HW2 4707   6.942   5.353   5.430
 1270SOL     OW 4708   1.959   3.073   4.833
 1270SOL    HW1 4709   1.955   3.145   4.903
 1270SOL    HW2 4710   1.876   3.077   4.777
 1271SOL     OW 4711   4.440   0.763   2.406
 1271SOL    HW1 4712   4.512   0.831   2.388
 1271SOL    HW2 4713   4.361   0.808   2.448
 1272SOL     OW 4714   0.616   5.641   1.684
 1272SOL    HW1 4715   0.691   5.667   1.622
 1272SOL    HW2 4716   0.534   5.623   1.630
 1273SOL     OW 4717   2.610   6.178   6.637
 1273SOL    HW1 4718   2.579   6.089   6.670
 1273SOL    HW2 4719   2.664   6.223   6.708
 1274SOL     OW 4720   0.146   2.131   1.653
 1274SOL    HW1 4721   0.118   2.140   1.557
 1274SOL    HW2 4722   0.235   2.086   1.658
 1275SOL     OW 4723   3.354   1.877   3.937
 1275SOL    HW1 4724   3.355   1.977   3.938
 1275SOL    HW2 4725   3.435   1.842   3.984
 1276SOL     OW 4726   6.762   7.000   3.208
 1276SOL    HW1 4727   6.727   6.917   3.165
 1276SOL    HW2 4728   6.861   6.992   3.221
 1277SOL     OW 4729   0.190   0.419   5.190
 1277SOL    HW1 4730   0.141   0.497   5.229
 1277SOL    HW2 4731   0.137   0.336   5.206
 1278SOL     OW 4732   2.254   1.719   5.611
 1278SOL    HW1 4733   2.233   1.648   5.678
 1278SOL    HW2 4734   2.352   1.741   5.615
 1279SOL     OW 4735   2.537   5.191   0.303
 1279SOL    HW1 4736   2.576   5.109   0.344
 1279SOL    HW2 4737   2.437   5.182   0.300
 1280SOL     OW 4738   2.747   6.927   3.427
 1280SOL    HW1 4739   2.782   7.016   3.399
 1280SOL    HW2 4740   2.753   6.863   3.350
 1281SOL     OW 4741   1.034   6.250   3.493
 1281SOL    HW1 4742   0.955   6.303   3.524
 1281SOL    HW2 4743   1.089   6.305   3.430
 1282SOL     OW 4744   0.361   1.028   1.773
 1282SOL    HW1 4745   0.331   1.016   1.679
 1282SOL    HW2 4746   0.460   1.043   1.775
 1283SOL     OW 4747   5.711   5.546   5.323
 1283SOL    HW1 4748   5.641   5.506   5.382
 1283SOL    HW2 4749   5.736   5.481   5.252
 1284SOL     OW 4750   2.635   2.514   1.756
 1284SOL    HW1 4751   2.567   2.534   1.826
 1284SOL    HW2 4752   2.675   2.424   1.774
 1285SOL     OW 4753   4.288   2.668   5.353
 1285SOL    HW1 4754   4.289   2.768   5.351
 1285SOL    HW2 4755   4.200   2.636   5.316
 1286SOL     OW 4756   5.875   4.701   1.953
 1286SOL    HW1 4757   5.853   4.604   1.949
 1286SOL    HW2 4758   5.909   4.724   2.045
 1287SOL     OW 4759   0.101   5.795   6.429
 1287SOL    HW1 4760   0.053   5.883   6.422
 1287SOL    HW2 4761   0.038   5.726   6.463
 1288SOL     OW 4762   6.348   3.348   1.111
 1288SOL    HW1 4763   6.427   3.294   1.140
 1288SOL    HW2 4764   6.273   3.287   1.085
 1289SOL     OW 4765   0.937   5.919   2.729
 1289SOL    HW1 4766   0.988   5.837   2.703
 1289SOL    HW2 4767   0.840   5.905   2.709
 1290SOL     OW 4768   0.826   5.811   0.847
 1290SOL    HW1 4769   0.730   5.787   0.864
 1290SOL    HW2 4770   0.831   5.894   0.792
 1291SOL     OW 4771   1.840   6.098   0.054
 1291SOL    HW1 4772   1.915   6.091   7.007
 1291SOL    HW2 4773   1.754   6.111   0.005
 1292SOL     OW 4774   0.848   5.804   0.416
 1292SOL    HW1 4775   0.903   5.722   0.431
 1292SOL    HW2 4776   0.905   5.885   0.432
 1293SOL     OW 4777   0.655   2.349   6.212
 1293SOL    HW1 4778   0.619   2.323   6.302
 1293SOL    HW2 4779   0.732   2.290   6.189
 1294SOL     OW 4780   0.504   2.476   2.435
 1294SOL    HW1 4781   0.514   2.543   2.362
 1294SOL    HW2 4782   0.543   2.388   2.406
 1295SOL     OW 4783   5.890   2.533   1.491
 1295SOL    HW1 4784   5.939   2.618   1.514
 1295SOL    HW2 4785   5.794   2.555   1.472
 1296SOL     OW 4786   3.361   1.869   6.402
 1296SOL    HW1 4787   3.457   1.893   6.418
 1296SOL    HW2 4788   3.306   1.898   6.480
 1297SOL     OW 4789   6.638   1.482   5.928
 1297SOL    HW1 4790   6.588   1.537   5.994
 1297SOL    HW2 4791   6.624   1.385   5.948
 1298SOL     OW 4792   6.037   2.587   3.342
 1298SOL    HW1 4793   6.074   2.642   3.417
 1298SOL    HW2 4794   5.973   2.642   3.289
 1299SOL     OW 4795   1.389   3.856   3.958
 1299SOL    HW1 4796   1.396   3.956   3.963
 1299SOL    HW2 4797   1.306   3.831   3.908
 1300SOL     OW 4798   3.591   2.976   1.679
 1300SOL    HW1 4799   3.544   2.902   1.727
 1300SOL    HW2 4800   3.628   2.941   1.592
 1301SOL     OW 4801   1.236   6.771   3.964
 1301SOL    HW1 4802   1.293   6.853   3.963
 1301SOL    HW2 4803   1.140   6.797   3.965
 1302SOL     OW 4804   3.119   6.239   4.840
 1302SOL    HW1 4805   3.217   6.260   4.845
 1302SOL    HW2 4806   3.106   6.151   4.795
 1303SOL     OW 4807   3.558   1.650   1.067
 1303SOL    HW1 4808   3.464   1.634   1.097
 1303SOL    HW2 4809   3.562   1.645   0.967
 1304SOL     OW 4810   2.857   0.711   6.749
 1304SOL    HW1 4811   2.953   0.722   6.774
 1304SOL    HW2 4812   2.843   0.620   6.711
 1305SOL     OW 4813   4.847   0.212   5.003
 1305SOL    HW1 4814   4.904   0.132   5.021
 1305SOL    HW2 4815   4.887   0.292   5.047
 1306SOL     OW 4816   0.733   4.461   4.334
 1306SOL    HW1 4817   0.696   4.415   4.415
 1306SOL    HW2 4818   0.821   4.419   4.310
 1307SOL     OW 4819   1.408   2.046   4.294
 1307SOL    HW1 4820   1.424   2.040   4.392
 1307SOL    HW2 4821   1.382   2.139   4.270
 1308SOL     OW 4822   4.567   6.096   3.700
 1308SOL    HW1 4823   4.626   6.023   3.666
 1308SOL    HW2 4824   4.498   6.118   3.631
 1309SOL     OW 4825   6.441   2.808   4.597
 1309SOL    HW1 4826   6.409   2.714   4.608
 1309SOL    HW2 4827   6.411   2.863   4.675
 1310SOL     OW 4828   5.792   3.920   4.615
 1310SOL    HW1 4829   5.874   3.968   4.583
 1310SOL    HW2 4830   5.716   3.936   4.552
 1311SOL     OW 4831   6.279   5.653   5.227
 1311SOL    HW1 4832   6.340   5.728   5.200
 1311SOL    HW2 4833   6.186   5.688   5.237
 1312SOL     OW 4834   0.695   6.744   0.547
 1312SOL    HW1 4835   0.750   6.751   0.630
 1312SOL    HW2 4836   0.755   6.722   0.470
 1313SOL     OW 4837   3.284   5.252   4.802
 1313SOL    HW1 4838   3.227   5.301   4.736
 1313SOL    HW2 4839   3.229   5.232   4.884
 1314SOL     OW 4840   0.918   1.354   5.313
 1314SOL    HW1 4841   0.823   1.333   5.337
 1314SOL    HW2 4842   0.960   1.274   5.270
 1315SOL     OW 4843   2.333   1.359   2.273
 1315SOL    HW1 4844   2.301   1.454   2.267
 1315SOL    HW2 4845   2.399   1.342   2.200
 1316SOL     OW 4846   3.052   6.718   3.809
 1316SOL    HW1 4847   2.992   6.773   3.750
 1316SOL    HW2 4848   3.142   6.761   3.816
 1317SOL     OW 4849   6.818   5.451   4.154
 1317SOL    HW1 4850   6.883   5.512   4.109
 1317SOL    HW2 4851   6.859   5.361   4.166
 1318SOL     OW 4852   0.363   6.679   0.517
 1318SOL    HW1 4853   0.403   6.596   0.478
 1318SOL    HW2 4854   0.333   6.739   0.443
 1319SOL     OW 4855   6.318   1.184   7.013
 1319SOL    HW1 4856   6.269   1.237   6.944
 1319SOL    HW2 4857   6.349   1.245   0.067
 1320SOL     OW 4858   5.362   5.346   5.865
 1320SOL    HW1 4859   5.433   5.357   5.934
 1320SOL    HW2 4860   5.404   5.335   5.775
 1321SOL     OW 4861   3.465   2.402   7.008
 1321SOL    HW1 4862   3.516   2.319   0.011
 1321SOL    HW2 4863   3.503   2.479   0.040
 1322SOL     OW 4864   6.659   1.449   4.013
 1322SOL    HW1 4865   6.653   1.353   4.041
 1322SOL    HW2 4866   6.670   1.454   3.913
 1323SOL     OW 4867   0.063   1.818   4.796
 1323SOL    HW1 4868   7.013   1.834   4.725
 1323SOL    HW2 4869   0.065   1.897   4.858
 1324SOL     OW 4870   1.602   3.519   1.588
 1324SOL    HW1 4871   1.678   3.458   1.565
 1324SOL    HW2 4872   1.575   3.571   1.507
 1325SOL     OW 4873   2.906   5.987   2.665
 1325SOL    HW1 4874   2.866   5.904   2.704
 1325SOL    HW2 4875   2.999   5.967   2.632
 1326SOL     OW 4876   5.627   3.355   4.385
 1326SOL    HW1 4877   5.593   3.392   4.472
 1326SOL    HW2 4878   5.646   3.257   4.397
 1327SOL     OW 4879   4.072   5.329   3.262
 1327SOL    HW1 4880   4.042   5.289   3.349
 1327SOL    HW2 4881   4.022   5.414   3.246
 1328SOL     OW 4882   2.196   2.360   6.533
 1328SOL    HW1 4883   2.194   2.379   6.631
 1328SOL    HW2 4884   2.251   2.429   6.487
 1329SOL     OW 4885   0.624   1.302   0.409
 1329SOL    HW1 4886   0.634   1.341   0.500
 1329SOL    HW2 4887   0.576   1.367   0.350
 1330SOL     OW 4888   6.758   6.782   1.209
 1330SOL    HW1 4889   6.810   6.846   1.152
 1330SOL    HW2 4890   6.716   6.713   1.150
 1331SOL     OW 4891   5.001   0.426   2.228
 1331SOL    HW1 4892   4.914   0.386   2.201
 1331SOL    HW2 4893   4.985   0.516   2.268
 1332SOL     OW 4894   4.435   1.253   1.233
 1332SOL    HW1 4895   4.487   1.316   1.175
 1332SOL    HW2 4896   4.470   1.160   1.218
 1333SOL     OW 4897   3.729   4.010   4.801
 1333SOL    HW1 4898   3.700   4.098   4.765
 1333SOL    HW2 4899   3.797   4.023   4.873
 1334SOL     OW 4900   0.023   4.016   4.518
 1334SOL    HW1 4901   0.083   4.036   4.596
 1334SOL    HW2 4902   0.072   3.959   4.452
 1335SOL     OW 4903   2.539   4.843   3.260
 1335SOL    HW1 4904   2.547   4.814   3.356
 1335SOL    HW2 4905   2.596   4.923   3.245
 1336SOL     OW 4906   0.534   0.762   5.204
 1336SOL    HW1 4907   0.487   0.675   5.189
 1336SOL    HW2 4908   0.501   0.804   5.288
 1337SOL     OW 4909   1.923   2.013   6.071
 1337SOL    HW1 4910   1.885   2.099   6.037
 1337SOL    HW2 4911   2.015   2.028   6.106
 1338SOL     OW 4912   4.319   5.472   0.077
 1338SOL    HW1 4913   4.229   5.444   0.109
 1338SOL    HW2 4914   4.367   5.521   0.149
 1339SOL     OW 4915   6.371   4.122   5.346
 1339SOL    HW1 4916   6.336   4.036   5.309
 1339SOL    HW2 4917   6.466   4.135   5.315
 1340SOL     OW 4918   1.476   2.217   0.587
 1340SOL    HW1 4919   1.516   2.133   0.624
 1340SOL    HW2 4920   1.461   2.206   0.489
 1341SOL     OW 4921   3.623   1.364   3.781
 1341SOL    HW1 4922   3.671   1.373   3.694
 1341SOL    HW2 4923   3.525   1.378   3.767
 1342SOL     OW 4924   0.410   6.691   0.812
 1342SOL    HW1 4925   0.378   6.703   0.718
 1342SOL    HW2 4926   0.393   6.597   0.842
 1343SOL     OW 4927   3.789   5.521   3.547
 1343SOL    HW1 4928   3.692   5.535   3.527
 1343SOL    HW2 4929   3.811   5.561   3.636
 1344SOL     OW 4930   6.023   1.290   2.883
 1344SOL    HW1 4931   5.974   1.296   2.971
 1344SOL    HW2 4932   6.055   1.196   2.870
 1345SOL     OW 4933   0.406   0.353   2.749
 1345SOL    HW1 4934   0.498   0.390   2.730
 1345SOL    HW2 4935   0.353   0.421   2.799
 1346SOL     OW 4936   0.499   0.464   3.777
 1346SOL    HW1 4937   0.538   0.545   3.822
 1346SOL    HW2 4938   0.552   0.443   3.695
 1347SOL     OW 4939   6.073   0.052   3.668
 1347SOL    HW1 4940   6.031   6.981   3.654
 1347SOL    HW2 4941   6.002   0.122   3.674
 1348SOL     OW 4942   5.990   4.534   4.779
 1348SOL    HW1 4943   6.039   4.447   4.773
 1348SOL    HW2 4944   6.035   4.602   4.721
 1349SOL     OW 4945   3.917   3.134   6.655
 1349SOL    HW1 4946   3.912   3.037   6.680
 1349SOL    HW2 4947   4.007   3.171   6.681
 1350SOL     OW 4948   3.152   0.571   6.382
 1350SOL    HW1 4949   3.138   0.634   6.458
 1350SOL    HW2 4950   3.100   0.487   6.398
 1351SOL     OW 4951   0.470   1.063   3.784
 1351SOL    HW1 4952   0.549   1.004   3.769
 1351SOL    HW2 4953   0.464   1.086   3.881
 1352SOL     OW 4954   0.379   0.804   3.491
 1352SOL    HW1 4955   0.295   0.803   3.545
 1352SOL    HW2 4956   0.428   0.718   3.504
 1353SOL     OW 4957   0.857   4.047   3.842
 1353SOL    HW1 4958   0.849   4.072   3.938
 1353SOL    HW2 4959   0.780   3.989   3.815
 1354SOL     OW 4960   0.322   6.408   2.724
 1354SOL    HW1 4961   0.384   6.481   2.695
 1354SOL    HW2 4962   0.237   6.449   2.759
 1355SOL     OW 4963   4.657   2.775   0.120
 1355SOL    HW1 4964   4.589   2.761   0.192
 1355SOL    HW2 4965   4.693   2.868   0.125
 1356SOL     OW 4966   3.446   3.500   2.518
 1356SOL    HW1 4967   3.539   3.497   2.555
 1356SOL    HW2 4968   3.390   3.563   2.572
 1357SOL     OW 4969   2.790   2.951   5.551
 1357SOL    HW1 4970   2.744   2.890   5.485
 1357SOL    HW2 4971   2.883   2.918   5.568
 1358SOL     OW 4972   1.968   2.338   6.244
 1358SOL    HW1 4973   2.009   2.386   6.167
 1358SOL    HW2 4974   2.037   2.280   6.288
 1359SOL     OW 4975   5.925   2.207   0.225
 1359SOL    HW1 4976   5.958   2.121   0.185
 1359SOL    HW2 4977   5.978   2.283   0.188
 1360SOL     OW 4978   3.617   3.911   4.037
 1360SOL    HW1 4979   3.697   3.872   4.083
 1360SOL    HW2 4980   3.632   4.009   4.023
 1361SOL     OW 4981   1.133   6.218   0.113
 1361SOL    HW1 4982   1.202   6.203   0.184
 1361SOL    HW2 4983   1.179   6.242   0.028
 1362SOL     OW 4984   2.927   3.015   6.032
 1362SOL    HW1 4985   2.915   2.997   6.130
 1362SOL    HW2 4986   2.990   2.949   5.992
 1363SOL     OW 4987   6.366   6.603   2.531
 1363SOL    HW1 4988   6.452   6.603   2.480
 1363SOL    HW2 4989   6.342   6.509   2.556
 1364SOL     OW 4990   6.776   3.539   0.900
 1364SOL    HW1 4991   6.732   3.520   0.987
 1364SOL    HW2 4992   6.708   3.538   0.827
 1365SOL     OW 4993   0.371   3.859   6.625
 1365SOL    HW1 4994   0.435   3.925   6.586
 1365SOL    HW2 4995   0.345   3.887   6.717
 1366SOL     OW 4996   6.460   1.593   0.575
 1366SOL    HW1 4997   6.529   1.635   0.516
 1366SOL    HW2 4998   6.369   1.617   0.541
 1367SOL     OW 4999   0.518   5.810   4.389
 1367SOL    HW1 5000   0.499   5.882   4.455
 1367SOL    HW2 5001   0.579   5.844   4.318
 1368SOL     OW 5002   0.268   6.868   5.063
 1368SOL    HW1 5003   0.333   6.917   5.122
 1368SOL    HW2 5004   0.311   6.786   5.027
 1369SOL     OW 5005   2.753   6.563   3.023
 1369SOL    HW1 5006   2.707   6.490   3.074
 1369SOL    HW2 5007   2.771   6.531   2.929
 1370SOL     OW 5008   6.534   2.633   3.266
 1370SOL    HW1 5009   6.593   2.712   3.252
 1370SOL    HW2 5010   6.454   2.640   3.207
 1371SOL     OW 5011   5.830   1.884   5.325
 1371SOL    HW1 5012   5.799   1.797   5.288
 1371SOL    HW2 5013   5.846   1.948   5.250
 1372SOL     OW 5014   6.416   2.847   0.047
 1372SOL    HW1 5015   6.319   2.865   0.063
 1372SOL    HW2 5016   6.431   2.749   0.036
 1373SOL     OW 5017   4.570   2.527   2.130
 1373SOL    HW1 5018   4.522   2.524   2.218
 1373SOL    HW2 5019   4.613   2.616   2.119
 1374SOL     OW 5020   4.541   5.009   0.514
 1374SOL    HW1 5021   4.498   5.016   0.604
 1374SOL    HW2 5022   4.633   4.973   0.523
 1375SOL     OW 5023   6.211   5.625   4.741
 1375SOL    HW1 5024   6.125   5.675   4.744
 1375SOL    HW2 5025   6.217   5.572   4.656
 1376SOL     OW 5026   2.133   5.215   6.157
 1376SOL    HW1 5027   2.193   5.176   6.227
 1376SOL    HW2 5028   2.050   5.161   6.150
 1377SOL     OW 5029   1.344   1.276   2.637
 1377SOL    HW1 5030   1.385   1.193   2.675
 1377SOL    HW2 5031   1.246   1.263   2.626
 1378SOL     OW 5032   4.931   2.633   4.348
 1378SOL    HW1 5033   4.995   2.671   4.414
 1378SOL    HW2 5034   4.982   2.590   4.273
 1379SOL     OW 5035   4.974   5.198   1.355
 1379SOL    HW1 5036   4.978   5.195   1.255
 1379SOL    HW2 5037   5.020   5.280   1.389
 1380SOL     OW 5038   0.474   5.524   1.462
 1380SOL    HW1 5039   0.420   5.451   1.422
 1380SOL    HW2 5040   0.553   5.544   1.403
 1381SOL     OW 5041   5.870   2.470   5.894
 1381SOL    HW1 5042   5.833   2.494   5.984
 1381SOL    HW2 5043   5.934   2.541   5.864
 1382SOL     OW 5044   4.507   2.873   0.328
 1382SOL    HW1 5045   4.586   2.911   0.376
 1382SOL    HW2 5046   4.492   2.924   0.243
 1383SOL     OW 5047   0.296   0.850   1.974
 1383SOL    HW1 5048   0.317   0.918   1.904
 1383SOL    HW2 5049   0.334   0.879   2.062
 1384SOL     OW 5050   5.103   0.993   1.601
 1384SOL    HW1 5051   5.174   0.933   1.638
 1384SOL    HW2 5052   5.119   1.008   1.503
 1385SOL     OW 5053   1.585   5.465   2.125
 1385SOL    HW1 5054   1.651   5.538   2.146
 1385SOL    HW2 5055   1.508   5.471   2.188
 1386SOL     OW 5056   2.983   5.699   4.289
 1386SOL    HW1 5057   2.937   5.742   4.211
 1386SOL    HW2 5058   3.034   5.619   4.257
 1387SOL     OW 5059   3.644   6.017   2.099
 1387SOL    HW1 5060   3.561   6.073   2.105
 1387SOL    HW2 5061   3.619   5.924   2.071
 1388SOL     OW 5062   6.690   0.265   1.093
 1388SOL    HW1 5063   6.664   0.184   1.041
 1388SOL    HW2 5064   6.644   0.264   1.182
 1389SOL     OW 5065   6.378   0.966   3.151
 1389SOL    HW1 5066   6.464   0.963   3.100
 1389SOL    HW2 5067   6.319   0.890   3.121
 1390SOL     OW 5068   6.681   1.888   5.699
 1390SOL    HW1 5069   6.698   1.934   5.786
 1390SOL    HW2 5070   6.652   1.794   5.717
 1391SOL     OW 5071   6.937   1.725   2.884
 1391SOL    HW1 5072   0.013   1.742   2.911
 1391SOL    HW2 5073   6.924   1.749   2.788
 1392SOL     OW 5074   4.681   5.040   5.450
 1392SOL    HW1 5075   4.732   5.028   5.535
 1392SOL    HW2 5076   4.684   5.136   5.423
 1393SOL     OW 5077   4.246   0.143   5.313
 1393SOL    HW1 5078   4.213   0.054   5.282
 1393SOL    HW2 5079   4.209   0.162   5.404
 1394SOL     OW 5080   2.806   5.829   5.619
 1394SOL    HW1 5081   2.718   5.826   5.572
 1394SOL    HW2 5082   2.864   5.898   5.577
 1395SOL     OW 5083   3.732   4.620   5.911
 1395SOL    HW1 5084   3.780   4.577   5.834
 1395SOL    HW2 5085   3.663   4.557   5.946
 1396SOL     OW 5086   6.431   6.178   4.373
 1396SOL    HW1 5087   6.366   6.244   4.334
 1396SOL    HW2 5088   6.382   6.094   4.398
 1397SOL     OW 5089   5.031   6.708   4.378
 1397SOL    HW1 5090   5.000   6.632   4.320
 1397SOL    HW2 5091   4.972   6.788   4.363
 1398SOL     OW 5092   1.288   1.558   5.280
 1398SOL    HW1 5093   1.190   1.551   5.298
 1398SOL    HW2 5094   1.320   1.648   5.309
 1399SOL     OW 5095   3.256   5.666   1.370
 1399SOL    HW1 5096   3.304   5.733   1.314
 1399SOL    HW2 5097   3.157   5.679   1.362
 1400SOL     OW 5098   6.476   0.573   2.053
 1400SOL    HW1 5099   6.436   0.634   1.984
 1400SOL    HW2 5100   6.573   0.559   2.033
 1401SOL     OW 5101   0.312   1.779   5.377
 1401SOL    HW1 5102   0.376   1.840   5.332
 1401SOL    HW2 5103   0.231   1.767   5.320
 1402SOL     OW 5104   0.194   3.055   0.130
 1402SOL    HW1 5105   0.249   3.068   0.048
 1402SOL    HW2 5106   0.128   2.982   0.114
 1403SOL     OW 5107   3.008   6.500   2.311
 1403SOL    HW1 5108   3.061   6.425   2.273
 1403SOL    HW2 5109   2.912   6.473   2.318
 1404SOL     OW 5110   5.696   0.563   0.177
 1404SOL    HW1 5111   5.663   0.573   0.083
 1404SOL    HW2 5112   5.732   0.471   0.190
 1405SOL     OW 5113   2.058   4.091   0.790
 1405SOL    HW1 5114   1.967   4.118   0.758
 1405SOL    HW2 5115   2.119   4.079   0.712
 1406SOL     OW 5116   0.700   4.020   1.702
 1406SOL    HW1 5117   0.680   4.118   1.696
 1406SOL    HW2 5118   0.738   3.999   1.792
 1407SOL     OW 5119   6.537   1.554   2.377
 1407SOL    HW1 5120   6.537   1.461   2.412
 1407SOL    HW2 5121   6.443   1.589   2.377
 1408SOL     OW 5122   5.390   0.871   6.237
 1408SOL    HW1 5123   5.321   0.834   6.298
 1408SOL    HW2 5124   5.477   0.881   6.286
 1409SOL     OW 5125   0.258   0.865   4.508
 1409SOL    HW1 5126   0.353   0.832   4.503
 1409SOL    HW2 5127   0.207   0.834   4.428
 1410SOL     OW 5128   0.590   2.973   0.120
 1410SOL    HW1 5129   0.571   2.946   0.214
 1410SOL    HW2 5130   0.504   2.992   0.073
 1411SOL     OW 5131   1.977   6.476   2.868
 1411SOL    HW1 5132   1.942   6.560   2.909
 1411SOL    HW2 5133   2.071   6.490   2.838
 1412SOL     OW 5134   1.778   2.917   0.347
 1412SOL    HW1 5135   1.690   2.963   0.338
 1412SOL    HW2 5136   1.800   2.905   0.444
 1413SOL     OW 5137   2.514   0.510   4.332
 1413SOL    HW1 5138   2.555   0.488   4.420
 1413SOL    HW2 5139   2.586   0.528   4.265
 1414SOL     OW 5140   2.480   1.847   2.046
 1414SOL    HW1 5141   2.538   1.831   1.965
 1414SOL    HW2 5142   2.517   1.923   2.099
 1415SOL     OW 5143   3.631   6.296   5.088
 1415SOL    HW1 5144   3.537   6.265   5.103
 1415SOL    HW2 5145   3.629   6.387   5.046
 1416SOL     OW 5146   4.350   4.811   2.572
 1416SOL    HW1 5147   4.354   4.766   2.483
 1416SOL    HW2 5148   4.256   4.812   2.605
 1417SOL     OW 5149   2.726   2.756   6.641
 1417SOL    HW1 5150   2.674   2.748   6.726
 1417SOL    HW2 5151   2.735   2.665   6.599
 1418SOL     OW 5152   3.265   4.070   2.733
 1418SOL    HW1 5153   3.358   4.062   2.698
 1418SOL    HW2 5154   3.201   4.076   2.657
 1419SOL     OW 5155   3.280   6.583   4.741
 1419SOL    HW1 5156   3.325   6.671   4.729
 1419SOL    HW2 5157   3.240   6.554   4.653
 1420SOL     OW 5158   0.979   6.402   2.736
 1420SOL    HW1 5159   1.027   6.457   2.669
 1420SOL    HW2 5160   1.041   6.333   2.774
 1421SOL     OW 5161   2.220   2.416   2.740
 1421SOL    HW1 5162   2.318   2.395   2.743
 1421SOL    HW2 5163   2.200   2.469   2.657
 1422SOL     OW 5164   1.877   4.773   1.794
 1422SOL    HW1 5165   1.809   4.735   1.731
 1422SOL    HW2 5166   1.861   4.736   1.886
 1423SOL     OW 5167   5.198   6.478   2.655
 1423SOL    HW1 5168   5.233   6.402   2.600
 1423SOL    HW2 5169   5.111   6.509   2.617
 1424SOL     OW 5170   5.600   5.080   5.084
 1424SOL    HW1 5171   5.674   5.030   5.130
 1424SOL    HW2 5172   5.572   5.030   5.002
 1425SOL     OW 5173   2.039   6.676   4.005
 1425SOL    HW1 5174   1.957   6.699   3.954
 1425SOL    HW2 5175   2.033   6.582   4.038
 1426SOL     OW 5176   1.266   1.485   5.695
 1426SOL    HW1 5177   1.342   1.449   5.642
 1426SOL    HW2 5178   1.230   1.567   5.650
 1427SOL     OW 5179   6.337   0.170   3.804
 1427SOL    HW1 5180   6.252   0.124   3.778
 1427SOL    HW2 5181   6.377   0.216   3.724
 1428SOL     OW 5182   5.852   2.459   0.334
 1428SOL    HW1 5183   5.828   2.362   0.337
 1428SOL    HW2 5184   5.826   2.497   0.245
 1429SOL     OW 5185   6.498   0.335   0.651
 1429SOL    HW1 5186   6.573   0.279   0.616
 1429SOL    HW2 5187   6.411   0.293   0.626
 1430SOL     OW 5188   1.591   4.015   3.732
 1430SOL    HW1 5189   1.669   3.962   3.698
 1430SOL    HW2 5190   1.507   3.963   3.719
 1431SOL     OW 5191   2.544   1.308   2.089
 1431SOL    HW1 5192   2.606   1.379   2.056
 1431SOL    HW2 5193   2.577   1.273   2.177
 1432SOL     OW 5194   2.410   1.245   3.155
 1432SOL    HW1 5195   2.456   1.330   3.126
 1432SOL    HW2 5196   2.338   1.223   3.089
 1433SOL     OW 5197   4.386   0.467   3.989
 1433SOL    HW1 5198   4.294   0.506   3.982
 1433SOL    HW2 5199   4.417   0.469   4.084
 1434SOL     OW 5200   0.321   0.964   5.868
 1434SOL    HW1 5201   0.297   1.042   5.927
 1434SOL    HW2 5202   0.406   0.984   5.819
 1435SOL     OW 5203   5.698   1.463   3.128
 1435SOL    HW1 5204   5.728   1.536   3.189
 1435SOL    HW2 5205   5.686   1.500   3.036
 1436SOL     OW 5206   3.910   3.984   6.762
 1436SOL    HW1 5207   3.880   3.921   6.690
 1436SOL    HW2 5208   3.992   4.033   6.732
 1437SOL     OW 5209   2.909   1.466   3.266
 1437SOL    HW1 5210   2.908   1.375   3.224
 1437SOL    HW2 5211   2.943   1.533   3.200
 1438SOL     OW 5212   3.121   6.646   1.784
 1438SOL    HW1 5213   3.164   6.696   1.709
 1438SOL    HW2 5214   3.044   6.593   1.750
 1439SOL     OW 5215   0.804   5.960   2.374
 1439SOL    HW1 5216   0.737   6.031   2.353
 1439SOL    HW2 5217   0.788   5.925   2.466
 1440SOL     OW 5218   2.778   4.224   1.082
 1440SOL    HW1 5219   2.722   4.206   1.001
 1440SOL    HW2 5220   2.861   4.169   1.078
 1441SOL     OW 5221   5.996   6.504   1.580
 1441SOL    HW1 5222   5.964   6.523   1.487
 1441SOL    HW2 5223   5.937   6.551   1.646
 1442SOL     OW 5224   5.781   6.070   0.249
 1442SOL    HW1 5225   5.739   6.157   0.273
 1442SOL    HW2 5226   5.710   6.009   0.211
 1443SOL     OW 5227   0.750   2.438   2.578
 1443SOL    HW1 5228   0.650   2.438   2.586
 1443SOL    HW2 5229   0.791   2.453   2.668
 1444SOL     OW 5230   5.832   6.586   0.410
 1444SOL    HW1 5231   5.781   6.518   0.358
 1444SOL    HW2 5232   5.793   6.677   0.393
 1445SOL     OW 5233   0.476   3.296   2.530
 1445SOL    HW1 5234   0.393   3.294   2.474
 1445SOL    HW2 5235   0.555   3.277   2.473
 1446SOL     OW 5236   5.968   6.800   6.550
 1446SOL    HW1 5237   6.049   6.831   6.499
 1446SOL    HW2 5238   5.989   6.799   6.648
 1447SOL     OW 5239   5.885   5.154   3.692
 1447SOL    HW1 5240   5.962   5.103   3.655
 1447SOL    HW2 5241   5.916   5.243   3.726
 1448SOL     OW 5242   0.635   2.809   5.168
 1448SOL    HW1 5243   0.555   2.842   5.118
 1448SOL    HW2 5244   0.685   2.887   5.206
 1449SOL     OW 5245   1.486   3.919   4.987
 1449SOL    HW1 5246   1.513   3.994   5.047
 1449SOL    HW2 5247   1.543   3.920   4.905
 1450SOL     OW 5248   1.708   2.081   5.261
 1450SOL    HW1 5249   1.802   2.050   5.271
 1450SOL    HW2 5250   1.662   2.025   5.192
 1451SOL     OW 5251   2.339   6.439   1.347
 1451SOL    HW1 5252   2.426   6.389   1.342
 1451SOL    HW2 5253   2.330   6.498   1.266
 1452SOL     OW 5254   4.351   3.248   6.451
 1452SOL    HW1 5255   4.357   3.342   6.418
 1452SOL    HW2 5256   4.280   3.242   6.522
 1453SOL     OW 5257   0.378   4.406   5.521
 1453SOL    HW1 5258   0.356   4.502   5.541
 1453SOL    HW2 5259   0.339   4.348   5.593
 1454SOL     OW 5260   3.012   2.216   3.577
 1454SOL    HW1 5261   2.992   2.226   3.675
 1454SOL    HW2 5262   3.110   2.201   3.564
 1455SOL     OW 5263   1.454   6.504   2.907
 1455SOL    HW1 5264   1.406   6.459   2.983
 1455SOL    HW2 5265   1.508   6.436   2.857
 1456SOL     OW 5266   6.365   5.683   6.188
 1456SOL    HW1 5267   6.398   5.664   6.096
 1456SOL    HW2 5268   6.439   5.669   6.254
 1457SOL     OW 5269   0.571   3.980   6.981
 1457SOL    HW1 5270   0.614   4.065   7.010
 1457SOL    HW2 5271   0.471   3.990   6.982
 1458SOL     OW 5272   5.688   5.225   5.792
 1458SOL    HW1 5273   5.683   5.235   5.891
 1458SOL    HW2 5274   5.783   5.238   5.761
 1459SOL     OW 5275   5.030   6.292   5.431
 1459SOL    HW1 5276   5.070   6.352   5.500
 1459SOL    HW2 5277   4.945   6.332   5.397
 1460SOL     OW 5278   2.092   6.282   5.522
 1460SOL    HW1 5279   2.082   6.296   5.423
 1460SOL    HW2 5280   2.013   6.320   5.569
 1461SOL     OW 5281   6.907   2.928   2.338
 1461SOL    HW1 5282   6.884   2.879   2.253
 1461SOL    HW2 5283   6.962   2.869   2.396
 1462SOL     OW 5284   0.857   0.127   0.388
 1462SOL    HW1 5285   0.799   0.064   0.337
 1462SOL    HW2 5286   0.810   0.153   0.473
 1463SOL     OW 5287   1.802   6.448   6.990
 1463SOL    HW1 5288   1.889   6.496   7.000
 1463SOL    HW2 5289   1.820   6.352   6.966
 1464SOL     OW 5290   6.373   4.400   4.614
 1464SOL    HW1 5291   6.354   4.485   4.565
 1464SOL    HW2 5292   6.403   4.330   4.550
 1465SOL     OW 5293   1.550   1.669   3.324
 1465SOL    HW1 5294   1.556   1.648   3.227
 1465SOL    HW2 5295   1.576   1.588   3.377
 1466SOL     OW 5296   3.718   2.697   1.577
 1466SOL    HW1 5297   3.634   2.648   1.600
 1466SOL    HW2 5298   3.759   2.734   1.661
 1467SOL     OW 5299   1.099   1.117   3.699
 1467SOL    HW1 5300   1.111   1.056   3.778
 1467SOL    HW2 5301   1.018   1.091   3.648
 1468SOL     OW 5302   2.913   5.776   1.441
 1468SOL    HW1 5303   2.857   5.767   1.359
 1468SOL    HW2 5304   2.855   5.787   1.521
 1469SOL     OW 5305   6.009   6.047   3.698
 1469SOL    HW1 5306   5.970   5.990   3.770
 1469SOL    HW2 5307   6.033   5.990   3.619
 1470SOL     OW 5308   6.512   2.844   1.139
 1470SOL    HW1 5309   6.611   2.834   1.152
 1470SOL    HW2 5310   6.466   2.760   1.166
 1471SOL     OW 5311   6.176   6.723   1.507
 1471SOL    HW1 5312   6.238   6.749   1.581
 1471SOL    HW2 5313   6.140   6.632   1.526
 1472SOL     OW 5314   2.717   0.141   6.093
 1472SOL    HW1 5315   2.806   0.178   6.066
 1472SOL    HW2 5316   2.672   0.101   6.013
 1473SOL     OW 5317   3.376   4.885   4.310
 1473SOL    HW1 5318   3.369   4.840   4.221
 1473SOL    HW2 5319   3.284   4.898   4.348
 1474SOL     OW 5320   4.162   4.372   1.566
 1474SOL    HW1 5321   4.224   4.403   1.639
 1474SOL    HW2 5322   4.162   4.439   1.492
 1475SOL     OW 5323   5.226   0.797   0.241
 1475SOL    HW1 5324   5.260   0.742   0.317
 1475SOL    HW2 5325   5.160   0.865   0.275
 1476SOL     OW 5326   3.372   1.192   1.515
 1476SOL    HW1 5327   3.304   1.118   1.509
 1476SOL    HW2 5328   3.455   1.165   1.466
 1477SOL     OW 5329   4.499   5.844   1.009
 1477SOL    HW1 5330   4.491   5.915   0.939
 1477SOL    HW2 5331   4.446   5.871   1.090
 1478SOL     OW 5332   5.156   5.726   5.201
 1478SOL    HW1 5333   5.236   5.785   5.188
 1478SOL    HW2 5334   5.103   5.758   5.280
 1479SOL     OW 5335   3.564   4.024   1.232
 1479SOL    HW1 5336   3.555   4.110   1.283
 1479SOL    HW2 5337   3.661   4.000   1.225
 1480SOL     OW 5338   3.075   0.794   4.986
 1480SOL    HW1 5339   3.056   0.882   4.942
 1480SOL    HW2 5340   3.013   0.725   4.949
 1481SOL     OW 5341   4.988   2.736   4.981
 1481SOL    HW1 5342   5.053   2.793   5.031
 1481SOL    HW2 5343   4.944   2.790   4.909
 1482SOL     OW 5344   4.420   6.981   0.679
 1482SOL    HW1 5345   4.365   6.945   0.754
 1482SOL    HW2 5346   4.372   0.038   0.635
 1483SOL     OW 5347   4.612   0.963   6.102
 1483SOL    HW1 5348   4.542   1.011   6.049
 1483SOL    HW2 5349   4.684   1.027   6.129
 1484SOL     OW 5350   2.792   5.317   4.356
 1484SOL    HW1 5351   2.812   5.249   4.426
 1484SOL    HW2 5352   2.842   5.402   4.376
 1485SOL     OW 5353   4.946   1.919   2.474
 1485SOL    HW1 5354   5.041   1.904   2.444
 1485SOL    HW2 5355   4.910   1.834   2.512
 1486SOL     OW 5356   4.785   7.001   3.080
 1486SOL    HW1 5357   4.800   6.971   2.986
 1486SOL    HW2 5358   4.858   0.044   3.108
 1487SOL     OW 5359   7.005   0.602   0.924
 1487SOL    HW1 5360   7.002   0.506   0.953
 1487SOL    HW2 5361   0.079   0.638   0.935
 1488SOL     OW 5362   6.447   0.798   2.899
 1488SOL    HW1 5363   6.505   0.717   2.909
 1488SOL    HW2 5364   6.360   0.772   2.858
 1489SOL     OW 5365   4.001   5.041   6.436
 1489SOL    HW1 5366   4.071   5.111   6.423
 1489SOL    HW2 5367   3.993   4.985   6.354
 1490SOL     OW 5368   0.346   2.549   2.032
 1490SOL    HW1 5369   0.342   2.530   2.130
 1490SOL    HW2 5370   0.284   2.624   2.010
 1491SOL     OW 5371   6.902   3.322   1.484
 1491SOL    HW1 5372   6.820   3.366   1.519
 1491SOL    HW2 5373   6.909   3.338   1.385
 1492SOL     OW 5374   5.716   1.043   2.983
 1492SOL    HW1 5375   5.653   1.111   2.945
 1492SOL    HW2 5376   5.771   1.003   2.910
 1493SOL     OW 5377   4.514   2.053   5.920
 1493SOL    HW1 5378   4.418   2.078   5.933
 1493SOL    HW2 5379   4.519   1.961   5.880
 1494SOL     OW 5380   5.684   3.004   6.152
 1494SOL    HW1 5381   5.692   3.062   6.071
 1494SOL    HW2 5382   5.630   2.922   6.130
 1495SOL     OW 5383   6.018   3.760   4.121
 1495SOL    HW1 5384   6.012   3.853   4.157
 1495SOL    HW2 5385   6.081   3.757   4.044
 1496SOL     OW 5386   6.668   6.249   0.108
 1496SOL    HW1 5387   6.725   6.182   0.156
 1496SOL    HW2 5388   6.692   6.341   0.138
 1497SOL     OW 5389   5.542   2.714   2.515
 1497SOL    HW1 5390   5.501   2.721   2.605
 1497SOL    HW2 5391   5.517   2.794   2.460
 1498SOL     OW 5392   3.313   4.847   0.792
 1498SOL    HW1 5393   3.218   4.820   0.807
 1498SOL    HW2 5394   3.327   4.867   0.695
 1499SOL     OW 5395   6.902   3.745   5.912
 1499SOL    HW1 5396   6.962   3.804   5.859
 1499SOL    HW2 5397   6.957   3.683   5.968
 1500SOL     OW 5398   0.387   5.967   0.744
 1500SOL    HW1 5399   0.429   6.054   0.767
 1500SOL    HW2 5400   0.423   5.934   0.657
 1501SOL     OW 5401   5.363   1.170   6.191
 1501SOL    HW1 5402   5.400   1.086   6.153
 1501SOL    HW2 5403   5.391   1.248   6.135
 1502SOL     OW 5404   7.015   0.834   6.737
 1502SOL    HW1 5405   0.021   0.761   6.800
 1502SOL    HW2 5406   6.940   0.803   6.677
 1503SOL     OW 5407   0.351   4.162   1.925
 1503SOL    HW1 5408   0.329   4.180   2.021
 1503SOL    HW2 5409   0.431   4.215   1.898
 1504SOL     OW 5410   0.680   0.157   3.508
 1504SOL    HW1 5411   0.636   0.176   3.595
 1504SOL    HW2 5412   0.614   0.115   3.445
 1505SOL     OW 5413   5.988   6.345   5.068
 1505SOL    HW1 5414   5.959   6.440   5.052
 1505SOL    HW2 5415   6.036   6.311   4.987
 1506SOL     OW 5416   1.498   1.478   0.931
 1506SOL    HW1 5417   1.491   1.559   0.990
 1506SOL    HW2 5418   1.557   1.410   0.974
 1507SOL     OW 5419   1.017   2.159   4.403
 1507SOL    HW1 5420   0.995   2.076   4.454
 1507SOL    HW2 5421   1.085   2.139   4.333
 1508SOL     OW 5422   0.694   0.898   0.828
 1508SOL    HW1 5423   0.718   0.972   0.766
 1508SOL    HW2 5424   0.706   0.928   0.923
 1509SOL     OW 5425   5.128   1.342   4.883
 1509SOL    HW1 5426   5.114   1.370   4.789
 1509SOL    HW2 5427   5.160   1.247   4.885
 1510SOL     OW 5428   3.154   0.018   3.781
 1510SOL    HW1 5429   3.072   0.001   3.727
 1510SOL    HW2 5430   3.216   6.959   3.774
 1511SOL     OW 5431   4.047   3.745   3.965
 1511SOL    HW1 5432   4.141   3.727   3.935
 1511SOL    HW2 5433   3.999   3.796   3.894
 1512SOL     OW 5434   6.448   5.643   1.340
 1512SOL    HW1 5435   6.540   5.649   1.301
 1512SOL    HW2 5436   6.441   5.560   1.397
 1513SOL     OW 5437   3.250   6.958   5.894
 1513SOL    HW1 5438   3.273   6.868   5.858
 1513SOL    HW2 5439   3.226   6.950   5.991
 1514SOL     OW 5440   3.181   2.402   5.913
 1514SOL    HW1 5441   3.190   2.351   5.827
 1514SOL    HW2 5442   3.145   2.493   5.893
 1515SOL     OW 5443   6.189   2.030   2.289
 1515SOL    HW1 5444   6.281   2.056   2.318
 1515SOL    HW2 5445   6.159   2.089   2.214
 1516SOL     OW 5446   6.479   6.139   4.873
 1516SOL    HW1 5447   6.486   6.172   4.779
 1516SOL    HW2 5448   6.388   6.101   4.888
 1517SOL     OW 5449   3.671   6.021   3.519
 1517SOL    HW1 5450   3.706   6.089   3.455
 1517SOL    HW2 5451   3.579   5.993   3.491
 1518SOL     OW 5452   6.929   2.521   0.614
 1518SOL    HW1 5453   6.913   2.619   0.631
 1518SOL    HW2 5454   6.936   2.505   0.516
 1519SOL     OW 5455   0.184   3.888   0.649
 1519SOL    HW1 5456   0.119   3.959   0.677
 1519SOL    HW2 5457   0.241   3.863   0.726
 1520SOL     OW 5458   0.928   5.554   1.775
 1520SOL    HW1 5459   0.838   5.572   1.815
 1520SOL    HW2 5460   0.919   5.540   1.677
 1521SOL     OW 5461   2.157   4.863   6.188
 1521SOL    HW1 5462   2.251   4.837   6.163
 1521SOL    HW2 5463   2.101   4.868   6.105
 1522SOL     OW 5464   4.979   5.751   4.719
 1522SOL    HW1 5465   4.993   5.659   4.754
 1522SOL    HW2 5466   4.907   5.750   4.649
 1523SOL     OW 5467   3.614   6.305   0.185
 1523SOL    HW1 5468   3.543   6.257   0.134
 1523SOL    HW2 5469   3.660   6.370   0.124
 1524SOL     OW 5470   2.307   2.474   2.356
 1524SOL    HW1 5471   2.284   2.380   2.330
 1524SOL    HW2 5472   2.401   2.476   2.392
 1525SOL     OW 5473   5.783   2.411   0.926
 1525SOL    HW1 5474   5.827   2.484   0.874
 1525SOL    HW2 5475   5.748   2.342   0.862
 1526SOL     OW 5476   0.751   1.760   0.277
 1526SOL    HW1 5477   0.842   1.793   0.253
 1526SOL    HW2 5478   0.743   1.754   0.377
 1527SOL     OW 5479   3.410   1.519   4.399
 1527SOL    HW1 5480   3.466   1.600   4.415
 1527SOL    HW2 5481   3.316   1.547   4.381
 1528SOL     OW 5482   5.062   3.647   1.035
 1528SOL    HW1 5483   5.152   3.691   1.026
 1528SOL    HW2 5484   5.038   3.641   1.132
 1529SOL     OW 5485   4.907   0.999   6.600
 1529SOL    HW1 5486   4.824   1.049   6.626
 1529SOL    HW2 5487   4.881   0.916   6.551
 1530SOL     OW 5488   3.006   0.196   1.231
 1530SOL    HW1 5489   2.975   0.141   1.308
 1530SOL    HW2 5490   2.988   0.147   1.146
 1531SOL     OW 5491   3.722   0.313   4.085
 1531SOL    HW1 5492   3.705   0.257   4.167
 1531SOL    HW2 5493   3.812   0.355   4.091
 1532SOL     OW 5494   3.311   5.010   6.139
 1532SOL    HW1 5495   3.388   4.974   6.191
 1532SOL    HW2 5496   3.298   4.957   6.056
 1533SOL     OW 5497   5.356   5.399   1.247
 1533SOL    HW1 5498   5.380   5.448   1.330
 1533SOL    HW2 5499   5.263   5.422   1.219
 1534SOL     OW 5500   3.756   5.859   0.077
 1534SOL    HW1 5501   3.712   5.794   0.015
 1534SOL    HW2 5502   3.851   5.872   0.049
 1535SOL     OW 5503   6.520   6.297   4.606
 1535SOL    HW1 5504   6.585   6.370   4.588
 1535SOL    HW2 5505   6.515   6.236   4.527
 1536SOL     OW 5506   4.060   4.260   6.992
 1536SOL    HW1 5507   4.132   4.191   6.984
 1536SOL    HW2 5508   4.006   4.241   0.055
 1537SOL     OW 5509   3.142   5.004   3.604
 1537SOL    HW1 5510   3.192   5.053   3.533
 1537SOL    HW2 5511   3.205   4.945   3.655
 1538SOL     OW 5512   3.156   1.654   0.499
 1538SOL    HW1 5513   3.186   1.559   0.508
 1538SOL    HW2 5514   3.056   1.658   0.497
 1539SOL     OW 5515   5.127   3.413   1.535
 1539SOL    HW1 5516   5.110   3.375   1.626
 1539SOL    HW2 5517   5.072   3.365   1.467
 1540SOL     OW 5518   2.260   6.733   4.379
 1540SOL    HW1 5519   2.163   6.724   4.355
 1540SOL    HW2 5520   2.269   6.752   4.476
 1541SOL     OW 5521   3.382   3.165   4.713
 1541SOL    HW1 5522   3.372   3.210   4.625
 1541SOL    HW2 5523   3.425   3.076   4.700
 1542SOL     OW 5524   6.579   6.833   2.268
 1542SOL    HW1 5525   6.645   6.855   2.196
 1542SOL    HW2 5526   6.501   6.894   2.261
 1543SOL     OW 5527   3.323   5.308   6.207
 1543SOL    HW1 5528   3.279   5.230   6.163
 1543SOL    HW2 5529   3.422   5.301   6.196
 1544SOL     OW 5530   3.894   3.077   3.638
 1544SOL    HW1 5531   3.812   3.020   3.647
 1544SOL    HW2 5532   3.909   3.097   3.542
 1545SOL     OW 5533   6.152   0.411   1.769
 1545SOL    HW1 5534   6.251   0.425   1.760
 1545SOL    HW2 5535   6.114   0.480   1.831
 1546SOL     OW 5536   5.073   6.539   5.594
 1546SOL    HW1 5537   5.069   6.627   5.642
 1546SOL    HW2 5538   5.169   6.513   5.580
 1547SOL     OW 5539   1.510   3.901   0.303
 1547SOL    HW1 5540   1.608   3.905   0.286
 1547SOL    HW2 5541   1.461   3.937   0.224
 1548SOL     OW 5542   6.374   2.444   6.999
 1548SOL    HW1 5543   6.420   2.509   6.938
 1548SOL    HW2 5544   6.343   2.365   6.947
 1549SOL     OW 5545   3.963   1.508   4.633
 1549SOL    HW1 5546   3.902   1.460   4.697
 1549SOL    HW2 5547   3.999   1.443   4.566
 1550SOL     OW 5548   3.765   3.244   2.425
 1550SOL    HW1 5549   3.739   3.334   2.460
 1550SOL    HW2 5550   3.763   3.178   2.501
 1551SOL     OW 5551   0.996   5.393   6.620
 1551SOL    HW1 5552   0.971   5.304   6.581
 1551SOL    HW2 5553   1.044   5.380   6.706
 1552SOL     OW 5554   2.708   4.967   1.379
 1552SOL    HW1 5555   2.748   4.876   1.371
 1552SOL    HW2 5556   2.612   4.960   1.406
 1553SOL     OW 5557   0.169   1.598   5.845
 1553SOL    HW1 5558   0.089   1.546   5.814
 1553SOL    HW2 5559   0.225   1.623   5.766
 1554SOL     OW 5560   3.253   2.130   3.514
 1554SOL    HW1 5561   3.254   2.067   3.436
 1554SOL    HW2 5562   3.346   2.160   3.535
 1555SOL     OW 5563   5.916   2.735   6.075
 1555SOL    HW1 5564   5.860   2.769   5.999
 1555SOL    HW2 5565   6.007   2.777   6.071
 1556SOL     OW 5566   2.335   1.242   6.257
 1556SOL    HW1 5567   2.342   1.330   6.303
 1556SOL    HW2 5568   2.264   1.187   6.301
 1557SOL     OW 5569   1.639   3.203   6.347
 1557SOL    HW1 5570   1.610   3.275   6.410
 1557SOL    HW2 5571   1.592   3.216   6.259
 1558SOL     OW 5572   6.876   0.060   5.021
 1558SOL    HW1 5573   6.970   0.032   5.041
 1558SOL    HW2 5574   6.875   0.156   4.995
 1559SOL     OW 5575   0.511   2.590   6.262
 1559SOL    HW1 5576   0.487   2.624   6.353
 1559SOL    HW2 5577   0.574   2.513   6.271
 1560SOL     OW 5578   6.995   0.987   6.407
 1560SOL    HW1 5579   0.029   1.072   6.393
 1560SOL    HW2 5580   0.039   0.914   6.434
 1561SOL     OW 5581   4.896   6.141   2.277
 1561SOL    HW1 5582   4.809   6.182   2.250
 1561SOL    HW2 5583   4.905   6.145   2.376
 1562SOL     OW 5584   4.704   0.250   2.640
 1562SOL    HW1 5585   4.638   0.174   2.636
 1562SOL    HW2 5586   4.718   0.277   2.735
 1563SOL     OW 5587   3.340   1.569   6.140
 1563SOL    HW1 5588   3.249   1.575   6.179
 1563SOL    HW2 5589   3.362   1.473   6.122
 1564SOL     OW 5590   1.450   1.679   2.360
 1564SOL    HW1 5591   1.403   1.592   2.371
 1564SOL    HW2 5592   1.412   1.746   2.424
 1565SOL     OW 5593   4.959   3.594   2.290
 1565SOL    HW1 5594   4.939   3.634   2.201
 1565SOL    HW2 5595   4.962   3.494   2.282
 1566SOL     OW 5596   5.290   4.000   3.564
 1566SOL    HW1 5597   5.377   4.047   3.547
 1566SOL    HW2 5598   5.242   3.987   3.477
 1567SOL     OW 5599   5.976   5.658   6.017
 1567SOL    HW1 5600   5.958   5.743   5.967
 1567SOL    HW2 5601   6.032   5.679   6.098
 1568SOL     OW 5602   1.133   0.394   0.602
 1568SOL    HW1 5603   1.036   0.416   0.589
 1568SOL    HW2 5604   1.176   0.466   0.656
 1569SOL     OW 5605   3.935   6.645   4.544
 1569SOL    HW1 5606   4.025   6.610   4.521
 1569SOL    HW2 5607   3.901   6.598   4.626
 1570SOL     OW 5608   2.696   1.811   1.563
 1570SOL    HW1 5609   2.682   1.760   1.479
 1570SOL    HW2 5610   2.731   1.902   1.542
 1571SOL     OW 5611   5.816   3.190   1.625
 1571SOL    HW1 5612   5.740   3.137   1.588
 1571SOL    HW2 5613   5.780   3.269   1.675
 1572SOL     OW 5614   0.375   6.903   2.199
 1572SOL    HW1 5615   0.307   6.840   2.161
 1572SOL    HW2 5616   0.411   6.962   2.126
 1573SOL     OW 5617   5.016   6.936   1.420
 1573SOL    HW1 5618   5.027   6.980   1.509
 1573SOL    HW2 5619   5.051   6.842   1.424
 1574SOL     OW 5620   6.790   2.175   1.437
 1574SOL    HW1 5621   6.826   2.086   1.468
 1574SOL    HW2 5622   6.693   2.181   1.460
 1575SOL     OW 5623   1.431   2.485   0.602
 1575SOL    HW1 5624   1.351   2.509   0.657
 1575SOL    HW2 5625   1.444   2.386   0.605
 1576SOL     OW 5626   5.707   5.906   4.177
 1576SOL    HW1 5627   5.697   5.815   4.137
 1576SOL    HW2 5628   5.617   5.943   4.200
 1577SOL     OW 5629   2.737   0.427   5.520
 1577SOL    HW1 5630   2.828   0.418   5.560
 1577SOL    HW2 5631   2.671   0.376   5.575
 1578SOL     OW 5632   5.316   4.049   5.704
 1578SOL    HW1 5633   5.391   4.108   5.734
 1578SOL    HW2 5634   5.287   4.074   5.612
 1579SOL     OW 5635   0.368   1.514   3.716
 1579SOL    HW1 5636   0.346   1.610   3.698
 1579SOL    HW2 5637   0.411   1.506   3.806
 1580SOL     OW 5638   2.707   4.372   5.349
 1580SOL    HW1 5639   2.641   4.443   5.325
 1580SOL    HW2 5640   2.798   4.398   5.315
 1581SOL     OW 5641   6.852   3.758   4.644
 1581SOL    HW1 5642   6.948   3.741   4.665
 1581SOL    HW2 5643   6.838   3.754   4.545
 1582SOL     OW 5644   0.627   4.994   4.406
 1582SOL    HW1 5645   0.674   5.016   4.491
 1582SOL    HW2 5646   0.658   4.904   4.373
 1583SOL     OW 5647   2.187   2.679   3.838
 1583SOL    HW1 5648   2.159   2.755   3.779
 1583SOL    HW2 5649   2.223   2.714   3.924
 1584SOL     OW 5650   2.011   6.849   5.489
 1584SOL    HW1 5651   2.035   6.944   5.468
 1584SOL    HW2 5652   2.037   6.790   5.412
 1585SOL     OW 5653   5.518   1.428   3.603
 1585SOL    HW1 5654   5.455   1.387   3.537
 1585SOL    HW2 5655   5.568   1.355   3.650
 1586SOL     OW 5656   3.978   3.844   2.540
 1586SOL    HW1 5657   4.000   3.848   2.637
 1586SOL    HW2 5658   4.004   3.754   2.504
 1587SOL     OW 5659   3.467   6.710   6.957
 1587SOL    HW1 5660   3.554   6.675   6.924
 1587SOL    HW2 5661   3.449   6.673   0.029
 1588SOL     OW 5662   5.279   2.000   1.882
 1588SOL    HW1 5663   5.329   2.079   1.919
 1588SOL    HW2 5664   5.334   1.956   1.811
 1589SOL     OW 5665   6.128   4.692   4.345
 1589SOL    HW1 5666   6.104   4.682   4.441
 1589SOL    HW2 5667   6.211   4.641   4.325
 1590SOL     OW 5668   1.985   0.344   0.113
 1590SOL    HW1 5669   2.003   0.419   0.049
 1590SOL    HW2 5670   2.057   0.275   0.105
 1591SOL     OW 5671   1.314   4.579   2.353
 1591SOL    HW1 5672   1.341   4.667   2.391
 1591SOL    HW2 5673   1.308   4.586   2.253
 1592SOL     OW 5674   2.945   3.785   2.611
 1592SOL    HW1 5675   2.989   3.859   2.560
 1592SOL    HW2 5676   2.910   3.717   2.547
 1593SOL     OW 5677   1.245   5.862   4.398
 1593SOL    HW1 5678   1.316   5.848   4.329
 1593SOL    HW2 5679   1.286   5.858   4.489
 1594SOL     OW 5680   6.938   5.065   2.506
 1594SOL    HW1 5681   7.003   5.090   2.434
 1594SOL    HW2 5682   6.907   5.148   2.553
 1595SOL     OW 5683   6.666   4.603   6.760
 1595SOL    HW1 5684   6.596   4.534   6.774
 1595SOL    HW2 5685   6.689   4.609   6.662
 1596SOL     OW 5686   2.320   5.580   6.242
 1596SOL    HW1 5687   2.328   5.585   6.342
 1596SOL    HW2 5688   2.397   5.530   6.205
 1597SOL     OW 5689   2.446   6.231   1.609
 1597SOL    HW1 5690   2.514   6.159   1.611
 1597SOL    HW2 5691   2.375   6.208   1.542
 1598SOL     OW 5692   0.528   4.783   1.192
 1598SOL    HW1 5693   0.578   4.711   1.241
 1598SOL    HW2 5694   0.587   4.862   1.178
 1599SOL     OW 5695   3.597   4.954   0.179
 1599SOL    HW1 5696   3.681   5.004   0.202
 1599SOL    HW2 5697   3.560   4.990   0.093
 1600SOL     OW 5698   5.771   1.488   4.760
 1600SOL    HW1 5699   5.738   1.409   4.812
 1600SOL    HW2 5700   5.699   1.519   4.698
 1601SOL     OW 5701   0.894   5.198   4.993
 1601SOL    HW1 5702   0.971   5.182   4.931
 1601SOL    HW2 5703   0.823   5.130   4.976
 1602SOL     OW 5704   1.344   5.599   3.797
 1602SOL    HW1 5705   1.435   5.577   3.760
 1602SOL    HW2 5706   1.321   5.535   3.870
 1603SOL     OW 5707   0.204   6.270   2.243
 1603SOL    HW1 5708   0.211   6.302   2.149
 1603SOL    HW2 5709   0.277   6.310   2.298
 1604SOL     OW 5710   0.024   4.890   6.510
 1604SOL    HW1 5711   7.017   4.863   6.417
 1604SOL    HW2 5712   0.117   4.928   6.509
 1605SOL     OW 5713   6.285   6.344   2.608
 1605SOL    HW1 5714   6.192   6.329   2.640
 1605SOL    HW2 5715   6.339   6.261   2.623
 1606SOL     OW 5716   4.999   6.754   5.758
 1606SOL    HW1 5717   4.905   6.786   5.774
 1606SOL    HW2 5718   5.063   6.830   5.771
 1607SOL     OW 5719   4.791   2.442   0.735
 1607SOL    HW1 5720   4.769   2.540   0.742
 1607SOL    HW2 5721   4.708   2.388   0.750
 1608SOL     OW 5722   2.110   6.991   0.950
 1608SOL    HW1 5723   2.109   6.896   0.918
 1608SOL    HW2 5724   2.114   0.034   0.872
 1609SOL     OW 5725   4.565   2.293   6.071
 1609SOL    HW1 5726   4.572   2.211   6.014
 1609SOL    HW2 5727   4.471   2.306   6.099
 1610SOL     OW 5728   6.256   6.375   4.194
 1610SOL    HW1 5729   6.346   6.411   4.170
 1610SOL    HW2 5730   6.190   6.450   4.196
 1611SOL     OW 5731   3.537   3.669   1.776
 1611SOL    HW1 5732   3.595   3.712   1.708
 1611SOL    HW2 5733   3.452   3.721   1.786
 1612SOL     OW 5734   2.341   0.840   4.735
 1612SOL    HW1 5735   2.363   0.747   4.766
 1612SOL    HW2 5736   2.242   0.853   4.735
 1613SOL     OW 5737   2.192   6.081   0.534
 1613SOL    HW1 5738   2.168   6.162   0.589
 1613SOL    HW2 5739   2.257   6.024   0.584
 1614SOL     OW 5740   6.093   2.368   0.068
 1614SOL    HW1 5741   6.168   2.427   0.099
 1614SOL    HW2 5742   6.089   2.370   6.987
 1615SOL     OW 5743   0.131   4.612   6.596
 1615SOL    HW1 5744   0.087   4.700   6.580
 1615SOL    HW2 5745   0.145   4.599   6.694
 1616SOL     OW 5746   3.301   1.853   5.801
 1616SOL    HW1 5747   3.289   1.932   5.861
 1616SOL    HW2 5748   3.251   1.775   5.839
 1617SOL     OW 5749   5.171   0.900   3.351
 1617SOL    HW1 5750   5.176   0.838   3.429
 1617SOL    HW2 5751   5.261   0.939   3.333
 1618SOL     OW 5752   6.126   3.090   1.080
 1618SOL    HW1 5753   6.077   3.026   1.021
 1618SOL    HW2 5754   6.064   3.162   1.109
 1619SOL     OW 5755   1.841   3.299   4.256
 1619SOL    HW1 5756   1.930   3.328   4.220
 1619SOL    HW2 5757   1.768   3.345   4.206
 1620SOL     OW 5758   2.535   5.290   1.679
 1620SOL    HW1 5759   2.445   5.333   1.679
 1620SOL    HW2 5760   2.602   5.352   1.637
 1621SOL     OW 5761   1.344   0.502   0.839
 1621SOL    HW1 5762   1.373   0.525   0.746
 1621SOL    HW2 5763   1.422   0.504   0.901
 1622SOL     OW 5764   2.110   1.699   4.348
 1622SOL    HW1 5765   2.059   1.781   4.324
 1622SOL    HW2 5766   2.050   1.620   4.348
 1623SOL     OW 5767   2.475   2.071   5.608
 1623SOL    HW1 5768   2.399   2.118   5.653
 1623SOL    HW2 5769   2.557   2.079   5.665
 1624SOL     OW 5770   2.883   1.416   0.378
 1624SOL    HW1 5771   2.879   1.515   0.382
 1624SOL    HW2 5772   2.965   1.388   0.328
 1625SOL     OW 5773   0.706   5.159   2.243
 1625SOL    HW1 5774   0.800   5.145   2.276
 1625SOL    HW2 5775   0.696   5.253   2.212
 1626SOL     OW 5776   2.016   2.952   6.321
 1626SOL    HW1 5777   2.001   3.012   6.242
 1626SOL    HW2 5778   2.068   2.871   6.292
 1627SOL     OW 5779   6.263   3.041   3.802
 1627SOL    HW1 5780   6.335   3.066   3.737
 1627SOL    HW2 5781   6.174   3.073   3.767
 1628SOL     OW 5782   3.262   4.341   0.410
 1628SOL    HW1 5783   3.315   4.265   0.446
 1628SOL    HW2 5784   3.175   4.308   0.375
 1629SOL     OW 5785   3.687   1.960   4.270
 1629SOL    HW1 5786   3.726   1.894   4.205
 1629SOL    HW2 5787   3.693   1.922   4.362
 1630SOL     OW 5788   0.608   4.532   5.395
 1630SOL    HW1 5789   0.560   4.594   5.457
 1630SOL    HW2 5790   0.548   4.457   5.370
 1631SOL     OW 5791   0.128   6.887   5.535
 1631SOL    HW1 5792   0.055   6.832   5.576
 1631SOL    HW2 5793   0.114   6.984   5.559
 1632SOL     OW 5794   6.524   0.682   1.216
 1632SOL    HW1 5795   6.528   0.779   1.238
 1632SOL    HW2 5796   6.569   0.666   1.128
 1633SOL     OW 5797   6.291   2.229   3.909
 1633SOL    HW1 5798   6.259   2.320   3.935
 1633SOL    HW2 5799   6.387   2.219   3.936
 1634SOL     OW 5800   2.842   0.438   6.690
 1634SOL    HW1 5801   2.877   0.365   6.749
 1634SOL    HW2 5802   2.744   0.424   6.674
 1635SOL     OW 5803   0.246   6.131   5.079
 1635SOL    HW1 5804   0.247   6.216   5.131
 1635SOL    HW2 5805   0.221   6.150   4.984
 1636SOL     OW 5806   2.149   6.114   1.966
 1636SOL    HW1 5807   2.074   6.165   2.008
 1636SOL    HW2 5808   2.123   6.018   1.955
 1637SOL     OW 5809   6.605   3.151   2.092
 1637SOL    HW1 5810   6.609   3.098   2.007
 1637SOL    HW2 5811   6.633   3.094   2.169
 1638SOL     OW 5812   6.944   3.502   4.475
 1638SOL    HW1 5813   6.893   3.570   4.422
 1638SOL    HW2 5814   0.019   3.498   4.441
 1639SOL     OW 5815   5.071   5.441   2.650
 1639SOL    HW1 5816   5.028   5.351   2.640
 1639SOL    HW2 5817   5.171   5.430   2.650
 1640SOL     OW 5818   6.451   0.439   0.915
 1640SOL    HW1 5819   6.470   0.407   0.822
 1640SOL    HW2 5820   6.538   0.446   0.965
 1641SOL     OW 5821   5.168   3.199   5.242
 1641SOL    HW1 5822   5.229   3.183   5.164
 1641SOL    HW2 5823   5.110   3.119   5.256
 1642SOL     OW 5824   6.868   2.293   0.759
 1642SOL    HW1 5825   6.887   2.380   0.714
 1642SOL    HW2 5826   6.826   2.230   0.693
 1643SOL     OW 5827   3.924   6.729   5.281
 1643SOL    HW1 5828   3.986   6.784   5.338
 1643SOL    HW2 5829   3.960   6.635   5.276
 1644SOL     OW 5830   3.021   1.249   1.462
 1644SOL    HW1 5831   3.023   1.347   1.483
 1644SOL    HW2 5832   2.936   1.226   1.416
 1645SOL     OW 5833   2.998   6.704   6.569
 1645SOL    HW1 5834   3.098   6.706   6.566
 1645SOL    HW2 5835   2.963   6.797   6.559
 1646SOL     OW 5836   1.372   4.093   0.889
 1646SOL    HW1 5837   1.307   4.111   0.815
 1646SOL    HW2 5838   1.355   4.003   0.928
 1647SOL     OW 5839   5.783   3.089   3.854
 1647SOL    HW1 5840   5.875   3.125   3.868
 1647SOL    HW2 5841   5.772   3.063   3.758
 1648SOL     OW 5842   4.493   7.011   2.232
 1648SOL    HW1 5843   4.574   0.043   2.261
 1648SOL    HW2 5844   4.518   6.948   2.159
 1649SOL     OW 5845   3.384   1.602   3.389
 1649SOL    HW1 5846   3.425   1.691   3.405
 1649SOL    HW2 5847   3.284   1.609   3.394
 1650SOL     OW 5848   2.753   6.927   3.830
 1650SOL    HW1 5849   2.714   7.008   3.784
 1650SOL    HW2 5850   2.837   6.953   3.877
 1651SOL     OW 5851   0.931   0.360   0.250
 1651SOL    HW1 5852   0.925   0.288   0.320
 1651SOL    HW2 5853   0.903   0.447   0.290
 1652SOL     OW 5854   2.853   2.306   1.643
 1652SOL    HW1 5855   2.919   2.308   1.719
 1652SOL    HW2 5856   2.866   2.387   1.585
 1653SOL     OW 5857   0.893   5.350   1.022
 1653SOL    HW1 5858   0.977   5.302   0.996
 1653SOL    HW2 5859   0.898   5.446   0.994
 1654SOL     OW 5860   6.461   3.405   2.614
 1654SOL    HW1 5861   6.446   3.400   2.515
 1654SOL    HW2 5862   6.373   3.409   2.661
 1655SOL     OW 5863   4.780   4.160   6.473
 1655SOL    HW1 5864   4.836   4.199   6.399
 1655SOL    HW2 5865   4.822   4.182   6.561
 1656SOL     OW 5866   1.406   4.974   3.390
 1656SOL    HW1 5867   1.469   5.029   3.444
 1656SOL    HW2 5868   1.367   5.030   3.317
 1657SOL     OW 5869   1.214   0.630   5.428
 1657SOL    HW1 5870   1.140   0.575   5.389
 1657SOL    HW2 5871   1.227   0.712   5.372
 1658SOL     OW 5872   6.093   6.269   2.899
 1658SOL    HW1 5873   6.008   6.299   2.942
 1658SOL    HW2 5874   6.170   6.319   2.939
 1659SOL     OW 5875   3.709   2.415   6.367
 1659SOL    HW1 5876   3.650   2.484   6.408
 1659SOL    HW2 5877   3.764   2.371   6.438
 1660SOL     OW 5878   1.583   5.709   3.614
 1660SOL    HW1 5879   1.568   5.804   3.640
 1660SOL    HW2 5880   1.647   5.666   3.678
 1661SOL     OW 5881   3.513   0.879   2.093
 1661SOL    HW1 5882   3.520   0.937   2.011
 1661SOL    HW2 5883   3.420   0.885   2.129
 1662SOL     OW 5884   0.382   1.075   3.520
 1662SOL    HW1 5885   0.390   1.096   3.617
 1662SOL    HW2 5886   0.401   0.978   3.505
 1663SOL     OW 5887   3.010   0.324   2.384
 1663SOL    HW1 5888   2.972   0.266   2.312
 1663SOL    HW2 5889   3.025   0.268   2.466
 1664SOL     OW 5890   2.256   5.706   4.173
 1664SOL    HW1 5891   2.310   5.685   4.254
 1664SOL    HW2 5892   2.291   5.789   4.129
 1665SOL     OW 5893   0.134   0.739   3.048
 1665SOL    HW1 5894   0.211   0.709   2.992
 1665SOL    HW2 5895   0.123   0.838   3.040
 1666SOL     OW 5896   5.769   2.803   5.837
 1666SOL    HW1 5897   5.724   2.891   5.851
 1666SOL    HW2 5898   5.841   2.813   5.769
 1667SOL     OW 5899   6.478   6.768   5.986
 1667SOL    HW1 5900   6.447   6.729   5.900
 1667SOL    HW2 5901   6.400   6.812   6.033
 1668SOL     OW 5902   4.160   0.270   4.999
 1668SOL    HW1 5903   4.067   0.242   5.023
 1668SOL    HW2 5904   4.222   0.240   5.072
 1669SOL     OW 5905   5.437   6.736   5.887
 1669SOL    HW1 5906   5.407   6.805   5.954
 1669SOL    HW2 5907   5.502   6.675   5.931
 1670SOL     OW 5908   5.422   4.441   5.574
 1670SOL    HW1 5909   5.511   4.456   5.532
 1670SOL    HW2 5910   5.405   4.511   5.643
 1671SOL     OW 5911   4.620   3.291   0.140
 1671SOL    HW1 5912   4.619   3.349   0.222
 1671SOL    HW2 5913   4.530   3.296   0.096
 1672SOL     OW 5914   1.911   5.078   2.134
 1672SOL    HW1 5915   1.864   5.159   2.171
 1672SOL    HW2 5916   1.949   5.025   2.210
 1673SOL     OW 5917   6.928   3.518   4.011
 1673SOL    HW1 5918   6.865   3.440   4.019
 1673SOL    HW2 5919   6.898   3.578   3.937
 1674SOL     OW 5920   1.263   3.877   0.130
 1674SOL    HW1 5921   1.210   3.938   0.188
 1674SOL    HW2 5922   1.256   3.784   0.165
 1675SOL     OW 5923   4.741   1.625   6.636
 1675SOL    HW1 5924   4.716   1.679   6.556
 1675SOL    HW2 5925   4.754   1.686   6.714
 1676SOL     OW 5926   1.615   0.571   3.167
 1676SOL    HW1 5927   1.631   0.472   3.157
 1676SOL    HW2 5928   1.658   0.602   3.252
 1677SOL     OW 5929   5.690   2.061   5.597
 1677SOL    HW1 5930   5.667   2.085   5.502
 1677SOL    HW2 5931   5.726   1.967   5.600
 1678SOL     OW 5932   5.165   6.836   2.120
 1678SOL    HW1 5933   5.222   6.758   2.096
 1678SOL    HW2 5934   5.222   6.917   2.129
 1679SOL     OW 5935   0.786   3.371   6.466
 1679SOL    HW1 5936   0.782   3.470   6.450
 1679SOL    HW2 5937   0.702   3.328   6.433
 1680SOL     OW 5938   0.654   1.756   3.959
 1680SOL    HW1 5939   0.679   1.688   3.890
 1680SOL    HW2 5940   0.557   1.778   3.951
 1681SOL     OW 5941   6.545   5.574   0.820
 1681SOL    HW1 5942   6.642   5.594   0.804
 1681SOL    HW2 5943   6.503   5.545   0.734
 1682SOL     OW 5944   6.705   3.191   5.545
 1682SOL    HW1 5945   6.795   3.159   5.516
 1682SOL    HW2 5946   6.660   3.235   5.467
 1683SOL     OW 5947   5.072   6.707   1.618
 1683SOL    HW1 5948   4.976   6.722   1.595
 1683SOL    HW2 5949   5.109   6.633   1.562
 1684SOL     OW 5950   0.293   6.553   5.464
 1684SOL    HW1 5951   0.281   6.630   5.401
 1684SOL    HW2 5952   0.204   6.515   5.488
 1685SOL     OW 5953   1.407   1.458   0.439
 1685SOL    HW1 5954   1.451   1.386   0.493
 1685SOL    HW2 5955   1.478   1.511   0.392
 1686SOL     OW 5956   1.325   6.661   6.330
 1686SOL    HW1 5957   1.402   6.618   6.377
 1686SOL    HW2 5958   1.357   6.702   6.245
 1687SOL     OW 5959   1.659   6.017   2.285
 1687SOL    HW1 5960   1.719   5.986   2.359
 1687SOL    HW2 5961   1.564   6.000   2.310
 1688SOL     OW 5962   1.608   1.937   2.769
 1688SOL    HW1 5963   1.640   1.919   2.676
 1688SOL    HW2 5964   1.682   1.916   2.834
 1689SOL     OW 5965   2.256   1.348   2.616
 1689SOL    HW1 5966   2.229   1.283   2.545
 1689SOL    HW2 5967   2.328   1.306   2.672
 1690SOL     OW 5968   1.760   1.482   1.524
 1690SOL    HW1 5969   1.798   1.522   1.608
 1690SOL    HW2 5970   1.835   1.451   1.466
 1691SOL     OW 5971   4.841   3.969   2.752
 1691SOL    HW1 5972   4.911   4.021   2.801
 1691SOL    HW2 5973   4.830   4.006   2.660
 1692SOL     OW 5974   0.841   0.397   2.020
 1692SOL    HW1 5975   0.791   0.482   2.002
 1692SOL    HW2 5976   0.927   0.398   1.969
 1693SOL     OW 5977   2.803   2.296   3.396
 1693SOL    HW1 5978   2.879   2.258   3.449
 1693SOL    HW2 5979   2.733   2.330   3.460
 1694SOL     OW 5980   4.637   5.770   4.783
 1694SOL    HW1 5981   4.540   5.781   4.808
 1694SOL    HW2 5982   4.694   5.811   4.854
 1695SOL     OW 5983   3.142   2.421   5.500
 1695SOL    HW1 5984   3.169   2.345   5.560
 1695SOL    HW2 5985   3.159   2.396   5.405
 1696SOL     OW 5986   5.186   5.952   0.596
 1696SOL    HW1 5987   5.263   6.014   0.584
 1696SOL    HW2 5988   5.210   5.861   0.559
 1697SOL     OW 5989   1.366   1.297   1.362
 1697SOL    HW1 5990   1.281   1.339   1.330
 1697SOL    HW2 5991   1.415   1.362   1.421
 1698SOL     OW 5992   4.408   2.200   1.467
 1698SOL    HW1 5993   4.490   2.188   1.523
 1698SOL    HW2 5994   4.338   2.134   1.497
 1699SOL     OW 5995   2.534   3.549   1.144
 1699SOL    HW1 5996   2.579   3.460   1.138
 1699SOL    HW2 5997   2.436   3.539   1.124
 1700SOL     OW 5998   0.026   3.129   3.087
 1700SOL    HW1 5999   0.121   3.116   3.112
 1700SOL    HW2 6000   7.004   3.041   3.062
 1701SOL     OW 6001   6.256   3.624   3.967
 1701SOL    HW1 6002   6.252   3.566   4.048
 1701SOL    HW2 6003   6.336   3.600   3.912
 1702SOL     OW 6004   5.077   3.954   1.461
 1702SOL    HW1 6005   5.159   4.004   1.490
 1702SOL    HW2 6006   5.099   3.858   1.448
 1703SOL     OW 6007   2.255   3.870   0.245
 1703SOL    HW1 6008   2.257   3.792   0.308
 1703SOL    HW2 6009   2.193   3.849   0.169
 1704SOL     OW 6010   0.297   0.434   1.628
 1704SOL    HW1 6011   0.222   0.448   1.565
 1704SOL    HW2 6012   0.272   0.363   1.694
 1705SOL     OW 6013   4.391   3.006   1.687
 1705SOL    HW1 6014   4.352   2.915   1.696
 1705SOL    HW2 6015   4.470   3.015   1.748
 1706SOL     OW 6016   3.480   0.680   0.964
 1706SOL    HW1 6017   3.437   0.770   0.968
 1706SOL    HW2 6018   3.422   0.613   1.011
 1707SOL     OW 6019   5.716   2.181   3.775
 1707SOL    HW1 6020   5.734   2.279   3.781
 1707SOL    HW2 6021   5.802   2.130   3.783
 1708SOL     OW 6022   6.733   5.368   3.361
 1708SOL    HW1 6023   6.729   5.455   3.410
 1708SOL    HW2 6024   6.829   5.344   3.345
 1709SOL     OW 6025   3.164   5.965   2.602
 1709SOL    HW1 6026   3.189   6.045   2.656
 1709SOL    HW2 6027   3.242   5.903   2.597
 1710SOL     OW 6028   0.279   5.324   4.193
 1710SOL    HW1 6029   0.208   5.308   4.125
 1710SOL    HW2 6030   0.369   5.315   4.151
 1711SOL     OW 6031   1.381   4.589   4.873
 1711SOL    HW1 6032   1.384   4.494   4.905
 1711SOL    HW2 6033   1.453   4.603   4.805
 1712SOL     OW 6034   0.196   4.331   0.581
 1712SOL    HW1 6035   0.103   4.313   0.550
 1712SOL    HW2 6036   0.207   4.428   0.599
 1713SOL     OW 6037   1.495   2.794   1.363
 1713SOL    HW1 6038   1.406   2.794   1.318
 1713SOL    HW2 6039   1.553   2.865   1.322
 1714SOL     OW 6040   3.482   2.028   0.520
 1714SOL    HW1 6041   3.467   2.097   0.591
 1714SOL    HW2 6042   3.502   2.074   0.434
 1715SOL     OW 6043   0.110   3.048   2.709
 1715SOL    HW1 6044   0.019   3.089   2.702
 1715SOL    HW2 6045   0.175   3.116   2.745
 1716SOL     OW 6046   0.139   6.240   6.773
 1716SOL    HW1 6047   0.222   6.187   6.758
 1716SOL    HW2 6048   0.084   6.242   6.689
 1717SOL     OW 6049   2.862   0.242   6.870
 1717SOL    HW1 6050   2.870   0.216   6.966
 1717SOL    HW2 6051   2.835   0.162   6.816
 1718SOL     OW 6052   1.509   4.488   0.092
 1718SOL    HW1 6053   1.510   4.560   0.024
 1718SOL    HW2 6054   1.562   4.516   0.172
 1719SOL     OW 6055   2.020   3.509   1.513
 1719SOL    HW1 6056   2.080   3.454   1.571
 1719SOL    HW2 6057   2.064   3.523   1.424
 1720SOL     OW 6058   6.598   1.251   0.338
 1720SOL    HW1 6059   6.553   1.334   0.305
 1720SOL    HW2 6060   6.574   1.174   0.278
 1721SOL     OW 6061   2.118   6.333   3.434
 1721SOL    HW1 6062   2.177   6.288   3.366
 1721SOL    HW2 6063   2.075   6.413   3.392
 1722SOL     OW 6064   6.045   7.012   2.224
 1722SOL    HW1 6065   6.132   0.041   2.232
 1722SOL    HW2 6066   6.055   6.918   2.256
 1723SOL     OW 6067   6.902   1.740   2.253
 1723SOL    HW1 6068   6.922   1.650   2.214
 1723SOL    HW2 6069   6.813   1.737   2.298
 1724SOL     OW 6070   4.472   1.119   6.737
 1724SOL    HW1 6071   4.566   1.138   6.712
 1724SOL    HW2 6072   4.452   1.160   6.826
 1725SOL     OW 6073   3.486   4.469   1.180
 1725SOL    HW1 6074   3.405   4.490   1.234
 1725SOL    HW2 6075   3.468   4.490   1.084
 1726SOL     OW 6076   0.275   4.235   4.263
 1726SOL    HW1 6077   0.325   4.148   4.266
 1726SOL    HW2 6078   0.292   4.286   4.348
 1727SOL     OW 6079   3.875   3.729   4.900
 1727SOL    HW1 6080   3.849   3.779   4.818
 1727SOL    HW2 6081   3.923   3.791   4.962
 1728SOL     OW 6082   4.413   4.700   3.858
 1728SOL    HW1 6083   4.456   4.674   3.944
 1728SOL    HW2 6084   4.342   4.768   3.875
 1729SOL     OW 6085   1.571   3.508   2.528
 1729SOL    HW1 6086   1.671   3.508   2.516
 1729SOL    HW2 6087   1.528   3.551   2.449
 1730SOL     OW 6088   6.270   2.675   5.063
 1730SOL    HW1 6089   6.309   2.605   5.123
 1730SOL    HW2 6090   6.222   2.744   5.118
 1731SOL     OW 6091   1.946   5.033   0.612
 1731SOL    HW1 6092   2.019   5.046   0.679
 1731SOL    HW2 6093   1.879   5.107   0.620
 1732SOL     OW 6094   1.248   4.386   0.116
 1732SOL    HW1 6095   1.195   4.452   0.168
 1732SOL    HW2 6096   1.345   4.400   0.133
 1733SOL     OW 6097   1.206   3.635   1.512
 1733SOL    HW1 6098   1.178   3.561   1.573
 1733SOL    HW2 6099   1.136   3.650   1.443
 1734SOL     OW 6100   4.032   2.905   0.919
 1734SOL    HW1 6101   4.042   2.860   0.830
 1734SOL    HW2 6102   4.091   2.986   0.921
 1735SOL     OW 6103   5.842   5.090   1.625
 1735SOL    HW1 6104   5.867   5.059   1.717
 1735SOL    HW2 6105   5.919   5.076   1.562
 1736SOL     OW 6106   3.525   2.965   6.887
 1736SOL    HW1 6107   3.474   2.897   6.939
 1736SOL    HW2 6108   3.534   3.049   6.940
 1737SOL     OW 6109   2.009   7.009   3.510
 1737SOL    HW1 6110   2.053   0.008   3.598
 1737SOL    HW2 6111   2.025   6.914   3.484
 1738SOL     OW 6112   2.158   3.077   2.236
 1738SOL    HW1 6113   2.078   3.032   2.275
 1738SOL    HW2 6114   2.238   3.055   2.291
 1739SOL     OW 6115   4.750   2.271   5.049
 1739SOL    HW1 6116   4.748   2.184   5.000
 1739SOL    HW2 6117   4.840   2.313   5.039
 1740SOL     OW 6118   0.150   0.800   6.019
 1740SOL    HW1 6119   0.231   0.859   6.007
 1740SOL    HW2 6120   0.068   0.857   6.021
 1741SOL     OW 6121   1.284   0.637   2.872
 1741SOL    HW1 6122   1.289   0.545   2.832
 1741SOL    HW2 6123   1.365   0.654   2.928
 1742SOL     OW 6124   6.159   0.638   4.574
 1742SOL    HW1 6125   6.242   0.584   4.587
 1742SOL    HW2 6126   6.125   0.626   4.481
 1743SOL     OW 6127   3.523   1.178   1.257
 1743SOL    HW1 6128   3.453   1.249   1.266
 1743SOL    HW2 6129   3.538   1.159   1.160
 1744SOL     OW 6130   2.768   1.243   1.706
 1744SOL    HW1 6131   2.795   1.312   1.638
 1744SOL    HW2 6132   2.698   1.183   1.666
 1745SOL     OW 6133   6.403   2.043   3.073
 1745SOL    HW1 6134   6.477   2.017   3.136
 1745SOL    HW2 6135   6.370   1.961   3.026
 1746SOL     OW 6136   2.967   0.643   5.802
 1746SOL    HW1 6137   3.066   0.659   5.799
 1746SOL    HW2 6138   2.920   0.730   5.817
 1747SOL     OW 6139   3.219   0.545   1.927
 1747SOL    HW1 6140   3.200   0.576   1.834
 1747SOL    HW2 6141   3.209   0.622   1.990
 1748SOL     OW 6142   5.957   2.028   3.767
 1748SOL    HW1 6143   6.047   2.045   3.727
 1748SOL    HW2 6144   5.921   1.941   3.733
 1749SOL     OW 6145   4.358   6.750   6.758
 1749SOL    HW1 6146   4.390   6.843   6.741
 1749SOL    HW2 6147   4.435   6.693   6.787
 1750SOL     OW 6148   4.819   1.745   2.761
 1750SOL    HW1 6149   4.770   1.828   2.786
 1750SOL    HW2 6150   4.803   1.724   2.664
 1751SOL     OW 6151   1.470   5.167   4.602
 1751SOL    HW1 6152   1.462   5.109   4.682
 1751SOL    HW2 6153   1.499   5.113   4.523
 1752SOL     OW 6154   6.573   1.617   0.808
 1752SOL    HW1 6155   6.650   1.607   0.744
 1752SOL    HW2 6156   6.487   1.616   0.756
 1753SOL     OW 6157   0.634   7.008   1.266
 1753SOL    HW1 6158   0.553   0.034   1.303
 1753SOL    HW2 6159   0.693   0.057   1.223
 1754SOL     OW 6160   3.868   3.154   1.037
 1754SOL    HW1 6161   3.820   3.187   1.118
 1754SOL    HW2 6162   3.966   3.151   1.055
 1755SOL     OW 6163   5.018   4.477   1.353
 1755SOL    HW1 6164   5.069   4.563   1.354
 1755SOL    HW2 6165   5.020   4.436   1.444
 1756SOL     OW 6166   6.629   5.552   3.896
 1756SOL    HW1 6167   6.623   5.465   3.848
 1756SOL    HW2 6168   6.623   5.537   3.994
 1757SOL     OW 6169   3.229   6.616   4.458
 1757SOL    HW1 6170   3.156   6.575   4.403
 1757SOL    HW2 6171   3.318   6.584   4.425
 1758SOL     OW 6172   2.453   0.635   3.326
 1758SOL    HW1 6173   2.519   0.704   3.294
 1758SOL    HW2 6174   2.428   0.575   3.250
 1759SOL     OW 6175   0.692   5.304   5.906
 1759SOL    HW1 6176   0.741   5.298   5.819
 1759SOL    HW2 6177   0.682   5.213   5.945
 1760SOL     OW 6178   6.408   0.781   1.867
 1760SOL    HW1 6179   6.376   0.746   1.779
 1760SOL    HW2 6180   6.486   0.842   1.852
 1761SOL     OW 6181   5.964   0.905   1.070
 1761SOL    HW1 6182   5.895   0.891   1.141
 1761SOL    HW2 6183   6.048   0.857   1.095
 1762SOL     OW 6184   5.958   1.813   6.297
 1762SOL    HW1 6185   5.901   1.843   6.221
 1762SOL    HW2 6186   6.055   1.820   6.272
 1763SOL     OW 6187   1.689   3.499   4.125
 1763SOL    HW1 6188   1.675   3.553   4.042
 1763SOL    HW2 6189   1.669   3.554   4.206
 1764SOL     OW 6190   0.761   3.284   2.879
 1764SOL    HW1 6191   0.749   3.310   2.975
 1764SOL    HW2 6192   0.775   3.185   2.873
 1765SOL     OW 6193   2.215   2.503   6.842
 1765SOL    HW1 6194   2.134   2.515   6.899
 1765SOL    HW2 6195   2.253   2.412   6.856
 1766SOL     OW 6196   5.643   3.199   5.031
 1766SOL    HW1 6197   5.723   3.202   4.972
 1766SOL    HW2 6198   5.614   3.292   5.053
 1767SOL     OW 6199   5.467   3.825   2.241
 1767SOL    HW1 6200   5.504   3.911   2.277
 1767SOL    HW2 6201   5.384   3.844   2.188
 1768SOL     OW 6202   4.470   6.528   3.313
 1768SOL    HW1 6203   4.494   6.529   3.216
 1768SOL    HW2 6204   4.370   6.536   3.322
 1769SOL     OW 6205   3.745   1.869   2.790
 1769SOL    HW1 6206   3.728   1.956   2.743
 1769SOL    HW2 6207   3.834   1.873   2.835
 1770SOL     OW 6208   2.542   5.866   5.551
 1770SOL    HW1 6209   2.513   5.934   5.484
 1770SOL    HW2 6210   2.494   5.779   5.534
 1771SOL     OW 6211   3.378   6.199   0.088
 1771SOL    HW1 6212   3.331   6.214   0.002
 1771SOL    HW2 6213   3.395   6.101   0.101
 1772SOL     OW 6214   3.261   6.740   2.795
 1772SOL    HW1 6215   3.184   6.750   2.859
 1772SOL    HW2 6216   3.343   6.782   2.834
 1773SOL     OW 6217   1.830   5.385   6.541
 1773SOL    HW1 6218   1.881   5.355   6.621
 1773SOL    HW2 6219   1.894   5.413   6.469
 1774SOL     OW 6220   4.325   5.587   1.512
 1774SOL    HW1 6221   4.380   5.632   1.581
 1774SOL    HW2 6222   4.273   5.656   1.460
 1775SOL     OW 6223   1.131   3.891   2.279
 1775SOL    HW1 6224   1.227   3.865   2.280
 1775SOL    HW2 6225   1.120   3.981   2.236
 1776SOL     OW 6226   4.156   6.107   4.059
 1776SOL    HW1 6227   4.127   6.191   4.103
 1776SOL    HW2 6228   4.130   6.029   4.115
 1777SOL     OW 6229   4.298   5.966   0.220
 1777SOL    HW1 6230   4.257   5.876   0.233
 1777SOL    HW2 6231   4.255   6.031   0.283
 1778SOL     OW 6232   4.479   3.162   6.169
 1778SOL    HW1 6233   4.476   3.151   6.268
 1778SOL    HW2 6234   4.503   3.074   6.126
 1779SOL     OW 6235   3.575   1.128   5.239
 1779SOL    HW1 6236   3.570   1.117   5.140
 1779SOL    HW2 6237   3.484   1.150   5.275
 1780SOL     OW 6238   3.638   3.317   6.128
 1780SOL    HW1 6239   3.653   3.404   6.081
 1780SOL    HW2 6240   3.684   3.319   6.216
 1781SOL     OW 6241   4.123   5.813   3.130
 1781SOL    HW1 6242   4.152   5.755   3.206
 1781SOL    HW2 6243   4.195   5.816   3.061
 1782SOL     OW 6244   2.917   1.195   3.277
 1782SOL    HW1 6245   2.979   1.235   3.344
 1782SOL    HW2 6246   2.886   1.106   3.310
 1783SOL     OW 6247   2.583   5.205   6.390
 1783SOL    HW1 6248   2.509   5.166   6.335
 1783SOL    HW2 6249   2.662   5.144   6.388
 1784SOL     OW 6250   3.628   0.106   6.075
 1784SOL    HW1 6251   3.647   0.182   6.138
 1784SOL    HW2 6252   3.652   0.134   5.982
 1785SOL     OW 6253   6.128   3.659   2.585
 1785SOL    HW1 6254   6.073   3.719   2.644
 1785SOL    HW2 6255   6.067   3.599   2.533
 1786SOL     OW 6256   2.445   2.740   0.394
 1786SOL    HW1 6257   2.365   2.758   0.336
 1786SOL    HW2 6258   2.525   2.788   0.357
 1787SOL     OW 6259   3.461   1.292   5.516
 1787SOL    HW1 6260   3.425   1.200   5.529
 1787SOL    HW2 6261   3.407   1.358   5.568
 1788SOL     OW 6262   1.444   4.895   6.072
 1788SOL    HW1 6263   1.493   4.974   6.108
 1788SOL    HW2 6264   1.485   4.811   6.108
 1789SOL     OW 6265   5.634   2.235   0.756
 1789SOL    HW1 6266   5.583   2.274   0.679
 1789SOL    HW2 6267   5.592   2.266   0.841
 1790SOL     OW 6268   3.976   6.643   3.310
 1790SOL    HW1 6269   3.880   6.632   3.334
 1790SOL    HW2 6270   4.021   6.703   3.377
 1791SOL     OW 6271   6.883   6.977   2.524
 1791SOL    HW1 6272   6.904   6.934   2.437
 1791SOL    HW2 6273   6.963   0.009   2.557
 1792SOL     OW 6274   0.503   3.977   5.104
 1792SOL    HW1 6275   0.594   3.943   5.079
 1792SOL    HW2 6276   0.504   4.077   5.102
 1793SOL     OW 6277   6.598   0.715   3.492
 1793SOL    HW1 6278   6.601   0.804   3.446
 1793SOL    HW2 6279   6.687   0.696   3.533
 1794SOL     OW 6280   5.018   5.931   5.685
 1794SOL    HW1 6281   4.928   5.917   5.726
 1794SOL    HW2 6282   5.086   5.945   5.757
 1795SOL     OW 6283   0.143   2.561   0.784
 1795SOL    HW1 6284   0.159   2.659   0.771
 1795SOL    HW2 6285   0.079   2.528   0.714
 1796SOL     OW 6286   2.610   1.110   5.882
 1796SOL    HW1 6287   2.610   1.013   5.904
 1796SOL    HW2 6288   2.560   1.160   5.953
 1797SOL     OW 6289   0.961   6.945   0.598
 1797SOL    HW1 6290   0.946   6.987   0.509
 1797SOL    HW2 6291   0.918   7.000   0.669
 1798SOL     OW 6292   4.466   2.465   4.165
 1798SOL    HW1 6293   4.450   2.563   4.157
 1798SOL    HW2 6294   4.542   2.438   4.107
 1799SOL     OW 6295   0.109   2.544   4.839
 1799SOL    HW1 6296   0.092   2.599   4.921
 1799SOL    HW2 6297   0.179   2.587   4.783
 1800SOL     OW 6298   3.906   4.321   1.644
 1800SOL    HW1 6299   3.863   4.407   1.670
 1800SOL    HW2 6300   3.992   4.339   1.598
 1801SOL     OW 6301   0.009   0.788   2.008
 1801SOL    HW1 6302   0.109   0.795   2.005
 1801SOL    HW2 6303   6.992   0.786   1.915
 1802SOL     OW 6304   6.320   5.570   3.886
 1802SOL    HW1 6305   6.395   5.636   3.897
 1802SOL    HW2 6306   6.242   5.599   3.941
 1803SOL     OW 6307   0.371   4.982   6.896
 1803SOL    HW1 6308   0.467   4.999   6.922
 1803SOL    HW2 6309   0.311   5.012   6.970
 1804SOL     OW 6310   2.807   4.166   5.511
 1804SOL    HW1 6311   2.740   4.102   5.475
 1804SOL    HW2 6312   2.809   4.249   5.454
 1805SOL     OW 6313   5.153   3.740   6.507
 1805SOL    HW1 6314   5.103   3.776   6.428
 1805SOL    HW2 6315   5.101   3.761   6.591
 1806SOL     OW 6316   0.729   0.262   0.868
 1806SOL    HW1 6317   0.827   0.276   0.884
 1806SOL    HW2 6318   0.678   0.335   0.914
 1807SOL     OW 6319   6.219   1.835   4.636
 1807SOL    HW1 6320   6.226   1.869   4.542
 1807SOL    HW2 6321   6.136   1.780   4.644
 1808SOL     OW 6322   0.072   5.260   4.665
 1808SOL    HW1 6323   0.117   5.212   4.590
 1808SOL    HW2 6324   0.141   5.289   4.732
 1809SOL     OW 6325   2.916   1.787   5.814
 1809SOL    HW1 6326   2.941   1.759   5.722
 1809SOL    HW2 6327   2.818   1.772   5.829
 1810SOL     OW 6328   3.446   0.208   3.544
 1810SOL    HW1 6329   3.357   0.163   3.532
 1810SOL    HW2 6330   3.440   0.277   3.615
 1811SOL     OW 6331   5.882   5.886   3.324
 1811SOL    HW1 6332   5.936   5.878   3.408
 1811SOL    HW2 6333   5.788   5.860   3.343
 1812SOL     OW 6334   4.374   5.818   4.841
 1812SOL    HW1 6335   4.331   5.730   4.863
 1812SOL    HW2 6336   4.304   5.882   4.809
 1813SOL     OW 6337   5.855   4.201   0.372
 1813SOL    HW1 6338   5.778   4.146   0.404
 1813SOL    HW2 6339   5.878   4.270   0.440
 1814SOL     OW 6340   4.679   6.847   2.092
 1814SOL    HW1 6341   4.689   6.760   2.138
 1814SOL    HW2 6342   4.769   6.890   2.082
 1815SOL     OW 6343   0.195   1.764   2.969
 1815SOL    HW1 6344   0.289   1.752   2.935
 1815SOL    HW2 6345   0.177   1.696   3.040
 1816SOL     OW 6346   2.191   2.878   1.066
 1816SOL    HW1 6347   2.264   2.915   1.123
 1816SOL    HW2 6348   2.114   2.850   1.123
 1817SOL     OW 6349   1.970   6.600   2.560
 1817SOL    HW1 6350   1.994   6.532   2.490
 1817SOL    HW2 6351   2.010   6.574   2.648
 1818SOL     OW 6352   1.688   0.290   3.117
 1818SOL    HW1 6353   1.710   0.195   3.095
 1818SOL    HW2 6354   1.752   0.323   3.187
 1819SOL     OW 6355   1.075   4.094   1.485
 1819SOL    HW1 6356   1.016   4.123   1.560
 1819SOL    HW2 6357   1.099   4.173   1.428
 1820SOL     OW 6358   4.413   0.921   2.139
 1820SOL    HW1 6359   4.418   1.003   2.082
 1820SOL    HW2 6360   4.505   0.884   2.151
 1821SOL     OW 6361   1.724   1.252   2.489
 1821SOL    HW1 6362   1.759   1.180   2.429
 1821SOL    HW2 6363   1.644   1.219   2.539
 1822SOL     OW 6364   3.435   2.790   1.822
 1822SOL    HW1 6365   3.374   2.805   1.899
 1822SOL    HW2 6366   3.457   2.693   1.815
 1823SOL     OW 6367   3.930   6.654   2.610
 1823SOL    HW1 6368   3.910   6.726   2.543
 1823SOL    HW2 6369   4.026   6.626   2.601
 1824SOL     OW 6370   4.117   2.526   1.266
 1824SOL    HW1 6371   4.068   2.585   1.203
 1824SOL    HW2 6372   4.207   2.502   1.229
 1825SOL     OW 6373   1.148   0.693   1.318
 1825SOL    HW1 6374   1.060   0.695   1.366
 1825SOL    HW2 6375   1.173   0.786   1.291
 1826SOL     OW 6376   3.186   1.225   0.918
 1826SOL    HW1 6377   3.216   1.320   0.929
 1826SOL    HW2 6378   3.224   1.170   0.992
 1827SOL     OW 6379   0.060   5.522   1.699
 1827SOL    HW1 6380   0.160   5.530   1.688
 1827SOL    HW2 6381   0.019   5.612   1.686
 1828SOL     OW 6382   0.905   2.997   0.135
 1828SOL    HW1 6383   0.810   2.999   0.167
 1828SOL    HW2 6384   0.906   3.003   0.036
 1829SOL     OW 6385   4.965   5.989   3.023
 1829SOL    HW1 6386   4.889   6.043   3.060
 1829SOL    HW2 6387   5.042   6.050   3.002
 1830SOL     OW 6388   4.568   6.651   3.645
 1830SOL    HW1 6389   4.666   6.667   3.636
 1830SOL    HW2 6390   4.549   6.553   3.641
 1831SOL     OW 6391   5.823   6.206   2.402
 1831SOL    HW1 6392   5.908   6.257   2.416
 1831SOL    HW2 6393   5.746   6.258   2.439
 1832SOL     OW 6394   4.487   2.701   1.277
 1832SOL    HW1 6395   4.567   2.717   1.219
 1832SOL    HW2 6396   4.456   2.607   1.267
 1833SOL     OW 6397   5.249   0.659   4.848
 1833SOL    HW1 6398   5.169   0.609   4.880
 1833SOL    HW2 6399   5.240   0.676   4.750
 1834SOL     OW 6400   3.357   3.334   0.941
 1834SOL    HW1 6401   3.425   3.260   0.937
 1834SOL    HW2 6402   3.396   3.412   0.990
 1835SOL     OW 6403   1.833   5.033   1.102
 1835SOL    HW1 6404   1.783   4.990   1.027
 1835SOL    HW2 6405   1.771   5.094   1.152
 1836SOL     OW 6406   0.171   1.047   0.808
 1836SOL    HW1 6407   0.079   1.032   0.772
 1836SOL    HW2 6408   0.223   0.961   0.805
 1837SOL     OW 6409   0.843   2.300   4.241
 1837SOL    HW1 6410   0.830   2.345   4.330
 1837SOL    HW2 6411   0.920   2.236   4.247
 1838SOL     OW 6412   0.429   2.722   4.269
 1838SOL    HW1 6413   0.349   2.774   4.298
 1838SOL    HW2 6414   0.512   2.776   4.285
 1839SOL     OW 6415   6.334   3.213   4.498
 1839SOL    HW1 6416   6.335   3.123   4.455
 1839SOL    HW2 6417   6.398   3.273   4.451
 1840SOL     OW 6418   2.765   5.838   0.365
 1840SOL    HW1 6419   2.762   5.896   0.284
 1840SOL    HW2 6420   2.697   5.766   0.357
 1841SOL     OW 6421   2.108   3.232   3.915
 1841SOL    HW1 6422   2.132   3.287   3.835
 1841SOL    HW2 6423   2.010   3.212   3.912
 1842SOL     OW 6424   0.519   5.202   0.478
 1842SOL    HW1 6425   0.600   5.167   0.525
 1842SOL    HW2 6426   0.442   5.205   0.543
 1843SOL     OW 6427   2.367   1.451   5.852
 1843SOL    HW1 6428   2.275   1.457   5.813
 1843SOL    HW2 6429   2.434   1.466   5.780
 1844SOL     OW 6430   4.054   1.986   4.744
 1844SOL    HW1 6431   4.090   2.009   4.654
 1844SOL    HW2 6432   3.963   2.025   4.754
 1845SOL     OW 6433   3.960   0.257   6.652
 1845SOL    HW1 6434   3.867   0.239   6.620
 1845SOL    HW2 6435   3.970   0.354   6.673
 1846SOL     OW 6436   3.716   1.906   6.699
 1846SOL    HW1 6437   3.743   1.817   6.663
 1846SOL    HW2 6438   3.634   1.897   6.755
 1847SOL     OW 6439   0.842   7.017   0.877
 1847SOL    HW1 6440   0.769   0.059   0.908
 1847SOL    HW2 6441   0.912   7.010   0.948
 1848SOL     OW 6442   3.144   6.073   2.194
 1848SOL    HW1 6443   3.138   6.110   2.287
 1848SOL    HW2 6444   3.095   6.133   2.131
 1849SOL     OW 6445   3.674   1.352   0.303
 1849SOL    HW1 6446   3.708   1.262   0.329
 1849SOL    HW2 6447   3.588   1.370   0.350
 1850SOL     OW 6448   6.316   2.330   2.985
 1850SOL    HW1 6449   6.272   2.338   2.896
 1850SOL    HW2 6450   6.354   2.239   2.996
 1851SOL     OW 6451   0.391   1.445   2.485
 1851SOL    HW1 6452   0.317   1.468   2.421
 1851SOL    HW2 6453   0.431   1.357   2.459
 1852SOL     OW 6454   3.914   3.311   0.391
 1852SOL    HW1 6455   3.816   3.322   0.404
 1852SOL    HW2 6456   3.934   3.215   0.371
 1853SOL     OW 6457   0.668   4.181   1.265
 1853SOL    HW1 6458   0.594   4.193   1.199
 1853SOL    HW2 6459   0.703   4.087   1.259
 1854SOL     OW 6460   2.775   5.633   4.788
 1854SOL    HW1 6461   2.755   5.559   4.852
 1854SOL    HW2 6462   2.785   5.595   4.696
 1855SOL     OW 6463   4.900   5.430   0.573
 1855SOL    HW1 6464   4.938   5.522   0.581
 1855SOL    HW2 6465   4.802   5.436   0.558
 1856SOL     OW 6466   5.460   2.931   5.240
 1856SOL    HW1 6467   5.419   2.889   5.158
 1856SOL    HW2 6468   5.557   2.948   5.223
 1857SOL     OW 6469   3.854   0.914   4.679
 1857SOL    HW1 6470   3.953   0.904   4.692
 1857SOL    HW2 6471   3.836   0.951   4.588
 1858SOL     OW 6472   5.163   3.157   3.896
 1858SOL    HW1 6473   5.150   3.075   3.953
 1858SOL    HW2 6474   5.126   3.140   3.805
 1859SOL     OW 6475   4.475   2.043   3.710
 1859SOL    HW1 6476   4.427   2.131   3.704
 1859SOL    HW2 6477   4.414   1.970   3.682
 1860SOL     OW 6478   6.209   0.913   4.051
 1860SOL    HW1 6479   6.130   0.923   3.990
 1860SOL    HW2 6480   6.258   1.000   4.057
 1861SOL     OW 6481   5.001   6.481   2.929
 1861SOL    HW1 6482   5.098   6.505   2.926
 1861SOL    HW2 6483   4.965   6.498   3.020
 1862SOL     OW 6484   2.098   1.065   6.868
 1862SOL    HW1 6485   2.113   1.105   6.777
 1862SOL    HW2 6486   2.026   1.116   6.915
 1863SOL     OW 6487   2.927   2.736   1.304
 1863SOL    HW1 6488   2.845   2.773   1.261
 1863SOL    HW2 6489   2.977   2.810   1.349
 1864SOL     OW 6490   0.566   6.264   4.302
 1864SOL    HW1 6491   0.595   6.356   4.328
 1864SOL    HW2 6492   0.512   6.268   4.218
 1865SOL     OW 6493   3.836   1.657   5.406
 1865SOL    HW1 6494   3.751   1.607   5.420
 1865SOL    HW2 6495   3.833   1.704   5.318
 1866SOL     OW 6496   4.464   4.455   2.355
 1866SOL    HW1 6497   4.437   4.401   2.276
 1866SOL    HW2 6498   4.561   4.439   2.376
 1867SOL     OW 6499   0.287   4.344   6.732
 1867SOL    HW1 6500   0.296   4.322   6.829
 1867SOL    HW2 6501   0.339   4.427   6.712
 1868SOL     OW 6502   5.657   4.779   6.342
 1868SOL    HW1 6503   5.743   4.732   6.324
 1868SOL    HW2 6504   5.606   4.729   6.412
 1869SOL     OW 6505   6.349   1.173   5.074
 1869SOL    HW1 6506   6.418   1.177   5.146
 1869SOL    HW2 6507   6.390   1.137   4.990
 1870SOL     OW 6508   1.571   4.784   5.096
 1870SOL    HW1 6509   1.476   4.756   5.082
 1870SOL    HW2 6510   1.619   4.786   5.007
 1871SOL     OW 6511   2.233   0.352   0.606
 1871SOL    HW1 6512   2.319   0.360   0.556
 1871SOL    HW2 6513   2.157   0.344   0.541
 1872SOL     OW 6514   2.687   4.557   0.359
 1872SOL    HW1 6515   2.648   4.626   0.420
 1872SOL    HW2 6516   2.764   4.512   0.405
 1873SOL     OW 6517   3.838   1.533   5.837
 1873SOL    HW1 6518   3.773   1.458   5.852
 1873SOL    HW2 6519   3.931   1.498   5.846
 1874SOL     OW 6520   1.827   1.631   2.196
 1874SOL    HW1 6521   1.861   1.699   2.262
 1874SOL    HW2 6522   1.744   1.589   2.232
 1875SOL     OW 6523   0.366   6.823   6.160
 1875SOL    HW1 6524   0.336   6.821   6.255
 1875SOL    HW2 6525   0.439   6.890   6.149
 1876SOL     OW 6526   2.784   6.810   4.285
 1876SOL    HW1 6527   2.725   6.744   4.332
 1876SOL    HW2 6528   2.836   6.862   4.353
 1877SOL     OW 6529   1.131   0.624   4.085
 1877SOL    HW1 6530   1.061   0.638   4.155
 1877SOL    HW2 6531   1.209   0.576   4.124
 1878SOL     OW 6532   7.009   2.054   4.189
 1878SOL    HW1 6533   0.004   2.143   4.231
 1878SOL    HW2 6534   0.079   2.013   4.166
 1879SOL     OW 6535   1.233   3.557   4.862
 1879SOL    HW1 6536   1.146   3.506   4.861
 1879SOL    HW2 6537   1.282   3.538   4.777
 1880SOL     OW 6538   6.826   1.844   5.134
 1880SOL    HW1 6539   6.813   1.903   5.054
 1880SOL    HW2 6540   6.754   1.774   5.136
 1881SOL     OW 6541   6.634   1.795   0.418
 1881SOL    HW1 6542   6.581   1.879   0.420
 1881SOL    HW2 6543   6.699   1.794   0.495
 1882SOL     OW 6544   1.085   3.886   6.009
 1882SOL    HW1 6545   1.090   3.932   6.097
 1882SOL    HW2 6546   1.165   3.910   5.954
 1883SOL     OW 6547   6.669   2.294   2.343
 1883SOL    HW1 6548   6.765   2.303   2.315
 1883SOL    HW2 6549   6.616   2.254   2.268
 1884SOL     OW 6550   0.429   2.156   1.484
 1884SOL    HW1 6551   0.430   2.095   1.564
 1884SOL    HW2 6552   0.341   2.147   1.437
 1885SOL     OW 6553   1.910   1.642   5.631
 1885SOL    HW1 6554   1.942   1.641   5.537
 1885SOL    HW2 6555   1.845   1.567   5.645
 1886SOL     OW 6556   1.336   0.120   2.583
 1886SOL    HW1 6557   1.355   0.104   2.486
 1886SOL    HW2 6558   1.310   0.034   2.626
 1887SOL     OW 6559   1.501   5.970   5.840
 1887SOL    HW1 6560   1.436   5.917   5.786
 1887SOL    HW2 6561   1.522   5.922   5.925
 1888SOL     OW 6562   3.092   1.999   0.564
 1888SOL    HW1 6563   3.137   1.985   0.476
 1888SOL    HW2 6564   3.162   2.006   0.636
 1889SOL     OW 6565   1.227   3.479   3.561
 1889SOL    HW1 6566   1.320   3.472   3.596
 1889SOL    HW2 6567   1.184   3.389   3.560
 1890SOL     OW 6568   0.857   5.847   3.411
 1890SOL    HW1 6569   0.847   5.765   3.468
 1890SOL    HW2 6570   0.952   5.877   3.413
 1891SOL     OW 6571   3.839   3.239   2.138
 1891SOL    HW1 6572   3.930   3.280   2.149
 1891SOL    HW2 6573   3.794   3.235   2.226
 1892SOL     OW 6574   0.093   7.018   1.687
 1892SOL    HW1 6575   0.133   0.025   1.775
 1892SOL    HW2 6576   0.036   6.937   1.700
 1893SOL     OW 6577   3.687   3.246   3.070
 1893SOL    HW1 6578   3.592   3.261   3.044
 1893SOL    HW2 6579   3.706   3.292   3.157
 1894SOL     OW 6580   3.270   3.598   4.141
 1894SOL    HW1 6581   3.234   3.568   4.230
 1894SOL    HW2 6582   3.211   3.563   4.068
 1895SOL     OW 6583   4.542   0.422   0.584
 1895SOL    HW1 6584   4.567   0.423   0.681
 1895SOL    HW2 6585   4.461   0.478   0.569
 1896SOL     OW 6586   5.379   1.564   0.806
 1896SOL    HW1 6587   5.353   1.576   0.902
 1896SOL    HW2 6588   5.469   1.606   0.791
 1897SOL     OW 6589   2.287   4.604   3.127
 1897SOL    HW1 6590   2.342   4.520   3.131
 1897SOL    HW2 6591   2.229   4.609   3.208
 1898SOL     OW 6592   1.449   5.353   3.026
 1898SOL    HW1 6593   1.426   5.437   2.976
 1898SOL    HW2 6594   1.424   5.365   3.122
 1899SOL     OW 6595   0.062   0.183   1.488
 1899SOL    HW1 6596   6.992   0.223   1.511
 1899SOL    HW2 6597   0.084   0.112   1.555
 1900SOL     OW 6598   2.658   0.510   6.977
 1900SOL    HW1 6599   2.679   0.583   6.912
 1900SOL    HW2 6600   2.604   0.439   6.932
 1901SOL     OW 6601   2.818   3.689   1.107
 1901SOL    HW1 6602   2.891   3.636   1.063
 1901SOL    HW2 6603   2.750   3.715   1.039
 1902SOL     OW 6604   1.770   7.007   4.562
 1902SOL    HW1 6605   1.772   6.923   4.507
 1902SOL    HW2 6606   1.689   7.006   4.620
 1903SOL     OW 6607   0.725   2.582   3.841
 1903SOL    HW1 6608   0.700   2.523   3.918
 1903SOL    HW2 6609   0.810   2.548   3.800
 1904SOL     OW 6610   5.749   5.528   2.915
 1904SOL    HW1 6611   5.742   5.431   2.940
 1904SOL    HW2 6612   5.801   5.577   2.986
 1905SOL     OW 6613   0.824   0.953   3.964
 1905SOL    HW1 6614   0.818   0.868   4.017
 1905SOL    HW2 6615   0.758   0.949   3.889
 1906SOL     OW 6616   2.519   0.375   6.112
 1906SOL    HW1 6617   2.604   0.336   6.147
 1906SOL    HW2 6618   2.446   0.361   6.179
 1907SOL     OW 6619   5.259   3.170   0.034
 1907SOL    HW1 6620   5.302   3.124   6.976
 1907SOL    HW2 6621   5.260   3.109   0.114
 1908SOL     OW 6622   3.813   0.241   0.419
 1908SOL    HW1 6623   3.819   0.339   0.402
 1908SOL    HW2 6624   3.878   0.215   0.491
 1909SOL     OW 6625   6.995   4.037   4.894
 1909SOL    HW1 6626   6.998   4.037   4.994
 1909SOL    HW2 6627   6.900   4.043   4.864
 1910SOL     OW 6628   6.239   5.919   6.132
 1910SOL    HW1 6629   6.297   5.996   6.159
 1910SOL    HW2 6630   6.290   5.833   6.144
 1911SOL     OW 6631   6.886   5.188   4.182
 1911SOL    HW1 6632   6.885   5.184   4.082
 1911SOL    HW2 6633   6.960   5.129   4.217
 1912SOL     OW 6634   2.688   4.997   2.700
 1912SOL    HW1 6635   2.772   4.944   2.691
 1912SOL    HW2 6636   2.620   4.943   2.749
 1913SOL     OW 6637   2.398   4.733   5.175
 1913SOL    HW1 6638   2.416   4.752   5.078
 1913SOL    HW2 6639   2.365   4.815   5.219
 1914SOL     OW 6640   2.430   4.797   6.156
 1914SOL    HW1 6641   2.481   4.837   6.080
 1914SOL    HW2 6642   2.439   4.697   6.153
 1915SOL     OW 6643   4.947   2.453   6.406
 1915SOL    HW1 6644   4.896   2.427   6.324
 1915SOL    HW2 6645   4.956   2.553   6.409
 1916SOL     OW 6646   4.380   0.059   1.507
 1916SOL    HW1 6647   4.356   0.145   1.463
 1916SOL    HW2 6648   4.461   0.021   1.463
 1917SOL     OW 6649   2.437   4.268   1.169
 1917SOL    HW1 6650   2.453   4.179   1.126
 1917SOL    HW2 6651   2.522   4.304   1.205
 1918SOL     OW 6652   0.265   1.373   4.864
 1918SOL    HW1 6653   0.252   1.356   4.961
 1918SOL    HW2 6654   0.330   1.307   4.826
 1919SOL     OW 6655   1.287   2.407   1.282
 1919SOL    HW1 6656   1.217   2.336   1.283
 1919SOL    HW2 6657   1.336   2.406   1.369
 1920SOL     OW 6658   5.027   2.560   1.375
 1920SOL    HW1 6659   5.053   2.624   1.448
 1920SOL    HW2 6660   5.061   2.595   1.287
 1921SOL     OW 6661   1.321   2.858   6.861
 1921SOL    HW1 6662   1.230   2.824   6.838
 1921SOL    HW2 6663   1.329   2.953   6.830
 1922SOL     OW 6664   3.191   3.420   2.146
 1922SOL    HW1 6665   3.103   3.393   2.184
 1922SOL    HW2 6666   3.178   3.490   2.076
 1923SOL     OW 6667   4.731   0.579   5.514
 1923SOL    HW1 6668   4.811   0.546   5.464
 1923SOL    HW2 6669   4.749   0.673   5.545
 1924SOL     OW 6670   4.694   0.015   1.197
 1924SOL    HW1 6671   4.631   0.023   1.120
 1924SOL    HW2 6672   4.786   7.013   1.163
 1925SOL     OW 6673   1.191   4.132   0.635
 1925SOL    HW1 6674   1.095   4.112   0.617
 1925SOL    HW2 6675   1.240   4.143   0.548
 1926SOL     OW 6676   3.824   6.970   1.843
 1926SOL    HW1 6677   3.902   6.992   1.784
 1926SOL    HW2 6678   3.753   0.021   1.833
 1927SOL     OW 6679   1.927   4.952   1.562
 1927SOL    HW1 6680   2.023   4.964   1.540
 1927SOL    HW2 6681   1.917   4.878   1.629
 1928SOL     OW 6682   4.568   4.339   3.260
 1928SOL    HW1 6683   4.593   4.422   3.210
 1928SOL    HW2 6684   4.633   4.266   3.236
 1929SOL     OW 6685   3.160   0.891   2.806
 1929SOL    HW1 6686   3.152   0.824   2.732
 1929SOL    HW2 6687   3.144   0.982   2.770
 1930SOL     OW 6688   4.924   2.947   6.742
 1930SOL    HW1 6689   5.006   2.893   6.760
 1930SOL    HW2 6690   4.849   2.886   6.716
 1931SOL     OW 6691   0.832   1.188   5.528
 1931SOL    HW1 6692   0.925   1.177   5.493
 1931SOL    HW2 6693   0.766   1.158   5.458
 1932SOL     OW 6694   4.714   2.271   2.875
 1932SOL    HW1 6695   4.747   2.298   2.965
 1932SOL    HW2 6696   4.645   2.337   2.844
 1933SOL     OW 6697   0.794   1.564   0.775
 1933SOL    HW1 6698   0.886   1.532   0.751
 1933SOL    HW2 6699   0.777   1.545   0.871
 1934SOL     OW 6700   0.001   0.095   5.643
 1934SOL    HW1 6701   6.986   0.133   5.729
 1934SOL    HW2 6702   6.959   0.122   5.568
 1935SOL     OW 6703   6.354   4.926   3.996
 1935SOL    HW1 6704   6.275   4.880   3.956
 1935SOL    HW2 6705   6.325   5.013   4.037
 1936SOL     OW 6706   4.879   3.119   4.771
 1936SOL    HW1 6707   4.894   3.204   4.720
 1936SOL    HW2 6708   4.967   3.085   4.805
 1937SOL     OW 6709   5.169   4.845   6.864
 1937SOL    HW1 6710   5.209   4.836   6.774
 1937SOL    HW2 6711   5.239   4.832   6.934
 1938SOL     OW 6712   1.049   2.538   6.633
 1938SOL    HW1 6713   0.950   2.549   6.642
 1938SOL    HW2 6714   1.082   2.477   6.706
 1939SOL     OW 6715   1.453   6.540   5.044
 1939SOL    HW1 6716   1.542   6.561   5.085
 1939SOL    HW2 6717   1.386   6.524   5.117
 1940SOL     OW 6718   6.533   4.896   1.574
 1940SOL    HW1 6719   6.530   4.817   1.513
 1940SOL    HW2 6720   6.594   4.877   1.651
 1941SOL     OW 6721   0.962   3.154   4.133
 1941SOL    HW1 6722   1.022   3.103   4.194
 1941SOL    HW2 6723   0.868   3.147   4.165
 1942SOL     OW 6724   5.724   3.799   2.175
 1942SOL    HW1 6725   5.797   3.839   2.231
 1942SOL    HW2 6726   5.636   3.816   2.219
 1943SOL     OW 6727   1.011   1.239   2.246
 1943SOL    HW1 6728   1.028   1.166   2.180
 1943SOL    HW2 6729   0.969   1.317   2.199
 1944SOL     OW 6730   6.784   2.725   1.416
 1944SOL    HW1 6731   6.871   2.721   1.466
 1944SOL    HW2 6732   6.773   2.643   1.361
 1945SOL     OW 6733   4.653   0.112   1.654
 1945SOL    HW1 6734   4.644   0.020   1.618
 1945SOL    HW2 6735   4.567   0.162   1.639
 1946SOL     OW 6736   6.152   5.761   1.488
 1946SOL    HW1 6737   6.129   5.663   1.482
 1946SOL    HW2 6738   6.207   5.787   1.410
 1947SOL     OW 6739   5.790   4.526   3.419
 1947SOL    HW1 6740   5.803   4.601   3.483
 1947SOL    HW2 6741   5.777   4.441   3.469
 1948SOL     OW 6742   4.868   3.429   3.037
 1948SOL    HW1 6743   4.884   3.344   3.087
 1948SOL    HW2 6744   4.887   3.507   3.097
 1949SOL     OW 6745   3.569   5.137   6.640
 1949SOL    HW1 6746   3.546   5.048   6.679
 1949SOL    HW2 6747   3.492   5.172   6.588
 1950SOL     OW 6748   3.689   4.122   4.400
 1950SOL    HW1 6749   3.693   4.157   4.494
 1950SOL    HW2 6750   3.753   4.047   4.390
 1951SOL     OW 6751   6.692   4.342   5.458
 1951SOL    HW1 6752   6.681   4.276   5.384
 1951SOL    HW2 6753   6.736   4.425   5.423
 1952SOL     OW 6754   5.559   4.474   0.270
 1952SOL    HW1 6755   5.619   4.446   0.195
 1952SOL    HW2 6756   5.608   4.539   0.328
 1953SOL     OW 6757   0.735   1.590   6.467
 1953SOL    HW1 6758   0.781   1.551   6.386
 1953SOL    HW2 6759   0.718   1.517   6.533
 1954SOL     OW 6760   4.063   6.936   1.688
 1954SOL    HW1 6761   4.114   6.991   1.622
 1954SOL    HW2 6762   4.126   6.900   1.757
 1955SOL     OW 6763   0.922   1.438   2.048
 1955SOL    HW1 6764   0.885   1.529   2.070
 1955SOL    HW2 6765   1.013   1.447   2.008
 1956SOL     OW 6766   5.727   0.634   2.179
 1956SOL    HW1 6767   5.711   0.537   2.159
 1956SOL    HW2 6768   5.649   0.670   2.230
 1957SOL     OW 6769   5.618   2.388   4.191
 1957SOL    HW1 6770   5.612   2.335   4.276
 1957SOL    HW2 6771   5.556   2.349   4.123
 1958SOL     OW 6772   4.609   1.436   1.103
 1958SOL    HW1 6773   4.637   1.520   1.056
 1958SOL    HW2 6774   4.690   1.391   1.141
 1959SOL     OW 6775   0.397   0.105   4.473
 1959SOL    HW1 6776   0.321   0.099   4.538
 1959SOL    HW2 6777   0.394   0.026   4.412
 1960SOL     OW 6778   5.743   3.994   3.584
 1960SOL    HW1 6779   5.704   3.944   3.506
 1960SOL    HW2 6780   5.675   3.999   3.658
 1961SOL     OW 6781   6.607   3.815   4.763
 1961SOL    HW1 6782   6.533   3.807   4.696
 1961SOL    HW2 6783   6.692   3.838   4.715
 1962SOL     OW 6784   1.058   0.410   2.869
 1962SOL    HW1 6785   1.148   0.382   2.835
 1962SOL    HW2 6786   1.000   0.435   2.792
 1963SOL     OW 6787   0.439   1.922   2.362
 1963SOL    HW1 6788   0.478   1.838   2.324
 1963SOL    HW2 6789   0.348   1.903   2.399
 1964SOL     OW 6790   5.618   4.421   1.725
 1964SOL    HW1 6791   5.656   4.350   1.666
 1964SOL    HW2 6792   5.633   4.396   1.821
 1965SOL     OW 6793   0.473   4.608   3.884
 1965SOL    HW1 6794   0.486   4.510   3.873
 1965SOL    HW2 6795   0.421   4.644   3.806
 1966SOL     OW 6796   1.651   4.625   0.302
 1966SOL    HW1 6797   1.599   4.680   0.368
 1966SOL    HW2 6798   1.744   4.611   0.336
 1967SOL     OW 6799   5.437   2.942   3.430
 1967SOL    HW1 6800   5.432   2.974   3.525
 1967SOL    HW2 6801   5.429   3.021   3.368
 1968SOL     OW 6802   2.323   1.468   5.112
 1968SOL    HW1 6803   2.265   1.504   5.186
 1968SOL    HW2 6804   2.271   1.400   5.060
 1969SOL     OW 6805   3.050   6.824   0.823
 1969SOL    HW1 6806   3.124   6.775   0.778
 1969SOL    HW2 6807   3.040   6.791   0.917
 1970SOL     OW 6808   6.109   5.444   4.933
 1970SOL    HW1 6809   6.041   5.506   4.973
 1970SOL    HW2 6810   6.178   5.498   4.884
 1971SOL     OW 6811   1.002   6.596   5.668
 1971SOL    HW1 6812   1.053   6.573   5.585
 1971SOL    HW2 6813   1.048   6.556   5.747
 1972SOL     OW 6814   5.954   2.447   2.478
 1972SOL    HW1 6815   5.899   2.487   2.552
 1972SOL    HW2 6816   6.024   2.387   2.516
 1973SOL     OW 6817   1.789   4.329   0.280
 1973SOL    HW1 6818   1.710   4.350   0.337
 1973SOL    HW2 6819   1.783   4.380   0.194
 1974SOL     OW 6820   3.491   6.195   4.802
 1974SOL    HW1 6821   3.496   6.096   4.792
 1974SOL    HW2 6822   3.490   6.238   4.712
 1975SOL     OW 6823   1.456   2.628   3.134
 1975SOL    HW1 6824   1.359   2.623   3.113
 1975SOL    HW2 6825   1.509   2.592   3.057
 1976SOL     OW 6826   0.039   0.153   6.312
 1976SOL    HW1 6827   6.999   0.192   6.383
 1976SOL    HW2 6828   0.113   0.101   6.355
 1977SOL     OW 6829   1.723   4.410   5.787
 1977SOL    HW1 6830   1.811   4.393   5.742
 1977SOL    HW2 6831   1.710   4.344   5.861
 1978SOL     OW 6832   2.552   6.990   2.091
 1978SOL    HW1 6833   2.537   0.024   2.175
 1978SOL    HW2 6834   2.647   6.999   2.063
 1979SOL     OW 6835   6.815   5.004   6.650
 1979SOL    HW1 6836   6.835   4.958   6.737
 1979SOL    HW2 6837   6.890   4.990   6.586
 1980SOL     OW 6838   3.092   1.516   1.263
 1980SOL    HW1 6839   3.058   1.427   1.232
 1980SOL    HW2 6840   3.072   1.527   1.360
 1981SOL     OW 6841   4.398   2.450   3.037
 1981SOL    HW1 6842   4.354   2.384   3.098
 1981SOL    HW2 6843   4.463   2.506   3.089
 1982SOL     OW 6844   6.910   2.603   4.656
 1982SOL    HW1 6845   6.813   2.588   4.675
 1982SOL    HW2 6846   6.965   2.569   4.733
 1983SOL     OW 6847   0.172   0.250   1.242
 1983SOL    HW1 6848   0.213   0.170   1.199
 1983SOL    HW2 6849   0.137   0.225   1.333
 1984SOL     OW 6850   5.562   3.289   5.346
 1984SOL    HW1 6851   5.526   3.358   5.282
 1984SOL    HW2 6852   5.547   3.198   5.308
 1985SOL     OW 6853   6.441   4.034   2.027
 1985SOL    HW1 6854   6.353   4.026   2.074
 1985SOL    HW2 6855   6.490   4.113   2.063
 1986SOL     OW 6856   3.348   2.074   1.351
 1986SOL    HW1 6857   3.374   1.983   1.317
 1986SOL    HW2 6858   3.341   2.071   1.450
 1987SOL     OW 6859   2.363   0.414   2.724
 1987SOL    HW1 6860   2.333   0.460   2.640
 1987SOL    HW2 6861   2.282   0.385   2.776
 1988SOL     OW 6862   6.890   1.696   0.894
 1988SOL    HW1 6863   6.901   1.603   0.860
 1988SOL    HW2 6864   6.882   1.695   0.994
 1989SOL     OW 6865   3.246   4.868   4.928
 1989SOL    HW1 6866   3.152   4.846   4.904
 1989SOL    HW2 6867   3.263   4.844   5.024
 1990SOL     OW 6868   4.085   0.272   0.545
 1990SOL    HW1 6869   4.116   0.189   0.498
 1990SOL    HW2 6870   4.121   0.352   0.498
 1991SOL     OW 6871   2.885   5.521   0.653
 1991SOL    HW1 6872   2.974   5.489   0.622
 1991SOL    HW2 6873   2.818   5.509   0.579
 1992SOL     OW 6874   0.652   5.642   1.267
 1992SOL    HW1 6875   0.744   5.633   1.228
 1992SOL    HW2 6876   0.584   5.641   1.194
 1993SOL     OW 6877   2.147   3.344   4.218
 1993SOL    HW1 6878   2.141   3.431   4.169
 1993SOL    HW2 6879   2.218   3.287   4.177
 1994SOL     OW 6880   3.132   3.424   0.587
 1994SOL    HW1 6881   3.170   3.397   0.499
 1994SOL    HW2 6882   3.085   3.346   0.629
 1995SOL     OW 6883   5.485   2.465   4.780
 1995SOL    HW1 6884   5.542   2.383   4.778
 1995SOL    HW2 6885   5.392   2.441   4.753
 1996SOL     OW 6886   3.772   1.827   0.681
 1996SOL    HW1 6887   3.768   1.809   0.583
 1996SOL    HW2 6888   3.866   1.847   0.708
 1997SOL     OW 6889   3.982   0.832   3.622
 1997SOL    HW1 6890   3.942   0.741   3.626
 1997SOL    HW2 6891   4.079   0.827   3.646
 1998SOL     OW 6892   1.896   3.405   1.243
 1998SOL    HW1 6893   1.866   3.451   1.159
 1998SOL    HW2 6894   1.824   3.410   1.312
 1999SOL     OW 6895   1.590   6.438   5.528
 1999SOL    HW1 6896   1.611   6.401   5.438
 1999SOL    HW2 6897   1.539   6.370   5.581
 2000SOL     OW 6898   3.486   4.418   5.674
 2000SOL    HW1 6899   3.390   4.444   5.686
 2000SOL    HW2 6900   3.510   4.350   5.743
 2001SOL     OW 6901   2.534   1.661   6.690
 2001SOL    HW1 6902   2.622   1.614   6.685
 2001SOL    HW2 6903   2.514   1.704   6.602
 2002SOL     OW 6904   0.167   4.579   1.039
 2002SOL    HW1 6905   0.157   4.544   1.133
 2002SOL    HW2 6906   0.123   4.668   1.032
 2003SOL     OW 6907   6.761   5.346   2.147
 2003SOL    HW1 6908   6.806   5.429   2.179
 2003SOL    HW2 6909   6.715   5.365   2.060
 2004SOL     OW 6910   3.546   0.022   3.200
 2004SOL    HW1 6911   3.626   0.037   3.141
 2004SOL    HW2 6912   3.544   6.946   3.230
 2005SOL     OW 6913   1.629   6.262   1.326
 2005SOL    HW1 6914   1.572   6.295   1.251
 2005SOL    HW2 6915   1.587   6.181   1.366
 2006SOL     OW 6916   5.526   0.060   2.531
 2006SOL    HW1 6917   5.441   0.007   2.534
 2006SOL    HW2 6918   5.586   0.029   2.605
 2007SOL     OW 6919   5.732   4.686   0.201
 2007SOL    HW1 6920   5.672   4.633   0.140
 2007SOL    HW2 6921   5.744   4.778   0.163
 2008SOL     OW 6922   2.149   3.578   3.493
 2008SOL    HW1 6923   2.056   3.542   3.499
 2008SOL    HW2 6924   2.161   3.626   3.406
 2009SOL     OW 6925   6.054   6.748   2.040
 2009SOL    HW1 6926   6.089   6.659   2.011
 2009SOL    HW2 6927   6.048   6.751   2.139
 2010SOL     OW 6928   1.433   1.784   1.508
 2010SOL    HW1 6929   1.391   1.743   1.589
 2010SOL    HW2 6930   1.369   1.778   1.431
 2011SOL     OW 6931   0.593   6.496   5.780
 2011SOL    HW1 6932   0.575   6.469   5.686
 2011SOL    HW2 6933   0.656   6.574   5.780
 2012SOL     OW 6934   1.315   3.118   2.076
 2012SOL    HW1 6935   1.263   3.033   2.079
 2012SOL    HW2 6936   1.302   3.168   2.162
 2013SOL     OW 6937   0.172   3.419   2.944
 2013SOL    HW1 6938   0.136   3.477   2.871
 2013SOL    HW2 6939   0.095   3.377   2.994
 2014SOL     OW 6940   3.461   0.664   4.252
 2014SOL    HW1 6941   3.522   0.740   4.229
 2014SOL    HW2 6942   3.411   0.635   4.170
 2015SOL     OW 6943   4.519   0.719   1.596
 2015SOL    HW1 6944   4.490   0.624   1.607
 2015SOL    HW2 6945   4.601   0.722   1.539
 2016SOL     OW 6946   1.772   0.417   5.594
 2016SOL    HW1 6947   1.814   0.401   5.684
 2016SOL    HW2 6948   1.832   0.476   5.540
 2017SOL     OW 6949   3.704   6.354   2.682
 2017SOL    HW1 6950   3.772   6.403   2.628
 2017SOL    HW2 6951   3.617   6.403   2.679
 2018SOL     OW 6952   1.289   1.214   3.513
 2018SOL    HW1 6953   1.364   1.151   3.534
 2018SOL    HW2 6954   1.211   1.194   3.572
 2019SOL     OW 6955   5.995   4.944   6.499
 2019SOL    HW1 6956   6.027   4.937   6.594
 2019SOL    HW2 6957   5.902   4.982   6.498
 2020SOL     OW 6958   2.276   6.069   6.426
 2020SOL    HW1 6959   2.226   6.079   6.340
 2020SOL    HW2 6960   2.233   6.127   6.496
 2021SOL     OW 6961   6.822   6.025   3.991
 2021SOL    HW1 6962   6.908   6.056   3.952
 2021SOL    HW2 6963   6.802   5.933   3.959
 2022SOL     OW 6964   2.179   3.716   5.074
 2022SOL    HW1 6965   2.227   3.803   5.061
 2022SOL    HW2 6966   2.081   3.730   5.060
 2023SOL     OW 6967   0.228   6.952   0.027
 2023SOL    HW1 6968   0.326   6.974   0.024
 2023SOL    HW2 6969   0.181   7.015   0.089
 2024SOL     OW 6970   0.984   5.771   4.490
 2024SOL    HW1 6971   1.040   5.824   4.427
 2024SOL    HW2 6972   0.913   5.721   4.439
 2025SOL     OW 6973   1.770   0.304   4.628
 2025SOL    HW1 6974   1.756   0.205   4.631
 2025SOL    HW2 6975   1.833   0.331   4.701
 2026SOL     OW 6976   6.210   0.605   5.776
 2026SOL    HW1 6977   6.249   0.514   5.762
 2026SOL    HW2 6978   6.282   0.669   5.802
 2027SOL     OW 6979   0.333   6.171   2.576
 2027SOL    HW1 6980   0.299   6.089   2.623
 2027SOL    HW2 6981   0.294   6.252   2.619
 2028SOL     OW 6982   3.640   5.000   4.153
 2028SOL    HW1 6983   3.631   5.064   4.229
 2028SOL    HW2 6984   3.713   4.935   4.172
 2029SOL     OW 6985   5.594   2.813   6.640
 2029SOL    HW1 6986   5.500   2.796   6.611
 2029SOL    HW2 6987   5.656   2.755   6.588
 2030SOL     OW 6988   2.904   6.411   2.752
 2030SOL    HW1 6989   2.936   6.321   2.782
 2030SOL    HW2 6990   2.983   6.468   2.729
 2031SOL     OW 6991   6.972   5.799   3.748
 2031SOL    HW1 6992   0.031   5.806   3.810
 2031SOL    HW2 6993   6.958   5.703   3.722
 2032SOL     OW 6994   2.880   2.326   5.522
 2032SOL    HW1 6995   2.951   2.397   5.520
 2032SOL    HW2 6996   2.796   2.362   5.482
 2033SOL     OW 6997   1.899   2.142   0.421
 2033SOL    HW1 6998   1.836   2.204   0.373
 2033SOL    HW2 6999   1.931   2.072   0.357
 2034SOL     OW 7000   6.831   4.584   5.355
 2034SOL    HW1 7001   6.821   4.644   5.276
 2034SOL    HW2 7002   6.846   4.639   5.437
 2035SOL     OW 7003   5.824   0.336   2.718
 2035SOL    HW1 7004   5.896   0.267   2.713
 2035SOL    HW2 7005   5.864   0.425   2.739
 2036SOL     OW 7006   1.016   4.273   1.697
 2036SOL    HW1 7007   1.011   4.218   1.780
 2036SOL    HW2 7008   1.111   4.298   1.679
 2037SOL     OW 7009   6.909   3.260   6.698
 2037SOL    HW1 7010   6.863   3.345   6.725
 2037SOL    HW2 7011   6.967   3.278   6.619
 2038SOL     OW 7012   1.949   1.522   6.820
 2038SOL    HW1 7013   1.919   1.519   6.725
 2038SOL    HW2 7014   2.043   1.554   6.825
 2039SOL     OW 7015   6.538   5.920   2.493
 2039SOL    HW1 7016   6.526   6.014   2.527
 2039SOL    HW2 7017   6.562   5.860   2.569
 2040SOL     OW 7018   1.848   2.854   0.087
 2040SOL    HW1 7019   1.763   2.875   0.040
 2040SOL    HW2 7020   1.838   2.876   0.184
 2041SOL     OW 7021   2.019   0.365   6.261
 2041SOL    HW1 7022   1.989   0.400   6.350
 2041SOL    HW2 7023   2.005   0.435   6.191
 2042SOL     OW 7024   5.407   1.274   5.206
 2042SOL    HW1 7025   5.488   1.272   5.264
 2042SOL    HW2 7026   5.426   1.327   5.123
 2043SOL     OW 7027   6.797   3.977   1.157
 2043SOL    HW1 7028   6.714   4.000   1.107
 2043SOL    HW2 7029   6.863   3.935   1.094
 2044SOL     OW 7030   4.347   0.593   0.504
 2044SOL    HW1 7031   4.267   0.638   0.544
 2044SOL    HW2 7032   4.344   0.604   0.404
 2045SOL     OW 7033   1.979   6.493   6.604
 2045SOL    HW1 7034   2.028   6.476   6.689
 2045SOL    HW2 7035   1.882   6.469   6.615
 2046SOL     OW 7036   0.866   2.147   5.173
 2046SOL    HW1 7037   0.924   2.089   5.116
 2046SOL    HW2 7038   0.909   2.236   5.184
 2047SOL     OW 7039   0.242   0.437   0.291
 2047SOL    HW1 7040   0.194   0.516   0.254
 2047SOL    HW2 7041   0.209   0.419   0.384
 2048SOL     OW 7042   0.737   1.988   4.454
 2048SOL    HW1 7043   0.802   1.917   4.478
 2048SOL    HW2 7044   0.747   2.066   4.516
 2049SOL     OW 7045   5.258   1.980   4.914
 2049SOL    HW1 7046   5.250   2.020   4.823
 2049SOL    HW2 7047   5.337   1.918   4.915
 2050SOL     OW 7048   0.763   1.235   3.934
 2050SOL    HW1 7049   0.814   1.151   3.915
 2050SOL    HW2 7050   0.668   1.212   3.957
 2051SOL     OW 7051   3.216   5.981   0.537
 2051SOL    HW1 7052   3.244   5.886   0.544
 2051SOL    HW2 7053   3.146   5.990   0.466
 2052SOL     OW 7054   1.578   4.205   6.522
 2052SOL    HW1 7055   1.667   4.169   6.551
 2052SOL    HW2 7056   1.506   4.169   6.581
 2053SOL     OW 7057   1.268   5.128   3.972
 2053SOL    HW1 7058   1.200   5.072   4.019
 2053SOL    HW2 7059   1.264   5.109   3.874
 2054SOL     OW 7060   3.668   3.265   3.812
 2054SOL    HW1 7061   3.763   3.232   3.813
 2054SOL    HW2 7062   3.655   3.333   3.884
 2055SOL     OW 7063   2.906   2.053   5.893
 2055SOL    HW1 7064   2.896   1.958   5.865
 2055SOL    HW2 7065   2.965   2.058   5.974
 2056SOL     OW 7066   3.929   4.642   1.438
 2056SOL    HW1 7067   4.002   4.576   1.419
 2056SOL    HW2 7068   3.956   4.732   1.404
 2057SOL     OW 7069   6.121   2.426   4.144
 2057SOL    HW1 7070   6.025   2.440   4.119
 2057SOL    HW2 7071   6.127   2.355   4.214
 2058SOL     OW 7072   0.366   5.607   2.932
 2058SOL    HW1 7073   0.311   5.689   2.918
 2058SOL    HW2 7074   0.435   5.600   2.860
 2059SOL     OW 7075   1.882   0.397   6.505
 2059SOL    HW1 7076   1.815   0.472   6.508
 2059SOL    HW2 7077   1.876   0.344   6.590
 2060SOL     OW 7078   1.177   3.136   6.687
 2060SOL    HW1 7079   1.113   3.184   6.626
 2060SOL    HW2 7080   1.142   3.138   6.780
 2061SOL     OW 7081   1.980   2.371   2.310
 2061SOL    HW1 7082   1.937   2.461   2.303
 2061SOL    HW2 7083   1.956   2.316   2.230
 2062SOL     OW 7084   6.929   5.088   4.802
 2062SOL    HW1 7085   6.950   5.168   4.747
 2062SOL    HW2 7086   6.945   5.108   4.899
 2063SOL     OW 7087   0.778   0.816   4.652
 2063SOL    HW1 7088   0.723   0.838   4.733
 2063SOL    HW2 7089   0.793   0.898   4.598
 2064SOL     OW 7090   0.875   3.090   3.374
 2064SOL    HW1 7091   0.780   3.110   3.348
 2064SOL    HW2 7092   0.880   3.000   3.417
 2065SOL     OW 7093   4.241   2.962   5.731
 2065SOL    HW1 7094   4.322   2.932   5.681
 2065SOL    HW2 7095   4.159   2.931   5.683
 2066SOL     OW 7096   6.264   3.429   5.031
 2066SOL    HW1 7097   6.346   3.437   5.087
 2066SOL    HW2 7098   6.242   3.332   5.016
 2067SOL     OW 7099   6.170   5.508   1.116
 2067SOL    HW1 7100   6.220   5.517   1.202
 2067SOL    HW2 7101   6.220   5.553   1.043
 2068SOL     OW 7102   3.890   0.657   4.782
 2068SOL    HW1 7103   3.820   0.608   4.834
 2068SOL    HW2 7104   3.857   0.750   4.762
 2069SOL     OW 7105   0.025   2.581   4.028
 2069SOL    HW1 7106   0.007   2.641   3.951
 2069SOL    HW2 7107   0.112   2.533   4.013
 2070SOL     OW 7108   0.837   4.414   0.697
 2070SOL    HW1 7109   0.877   4.379   0.782
 2070SOL    HW2 7110   0.910   4.445   0.636
 2071SOL     OW 7111   6.888   1.531   5.774
 2071SOL    HW1 7112   6.839   1.533   5.862
 2071SOL    HW2 7113   6.827   1.495   5.703
 2072SOL     OW 7114   4.296   4.411   5.591
 2072SOL    HW1 7115   4.201   4.380   5.587
 2072SOL    HW2 7116   4.357   4.332   5.580
 2073SOL     OW 7117   3.174   5.814   6.620
 2073SOL    HW1 7118   3.111   5.890   6.600
 2073SOL    HW2 7119   3.166   5.788   6.716
 2074SOL     OW 7120   0.984   4.140   5.565
 2074SOL    HW1 7121   0.993   4.059   5.623
 2074SOL    HW2 7122   0.891   4.146   5.530
 2075SOL     OW 7123   6.686   1.497   1.770
 2075SOL    HW1 7124   6.751   1.556   1.817
 2075SOL    HW2 7125   6.630   1.449   1.838
 2076SOL     OW 7126   5.927   6.935   4.788
 2076SOL    HW1 7127   5.864   6.883   4.845
 2076SOL    HW2 7128   5.909   0.014   4.799
 2077SOL     OW 7129   6.687   4.364   0.490
 2077SOL    HW1 7130   6.651   4.306   0.417
 2077SOL    HW2 7131   6.615   4.379   0.558
 2078SOL     OW 7132   0.800   2.981   5.948
 2078SOL    HW1 7133   0.763   2.889   5.935
 2078SOL    HW2 7134   0.790   3.007   6.044
 2079SOL     OW 7135   4.955   2.161   2.607
 2079SOL    HW1 7136   4.970   2.092   2.536
 2079SOL    HW2 7137   4.870   2.142   2.656
 2080SOL     OW 7138   2.470   3.128   5.799
 2080SOL    HW1 7139   2.551   3.101   5.852
 2080SOL    HW2 7140   2.447   3.055   5.735
 2081SOL     OW 7141   5.835   6.430   2.983
 2081SOL    HW1 7142   5.770   6.505   2.972
 2081SOL    HW2 7143   5.848   6.384   2.895
 2082SOL     OW 7144   6.630   5.959   3.389
 2082SOL    HW1 7145   6.612   5.928   3.483
 2082SOL    HW2 7146   6.573   6.038   3.368
 2083SOL     OW 7147   0.577   6.168   4.002
 2083SOL    HW1 7148   0.637   6.129   4.072
 2083SOL    HW2 7149   0.492   6.200   4.044
 2084SOL     OW 7150   6.575   1.741   1.919
 2084SOL    HW1 7151   6.506   1.689   1.867
 2084SOL    HW2 7152   6.540   1.833   1.937
 2085SOL     OW 7153   4.974   5.291   1.077
 2085SOL    HW1 7154   5.035   5.365   1.049
 2085SOL    HW2 7155   4.900   5.327   1.133
 2086SOL     OW 7156   4.604   0.394   6.699
 2086SOL    HW1 7157   4.686   0.357   6.742
 2086SOL    HW2 7158   4.593   0.490   6.724
 2087SOL     OW 7159   3.928   2.320   6.583
 2087SOL    HW1 7160   3.991   2.356   6.514
 2087SOL    HW2 7161   3.892   2.231   6.553
 2088SOL     OW 7162   1.078   5.666   6.033
 2088SOL    HW1 7163   1.096   5.674   6.131
 2088SOL    HW2 7164   1.164   5.644   5.985
 2089SOL     OW 7165   2.869   3.625   0.008
 2089SOL    HW1 7166   2.831   3.710   6.991
 2089SOL    HW2 7167   2.834   3.548   6.974
 2090SOL     OW 7168   4.648   3.047   5.467
 2090SOL    HW1 7169   4.580   3.117   5.448
 2090SOL    HW2 7170   4.740   3.087   5.459
 2091SOL     OW 7171   5.418   5.943   1.961
 2091SOL    HW1 7172   5.329   5.897   1.968
 2091SOL    HW2 7173   5.469   5.905   1.883
 2092SOL     OW 7174   4.590   3.436   1.721
 2092SOL    HW1 7175   4.586   3.444   1.621
 2092SOL    HW2 7176   4.593   3.340   1.746
 2093SOL     OW 7177   3.470   1.088   2.674
 2093SOL    HW1 7178   3.429   1.179   2.667
 2093SOL    HW2 7179   3.535   1.087   2.750
 2094SOL     OW 7180   5.273   2.037   6.379
 2094SOL    HW1 7181   5.270   1.944   6.342
 2094SOL    HW2 7182   5.345   2.043   6.448
 2095SOL     OW 7183   4.983   0.184   3.149
 2095SOL    HW1 7184   4.945   0.260   3.201
 2095SOL    HW2 7185   5.016   0.218   3.061
 2096SOL     OW 7186   4.916   6.869   2.365
 2096SOL    HW1 7187   4.844   6.938   2.368
 2096SOL    HW2 7188   4.926   6.836   2.271
 2097SOL     OW 7189   0.616   5.445   6.222
 2097SOL    HW1 7190   0.697   5.409   6.174
 2097SOL    HW2 7191   0.551   5.371   6.237
 2098SOL     OW 7192   3.108   6.177   3.308
 2098SOL    HW1 7193   3.169   6.139   3.239
 2098SOL    HW2 7194   3.066   6.103   3.360
 2099SOL     OW 7195   4.857   0.779   6.448
 2099SOL    HW1 7196   4.767   0.747   6.419
 2099SOL    HW2 7197   4.899   0.710   6.507
 2100SOL     OW 7198   5.505   0.158   1.355
 2100SOL    HW1 7199   5.596   0.132   1.387
 2100SOL    HW2 7200   5.449   0.076   1.343
 2101SOL     OW 7201   0.090   6.510   1.987
 2101SOL    HW1 7202   0.176   6.462   2.000
 2101SOL    HW2 7203   0.050   6.486   1.899
 2102SOL     OW 7204   3.735   2.741   0.801
 2102SOL    HW1 7205   3.721   2.694   0.888
 2102SOL    HW2 7206   3.720   2.839   0.813
 2103SOL     OW 7207   2.569   5.662   0.315
 2103SOL    HW1 7208   2.571   5.579   0.259
 2103SOL    HW2 7209   2.535   5.739   0.260
 2104SOL     OW 7210   1.480   4.505   3.222
 2104SOL    HW1 7211   1.455   4.424   3.168
 2104SOL    HW2 7212   1.568   4.488   3.268
 2105SOL     OW 7213   6.541   4.376   5.719
 2105SOL    HW1 7214   6.593   4.431   5.653
 2105SOL    HW2 7215   6.516   4.289   5.677
 2106SOL     OW 7216   4.580   3.542   1.451
 2106SOL    HW1 7217   4.496   3.495   1.423
 2106SOL    HW2 7218   4.559   3.605   1.526
 2107SOL     OW 7219   4.932   4.500   5.621
 2107SOL    HW1 7220   5.003   4.488   5.691
 2107SOL    HW2 7221   4.927   4.596   5.596
 2108SOL     OW 7222   5.710   0.175   5.656
 2108SOL    HW1 7223   5.742   0.259   5.611
 2108SOL    HW2 7224   5.616   0.157   5.629
 2109SOL     OW 7225   2.804   6.686   3.252
 2109SOL    HW1 7226   2.882   6.638   3.291
 2109SOL    HW2 7227   2.795   6.664   3.155
 2110SOL     OW 7228   4.134   0.289   0.007
 2110SOL    HW1 7229   4.217   0.234   0.016
 2110SOL    HW2 7230   4.068   0.263   0.077
 2111SOL     OW 7231   1.060   2.343   5.638
 2111SOL    HW1 7232   1.058   2.428   5.585
 2111SOL    HW2 7233   1.146   2.295   5.619
 2112SOL     OW 7234   0.737   0.798   6.493
 2112SOL    HW1 7235   0.655   0.741   6.489
 2112SOL    HW2 7236   0.802   0.758   6.557
 2113SOL     OW 7237   0.892   0.719   4.917
 2113SOL    HW1 7238   0.834   0.800   4.908
 2113SOL    HW2 7239   0.862   0.649   4.852
 2114SOL     OW 7240   1.421   1.668   5.800
 2114SOL    HW1 7241   1.353   1.597   5.780
 2114SOL    HW2 7242   1.486   1.634   5.868
 2115SOL     OW 7243   6.937   5.798   2.950
 2115SOL    HW1 7244   6.864   5.738   2.917
 2115SOL    HW2 7245   6.902   5.891   2.960
 2116SOL     OW 7246   1.029   1.986   0.231
 2116SOL    HW1 7247   1.103   2.003   0.296
 2116SOL    HW2 7248   0.952   2.046   0.251
 2117SOL     OW 7249   5.824   1.559   2.646
 2117SOL    HW1 7250   5.773   1.577   2.730
 2117SOL    HW2 7251   5.801   1.468   2.611
 2118SOL     OW 7252   6.073   2.508   2.230
 2118SOL    HW1 7253   6.169   2.482   2.229
 2118SOL    HW2 7254   6.030   2.474   2.313
 2119SOL     OW 7255   2.512   1.609   6.963
 2119SOL    HW1 7256   2.514   1.632   6.866
 2119SOL    HW2 7257   2.483   1.514   6.974
 2120SOL     OW 7258   5.363   1.030   0.720
 2120SOL    HW1 7259   5.329   0.948   0.766
 2120SOL    HW2 7260   5.302   1.107   0.739
 2121SOL     OW 7261   1.228   0.670   0.028
 2121SOL    HW1 7262   1.149   0.727   0.051
 2121SOL    HW2 7263   1.198   0.575   0.015
 2122SOL     OW 7264   6.158   0.955   4.319
 2122SOL    HW1 7265   6.184   0.918   4.229
 2122SOL    HW2 7266   6.143   1.053   4.312
 2123SOL     OW 7267   1.641   5.804   3.003
 2123SOL    HW1 7268   1.720   5.753   2.968
 2123SOL    HW2 7269   1.638   5.894   2.960
 2124SOL     OW 7270   4.044   3.682   5.922
 2124SOL    HW1 7271   3.962   3.632   5.950
 2124SOL    HW2 7272   4.035   3.709   5.826
 2125SOL     OW 7273   1.720   5.596   4.067
 2125SOL    HW1 7274   1.641   5.622   4.123
 2125SOL    HW2 7275   1.798   5.577   4.127
 2126SOL     OW 7276   3.272   4.847   0.053
 2126SOL    HW1 7277   3.356   4.820   0.006
 2126SOL    HW2 7278   3.270   4.808   0.145
 2127SOL     OW 7279   0.427   2.430   3.914
 2127SOL    HW1 7280   0.520   2.399   3.931
 2127SOL    HW2 7281   0.364   2.383   3.976
 2128SOL     OW 7282   5.272   2.722   1.589
 2128SOL    HW1 7283   5.339   2.728   1.663
 2128SOL    HW2 7284   5.181   2.737   1.626
 2129SOL     OW 7285   4.952   4.835   3.948
 2129SOL    HW1 7286   4.946   4.847   3.849
 2129SOL    HW2 7287   4.948   4.738   3.970
 2130SOL     OW 7288   2.570   0.450   2.908
 2130SOL    HW1 7289   2.514   0.457   2.826
 2130SOL    HW2 7290   2.625   0.366   2.904
 2131SOL     OW 7291   5.468   1.352   4.941
 2131SOL    HW1 7292   5.395   1.284   4.933
 2131SOL    HW2 7293   5.555   1.309   4.917
 2132SOL     OW 7294   2.582   2.770   0.092
 2132SOL    HW1 7295   2.611   2.836   0.162
 2132SOL    HW2 7296   2.604   2.677   0.122
 2133SOL     OW 7297   3.002   2.127   1.906
 2133SOL    HW1 7298   2.980   2.217   1.943
 2133SOL    HW2 7299   3.101   2.115   1.903
 2134SOL     OW 7300   1.657   6.684   4.725
 2134SOL    HW1 7301   1.585   6.661   4.660
 2134SOL    HW2 7302   1.735   6.623   4.712
 2135SOL     OW 7303   1.410   1.301   4.121
 2135SOL    HW1 7304   1.384   1.343   4.034
 2135SOL    HW2 7305   1.451   1.212   4.104
 2136SOL     OW 7306   0.645   4.181   3.453
 2136SOL    HW1 7307   0.745   4.178   3.463
 2136SOL    HW2 7308   0.617   4.114   3.384
 2137SOL     OW 7309   0.967   0.522   5.361
 2137SOL    HW1 7310   0.919   0.436   5.340
 2137SOL    HW2 7311   0.929   0.595   5.305
 2138SOL     OW 7312   1.057   2.718   0.004
 2138SOL    HW1 7313   1.075   2.727   6.925
 2138SOL    HW2 7314   1.140   2.689   0.051
 2139SOL     OW 7315   2.743   1.235   5.416
 2139SOL    HW1 7316   2.662   1.267   5.367
 2139SOL    HW2 7317   2.721   1.225   5.513
 2140SOL     OW 7318   2.189   5.630   3.323
 2140SOL    HW1 7319   2.243   5.631   3.407
 2140SOL    HW2 7320   2.180   5.724   3.289
 2141SOL     OW 7321   5.706   2.126   0.340
 2141SOL    HW1 7322   5.784   2.157   0.286
 2141SOL    HW2 7323   5.719   2.149   0.436
 2142SOL     OW 7324   2.458   1.968   3.124
 2142SOL    HW1 7325   2.544   1.973   3.175
 2142SOL    HW2 7326   2.457   2.040   3.054
 2143SOL     OW 7327   3.476   6.938   0.215
 2143SOL    HW1 7328   3.505   6.907   0.125
 2143SOL    HW2 7329   3.377   6.950   0.216
 2144SOL     OW 7330   6.860   1.023   3.192
 2144SOL    HW1 7331   6.807   1.052   3.112
 2144SOL    HW2 7332   6.883   0.926   3.184
 2145SOL     OW 7333   3.887   5.549   3.202
 2145SOL    HW1 7334   3.885   5.647   3.221
 2145SOL    HW2 7335   3.904   5.534   3.104
 2146SOL     OW 7336   3.603   3.075   1.979
 2146SOL    HW1 7337   3.574   2.991   1.934
 2146SOL    HW2 7338   3.663   3.127   1.917
 2147SOL     OW 7339   1.073   1.130   5.445
 2147SOL    HW1 7340   1.158   1.109   5.494
 2147SOL    HW2 7341   1.030   1.045   5.415
 2148SOL     OW 7342   5.093   2.879   3.173
 2148SOL    HW1 7343   5.191   2.868   3.186
 2148SOL    HW2 7344   5.076   2.948   3.103
 2149SOL     OW 7345   3.441   0.781   3.095
 2149SOL    HW1 7346   3.500   0.851   3.135
 2149SOL    HW2 7347   3.465   0.692   3.132
 2150SOL     OW 7348   3.660   2.076   2.547
 2150SOL    HW1 7349   3.684   2.086   2.451
 2150SOL    HW2 7350   3.561   2.084   2.558
 2151SOL     OW 7351   3.788   2.810   6.004
 2151SOL    HW1 7352   3.750   2.902   5.989
 2151SOL    HW2 7353   3.746   2.770   6.085
 2152SOL     OW 7354   6.714   5.781   1.502
 2152SOL    HW1 7355   6.766   5.702   1.470
 2152SOL    HW2 7356   6.682   5.763   1.596
 2153SOL     OW 7357   5.192   2.525   3.437
 2153SOL    HW1 7358   5.160   2.618   3.458
 2153SOL    HW2 7359   5.218   2.479   3.522
 2154SOL     OW 7360   4.273   6.486   5.025
 2154SOL    HW1 7361   4.218   6.455   5.103
 2154SOL    HW2 7362   4.267   6.586   5.017
 2155SOL     OW 7363   7.009   3.981   0.240
 2155SOL    HW1 7364   6.924   3.973   0.292
 2155SOL    HW2 7365   0.038   3.894   0.241
 2156SOL     OW 7366   1.466   0.868   1.542
 2156SOL    HW1 7367   1.510   0.957   1.548
 2156SOL    HW2 7368   1.457   0.842   1.446
 2157SOL     OW 7369   0.869   1.451   4.975
 2157SOL    HW1 7370   0.844   1.446   4.879
 2157SOL    HW2 7371   0.968   1.464   4.984
 2158SOL     OW 7372   4.090   5.918   1.994
 2158SOL    HW1 7373   4.084   5.819   1.987
 2158SOL    HW2 7374   4.146   5.953   1.919
 2159SOL     OW 7375   2.050   6.140   4.647
 2159SOL    HW1 7376   2.130   6.117   4.592
 2159SOL    HW2 7377   2.060   6.102   4.739
 2160SOL     OW 7378   3.218   3.892   0.972
 2160SOL    HW1 7379   3.136   3.921   1.020
 2160SOL    HW2 7380   3.199   3.884   0.874
 2161SOL     OW 7381   5.587   2.412   3.559
 2161SOL    HW1 7382   5.539   2.335   3.517
 2161SOL    HW2 7383   5.528   2.492   3.560
 2162SOL     OW 7384   0.810   1.149   0.015
 2162SOL    HW1 7385   0.823   1.217   0.087
 2162SOL    HW2 7386   0.899   1.116   7.002
 2163SOL     OW 7387   1.812   2.654   0.757
 2163SOL    HW1 7388   1.873   2.708   0.814
 2163SOL    HW2 7389   1.863   2.618   0.679
 2164SOL     OW 7390   1.174   0.349   1.229
 2164SOL    HW1 7391   1.249   0.404   1.268
 2164SOL    HW2 7392   1.189   0.338   1.130
 2165SOL     OW 7393   2.931   6.478   1.692
 2165SOL    HW1 7394   2.975   6.411   1.632
 2165SOL    HW2 7395   2.870   6.430   1.756
 2166SOL     OW 7396   6.860   1.965   6.463
 2166SOL    HW1 7397   6.803   2.014   6.528
 2166SOL    HW2 7398   6.934   2.025   6.431
 2167SOL     OW 7399   2.619   0.458   2.190
 2167SOL    HW1 7400   2.656   0.481   2.279
 2167SOL    HW2 7401   2.519   0.456   2.194
 2168SOL     OW 7402   5.973   5.283   4.485
 2168SOL    HW1 7403   5.997   5.276   4.582
 2168SOL    HW2 7404   6.039   5.343   4.439
 2169SOL     OW 7405   4.663   2.156   5.414
 2169SOL    HW1 7406   4.675   2.162   5.513
 2169SOL    HW2 7407   4.649   2.060   5.388
 2170SOL     OW 7408   4.808   5.030   4.068
 2170SOL    HW1 7409   4.847   4.944   4.035
 2170SOL    HW2 7410   4.869   5.070   4.136
 2171SOL     OW 7411   0.049   2.478   0.081
 2171SOL    HW1 7412   0.127   2.416   0.092
 2171SOL    HW2 7413   7.014   2.479   0.165
 2172SOL     OW 7414   2.746   1.056   0.852
 2172SOL    HW1 7415   2.725   1.153   0.864
 2172SOL    HW2 7416   2.727   1.007   0.937
 2173SOL     OW 7417   5.797   1.495   5.203
 2173SOL    HW1 7418   5.875   1.501   5.141
 2173SOL    HW2 7419   5.789   1.401   5.236
 2174SOL     OW 7420   0.911   6.021   4.784
 2174SOL    HW1 7421   0.847   5.963   4.734
 2174SOL    HW2 7422   0.877   6.116   4.783
 2175SOL     OW 7423   2.597   6.411   5.315
 2175SOL    HW1 7424   2.637   6.456   5.395
 2175SOL    HW2 7425   2.588   6.313   5.332
 2176SOL     OW 7426   1.305   2.093   2.596
 2176SOL    HW1 7427   1.227   2.141   2.557
 2176SOL    HW2 7428   1.390   2.136   2.566
 2177SOL     OW 7429   6.824   1.635   1.570
 2177SOL    HW1 7430   6.754   1.574   1.607
 2177SOL    HW2 7431   6.912   1.587   1.570
 2178SOL     OW 7432   0.756   5.277   0.083
 2178SOL    HW1 7433   0.687   5.211   0.052
 2178SOL    HW2 7434   0.846   5.235   0.077
 2179SOL     OW 7435   1.123   4.753   3.735
 2179SOL    HW1 7436   1.165   4.786   3.650
 2179SOL    HW2 7437   1.125   4.827   3.803
 2180SOL     OW 7438   3.667   2.936   2.453
 2180SOL    HW1 7439   3.732   2.911   2.381
 2180SOL    HW2 7440   3.628   2.852   2.492
 2181SOL     OW 7441   4.985   5.583   6.299
 2181SOL    HW1 7442   4.919   5.551   6.231
 2181SOL    HW2 7443   4.936   5.614   6.381
 2182SOL     OW 7444   6.525   2.649   6.872
 2182SOL    HW1 7445   6.560   2.622   6.783
 2182SOL    HW2 7446   6.514   2.749   6.874
 2183SOL     OW 7447   2.944   3.226   0.645
 2183SOL    HW1 7448   3.003   3.145   0.644
 2183SOL    HW2 7449   2.896   3.231   0.733
 2184SOL     OW 7450   3.746   2.978   6.265
 2184SOL    HW1 7451   3.748   2.878   6.259
 2184SOL    HW2 7452   3.815   3.016   6.204
 2185SOL     OW 7453   2.060   1.398   1.073
 2185SOL    HW1 7454   1.982   1.455   1.048
 2185SOL    HW2 7455   2.040   1.303   1.048
 2186SOL     OW 7456   0.712   5.633   2.939
 2186SOL    HW1 7457   0.672   5.541   2.941
 2186SOL    HW2 7458   0.689   5.678   2.852
 2187SOL     OW 7459   0.007   1.215   6.865
 2187SOL    HW1 7460   0.034   1.270   6.944
 2187SOL    HW2 7461   0.078   1.147   6.846
 2188SOL     OW 7462   5.546   0.578   2.843
 2188SOL    HW1 7463   5.561   0.500   2.783
 2188SOL    HW2 7464   5.581   0.557   2.934
 2189SOL     OW 7465   2.333   0.555   6.499
 2189SOL    HW1 7466   2.262   0.521   6.560
 2189SOL    HW2 7467   2.310   0.648   6.469
 2190SOL     OW 7468   4.840   1.848   1.604
 2190SOL    HW1 7469   4.841   1.867   1.702
 2190SOL    HW2 7470   4.785   1.767   1.586
 2191SOL     OW 7471   2.949   2.253   0.338
 2191SOL    HW1 7472   3.026   2.209   0.292
 2191SOL    HW2 7473   2.930   2.204   0.424
 2192SOL     OW 7474   4.498   6.263   4.965
 2192SOL    HW1 7475   4.496   6.182   4.907
 2192SOL    HW2 7476   4.477   6.344   4.910
 2193SOL     OW 7477   0.545   4.559   6.117
 2193SOL    HW1 7478   0.558   4.547   6.018
 2193SOL    HW2 7479   0.548   4.657   6.139
 2194SOL     OW 7480   2.689   0.267   1.273
 2194SOL    HW1 7481   2.729   0.230   1.357
 2194SOL    HW2 7482   2.689   0.196   1.202
 2195SOL     OW 7483   1.522   4.318   2.576
 2195SOL    HW1 7484   1.474   4.345   2.660
 2195SOL    HW2 7485   1.455   4.301   2.503
 2196SOL     OW 7486   3.715   2.884   6.544
 2196SOL    HW1 7487   3.624   2.908   6.577
 2196SOL    HW2 7488   3.738   2.939   6.464
 2197SOL     OW 7489   4.370   4.805   0.243
 2197SOL    HW1 7490   4.308   4.869   0.290
 2197SOL    HW2 7491   4.416   4.852   0.168
 2198SOL     OW 7492   6.025   4.604   0.641
 2198SOL    HW1 7493   6.015   4.601   0.741
 2198SOL    HW2 7494   5.953   4.662   0.602
 2199SOL     OW 7495   4.277   0.535   1.567
 2199SOL    HW1 7496   4.303   0.449   1.521
 2199SOL    HW2 7497   4.185   0.562   1.539
 2200SOL     OW 7498   3.012   0.568   4.675
 2200SOL    HW1 7499   3.023   0.475   4.639
 2200SOL    HW2 7500   2.950   0.619   4.616
 2201SOL     OW 7501   4.827   4.003   2.158
 2201SOL    HW1 7502   4.856   4.058   2.080
 2201SOL    HW2 7503   4.821   3.907   2.131
 2202SOL     OW 7504   4.380   6.053   3.494
 2202SOL    HW1 7505   4.382   6.136   3.438
 2202SOL    HW2 7506   4.344   5.977   3.440
 2203SOL     OW 7507   3.314   1.631   3.088
 2203SOL    HW1 7508   3.334   1.634   2.989
 2203SOL    HW2 7509   3.216   1.619   3.102
 2204SOL     OW 7510   2.912   3.002   1.018
 2204SOL    HW1 7511   2.996   2.979   1.068
 2204SOL    HW2 7512   2.856   2.919   1.008
 2205SOL     OW 7513   2.508   0.314   6.899
 2205SOL    HW1 7514   2.436   0.318   6.969
 2205SOL    HW2 7515   2.532   0.219   6.882
 2206SOL     OW 7516   2.203   3.099   6.596
 2206SOL    HW1 7517   2.279   3.090   6.531
 2206SOL    HW2 7518   2.117   3.079   6.551
 2207SOL     OW 7519   1.110   4.414   5.146
 2207SOL    HW1 7520   1.057   4.448   5.068
 2207SOL    HW2 7521   1.048   4.380   5.216
 2208SOL     OW 7522   0.227   4.082   1.693
 2208SOL    HW1 7523   0.259   4.128   1.610
 2208SOL    HW2 7524   0.280   4.115   1.771
 2209SOL     OW 7525   1.190   5.478   0.971
 2209SOL    HW1 7526   1.190   5.578   0.971
 2209SOL    HW2 7527   1.193   5.445   0.877
 2210SOL     OW 7528   0.701   5.878   4.209
 2210SOL    HW1 7529   0.639   5.826   4.151
 2210SOL    HW2 7530   0.767   5.817   4.253
 2211SOL     OW 7531   6.386   1.239   5.983
 2211SOL    HW1 7532   6.324   1.220   6.059
 2211SOL    HW2 7533   6.434   1.155   5.958
 2212SOL     OW 7534   1.640   0.195   6.433
 2212SOL    HW1 7535   1.703   0.174   6.358
 2212SOL    HW2 7536   1.665   0.140   6.513
 2213SOL     OW 7537   3.295   1.126   3.485
 2213SOL    HW1 7538   3.294   1.045   3.426
 2213SOL    HW2 7539   3.333   1.203   3.434
 2214SOL     OW 7540   4.315   0.417   4.839
 2214SOL    HW1 7541   4.397   0.360   4.846
 2214SOL    HW2 7542   4.247   0.385   4.906
 2215SOL     OW 7543   5.729   2.983   5.198
 2215SOL    HW1 7544   5.802   3.007   5.262
 2215SOL    HW2 7545   5.706   3.062   5.142
 2216SOL     OW 7546   2.277   0.371   1.834
 2216SOL    HW1 7547   2.260   0.301   1.903
 2216SOL    HW2 7548   2.205   0.441   1.840
 2217SOL     OW 7549   4.422   0.682   1.262
 2217SOL    HW1 7550   4.403   0.665   1.359
 2217SOL    HW2 7551   4.338   0.705   1.215
 2218SOL     OW 7552   0.923   5.914   1.315
 2218SOL    HW1 7553   0.919   6.005   1.356
 2218SOL    HW2 7554   0.851   5.906   1.246
 2219SOL     OW 7555   0.817   2.846   2.552
 2219SOL    HW1 7556   0.820   2.829   2.651
 2219SOL    HW2 7557   0.911   2.849   2.517
 2220SOL     OW 7558   0.500   6.941   0.590
 2220SOL    HW1 7559   0.501   6.945   0.690
 2220SOL    HW2 7560   0.554   6.863   0.559
 2221SOL     OW 7561   0.160   1.953   0.366
 2221SOL    HW1 7562   0.129   1.858   0.358
 2221SOL    HW2 7563   0.131   1.991   0.454
 2222SOL     OW 7564   5.823   6.278   2.731
 2222SOL    HW1 7565   5.887   6.249   2.660
 2222SOL    HW2 7566   5.750   6.211   2.741
 2223SOL     OW 7567   5.673   5.222   1.991
 2223SOL    HW1 7568   5.661   5.248   1.896
 2223SOL    HW2 7569   5.584   5.219   2.037
 2224SOL     OW 7570   1.148   4.980   1.704
 2224SOL    HW1 7571   1.229   4.980   1.645
 2224SOL    HW2 7572   1.071   5.021   1.655
 2225SOL     OW 7573   6.832   4.880   1.338
 2225SOL    HW1 7574   6.770   4.888   1.260
 2225SOL    HW2 7575   6.817   4.793   1.385
 2226SOL     OW 7576   4.071   3.694   1.524
 2226SOL    HW1 7577   3.973   3.674   1.516
 2226SOL    HW2 7578   4.084   3.793   1.522
 2227SOL     OW 7579   1.124   3.238   3.731
 2227SOL    HW1 7580   1.185   3.311   3.760
 2227SOL    HW2 7581   1.112   3.172   3.805
 2228SOL     OW 7582   2.401   4.977   5.599
 2228SOL    HW1 7583   2.351   4.984   5.685
 2228SOL    HW2 7584   2.485   4.923   5.613
 2229SOL     OW 7585   4.888   1.006   2.942
 2229SOL    HW1 7586   4.791   0.991   2.920
 2229SOL    HW2 7587   4.940   0.924   2.919
 2230SOL     OW 7588   1.717   5.704   0.286
 2230SOL    HW1 7589   1.735   5.686   0.189
 2230SOL    HW2 7590   1.618   5.709   0.300
 2231SOL     OW 7591   3.048   6.346   1.101
 2231SOL    HW1 7592   3.144   6.331   1.080
 2231SOL    HW2 7593   3.011   6.267   1.150
 2232SOL     OW 7594   6.450   3.003   2.968
 2232SOL    HW1 7595   6.404   3.035   2.886
 2232SOL    HW2 7596   6.444   2.904   2.974
 2233SOL     OW 7597   3.702   1.777   0.365
 2233SOL    HW1 7598   3.609   1.756   0.396
 2233SOL    HW2 7599   3.754   1.693   0.355
 2234SOL     OW 7600   2.918   2.367   0.708
 2234SOL    HW1 7601   2.934   2.455   0.663
 2234SOL    HW2 7602   2.888   2.300   0.640
 2235SOL     OW 7603   1.514   0.822   1.275
 2235SOL    HW1 7604   1.598   0.769   1.282
 2235SOL    HW2 7605   1.534   0.919   1.292
 2236SOL     OW 7606   6.627   4.025   6.845
 2236SOL    HW1 7607   6.630   4.119   6.811
 2236SOL    HW2 7608   6.536   4.005   6.881
 2237SOL     OW 7609   6.701   2.423   4.421
 2237SOL    HW1 7610   6.788   2.378   4.438
 2237SOL    HW2 7611   6.713   2.492   4.349
 2238SOL     OW 7612   0.804   6.002   1.875
 2238SOL    HW1 7613   0.882   5.939   1.883
 2238SOL    HW2 7614   0.719   5.949   1.876
 2239SOL     OW 7615   4.972   5.302   3.090
 2239SOL    HW1 7616   5.017   5.367   3.029
 2239SOL    HW2 7617   5.004   5.210   3.069
 2240SOL     OW 7618   5.555   4.053   2.331
 2240SOL    HW1 7619   5.536   4.109   2.412
 2240SOL    HW2 7620   5.654   4.049   2.315
 2241SOL     OW 7621   0.702   0.348   2.422
 2241SOL    HW1 7622   0.625   0.286   2.440
 2241SOL    HW2 7623   0.673   0.442   2.441
 2242SOL     OW 7624   4.874   2.954   2.791
 2242SOL    HW1 7625   4.839   2.861   2.796
 2242SOL    HW2 7626   4.840   2.999   2.709
 2243SOL     OW 7627   2.978   5.980   5.455
 2243SOL    HW1 7628   2.906   6.031   5.409
 2243SOL    HW2 7629   3.065   6.026   5.443
 2244SOL     OW 7630   2.475   0.994   4.997
 2244SOL    HW1 7631   2.518   1.081   5.019
 2244SOL    HW2 7632   2.407   1.007   4.924
 2245SOL     OW 7633   0.525   1.930   1.943
 2245SOL    HW1 7634   0.444   1.977   1.980
 2245SOL    HW2 7635   0.602   1.994   1.940
 2246SOL     OW 7636   1.036   3.754   4.329
 2246SOL    HW1 7637   1.073   3.691   4.397
 2246SOL    HW2 7638   1.111   3.808   4.291
 2247SOL     OW 7639   1.796   1.753   6.040
 2247SOL    HW1 7640   1.720   1.781   5.982
 2247SOL    HW2 7641   1.864   1.826   6.046
 2248SOL     OW 7642   5.175   4.475   5.291
 2248SOL    HW1 7643   5.223   4.438   5.370
 2248SOL    HW2 7644   5.082   4.438   5.289
 2249SOL     OW 7645   4.730   5.708   4.519
 2249SOL    HW1 7646   4.698   5.737   4.610
 2249SOL    HW2 7647   4.751   5.789   4.464
 2250SOL     OW 7648   5.813   5.499   0.148
 2250SOL    HW1 7649   5.830   5.427   0.081
 2250SOL    HW2 7650   5.742   5.561   0.113
 2251SOL     OW 7651   0.004   0.931   0.206
 2251SOL    HW1 7652   6.984   0.844   0.239
 2251SOL    HW2 7653   6.987   0.951   0.115
 2252SOL     OW 7654   3.098   1.197   5.619
 2252SOL    HW1 7655   3.159   1.271   5.645
 2252SOL    HW2 7656   3.014   1.235   5.580
 2253SOL     OW 7657   1.685   2.754   5.846
 2253SOL    HW1 7658   1.749   2.789   5.915
 2253SOL    HW2 7659   1.708   2.793   5.757
 2254SOL     OW 7660   1.704   3.733   6.073
 2254SOL    HW1 7661   1.658   3.770   5.992
 2254SOL    HW2 7662   1.798   3.769   6.077
 2255SOL     OW 7663   5.981   1.941   1.319
 2255SOL    HW1 7664   5.955   2.018   1.261
 2255SOL    HW2 7665   5.902   1.880   1.329
 2256SOL     OW 7666   3.899   5.216   2.250
 2256SOL    HW1 7667   3.835   5.159   2.199
 2256SOL    HW2 7668   3.992   5.199   2.218
 2257SOL     OW 7669   1.891   3.501   3.577
 2257SOL    HW1 7670   1.826   3.429   3.598
 2257SOL    HW2 7671   1.872   3.581   3.634
 2258SOL     OW 7672   2.105   5.704   4.949
 2258SOL    HW1 7673   2.018   5.654   4.952
 2258SOL    HW2 7674   2.156   5.678   4.867
 2259SOL     OW 7675   5.788   3.332   6.470
 2259SOL    HW1 7676   5.818   3.264   6.536
 2259SOL    HW2 7677   5.707   3.299   6.422
 2260SOL     OW 7678   4.988   4.701   0.761
 2260SOL    HW1 7679   4.994   4.732   0.856
 2260SOL    HW2 7680   4.894   4.676   0.740
 2261SOL     OW 7681   4.155   6.802   6.059
 2261SOL    HW1 7682   4.078   6.866   6.066
 2261SOL    HW2 7683   4.241   6.854   6.063
 2262SOL     OW 7684   3.946   1.588   2.972
 2262SOL    HW1 7685   4.040   1.621   2.970
 2262SOL    HW2 7686   3.884   1.663   2.947
 2263SOL     OW 7687   6.842   4.367   6.691
 2263SOL    HW1 7688   6.927   4.343   6.737
 2263SOL    HW2 7689   6.778   4.408   6.756
 2264SOL     OW 7690   3.991   3.270   3.817
 2264SOL    HW1 7691   3.981   3.185   3.764
 2264SOL    HW2 7692   4.006   3.247   3.913
 2265SOL     OW 7693   6.800   0.355   2.254
 2265SOL    HW1 7694   6.801   0.446   2.296
 2265SOL    HW2 7695   6.706   0.332   2.229
 2266SOL     OW 7696   6.083   0.302   0.694
 2266SOL    HW1 7697   6.079   0.397   0.726
 2266SOL    HW2 7698   6.155   0.294   0.624
 2267SOL     OW 7699   5.503   1.599   5.731
 2267SOL    HW1 7700   5.540   1.676   5.784
 2267SOL    HW2 7701   5.531   1.608   5.636
 2268SOL     OW 7702   6.565   5.253   0.744
 2268SOL    HW1 7703   6.473   5.270   0.709
 2268SOL    HW2 7704   6.563   5.176   0.809
 2269SOL     OW 7705   6.919   5.543   5.017
 2269SOL    HW1 7706   6.923   5.512   4.922
 2269SOL    HW2 7707   6.836   5.598   5.030
 2270SOL     OW 7708   4.200   3.168   1.832
 2270SOL    HW1 7709   4.280   3.137   1.781
 2270SOL    HW2 7710   4.168   3.255   1.794
 2271SOL     OW 7711   6.272   4.314   2.986
 2271SOL    HW1 7712   6.279   4.259   3.069
 2271SOL    HW2 7713   6.362   4.350   2.961
 2272SOL     OW 7714   4.500   1.748   6.109
 2272SOL    HW1 7715   4.480   1.846   6.099
 2272SOL    HW2 7716   4.476   1.701   6.025
 2273SOL     OW 7717   0.909   1.612   3.589
 2273SOL    HW1 7718   0.846   1.623   3.665
 2273SOL    HW2 7719   0.987   1.675   3.601
 2274SOL     OW 7720   1.096   3.251   3.073
 2274SOL    HW1 7721   1.178   3.194   3.086
 2274SOL    HW2 7722   1.092   3.282   2.978
 2275SOL     OW 7723   4.937   6.971   3.452
 2275SOL    HW1 7724   4.936   6.929   3.543
 2275SOL    HW2 7725   4.871   0.026   3.449
 2276SOL     OW 7726   3.987   5.180   1.943
 2276SOL    HW1 7727   4.057   5.116   1.972
 2276SOL    HW2 7728   4.027   5.271   1.932
 2277SOL     OW 7729   3.066   3.677   0.582
 2277SOL    HW1 7730   3.097   3.582   0.586
 2277SOL    HW2 7731   3.074   3.711   0.488
 2278SOL     OW 7732   5.521   6.899   0.993
 2278SOL    HW1 7733   5.620   6.889   0.993
 2278SOL    HW2 7734   5.494   6.964   0.922
 2279SOL     OW 7735   4.903   4.718   4.702
 2279SOL    HW1 7736   4.942   4.731   4.611
 2279SOL    HW2 7737   4.881   4.622   4.716
 2280SOL     OW 7738   5.054   6.511   5.963
 2280SOL    HW1 7739   4.957   6.490   5.976
 2280SOL    HW2 7740   5.064   6.588   5.900
 2281SOL     OW 7741   2.779   3.189   0.858
 2281SOL    HW1 7742   2.684   3.157   0.861
 2281SOL    HW2 7743   2.831   3.147   0.932
 2282SOL     OW 7744   4.005   5.529   2.923
 2282SOL    HW1 7745   3.979   5.452   2.865
 2282SOL    HW2 7746   4.068   5.589   2.873
 2283SOL     OW 7747   0.173   3.830   2.582
 2283SOL    HW1 7748   0.091   3.806   2.530
 2283SOL    HW2 7749   0.178   3.775   2.665
 2284SOL     OW 7750   2.596   2.429   2.193
 2284SOL    HW1 7751   2.594   2.510   2.134
 2284SOL    HW2 7752   2.679   2.377   2.175
 2285SOL     OW 7753   1.969   4.093   7.013
 2285SOL    HW1 7754   1.947   4.019   0.058
 2285SOL    HW2 7755   2.068   4.106   7.009
 2286SOL     OW 7756   5.744   6.765   4.924
 2286SOL    HW1 7757   5.693   6.763   5.011
 2286SOL    HW2 7758   5.690   6.811   4.855
 2287SOL     OW 7759   2.259   3.090   1.739
 2287SOL    HW1 7760   2.357   3.073   1.725
 2287SOL    HW2 7761   2.234   3.064   1.832
 2288SOL     OW 7762   1.142   6.399   4.646
 2288SOL    HW1 7763   1.096   6.483   4.619
 2288SOL    HW2 7764   1.095   6.320   4.606
 2289SOL     OW 7765   4.592   2.269   0.794
 2289SOL    HW1 7766   4.514   2.267   0.732
 2289SOL    HW2 7767   4.561   2.280   0.888
 2290SOL     OW 7768   3.481   3.173   2.677
 2290SOL    HW1 7769   3.556   3.217   2.627
 2290SOL    HW2 7770   3.441   3.102   2.619
 2291SOL     OW 7771   1.307   2.157   0.173
 2291SOL    HW1 7772   1.246   2.144   0.251
 2291SOL    HW2 7773   1.264   2.119   0.090
 2292SOL     OW 7774   4.677   2.009   2.839
 2292SOL    HW1 7775   4.688   2.108   2.833
 2292SOL    HW2 7776   4.620   1.977   2.764
 2293SOL     OW 7777   0.042   1.190   0.273
 2293SOL    HW1 7778   0.127   1.228   0.236
 2293SOL    HW2 7779   0.032   1.095   0.243
 2294SOL     OW 7780   6.762   1.540   5.478
 2294SOL    HW1 7781   6.665   1.555   5.458
 2294SOL    HW2 7782   6.813   1.623   5.456
 2295SOL     OW 7783   5.569   6.183   1.249
 2295SOL    HW1 7784   5.541   6.182   1.153
 2295SOL    HW2 7785   5.656   6.136   1.260
 2296SOL     OW 7786   3.784   5.338   4.071
 2296SOL    HW1 7787   3.768   5.319   4.168
 2296SOL    HW2 7788   3.867   5.291   4.042
 2297SOL     OW 7789   4.320   4.111   5.371
 2297SOL    HW1 7790   4.236   4.126   5.320
 2297SOL    HW2 7791   4.392   4.170   5.335
 2298SOL     OW 7792   3.707   3.482   4.822
 2298SOL    HW1 7793   3.748   3.573   4.816
 2298SOL    HW2 7794   3.779   3.414   4.838
 2299SOL     OW 7795   5.983   3.054   4.691
 2299SOL    HW1 7796   6.009   3.105   4.609
 2299SOL    HW2 7797   5.989   2.956   4.673
 2300SOL     OW 7798   4.684   6.266   2.192
 2300SOL    HW1 7799   4.705   6.344   2.252
 2300SOL    HW2 7800   4.593   6.231   2.214
 2301SOL     OW 7801   3.776   3.297   4.589
 2301SOL    HW1 7802   3.773   3.254   4.499
 2301SOL    HW2 7803   3.724   3.382   4.588
 2302SOL     OW 7804   5.559   3.078   0.266
 2302SOL    HW1 7805   5.525   3.170   0.287
 2302SOL    HW2 7806   5.516   3.011   0.326
 2303SOL     OW 7807   3.443   1.776   6.786
 2303SOL    HW1 7808   3.421   1.743   6.878
 2303SOL    HW2 7809   3.410   1.869   6.775
 2304SOL     OW 7810   5.827   5.850   2.749
 2304SOL    HW1 7811   5.915   5.806   2.765
 2304SOL    HW2 7812   5.769   5.789   2.694
 2305SOL     OW 7813   2.337   0.225   4.629
 2305SOL    HW1 7814   2.433   0.203   4.642
 2305SOL    HW2 7815   2.288   0.144   4.597
 2306SOL     OW 7816   0.709   4.746   4.297
 2306SOL    HW1 7817   0.704   4.649   4.321
 2306SOL    HW2 7818   0.665   4.760   4.209
 2307SOL     OW 7819   6.649   3.071   6.015
 2307SOL    HW1 7820   6.611   3.077   6.107
 2307SOL    HW2 7821   6.723   3.137   6.005
 2308SOL     OW 7822   1.686   5.467   1.883
 2308SOL    HW1 7823   1.634   5.464   1.968
 2308SOL    HW2 7824   1.700   5.562   1.855
 2309SOL     OW 7825   2.015   0.064   5.357
 2309SOL    HW1 7826   2.112   0.041   5.350
 2309SOL    HW2 7827   1.994   0.139   5.294
 2310SOL     OW 7828   4.807   6.881   1.671
 2310SOL    HW1 7829   4.768   6.929   1.750
 2310SOL    HW2 7830   4.842   6.948   1.606
 2311SOL     OW 7831   3.376   5.042   1.382
 2311SOL    HW1 7832   3.438   5.119   1.390
 2311SOL    HW2 7833   3.313   5.041   1.460
 2312SOL     OW 7834   3.272   5.141   2.443
 2312SOL    HW1 7835   3.270   5.135   2.343
 2312SOL    HW2 7836   3.191   5.190   2.474
 2313SOL     OW 7837   5.177   5.717   1.428
 2313SOL    HW1 7838   5.152   5.779   1.354
 2313SOL    HW2 7839   5.145   5.755   1.515
 2314SOL     OW 7840   1.268   4.816   4.661
 2314SOL    HW1 7841   1.343   4.834   4.724
 2314SOL    HW2 7842   1.225   4.902   4.633
 2315SOL     OW 7843   4.380   2.751   6.526
 2315SOL    HW1 7844   4.438   2.827   6.555
 2315SOL    HW2 7845   4.373   2.750   6.426
 2316SOL     OW 7846   5.055   4.058   2.299
 2316SOL    HW1 7847   5.131   4.041   2.237
 2316SOL    HW2 7848   4.969   4.052   2.249
 2317SOL     OW 7849   0.230   5.015   3.592
 2317SOL    HW1 7850   0.258   5.096   3.643
 2317SOL    HW2 7851   0.296   4.942   3.605
 2318SOL     OW 7852   0.458   1.044   4.312
 2318SOL    HW1 7853   0.499   1.123   4.359
 2318SOL    HW2 7854   0.483   0.960   4.360
 2319SOL     OW 7855   1.024   4.230   3.444
 2319SOL    HW1 7856   1.041   4.327   3.428
 2319SOL    HW2 7857   1.017   4.213   3.542
 2320SOL     OW 7858   6.173   4.849   4.757
 2320SOL    HW1 7859   6.172   4.870   4.855
 2320SOL    HW2 7860   6.261   4.875   4.718
 2321SOL     OW 7861   2.468   5.465   5.189
 2321SOL    HW1 7862   2.508   5.380   5.224
 2321SOL    HW2 7863   2.425   5.447   5.100
 2322SOL     OW 7864   2.638   0.816   5.805
 2322SOL    HW1 7865   2.592   0.749   5.864
 2322SOL    HW2 7866   2.682   0.768   5.729
 2323SOL     OW 7867   5.340   4.309   1.791
 2323SOL    HW1 7868   5.396   4.384   1.757
 2323SOL    HW2 7869   5.399   4.235   1.824
 2324SOL     OW 7870   0.072   4.589   3.755
 2324SOL    HW1 7871   0.027   4.677   3.769
 2324SOL    HW2 7872   0.027   4.540   3.681
 2325SOL     OW 7873   6.874   2.764   0.727
 2325SOL    HW1 7874   6.793   2.724   0.772
 2325SOL    HW2 7875   6.939   2.794   0.797
 2326SOL     OW 7876   1.873   4.881   6.949
 2326SOL    HW1 7877   1.829   4.878   0.020
 2326SOL    HW2 7878   1.969   4.907   6.960
 2327SOL     OW 7879   5.577   2.179   4.750
 2327SOL    HW1 7880   5.608   2.154   4.841
 2327SOL    HW2 7881   5.478   2.167   4.742
 2328SOL     OW 7882   5.920   6.831   3.663
 2328SOL    HW1 7883   5.853   6.808   3.733
 2328SOL    HW2 7884   5.928   6.756   3.598
 2329SOL     OW 7885   6.754   6.260   3.604
 2329SOL    HW1 7886   6.826   6.328   3.615
 2329SOL    HW2 7887   6.796   6.169   3.594
 2330SOL     OW 7888   0.058   3.679   1.712
 2330SOL    HW1 7889   0.068   3.586   1.747
 2330SOL    HW2 7890   0.119   3.692   1.634
 2331SOL     OW 7891   0.762   4.486   5.678
 2331SOL    HW1 7892   0.759   4.479   5.579
 2331SOL    HW2 7893   0.844   4.439   5.712
 2332SOL     OW 7894   5.937   2.519   4.825
 2332SOL    HW1 7895   5.981   2.484   4.907
 2332SOL    HW2 7896   5.838   2.513   4.835
 2333SOL     OW 7897   1.715   4.519   3.760
 2333SOL    HW1 7898   1.797   4.574   3.775
 2333SOL    HW2 7899   1.634   4.579   3.762
 2334SOL     OW 7900   2.700   0.120   1.057
 2334SOL    HW1 7901   2.643   0.089   0.980
 2334SOL    HW2 7902   2.795   0.130   1.027
 2335SOL     OW 7903   4.687   6.037   4.171
 2335SOL    HW1 7904   4.653   6.010   4.081
 2335SOL    HW2 7905   4.636   6.117   4.203
 2336SOL     OW 7906   4.827   2.468   5.697
 2336SOL    HW1 7907   4.822   2.447   5.795
 2336SOL    HW2 7908   4.734   2.476   5.660
 2337SOL     OW 7909   5.762   0.277   3.077
 2337SOL    HW1 7910   5.821   0.199   3.057
 2337SOL    HW2 7911   5.688   0.280   3.011
 2338SOL     OW 7912   1.562   6.437   6.019
 2338SOL    HW1 7913   1.529   6.522   5.978
 2338SOL    HW2 7914   1.489   6.369   6.020
 2339SOL     OW 7915   3.846   4.778   6.489
 2339SOL    HW1 7916   3.905   4.790   6.569
 2339SOL    HW2 7917   3.886   4.827   6.411
 2340SOL     OW 7918   4.040   5.228   3.971
 2340SOL    HW1 7919   4.028   5.166   3.893
 2340SOL    HW2 7920   4.058   5.320   3.937
 2341SOL     OW 7921   6.428   5.616   0.282
 2341SOL    HW1 7922   6.436   5.521   0.254
 2341SOL    HW2 7923   6.511   5.645   0.330
 2342SOL     OW 7924   5.941   0.339   5.002
 2342SOL    HW1 7925   5.848   0.319   4.972
 2342SOL    HW2 7926   6.001   0.263   4.977
 2343SOL     OW 7927   1.118   6.584   0.535
 2343SOL    HW1 7928   1.046   6.619   0.474
 2343SOL    HW2 7929   1.197   6.644   0.531
 2344SOL     OW 7930   2.057   1.408   2.796
 2344SOL    HW1 7931   2.124   1.397   2.722
 2344SOL    HW2 7932   2.026   1.503   2.799
 2345SOL     OW 7933   2.167   1.150   3.524
 2345SOL    HW1 7934   2.187   1.223   3.458
 2345SOL    HW2 7935   2.226   1.160   3.604
 2346SOL     OW 7936   4.821   3.553   5.832
 2346SOL    HW1 7937   4.900   3.548   5.771
 2346SOL    HW2 7938   4.837   3.495   5.912
 2347SOL     OW 7939   1.024   3.355   1.332
 2347SOL    HW1 7940   0.960   3.280   1.349
 2347SOL    HW2 7941   1.008   3.427   1.400
 2348SOL     OW 7942   2.524   5.845   1.336
 2348SOL    HW1 7943   2.500   5.754   1.368
 2348SOL    HW2 7944   2.490   5.859   1.243
 2349SOL     OW 7945   4.705   5.460   5.663
 2349SOL    HW1 7946   4.721   5.500   5.573
 2349SOL    HW2 7947   4.660   5.371   5.652
 2350SOL     OW 7948   2.665   6.097   5.736
 2350SOL    HW1 7949   2.690   6.039   5.659
 2350SOL    HW2 7950   2.740   6.159   5.758
 2351SOL     OW 7951   1.942   5.785   3.716
 2351SOL    HW1 7952   1.915   5.856   3.651
 2351SOL    HW2 7953   1.898   5.801   3.804
 2352SOL     OW 7954   6.752   3.654   2.052
 2352SOL    HW1 7955   6.700   3.716   2.111
 2352SOL    HW2 7956   6.696   3.574   2.030
 2353SOL     OW 7957   3.019   3.578   5.988
 2353SOL    HW1 7958   2.994   3.593   5.892
 2353SOL    HW2 7959   3.039   3.481   6.002
 2354SOL     OW 7960   3.769   3.049   1.308
 2354SOL    HW1 7961   3.849   3.003   1.272
 2354SOL    HW2 7962   3.705   2.981   1.344
 2355SOL     OW 7963   6.975   0.312   1.027
 2355SOL    HW1 7964   6.884   0.297   1.066
 2355SOL    HW2 7965   0.025   0.291   1.096
 2356SOL     OW 7966   2.760   4.760   3.546
 2356SOL    HW1 7967   2.795   4.750   3.453
 2356SOL    HW2 7968   2.806   4.837   3.591
 2357SOL     OW 7969   6.271   4.980   1.286
 2357SOL    HW1 7970   6.368   4.979   1.263
 2357SOL    HW2 7971   6.227   4.898   1.249
 2358SOL     OW 7972   3.477   1.540   5.831
 2358SOL    HW1 7973   3.533   1.542   5.913
 2358SOL    HW2 7974   3.387   1.580   5.850
 2359SOL     OW 7975   1.974   1.135   6.034
 2359SOL    HW1 7976   2.046   1.075   6.069
 2359SOL    HW2 7977   1.938   1.097   5.949
 2360SOL     OW 7978   4.236   4.172   0.463
 2360SOL    HW1 7979   4.165   4.168   0.394
 2360SOL    HW2 7980   4.198   4.150   0.552
 2361SOL     OW 7981   4.269   5.757   1.733
 2361SOL    HW1 7982   4.291   5.851   1.760
 2361SOL    HW2 7983   4.191   5.758   1.670
 2362SOL     OW 7984   4.594   5.310   3.463
 2362SOL    HW1 7985   4.680   5.296   3.413
 2362SOL    HW2 7986   4.560   5.402   3.444
 2363SOL     OW 7987   2.577   4.236   0.868
 2363SOL    HW1 7988   2.488   4.275   0.891
 2363SOL    HW2 7989   2.609   4.273   0.781
 2364SOL     OW 7990   3.710   1.388   2.336
 2364SOL    HW1 7991   3.783   1.404   2.269
 2364SOL    HW2 7992   3.651   1.314   2.304
 2365SOL     OW 7993   4.885   3.561   3.432
 2365SOL    HW1 7994   4.906   3.467   3.458
 2365SOL    HW2 7995   4.879   3.567   3.332
 2366SOL     OW 7996   2.918   4.853   4.958
 2366SOL    HW1 7997   2.956   4.905   5.035
 2366SOL    HW2 7998   2.865   4.776   4.993
 2367SOL     OW 7999   5.710   4.408   6.509
 2367SOL    HW1 8000   5.794   4.441   6.466
 2367SOL    HW2 8001   5.700   4.310   6.489
 2368SOL     OW 8002   5.511   6.463   4.676
 2368SOL    HW1 8003   5.505   6.474   4.775
 2368SOL    HW2 8004   5.604   6.481   4.646
 2369SOL     OW 8005   2.978   1.922   4.260
 2369SOL    HW1 8006   2.893   1.975   4.257
 2369SOL    HW2 8007   2.995   1.892   4.354
 2370SOL     OW 8008   6.010   2.887   1.920
 2370SOL    HW1 8009   6.045   2.795   1.905
 2370SOL    HW2 8010   5.945   2.910   1.847
 2371SOL     OW 8011   0.412   6.360   3.303
 2371SOL    HW1 8012   0.385   6.401   3.216
 2371SOL    HW2 8013   0.512   6.364   3.311
 2372SOL     OW 8014   6.001   0.114   6.251
 2372SOL    HW1 8015   5.931   0.045   6.232
 2372SOL    HW2 8016   5.989   0.149   6.344
 2373SOL     OW 8017   5.855   5.307   6.926
 2373SOL    HW1 8018   5.920   5.236   6.954
 2373SOL    HW2 8019   5.786   5.268   6.866
 2374SOL     OW 8020   6.744   6.328   2.260
 2374SOL    HW1 8021   6.768   6.290   2.171
 2374SOL    HW2 8022   6.820   6.383   2.295
 2375SOL     OW 8023   1.310   0.535   4.306
 2375SOL    HW1 8024   1.255   0.485   4.374
 2375SOL    HW2 8025   1.405   0.540   4.338
 2376SOL     OW 8026   5.788   1.497   3.699
 2376SOL    HW1 8027   5.729   1.493   3.619
 2376SOL    HW2 8028   5.805   1.593   3.724
 2377SOL     OW 8029   4.577   4.534   5.903
 2377SOL    HW1 8030   4.631   4.612   5.875
 2377SOL    HW2 8031   4.480   4.551   5.883
 2378SOL     OW 8032   6.799   0.756   0.567
 2378SOL    HW1 8033   6.797   0.794   0.474
 2378SOL    HW2 8034   6.713   0.708   0.584
 2379SOL     OW 8035   6.579   5.058   1.352
 2379SOL    HW1 8036   6.586   4.991   1.426
 2379SOL    HW2 8037   6.590   5.012   1.264
 2380SOL     OW 8038   4.637   5.656   5.118
 2380SOL    HW1 8039   4.678   5.614   5.199
 2380SOL    HW2 8040   4.555   5.605   5.092
 2381SOL     OW 8041   2.086   4.670   5.027
 2381SOL    HW1 8042   2.089   4.746   5.092
 2381SOL    HW2 8043   2.054   4.588   5.074
 2382SOL     OW 8044   0.551   6.285   2.441
 2382SOL    HW1 8045   0.488   6.244   2.506
 2382SOL    HW2 8046   0.645   6.274   2.474
 2383SOL     OW 8047   5.221   5.601   5.834
 2383SOL    HW1 8048   5.121   5.597   5.834
 2383SOL    HW2 8049   5.257   5.512   5.861
 2384SOL     OW 8050   0.620   1.479   1.848
 2384SOL    HW1 8051   0.685   1.555   1.848
 2384SOL    HW2 8052   0.616   1.439   1.756
 2385SOL     OW 8053   0.314   1.518   0.871
 2385SOL    HW1 8054   0.245   1.466   0.820
 2385SOL    HW2 8055   0.349   1.592   0.813
 2386SOL     OW 8056   5.658   5.506   3.531
 2386SOL    HW1 8057   5.692   5.600   3.535
 2386SOL    HW2 8058   5.643   5.472   3.624
 2387SOL     OW 8059   1.962   1.753   4.008
 2387SOL    HW1 8060   1.913   1.770   3.924
 2387SOL    HW2 8061   1.972   1.838   4.060
 2388SOL     OW 8062   6.242   2.002   5.050
 2388SOL    HW1 8063   6.278   2.038   5.137
 2388SOL    HW2 8064   6.171   2.063   5.015
 2389SOL     OW 8065   4.756   4.609   4.291
 2389SOL    HW1 8066   4.673   4.629   4.342
 2389SOL    HW2 8067   4.806   4.534   4.335
 2390SOL     OW 8068   4.348   3.483   5.694
 2390SOL    HW1 8069   4.372   3.386   5.699
 2390SOL    HW2 8070   4.304   3.510   5.780
 2391SOL     OW 8071   2.775   5.011   6.340
 2391SOL    HW1 8072   2.747   4.916   6.323
 2391SOL    HW2 8073   2.865   5.026   6.300
 2392SOL     OW 8074   4.055   4.716   5.617
 2392SOL    HW1 8075   4.088   4.806   5.646
 2392SOL    HW2 8076   4.032   4.719   5.520
 2393SOL     OW 8077   4.148   4.515   1.353
 2393SOL    HW1 8078   4.118   4.468   1.270
 2393SOL    HW2 8079   4.208   4.591   1.328
 2394SOL     OW 8080   0.363   2.448   3.302
 2394SOL    HW1 8081   0.346   2.362   3.350
 2394SOL    HW2 8082   0.275   2.493   3.284
 2395SOL     OW 8083   0.808   2.438   5.016
 2395SOL    HW1 8084   0.828   2.482   5.104
 2395SOL    HW2 8085   0.730   2.483   4.974
 2396SOL     OW 8086   0.066   0.181   5.284
 2396SOL    HW1 8087   0.095   0.088   5.261
 2396SOL    HW2 8088   6.998   0.178   5.333
 2397SOL     OW 8089   0.076   4.354   5.621
 2397SOL    HW1 8090   0.080   4.385   5.526
 2397SOL    HW2 8091   7.009   4.306   5.636
 2398SOL     OW 8092   3.876   6.590   4.079
 2398SOL    HW1 8093   3.870   6.506   4.133
 2398SOL    HW2 8094   3.784   6.619   4.053
 2399SOL     OW 8095   3.649   2.065   3.917
 2399SOL    HW1 8096   3.585   2.084   3.843
 2399SOL    HW2 8097   3.612   2.101   4.003
 2400SOL     OW 8098   1.031   3.894   1.046
 2400SOL    HW1 8099   1.125   3.914   1.018
 2400SOL    HW2 8100   1.029   3.807   1.096
 2401SOL     OW 8101   2.497   0.365   5.647
 2401SOL    HW1 8102   2.409   0.360   5.598
 2401SOL    HW2 8103   2.484   0.336   5.742
 2402SOL     OW 8104   1.569   4.320   1.758
 2402SOL    HW1 8105   1.604   4.314   1.665
 2402SOL    HW2 8106   1.563   4.229   1.798
 2403SOL     OW 8107   4.097   3.313   3.415
 2403SOL    HW1 8108   4.038   3.359   3.349
 2403SOL    HW2 8109   4.160   3.379   3.455
 2404SOL     OW 8110   6.215   0.752   1.129
 2404SOL    HW1 8111   6.305   0.751   1.173
 2404SOL    HW2 8112   6.159   0.679   1.167
 2405SOL     OW 8113   2.131   3.112   0.879
 2405SOL    HW1 8114   2.148   3.065   0.965
 2405SOL    HW2 8115   2.034   3.135   0.872
 2406SOL     OW 8116   3.118   5.948   4.800
 2406SOL    HW1 8117   3.064   5.910   4.875
 2406SOL    HW2 8118   3.090   5.906   4.714
 2407SOL     OW 8119   3.047   0.971   3.737
 2407SOL    HW1 8120   3.027   0.906   3.664
 2407SOL    HW2 8121   3.076   1.058   3.696
 2408SOL     OW 8122   3.191   6.277   4.404
 2408SOL    HW1 8123   3.239   6.204   4.452
 2408SOL    HW2 8124   3.092   6.262   4.409
 2409SOL     OW 8125   1.796   3.341   1.534
 2409SOL    HW1 8126   1.882   3.392   1.535
 2409SOL    HW2 8127   1.804   3.262   1.595
 2410SOL     OW 8128   0.985   3.451   4.803
 2410SOL    HW1 8129   0.976   3.368   4.858
 2410SOL    HW2 8130   0.894   3.482   4.774
 2411SOL     OW 8131   2.791   3.661   0.405
 2411SOL    HW1 8132   2.794   3.708   0.493
 2411SOL    HW2 8133   2.872   3.684   0.351
 2412SOL     OW 8134   3.593   1.643   6.584
 2412SOL    HW1 8135   3.540   1.566   6.549
 2412SOL    HW2 8136   3.535   1.696   6.646
 2413SOL     OW 8137   0.336   2.952   6.617
 2413SOL    HW1 8138   0.349   2.986   6.524
 2413SOL    HW2 8139   0.421   2.961   6.668
 2414SOL     OW 8140   6.293   2.116   5.296
 2414SOL    HW1 8141   6.374   2.107   5.354
 2414SOL    HW2 8142   6.211   2.124   5.354
 2415SOL     OW 8143   2.391   5.685   0.513
 2415SOL    HW1 8144   2.306   5.678   0.461
 2415SOL    HW2 8145   2.468   5.670   0.451
 2416SOL     OW 8146   6.989   3.771   1.967
 2416SOL    HW1 8147   0.020   3.749   1.883
 2416SOL    HW2 8148   6.915   3.704   1.980
 2417SOL     OW 8149   3.136   2.669   1.761
 2417SOL    HW1 8150   3.043   2.652   1.728
 2417SOL    HW2 8151   3.186   2.583   1.768
 2418SOL     OW 8152   4.426   4.326   6.638
 2418SOL    HW1 8153   4.395   4.368   6.723
 2418SOL    HW2 8154   4.347   4.292   6.587
 2419SOL     OW 8155   2.560   6.284   3.553
 2419SOL    HW1 8156   2.478   6.232   3.528
 2419SOL    HW2 8157   2.560   6.371   3.504
 2420SOL     OW 8158   1.404   4.012   2.718
 2420SOL    HW1 8159   1.503   4.008   2.735
 2420SOL    HW2 8160   1.370   4.104   2.739
 2421SOL     OW 8161   2.630   6.064   4.210
 2421SOL    HW1 8162   2.584   6.100   4.291
 2421SOL    HW2 8163   2.678   6.138   4.163
 2422SOL     OW 8164   4.913   6.183   0.737
 2422SOL    HW1 8165   4.978   6.258   0.733
 2422SOL    HW2 8166   4.923   6.126   0.655
 2423SOL     OW 8167   2.668   5.213   2.969
 2423SOL    HW1 8168   2.707   5.132   3.011
 2423SOL    HW2 8169   2.688   5.213   2.871
 2424SOL     OW 8170   5.549   0.382   6.103
 2424SOL    HW1 8171   5.614   0.455   6.128
 2424SOL    HW2 8172   5.507   0.345   6.185
 2425SOL     OW 8173   5.383   5.482   4.856
 2425SOL    HW1 8174   5.330   5.479   4.940
 2425SOL    HW2 8175   5.358   5.563   4.803
 2426SOL     OW 8176   2.394   3.806   5.958
 2426SOL    HW1 8177   2.378   3.774   6.051
 2426SOL    HW2 8178   2.462   3.747   5.914
 2427SOL     OW 8179   5.364   0.769   6.972
 2427SOL    HW1 8180   5.292   0.815   6.920
 2427SOL    HW2 8181   5.337   0.764   0.049
 2428SOL     OW 8182   0.949   0.580   3.052
 2428SOL    HW1 8183   0.938   0.551   3.147
 2428SOL    HW2 8184   0.993   0.507   3.000
 2429SOL     OW 8185   5.913   4.973   1.855
 2429SOL    HW1 8186   5.898   4.878   1.881
 2429SOL    HW2 8187   5.951   5.023   1.933
 2430SOL     OW 8188   6.181   1.653   0.063
 2430SOL    HW1 8189   6.222   1.729   0.114
 2430SOL    HW2 8190   6.240   1.629   7.005
 2431SOL     OW 8191   6.804   3.042   1.825
 2431SOL    HW1 8192   6.713   3.001   1.820
 2431SOL    HW2 8193   6.871   2.981   1.783
 2432SOL     OW 8194   3.028   5.182   2.034
 2432SOL    HW1 8195   3.065   5.215   1.947
 2432SOL    HW2 8196   2.932   5.156   2.022
 2433SOL     OW 8197   6.354   4.078   5.842
 2433SOL    HW1 8198   6.404   4.108   5.761
 2433SOL    HW2 8199   6.264   4.121   5.844
 2434SOL     OW 8200   4.821   1.285   2.601
 2434SOL    HW1 8201   4.865   1.223   2.536
 2434SOL    HW2 8202   4.829   1.249   2.693
 2435SOL     OW 8203   6.097   6.474   6.931
 2435SOL    HW1 8204   6.197   6.483   6.935
 2435SOL    HW2 8205   6.056   6.525   7.006
 2436SOL     OW 8206   1.954   1.836   2.375
 2436SOL    HW1 8207   2.014   1.815   2.453
 2436SOL    HW2 8208   2.004   1.894   2.310
 2437SOL     OW 8209   0.065   4.172   2.430
 2437SOL    HW1 8210   7.010   4.238   2.414
 2437SOL    HW2 8211   0.110   4.151   2.344
 2438SOL     OW 8212   3.267   0.971   4.845
 2438SOL    HW1 8213   3.248   0.905   4.918
 2438SOL    HW2 8214   3.245   0.931   4.756
 2439SOL     OW 8215   0.861   0.151   1.671
 2439SOL    HW1 8216   0.947   0.200   1.685
 2439SOL    HW2 8217   0.787   0.217   1.661
 2440SOL     OW 8218   5.730   0.888   5.393
 2440SOL    HW1 8219   5.712   0.824   5.468
 2440SOL    HW2 8220   5.815   0.862   5.347
 2441SOL     OW 8221   6.534   6.883   6.574
 2441SOL    HW1 8222   6.567   6.919   6.487
 2441SOL    HW2 8223   6.588   6.802   6.599
 2442SOL     OW 8224   4.922   3.203   2.007
 2442SOL    HW1 8225   4.956   3.145   2.081
 2442SOL    HW2 8226   4.845   3.158   1.962
 2443SOL     OW 8227   0.389   2.422   1.485
 2443SOL    HW1 8228   0.399   2.457   1.578
 2443SOL    HW2 8229   0.427   2.329   1.481
 2444SOL     OW 8230   3.875   6.101   1.952
 2444SOL    HW1 8231   3.794   6.069   2.000
 2444SOL    HW2 8232   3.945   6.029   1.953
 2445SOL     OW 8233   0.181   2.253   0.821
 2445SOL    HW1 8234   0.133   2.207   0.896
 2445SOL    HW2 8235   0.129   2.333   0.792
 2446SOL     OW 8236   1.451   4.787   1.369
 2446SOL    HW1 8237   1.430   4.741   1.282
 2446SOL    HW2 8238   1.548   4.812   1.369
 2447SOL     OW 8239   2.650   6.788   0.015
 2447SOL    HW1 8240   2.672   6.713   0.077
 2447SOL    HW2 8241   2.724   6.856   0.017
 2448SOL     OW 8242   6.655   1.731   4.657
 2448SOL    HW1 8243   6.742   1.778   4.668
 2448SOL    HW2 8244   6.588   1.792   4.614
 2449SOL     OW 8245   1.478   4.277   1.441
 2449SOL    HW1 8246   1.565   4.265   1.393
 2449SOL    HW2 8247   1.413   4.324   1.381
 2450SOL     OW 8248   1.834   6.693   5.959
 2450SOL    HW1 8249   1.909   6.695   6.026
 2450SOL    HW2 8250   1.865   6.649   5.875
 2451SOL     OW 8251   1.179   6.823   5.359
 2451SOL    HW1 8252   1.085   6.844   5.388
 2451SOL    HW2 8253   1.214   6.897   5.303
 2452SOL     OW 8254   2.819   1.453   3.882
 2452SOL    HW1 8255   2.888   1.493   3.943
 2452SOL    HW2 8256   2.787   1.367   3.919
 2453SOL     OW 8257   1.095   1.582   6.420
 2453SOL    HW1 8258   1.108   1.483   6.417
 2453SOL    HW2 8259   1.126   1.617   6.509
 2454SOL     OW 8260   3.030   5.430   1.188
 2454SOL    HW1 8261   3.057   5.357   1.126
 2454SOL    HW2 8262   3.036   5.398   1.283
 2455SOL     OW 8263   3.690   2.368   1.014
 2455SOL    HW1 8264   3.613   2.422   0.978
 2455SOL    HW2 8265   3.657   2.307   1.086
 2456SOL     OW 8266   1.232   4.365   6.099
 2456SOL    HW1 8267   1.210   4.321   6.012
 2456SOL    HW2 8268   1.203   4.306   6.175
 2457SOL     OW 8269   5.155   2.294   5.253
 2457SOL    HW1 8270   5.110   2.322   5.169
 2457SOL    HW2 8271   5.096   2.313   5.331
 2458SOL     OW 8272   1.607   0.511   1.684
 2458SOL    HW1 8273   1.511   0.490   1.664
 2458SOL    HW2 8274   1.647   0.434   1.734
 2459SOL     OW 8275   2.959   6.111   1.237
 2459SOL    HW1 8276   2.978   6.033   1.177
 2459SOL    HW2 8277   3.010   6.101   1.322
 2460SOL     OW 8278   1.380   1.310   5.347
 2460SOL    HW1 8279   1.412   1.266   5.263
 2460SOL    HW2 8280   1.350   1.403   5.326
 2461SOL     OW 8281   4.208   1.150   3.922
 2461SOL    HW1 8282   4.264   1.222   3.963
 2461SOL    HW2 8283   4.153   1.106   3.994
 2462SOL     OW 8284   0.015   4.410   0.824
 2462SOL    HW1 8285   7.003   4.350   0.898
 2462SOL    HW2 8286   0.075   4.481   0.861
 2463SOL     OW 8287   6.913   0.998   6.984
 2463SOL    HW1 8288   6.820   0.987   6.951
 2463SOL    HW2 8289   6.954   1.080   6.944
 2464SOL     OW 8290   0.011   2.077   3.188
 2464SOL    HW1 8291   0.084   2.032   3.241
 2464SOL    HW2 8292   6.941   2.046   3.222
 2465SOL     OW 8293   0.402   4.696   5.565
 2465SOL    HW1 8294   0.354   4.679   5.651
 2465SOL    HW2 8295   0.485   4.748   5.582
 2466SOL     OW 8296   0.556   2.682   1.648
 2466SOL    HW1 8297   0.533   2.634   1.563
 2466SOL    HW2 8298   0.516   2.634   1.726
 2467SOL     OW 8299   5.299   1.418   6.083
 2467SOL    HW1 8300   5.251   1.402   5.997
 2467SOL    HW2 8301   5.252   1.490   6.134
 2468SOL     OW 8302   3.275   6.340   5.682
 2468SOL    HW1 8303   3.200   6.405   5.686
 2468SOL    HW2 8304   3.284   6.293   5.770
 2469SOL     OW 8305   3.440   2.631   6.033
 2469SOL    HW1 8306   3.449   2.689   6.114
 2469SOL    HW2 8307   3.387   2.679   5.964
 2470SOL     OW 8308   3.105   4.850   6.439
 2470SOL    HW1 8309   3.025   4.806   6.479
 2470SOL    HW2 8310   3.185   4.791   6.450
 2471SOL     OW 8311   4.225   5.815   1.393
 2471SOL    HW1 8312   4.263   5.842   1.305
 2471SOL    HW2 8313   4.133   5.852   1.403
 2472SOL     OW 8314   4.951   1.833   4.140
 2472SOL    HW1 8315   4.923   1.737   4.130
 2472SOL    HW2 8316   5.051   1.838   4.144
 2473SOL     OW 8317   0.491   4.278   5.003
 2473SOL    HW1 8318   0.577   4.328   5.015
 2473SOL    HW2 8319   0.436   4.322   4.932
 2474SOL     OW 8320   1.320   5.695   1.564
 2474SOL    HW1 8321   1.333   5.686   1.663
 2474SOL    HW2 8322   1.406   5.724   1.522
 2475SOL     OW 8323   5.030   0.228   0.889
 2475SOL    HW1 8324   4.974   0.272   0.959
 2475SOL    HW2 8325   5.040   0.290   0.810
 2476SOL     OW 8326   5.860   0.342   0.206
 2476SOL    HW1 8327   5.899   0.341   0.299
 2476SOL    HW2 8328   5.842   0.249   0.177
 2477SOL     OW 8329   4.085   0.263   3.268
 2477SOL    HW1 8330   4.171   0.237   3.311
 2477SOL    HW2 8331   4.023   0.184   3.267
 2478SOL     OW 8332   4.338   0.811   3.404
 2478SOL    HW1 8333   4.306   0.822   3.310
 2478SOL    HW2 8334   4.438   0.799   3.404
 2479SOL     OW 8335   0.496   4.017   0.319
 2479SOL    HW1 8336   0.421   4.069   0.359
 2479SOL    HW2 8337   0.553   4.078   0.264
 2480SOL     OW 8338   3.358   2.698   1.506
 2480SOL    HW1 8339   3.273   2.747   1.527
 2480SOL    HW2 8340   3.391   2.651   1.588
 2481SOL     OW 8341   3.103   0.694   0.859
 2481SOL    HW1 8342   3.163   0.652   0.791
 2481SOL    HW2 8343   3.030   0.630   0.883
 2482SOL     OW 8344   5.266   3.435   0.042
 2482SOL    HW1 8345   5.232   3.482   0.124
 2482SOL    HW2 8346   5.243   3.338   0.047
 2483SOL     OW 8347   0.831   2.099   0.901
 2483SOL    HW1 8348   0.760   2.098   0.830
 2483SOL    HW2 8349   0.908   2.155   0.869
 2484SOL     OW 8350   5.211   1.818   2.106
 2484SOL    HW1 8351   5.206   1.908   2.063
 2484SOL    HW2 8352   5.232   1.749   2.037
 2485SOL     OW 8353   4.923   2.698   5.982
 2485SOL    HW1 8354   4.946   2.728   6.075
 2485SOL    HW2 8355   4.827   2.671   5.979
 2486SOL     OW 8356   0.441   4.073   4.810
 2486SOL    HW1 8357   0.469   3.987   4.852
 2486SOL    HW2 8358   0.449   4.147   4.877
 2487SOL     OW 8359   4.583   6.260   6.983
 2487SOL    HW1 8360   4.502   6.295   6.936
 2487SOL    HW2 8361   4.664   6.279   6.927
 2488SOL     OW 8362   6.921   4.012   1.440
 2488SOL    HW1 8363   6.885   4.063   1.362
 2488SOL    HW2 8364   7.013   3.979   1.420
 2489SOL     OW 8365   0.717   6.068   4.436
 2489SOL    HW1 8366   0.649   6.130   4.397
 2489SOL    HW2 8367   0.768   6.024   4.362
 2490SOL     OW 8368   2.829   5.846   2.415
 2490SOL    HW1 8369   2.847   5.758   2.459
 2490SOL    HW2 8370   2.850   5.920   2.479
 2491SOL     OW 8371   4.210   4.676   1.908
 2491SOL    HW1 8372   4.297   4.646   1.947
 2491SOL    HW2 8373   4.226   4.750   1.843
 2492SOL     OW 8374   6.040   3.899   0.673
 2492SOL    HW1 8375   6.050   3.898   0.573
 2492SOL    HW2 8376   5.953   3.856   0.699
 2493SOL     OW 8377   0.395   6.521   1.749
 2493SOL    HW1 8378   0.467   6.521   1.819
 2493SOL    HW2 8379   0.419   6.456   1.677
 2494SOL     OW 8380   6.000   2.266   1.454
 2494SOL    HW1 8381   6.012   2.233   1.361
 2494SOL    HW2 8382   5.956   2.355   1.453
 2495SOL     OW 8383   6.451   5.519   3.308
 2495SOL    HW1 8384   6.450   5.618   3.323
 2495SOL    HW2 8385   6.538   5.482   3.340
 2496SOL     OW 8386   6.349   4.850   6.842
 2496SOL    HW1 8387   6.301   4.769   6.806
 2496SOL    HW2 8388   6.434   4.821   6.886
 2497SOL     OW 8389   0.382   6.486   2.351
 2497SOL    HW1 8390   0.454   6.430   2.390
 2497SOL    HW2 8391   0.423   6.560   2.298
 2498SOL     OW 8392   2.153   3.153   5.534
 2498SOL    HW1 8393   2.182   3.089   5.605
 2498SOL    HW2 8394   2.228   3.167   5.469
 2499SOL     OW 8395   6.230   3.522   1.647
 2499SOL    HW1 8396   6.137   3.543   1.620
 2499SOL    HW2 8397   6.270   3.457   1.582
 2500SOL     OW 8398   3.413   3.788   6.458
 2500SOL    HW1 8399   3.484   3.788   6.388
 2500SOL    HW2 8400   3.375   3.880   6.465
 2501SOL     OW 8401   5.743   5.749   0.458
 2501SOL    HW1 8402   5.757   5.651   0.446
 2501SOL    HW2 8403   5.780   5.798   0.379
 2502SOL     OW 8404   2.430   5.611   4.358
 2502SOL    HW1 8405   2.384   5.527   4.388
 2502SOL    HW2 8406   2.460   5.663   4.437
 2503SOL     OW 8407   2.954   6.834   5.165
 2503SOL    HW1 8408   2.904   6.756   5.126
 2503SOL    HW2 8409   2.888   6.905   5.190
 2504SOL     OW 8410   3.115   5.646   2.840
 2504SOL    HW1 8411   3.068   5.625   2.926
 2504SOL    HW2 8412   3.212   5.626   2.849
 2505SOL     OW 8413   0.700   5.686   2.297
 2505SOL    HW1 8414   0.771   5.642   2.353
 2505SOL    HW2 8415   0.724   5.782   2.282
 2506SOL     OW 8416   6.054   4.215   6.524
 2506SOL    HW1 8417   6.131   4.198   6.585
 2506SOL    HW2 8418   5.990   4.138   6.529
 2507SOL     OW 8419   6.838   3.379   0.404
 2507SOL    HW1 8420   6.911   3.426   0.354
 2507SOL    HW2 8421   6.870   3.356   0.496
 2508SOL     OW 8422   3.165   1.977   5.079
 2508SOL    HW1 8423   3.122   2.065   5.060
 2508SOL    HW2 8424   3.102   1.904   5.052
 2509SOL     OW 8425   6.492   3.518   6.396
 2509SOL    HW1 8426   6.416   3.482   6.342
 2509SOL    HW2 8427   6.534   3.595   6.348
 2510SOL     OW 8428   3.288   3.815   1.808
 2510SOL    HW1 8429   3.307   3.907   1.844
 2510SOL    HW2 8430   3.249   3.759   1.881
 2511SOL     OW 8431   2.393   0.725   5.065
 2511SOL    HW1 8432   2.297   0.752   5.076
 2511SOL    HW2 8433   2.444   0.801   5.024
 2512SOL     OW 8434   3.408   4.166   5.120
 2512SOL    HW1 8435   3.475   4.108   5.073
 2512SOL    HW2 8436   3.316   4.133   5.100
 2513SOL     OW 8437   2.046   6.945   5.926
 2513SOL    HW1 8438   2.066   6.854   5.963
 2513SOL    HW2 8439   2.103   6.961   5.846
 2514SOL     OW 8440   1.056   3.043   3.907
 2514SOL    HW1 8441   0.998   2.961   3.902
 2514SOL    HW2 8442   1.033   3.095   3.989
 2515SOL     OW 8443   1.977   0.891   1.216
 2515SOL    HW1 8444   1.923   0.888   1.300
 2515SOL    HW2 8445   1.919   0.865   1.139
 2516SOL     OW 8446   4.877   1.440   3.817
 2516SOL    HW1 8447   4.929   1.461   3.734
 2516SOL    HW2 8448   4.857   1.342   3.820
 2517SOL     OW 8449   0.756   1.227   4.819
 2517SOL    HW1 8450   0.815   1.184   4.887
 2517SOL    HW2 8451   0.809   1.292   4.764
 2518SOL     OW 8452   2.514   5.016   1.139
 2518SOL    HW1 8453   2.603   5.056   1.156
 2518SOL    HW2 8454   2.455   5.028   1.219
 2519SOL     OW 8455   2.794   1.372   1.311
 2519SOL    HW1 8456   2.757   1.465   1.313
 2519SOL    HW2 8457   2.824   1.350   1.219
 2520SOL     OW 8458   3.454   2.462   0.898
 2520SOL    HW1 8459   3.471   2.561   0.902
 2520SOL    HW2 8460   3.358   2.445   0.878
 2521SOL     OW 8461   4.075   1.644   5.121
 2521SOL    HW1 8462   4.102   1.549   5.137
 2521SOL    HW2 8463   4.065   1.659   5.022
 2522SOL     OW 8464   1.053   1.562   5.368
 2522SOL    HW1 8465   1.000   1.479   5.348
 2522SOL    HW2 8466   1.019   1.603   5.453
 2523SOL     OW 8467   1.837   4.477   0.807
 2523SOL    HW1 8468   1.884   4.563   0.787
 2523SOL    HW2 8469   1.902   4.411   0.844
 2524SOL     OW 8470   1.521   6.709   4.214
 2524SOL    HW1 8471   1.472   6.657   4.144
 2524SOL    HW2 8472   1.494   6.805   4.208
 2525SOL     OW 8473   1.006   2.965   4.688
 2525SOL    HW1 8474   0.951   3.023   4.627
 2525SOL    HW2 8475   1.093   2.943   4.644
 2526SOL     OW 8476   1.603   5.474   6.861
 2526SOL    HW1 8477   1.598   5.551   6.798
 2526SOL    HW2 8478   1.520   5.418   6.852
 2527SOL     OW 8479   5.370   5.540   5.235
 2527SOL    HW1 8480   5.353   5.443   5.249
 2527SOL    HW2 8481   5.283   5.590   5.235
 2528SOL     OW 8482   5.188   5.060   5.627
 2528SOL    HW1 8483   5.286   5.058   5.648
 2528SOL    HW2 8484   5.146   5.139   5.672
 2529SOL     OW 8485   0.801   0.164   6.329
 2529SOL    HW1 8486   0.703   0.154   6.348
 2529SOL    HW2 8487   0.849   0.082   6.359
 2530SOL     OW 8488   2.868   6.264   5.734
 2530SOL    HW1 8489   2.919   6.343   5.701
 2530SOL    HW2 8490   2.928   6.205   5.788
 2531SOL     OW 8491   5.925   5.556   5.480
 2531SOL    HW1 8492   5.895   5.598   5.566
 2531SOL    HW2 8493   5.855   5.571   5.410
 2532SOL     OW 8494   1.258   6.299   1.349
 2532SOL    HW1 8495   1.208   6.382   1.322
 2532SOL    HW2 8496   1.193   6.231   1.383
 2533SOL     OW 8497   4.923   1.004   3.317
 2533SOL    HW1 8498   5.013   0.965   3.337
 2533SOL    HW2 8499   4.874   1.021   3.403
 2534SOL     OW 8500   4.698   1.605   1.876
 2534SOL    HW1 8501   4.743   1.694   1.880
 2534SOL    HW2 8502   4.664   1.589   1.783
 2535SOL     OW 8503   3.568   2.514   6.755
 2535SOL    HW1 8504   3.667   2.516   6.769
 2535SOL    HW2 8505   3.522   2.522   6.844
 2536SOL     OW 8506   1.707   0.591   7.007
 2536SOL    HW1 8507   1.782   0.625   6.949
 2536SOL    HW2 8508   1.620   0.622   6.970
 2537SOL     OW 8509   3.552   0.771   6.521
 2537SOL    HW1 8510   3.644   0.791   6.555
 2537SOL    HW2 8511   3.523   0.681   6.554
 2538SOL     OW 8512   6.939   3.602   3.538
 2538SOL    HW1 8513   7.009   3.538   3.505
 2538SOL    HW2 8514   6.979   3.693   3.545
 2539SOL     OW 8515   6.068   1.092   3.762
 2539SOL    HW1 8516   6.091   1.068   3.668
 2539SOL    HW2 8517   6.121   1.173   3.789
 2540SOL     OW 8518   3.972   1.873   2.941
 2540SOL    HW1 8519   4.069   1.899   2.946
 2540SOL    HW2 8520   3.934   1.870   3.033
 2541SOL     OW 8521   2.847   0.115   4.850
 2541SOL    HW1 8522   2.897   0.152   4.772
 2541SOL    HW2 8523   2.846   0.182   4.924
 2542SOL     OW 8524   1.827   4.114   6.583
 2542SOL    HW1 8525   1.856   4.166   6.663
 2542SOL    HW2 8526   1.900   4.052   6.555
 2543SOL     OW 8527   0.887   1.590   4.431
 2543SOL    HW1 8528   0.860   1.588   4.335
 2543SOL    HW2 8529   0.927   1.680   4.452
 2544SOL     OW 8530   1.062   5.218   0.863
 2544SOL    HW1 8531   1.073   5.259   0.772
 2544SOL    HW2 8532   1.018   5.129   0.854
 2545SOL     OW 8533   1.739   0.012   2.447
 2545SOL    HW1 8534   1.640   0.015   2.432
 2545SOL    HW2 8535   1.760   0.049   2.537
 2546SOL     OW 8536   5.938   1.774   0.527
 2546SOL    HW1 8537   5.872   1.734   0.464
 2546SOL    HW2 8538   5.896   1.852   0.574
 2547SOL     OW 8539   6.933   3.752   6.722
 2547SOL    HW1 8540   6.995   3.730   6.647
 2547SOL    HW2 8541   6.839   3.730   6.696
 2548SOL     OW 8542   0.607   6.522   4.606
 2548SOL    HW1 8543   0.624   6.423   4.610
 2548SOL    HW2 8544   0.598   6.550   4.511
 2549SOL     OW 8545   0.564   0.545   1.684
 2549SOL    HW1 8546   0.481   0.506   1.645
 2549SOL    HW2 8547   0.615   0.593   1.613
 2550SOL     OW 8548   6.376   6.837   0.410
 2550SOL    HW1 8549   6.368   6.934   0.385
 2550SOL    HW2 8550   6.450   6.826   0.476
 2551SOL     OW 8551   2.672   4.609   6.613
 2551SOL    HW1 8552   2.628   4.536   6.561
 2551SOL    HW2 8553   2.604   4.675   6.644
 2552SOL     OW 8554   2.469   4.441   4.563
 2552SOL    HW1 8555   2.481   4.398   4.474
 2552SOL    HW2 8556   2.396   4.394   4.613
 2553SOL     OW 8557   4.137   3.758   6.189
 2553SOL    HW1 8558   4.199   3.828   6.225
 2553SOL    HW2 8559   4.137   3.761   6.089
 2554SOL     OW 8560   2.529   2.322   0.902
 2554SOL    HW1 8561   2.627   2.322   0.921
 2554SOL    HW2 8562   2.486   2.402   0.944
 2555SOL     OW 8563   4.958   2.887   4.224
 2555SOL    HW1 8564   4.905   2.971   4.239
 2555SOL    HW2 8565   4.916   2.811   4.273
 2556SOL     OW 8566   3.720   5.967   0.701
 2556SOL    HW1 8567   3.786   6.023   0.651
 2556SOL    HW2 8568   3.678   6.021   0.774
 2557SOL     OW 8569   2.026   3.871   6.687
 2557SOL    HW1 8570   1.960   3.816   6.636
 2557SOL    HW2 8571   1.988   3.894   6.776
 2558SOL     OW 8572   5.216   1.374   5.831
 2558SOL    HW1 8573   5.154   1.336   5.763
 2558SOL    HW2 8574   5.220   1.474   5.821
 2559SOL     OW 8575   0.870   4.324   5.935
 2559SOL    HW1 8576   0.903   4.346   6.027
 2559SOL    HW2 8577   0.772   4.342   5.929
 2560SOL     OW 8578   6.217   2.366   6.132
 2560SOL    HW1 8579   6.195   2.358   6.035
 2560SOL    HW2 8580   6.138   2.336   6.186
 2561SOL     OW 8581   3.404   4.995   4.743
 2561SOL    HW1 8582   3.347   5.076   4.748
 2561SOL    HW2 8583   3.369   4.925   4.805
 2562SOL     OW 8584   2.524   4.280   0.593
 2562SOL    HW1 8585   2.565   4.222   0.521
 2562SOL    HW2 8586   2.428   4.256   0.604
 2563SOL     OW 8587   2.990   0.891   7.017
 2563SOL    HW1 8588   3.003   0.939   6.931
 2563SOL    HW2 8589   2.893   0.879   0.016
 2564SOL     OW 8590   1.584   5.498   0.747
 2564SOL    HW1 8591   1.629   5.566   0.805
 2564SOL    HW2 8592   1.571   5.414   0.799
 2565SOL     OW 8593   1.204   1.154   1.063
 2565SOL    HW1 8594   1.133   1.092   1.027
 2565SOL    HW2 8595   1.196   1.243   1.019
 2566SOL     OW 8596   2.406   6.487   0.631
 2566SOL    HW1 8597   2.494   6.444   0.649
 2566SOL    HW2 8598   2.419   6.568   0.573
 2567SOL     OW 8599   1.556   0.284   0.664
 2567SOL    HW1 8600   1.514   0.338   0.591
 2567SOL    HW2 8601   1.648   0.257   0.637
 2568SOL     OW 8602   4.439   2.181   6.823
 2568SOL    HW1 8603   4.522   2.236   6.812
 2568SOL    HW2 8604   4.365   2.221   6.769
 2569SOL     OW 8605   3.787   0.997   3.725
 2569SOL    HW1 8606   3.863   0.937   3.697
 2569SOL    HW2 8607   3.717   0.998   3.653
 2570SOL     OW 8608   5.499   1.069   5.376
 2570SOL    HW1 8609   5.578   1.013   5.403
 2570SOL    HW2 8610   5.423   1.010   5.349
 2571SOL     OW 8611   1.160   5.078   4.582
 2571SOL    HW1 8612   1.177   5.165   4.536
 2571SOL    HW2 8613   1.113   5.016   4.519
 2572SOL     OW 8614   2.713   5.041   3.251
 2572SOL    HW1 8615   2.772   5.013   3.176
 2572SOL    HW2 8616   2.767   5.086   3.322
 2573SOL     OW 8617   0.527   1.420   1.318
 2573SOL    HW1 8618   0.602   1.354   1.323
 2573SOL    HW2 8619   0.509   1.443   1.222
 2574SOL     OW 8620   5.969   3.125   0.829
 2574SOL    HW1 8621   5.876   3.094   0.808
 2574SOL    HW2 8622   6.031   3.047   0.824
 2575SOL     OW 8623   6.076   5.812   0.029
 2575SOL    HW1 8624   6.127   5.791   0.112
 2575SOL    HW2 8625   6.117   5.891   7.003
 2576SOL     OW 8626   4.605   6.615   3.943
 2576SOL    HW1 8627   4.560   6.640   3.857
 2576SOL    HW2 8628   4.701   6.644   3.940
 2577SOL     OW 8629   3.103   4.904   2.199
 2577SOL    HW1 8630   3.095   5.000   2.172
 2577SOL    HW2 8631   3.039   4.886   2.275
 2578SOL     OW 8632   3.924   1.733   4.481
 2578SOL    HW1 8633   3.945   1.648   4.529
 2578SOL    HW2 8634   4.006   1.789   4.473
 2579SOL     OW 8635   0.798   6.453   3.564
 2579SOL    HW1 8636   0.801   6.487   3.470
 2579SOL    HW2 8637   0.868   6.501   3.618
 2580SOL     OW 8638   2.942   4.074   0.147
 2580SOL    HW1 8639   2.875   4.014   0.191
 2580SOL    HW2 8640   3.032   4.031   0.149
 2581SOL     OW 8641   2.667   6.586   5.838
 2581SOL    HW1 8642   2.647   6.495   5.874
 2581SOL    HW2 8643   2.589   6.647   5.856
 2582SOL     OW 8644   6.631   3.537   1.124
 2582SOL    HW1 8645   6.604   3.476   1.198
 2582SOL    HW2 8646   6.691   3.609   1.160
 2583SOL     OW 8647   6.667   6.568   1.070
 2583SOL    HW1 8648   6.713   6.583   0.982
 2583SOL    HW2 8649   6.726   6.512   1.129
 2584SOL     OW 8650   4.366   4.814   5.829
 2584SOL    HW1 8651   4.372   4.859   5.740
 2584SOL    HW2 8652   4.336   4.720   5.817
 2585SOL     OW 8653   3.384   5.216   6.473
 2585SOL    HW1 8654   3.380   5.231   6.374
 2585SOL    HW2 8655   3.292   5.221   6.511
 2586SOL     OW 8656   2.367   0.823   5.767
 2586SOL    HW1 8657   2.347   0.793   5.674
 2586SOL    HW2 8658   2.463   0.803   5.789
 2587SOL     OW 8659   0.196   0.842   2.563
 2587SOL    HW1 8660   0.274   0.903   2.571
 2587SOL    HW2 8661   0.198   0.795   2.474
 2588SOL     OW 8662   4.410   1.895   5.347
 2588SOL    HW1 8663   4.313   1.885   5.326
 2588SOL    HW2 8664   4.423   1.968   5.414
 2589SOL     OW 8665   1.118   6.603   6.943
 2589SOL    HW1 8666   1.100   6.681   6.883
 2589SOL    HW2 8667   1.192   6.548   6.904
 2590SOL     OW 8668   2.670   4.953   0.376
 2590SOL    HW1 8669   2.624   4.886   0.435
 2590SOL    HW2 8670   2.722   5.017   0.433
 2591SOL     OW 8671   6.114   5.618   4.070
 2591SOL    HW1 8672   6.039   5.562   4.105
 2591SOL    HW2 8673   6.185   5.627   4.140
 2592SOL     OW 8674   2.486   4.409   6.548
 2592SOL    HW1 8675   2.465   4.321   6.591
 2592SOL    HW2 8676   2.412   4.434   6.486
 2593SOL     OW 8677   2.915   5.783   0.786
 2593SOL    HW1 8678   2.890   5.698   0.739
 2593SOL    HW2 8679   2.988   5.764   0.851
 2594SOL     OW 8680   1.980   3.968   5.253
 2594SOL    HW1 8681   2.077   3.949   5.272
 2594SOL    HW2 8682   1.960   4.063   5.274
 2595SOL     OW 8683   1.477   1.342   4.372
 2595SOL    HW1 8684   1.456   1.310   4.280
 2595SOL    HW2 8685   1.532   1.426   4.366
 2596SOL     OW 8686   1.713   2.644   1.248
 2596SOL    HW1 8687   1.628   2.665   1.297
 2596SOL    HW2 8688   1.692   2.628   1.152
 2597SOL     OW 8689   0.708   6.089   6.401
 2597SOL    HW1 8690   0.633   6.152   6.380
 2597SOL    HW2 8691   0.713   6.019   6.330
 2598SOL     OW 8692   6.277   1.604   2.139
 2598SOL    HW1 8693   6.279   1.589   2.040
 2598SOL    HW2 8694   6.194   1.564   2.177
 2599SOL     OW 8695   3.128   6.904   2.044
 2599SOL    HW1 8696   3.186   6.928   1.966
 2599SOL    HW2 8697   3.036   6.942   2.029
 2600SOL     OW 8698   6.696   4.337   4.234
 2600SOL    HW1 8699   6.754   4.287   4.298
 2600SOL    HW2 8700   6.683   4.281   4.152
 2601SOL     OW 8701   0.912   2.242   2.458
 2601SOL    HW1 8702   0.843   2.302   2.499
 2601SOL    HW2 8703   0.876   2.149   2.452
 2602SOL     OW 8704   1.983   4.917   4.625
 2602SOL    HW1 8705   2.047   4.859   4.576
 2602SOL    HW2 8706   2.030   4.999   4.657
 2603SOL     OW 8707   2.857   1.152   2.530
 2603SOL    HW1 8708   2.800   1.215   2.583
 2603SOL    HW2 8709   2.802   1.076   2.497
 2604SOL     OW 8710   5.499   1.835   2.449
 2604SOL    HW1 8711   5.584   1.803   2.490
 2604SOL    HW2 8712   5.514   1.924   2.407
 2605SOL     OW 8713   1.012   3.868   1.917
 2605SOL    HW1 8714   0.919   3.883   1.950
 2605SOL    HW2 8715   1.039   3.773   1.932
 2606SOL     OW 8716   4.541   4.239   1.043
 2606SOL    HW1 8717   4.551   4.337   1.031
 2606SOL    HW2 8718   4.593   4.209   1.123
 2607SOL     OW 8719   1.935   2.176   0.867
 2607SOL    HW1 8720   1.941   2.273   0.842
 2607SOL    HW2 8721   1.842   2.154   0.894
 2608SOL     OW 8722   2.774   6.071   6.410
 2608SOL    HW1 8723   2.744   5.976   6.398
 2608SOL    HW2 8724   2.698   6.127   6.442
 2609SOL     OW 8725   0.780   0.701   1.219
 2609SOL    HW1 8726   0.705   0.687   1.284
 2609SOL    HW2 8727   0.763   0.784   1.166
 2610SOL     OW 8728   0.786   5.061   4.614
 2610SOL    HW1 8729   0.854   4.999   4.576
 2610SOL    HW2 8730   0.772   5.040   4.711
 2611SOL     OW 8731   5.133   6.541   6.914
 2611SOL    HW1 8732   5.157   6.449   6.882
 2611SOL    HW2 8733   5.054   6.536   6.976
 2612SOL     OW 8734   5.406   0.352   5.043
 2612SOL    HW1 8735   5.465   0.400   5.107
 2612SOL    HW2 8736   5.425   0.381   4.949
 2613SOL     OW 8737   0.849   5.802   6.559
 2613SOL    HW1 8738   0.773   5.833   6.503
 2613SOL    HW2 8739   0.830   5.710   6.594
 2614SOL     OW 8740   6.844   0.526   6.325
 2614SOL    HW1 8741   6.782   0.455   6.359
 2614SOL    HW2 8742   6.936   0.511   6.361
 2615SOL     OW 8743   1.316   3.834   0.964
 2615SOL    HW1 8744   1.311   3.759   0.897
 2615SOL    HW2 8745   1.370   3.805   1.042
 2616SOL     OW 8746   1.457   0.529   5.361
 2616SOL    HW1 8747   1.366   0.541   5.401
 2616SOL    HW2 8748   1.460   0.443   5.311
 2617SOL     OW 8749   5.437   0.508   0.397
 2617SOL    HW1 8750   5.356   0.527   0.454
 2617SOL    HW2 8751   5.518   0.547   0.441
 2618SOL     OW 8752   1.782   6.448   6.213
 2618SOL    HW1 8753   1.708   6.434   6.147
 2618SOL    HW2 8754   1.868   6.414   6.174
 2619SOL     OW 8755   4.293   1.562   1.911
 2619SOL    HW1 8756   4.334   1.653   1.924
 2619SOL    HW2 8757   4.234   1.540   1.988
 2620SOL     OW 8758   0.317   6.348   2.020
 2620SOL    HW1 8759   0.332   6.275   1.953
 2620SOL    HW2 8760   0.389   6.416   2.012
 2621SOL     OW 8761   1.245   6.062   2.996
 2621SOL    HW1 8762   1.147   6.062   3.016
 2621SOL    HW2 8763   1.289   5.988   3.048
 2622SOL     OW 8764   3.186   3.535   6.785
 2622SOL    HW1 8765   3.116   3.544   6.713
 2622SOL    HW2 8766   3.224   3.443   6.783
 2623SOL     OW 8767   1.106   0.232   4.235
 2623SOL    HW1 8768   1.099   0.141   4.196
 2623SOL    HW2 8769   1.042   0.294   4.189
 2624SOL     OW 8770   0.250   2.492   4.500
 2624SOL    HW1 8771   0.343   2.493   4.462
 2624SOL    HW2 8772   0.232   2.580   4.544
 2625SOL     OW 8773   2.068   5.357   5.593
 2625SOL    HW1 8774   2.080   5.347   5.691
 2625SOL    HW2 8775   2.125   5.288   5.546
 2626SOL     OW 8776   6.363   5.323   6.152
 2626SOL    HW1 8777   6.332   5.325   6.247
 2626SOL    HW2 8778   6.293   5.363   6.093
 2627SOL     OW 8779   1.204   6.876   5.839
 2627SOL    HW1 8780   1.282   6.863   5.779
 2627SOL    HW2 8781   1.232   6.930   5.919
 2628SOL     OW 8782   1.471   4.073   1.841
 2628SOL    HW1 8783   1.411   4.007   1.795
 2628SOL    HW2 8784   1.415   4.139   1.892
 2629SOL     OW 8785   3.922   4.023   3.535
 2629SOL    HW1 8786   3.841   3.964   3.534
 2629SOL    HW2 8787   3.910   4.096   3.468
 2630SOL     OW 8788   3.572   0.873   4.055
 2630SOL    HW1 8789   3.546   0.944   3.990
 2630SOL    HW2 8790   3.641   0.813   4.014
 2631SOL     OW 8791   6.128   0.884   0.333
 2631SOL    HW1 8792   6.102   0.821   0.407
 2631SOL    HW2 8793   6.054   0.888   0.266
 2632SOL     OW 8794   5.432   4.794   2.024
 2632SOL    HW1 8795   5.503   4.806   1.955
 2632SOL    HW2 8796   5.342   4.790   1.980
 2633SOL     OW 8797   6.969   3.188   5.736
 2633SOL    HW1 8798   0.026   3.175   5.799
 2633SOL    HW2 8799   6.980   3.276   5.689
 2634SOL     OW 8800   6.555   0.500   5.443
 2634SOL    HW1 8801   6.619   0.553   5.498
 2634SOL    HW2 8802   6.520   0.556   5.368
 2635SOL     OW 8803   5.950   5.403   3.856
 2635SOL    HW1 8804   6.050   5.394   3.861
 2635SOL    HW2 8805   5.926   5.499   3.842
 2636SOL     OW 8806   4.393   6.759   6.471
 2636SOL    HW1 8807   4.333   6.773   6.550
 2636SOL    HW2 8808   4.386   6.838   6.410
 2637SOL     OW 8809   2.059   1.351   3.216
 2637SOL    HW1 8810   2.098   1.399   3.138
 2637SOL    HW2 8811   1.994   1.282   3.183
 2638SOL     OW 8812   1.286   6.910   4.375
 2638SOL    HW1 8813   1.337   6.984   4.420
 2638SOL    HW2 8814   1.239   6.856   4.444
 2639SOL     OW 8815   4.104   5.066   5.029
 2639SOL    HW1 8816   4.093   5.117   4.944
 2639SOL    HW2 8817   4.156   4.982   5.011
 2640SOL     OW 8818   1.512   6.639   4.478
 2640SOL    HW1 8819   1.507   6.657   4.380
 2640SOL    HW2 8820   1.495   6.542   4.495
 2641SOL     OW 8821   5.461   2.039   6.555
 2641SOL    HW1 8822   5.437   2.030   6.652
 2641SOL    HW2 8823   5.539   1.980   6.535
 2642SOL     OW 8824   6.992   1.264   4.222
 2642SOL    HW1 8825   0.033   1.188   4.244
 2642SOL    HW2 8826   6.935   1.240   4.143
 2643SOL     OW 8827   1.512   4.224   3.599
 2643SOL    HW1 8828   1.549   4.157   3.662
 2643SOL    HW2 8829   1.539   4.201   3.506
 2644SOL     OW 8830   5.349   5.226   4.835
 2644SOL    HW1 8831   5.356   5.325   4.822
 2644SOL    HW2 8832   5.281   5.206   4.906
 2645SOL     OW 8833   5.361   4.900   3.000
 2645SOL    HW1 8834   5.334   4.993   3.026
 2645SOL    HW2 8835   5.405   4.901   2.911
 2646SOL     OW 8836   6.987   3.453   5.706
 2646SOL    HW1 8837   6.964   3.462   5.608
 2646SOL    HW2 8838   0.038   3.520   5.729
 2647SOL     OW 8839   4.869   0.212   2.113
 2647SOL    HW1 8840   4.799   0.255   2.056
 2647SOL    HW2 8841   4.960   0.228   2.073
 2648SOL     OW 8842   0.536   0.155   4.997
 2648SOL    HW1 8843   0.459   0.214   4.970
 2648SOL    HW2 8844   0.622   0.201   4.974
 2649SOL     OW 8845   5.224   2.345   1.860
 2649SOL    HW1 8846   5.280   2.288   1.920
 2649SOL    HW2 8847   5.136   2.301   1.844
 2650SOL     OW 8848   3.698   6.358   4.480
 2650SOL    HW1 8849   3.613   6.306   4.482
 2650SOL    HW2 8850   3.687   6.442   4.532
 2651SOL     OW 8851   4.128   2.101   5.183
 2651SOL    HW1 8852   4.121   2.186   5.235
 2651SOL    HW2 8853   4.124   2.023   5.245
 2652SOL     OW 8854   5.110   4.467   5.811
 2652SOL    HW1 8855   5.114   4.405   5.890
 2652SOL    HW2 8856   5.198   4.514   5.802
 2653SOL     OW 8857   2.955   6.619   0.060
 2653SOL    HW1 8858   3.030   6.649   0.120
 2653SOL    HW2 8859   2.988   6.608   6.986
 2654SOL     OW 8860   5.719   0.603   0.784
 2654SOL    HW1 8861   5.756   0.684   0.829
 2654SOL    HW2 8862   5.682   0.540   0.853
 2655SOL     OW 8863   5.020   5.573   2.983
 2655SOL    HW1 8864   4.970   5.615   2.907
 2655SOL    HW2 8865   4.963   5.574   3.065
 2656SOL     OW 8866   3.347   5.645   3.953
 2656SOL    HW1 8867   3.292   5.578   3.903
 2656SOL    HW2 8868   3.432   5.604   3.982
 2657SOL     OW 8869   1.684   3.400   0.062
 2657SOL    HW1 8870   1.678   3.305   0.031
 2657SOL    HW2 8871   1.778   3.422   0.085
 2658SOL     OW 8872   4.059   5.023   6.718
 2658SOL    HW1 8873   4.004   4.940   6.732
 2658SOL    HW2 8874   4.066   5.040   6.620
 2659SOL     OW 8875   6.943   2.298   4.574
 2659SOL    HW1 8876   6.915   2.298   4.669
 2659SOL    HW2 8877   7.013   2.368   4.560
 2660SOL     OW 8878   0.178   2.279   1.998
 2660SOL    HW1 8879   0.183   2.331   1.913
 2660SOL    HW2 8880   0.220   2.331   2.072
 2661SOL     OW 8881   1.892   1.609   0.778
 2661SOL    HW1 8882   1.850   1.563   0.856
 2661SOL    HW2 8883   1.969   1.664   0.808
 2662SOL     OW 8884   3.118   0.553   2.349
 2662SOL    HW1 8885   3.210   0.523   2.373
 2662SOL    HW2 8886   3.057   0.474   2.347
 2663SOL     OW 8887   4.250   6.492   0.498
 2663SOL    HW1 8888   4.167   6.445   0.527
 2663SOL    HW2 8889   4.312   6.426   0.454
 2664SOL     OW 8890   4.120   2.693   5.915
 2664SOL    HW1 8891   4.078   2.634   5.846
 2664SOL    HW2 8892   4.075   2.782   5.915
 2665SOL     OW 8893   1.883   3.728   5.289
 2665SOL    HW1 8894   1.874   3.702   5.193
 2665SOL    HW2 8895   1.944   3.807   5.296
 2666SOL     OW 8896   2.149   3.953   1.964
 2666SOL    HW1 8897   2.221   4.013   1.998
 2666SOL    HW2 8898   2.131   3.881   2.031
 2667SOL     OW 8899   6.453   3.664   4.301
 2667SOL    HW1 8900   6.446   3.764   4.310
 2667SOL    HW2 8901   6.362   3.624   4.311
 2668SOL     OW 8902   6.549   1.206   4.165
 2668SOL    HW1 8903   6.535   1.193   4.263
 2668SOL    HW2 8904   6.472   1.167   4.114
 2669SOL     OW 8905   2.621   0.756   0.323
 2669SOL    HW1 8906   2.682   0.736   0.400
 2669SOL    HW2 8907   2.550   0.819   0.352
 2670SOL     OW 8908   0.587   0.558   6.488
 2670SOL    HW1 8909   0.592   0.481   6.424
 2670SOL    HW2 8910   0.574   0.523   6.581
 2671SOL     OW 8911   4.033   5.099   5.945
 2671SOL    HW1 8912   3.955   5.049   5.983
 2671SOL    HW2 8913   4.109   5.097   6.011
 2672SOL     OW 8914   3.732   0.709   2.024
 2672SOL    HW1 8915   3.669   0.775   2.066
 2672SOL    HW2 8916   3.793   0.672   2.094
 2673SOL     OW 8917   4.513   0.513   2.336
 2673SOL    HW1 8918   4.600   0.474   2.367
 2673SOL    HW2 8919   4.508   0.609   2.364
 2674SOL     OW 8920   0.747   4.640   2.250
 2674SOL    HW1 8921   0.718   4.644   2.346
 2674SOL    HW2 8922   0.801   4.721   2.228
 2675SOL     OW 8923   5.634   0.598   4.816
 2675SOL    HW1 8924   5.732   0.615   4.819
 2675SOL    HW2 8925   5.589   0.645   4.892
 2676SOL     OW 8926   3.612   4.121   3.047
 2676SOL    HW1 8927   3.549   4.044   3.035
 2676SOL    HW2 8928   3.566   4.206   3.023
 2677SOL     OW 8929   2.221   5.177   1.419
 2677SOL    HW1 8930   2.189   5.263   1.460
 2677SOL    HW2 8931   2.147   5.136   1.365
 2678SOL     OW 8932   5.562   2.166   2.813
 2678SOL    HW1 8933   5.544   2.176   2.716
 2678SOL    HW2 8934   5.496   2.102   2.853
 2679SOL     OW 8935   2.072   4.531   3.601
 2679SOL    HW1 8936   2.124   4.572   3.527
 2679SOL    HW2 8937   2.000   4.473   3.563
 2680SOL     OW 8938   0.274   2.292   0.099
 2680SOL    HW1 8939   0.302   2.206   0.142
 2680SOL    HW2 8940   0.355   2.349   0.085
 2681SOL     OW 8941   1.857   2.519   5.258
 2681SOL    HW1 8942   1.788   2.585   5.227
 2681SOL    HW2 8943   1.943   2.567   5.274
 2682SOL     OW 8944   4.118   3.973   1.514
 2682SOL    HW1 8945   4.139   4.064   1.479
 2682SOL    HW2 8946   4.049   3.981   1.586
 2683SOL     OW 8947   2.708   4.691   2.598
 2683SOL    HW1 8948   2.770   4.754   2.549
 2683SOL    HW2 8949   2.629   4.671   2.540
 2684SOL     OW 8950   5.705   6.661   2.966
 2684SOL    HW1 8951   5.660   6.672   3.055
 2684SOL    HW2 8952   5.637   6.664   2.894
 2685SOL     OW 8953   1.108   6.134   5.453
 2685SOL    HW1 8954   1.195   6.096   5.485
 2685SOL    HW2 8955   1.054   6.164   5.532
 2686SOL     OW 8956   1.139   1.350   4.901
 2686SOL    HW1 8957   1.061   1.348   4.839
 2686SOL    HW2 8958   1.180   1.259   4.906
 2687SOL     OW 8959   3.687   1.337   1.600
 2687SOL    HW1 8960   3.784   1.337   1.622
 2687SOL    HW2 8961   3.672   1.390   1.516
 2688SOL     OW 8962   3.375   3.322   6.042
 2688SOL    HW1 8963   3.464   3.301   6.081
 2688SOL    HW2 8964   3.348   3.415   6.066
 2689SOL     OW 8965   1.128   3.390   2.483
 2689SOL    HW1 8966   1.087   3.459   2.424
 2689SOL    HW2 8967   1.185   3.328   2.428
 2690SOL     OW 8968   3.621   1.566   6.091
 2690SOL    HW1 8969   3.660   1.474   6.082
 2690SOL    HW2 8970   3.525   1.559   6.120
 2691SOL     OW 8971   0.089   4.276   4.083
 2691SOL    HW1 8972   0.147   4.270   4.165
 2691SOL    HW2 8973   0.147   4.279   4.002
 2692SOL     OW 8974   3.155   5.956   3.106
 2692SOL    HW1 8975   3.216   5.910   3.170
 2692SOL    HW2 8976   3.208   6.011   3.042
 2693SOL     OW 8977   1.378   5.359   3.292
 2693SOL    HW1 8978   1.454   5.418   3.318
 2693SOL    HW2 8979   1.360   5.293   3.365
 2694SOL     OW 8980   3.646   6.860   3.820
 2694SOL    HW1 8981   3.743   6.840   3.828
 2694SOL    HW2 8982   3.629   6.912   3.736
 2695SOL     OW 8983   0.002   5.033   3.486
 2695SOL    HW1 8984   0.093   5.036   3.528
 2695SOL    HW2 8985   6.965   4.967   3.535
 2696SOL     OW 8986   4.889   4.376   6.830
 2696SOL    HW1 8987   4.981   4.382   6.790
 2696SOL    HW2 8988   4.881   4.290   6.880
 2697SOL     OW 8989   4.015   2.358   0.457
 2697SOL    HW1 8990   4.018   2.277   0.400
 2697SOL    HW2 8991   3.964   2.339   0.541
 2698SOL     OW 8992   1.722   4.169   5.910
 2698SOL    HW1 8993   1.794   4.142   5.846
 2698SOL    HW2 8994   1.636   4.128   5.882
 2699SOL     OW 8995   3.393   6.107   2.093
 2699SOL    HW1 8996   3.400   6.115   1.994
 2699SOL    HW2 8997   3.297   6.094   2.119
 2700SOL     OW 8998   3.428   2.072   2.061
 2700SOL    HW1 8999   3.509   2.098   2.009
 2700SOL    HW2 9000   3.428   2.122   2.148
 2701SOL     OW 9001   5.104   3.029   4.861
 2701SOL    HW1 9002   5.106   3.025   4.961
 2701SOL    HW2 9003   5.169   2.962   4.825
 2702SOL     OW 9004   2.518   1.630   5.012
 2702SOL    HW1 9005   2.595   1.568   5.001
 2702SOL    HW2 9006   2.441   1.580   5.053
 2703SOL     OW 9007   1.327   0.090   2.017
 2703SOL    HW1 9008   1.349   0.072   1.921
 2703SOL    HW2 9009   1.367   0.177   2.045
 2704SOL     OW 9010   5.568   0.300   4.476
 2704SOL    HW1 9011   5.561   0.202   4.495
 2704SOL    HW2 9012   5.579   0.315   4.378
 2705SOL     OW 9013   6.626   6.870   5.220
 2705SOL    HW1 9014   6.570   6.936   5.271
 2705SOL    HW2 9015   6.645   6.905   5.129
 2706SOL     OW 9016   6.742   3.522   3.362
 2706SOL    HW1 9017   6.825   3.542   3.414
 2706SOL    HW2 9018   6.723   3.597   3.299
 2707SOL     OW 9019   4.063   0.513   3.390
 2707SOL    HW1 9020   4.049   0.563   3.305
 2707SOL    HW2 9021   4.102   0.423   3.371
 2708SOL     OW 9022   6.063   3.002   0.479
 2708SOL    HW1 9023   6.071   3.078   0.415
 2708SOL    HW2 9024   6.148   2.992   0.530
 2709SOL     OW 9025   4.511   0.855   4.279
 2709SOL    HW1 9026   4.553   0.810   4.358
 2709SOL    HW2 9027   4.428   0.902   4.308
 2710SOL     OW 9028   1.253   2.513   3.953
 2710SOL    HW1 9029   1.336   2.510   3.898
 2710SOL    HW2 9030   1.190   2.582   3.915
 2711SOL     OW 9031   3.324   1.969   2.302
 2711SOL    HW1 9032   3.247   1.916   2.339
 2711SOL    HW2 9033   3.345   1.937   2.209
 2712SOL     OW 9034   3.795   5.600   1.969
 2712SOL    HW1 9035   3.818   5.550   2.053
 2712SOL    HW2 9036   3.879   5.624   1.921
 2713SOL     OW 9037   3.329   4.708   6.423
 2713SOL    HW1 9038   3.321   4.629   6.484
 2713SOL    HW2 9039   3.396   4.772   6.460
 2714SOL     OW 9040   2.452   4.702   6.892
 2714SOL    HW1 9041   2.488   4.740   6.977
 2714SOL    HW2 9042   2.472   4.765   6.817
 2715SOL     OW 9043   4.424   1.121   0.704
 2715SOL    HW1 9044   4.501   1.175   0.736
 2715SOL    HW2 9045   4.345   1.136   0.763
 2716SOL     OW 9046   3.893   2.172   2.904
 2716SOL    HW1 9047   3.905   2.078   2.936
 2716SOL    HW2 9048   3.982   2.218   2.904
 2717SOL     OW 9049   0.512   0.904   2.882
 2717SOL    HW1 9050   0.594   0.858   2.918
 2717SOL    HW2 9051   0.435   0.889   2.944
 2718SOL     OW 9052   0.224   0.122   5.797
 2718SOL    HW1 9053   0.252   0.046   5.857
 2718SOL    HW2 9054   0.135   0.100   5.756
 2719SOL     OW 9055   2.107   3.659   2.414
 2719SOL    HW1 9056   2.075   3.565   2.425
 2719SOL    HW2 9057   2.125   3.699   2.504
 2720SOL     OW 9058   1.889   6.676   5.684
 2720SOL    HW1 9059   1.944   6.725   5.616
 2720SOL    HW2 9060   1.792   6.694   5.669
 2721SOL     OW 9061   3.412   5.840   1.586
 2721SOL    HW1 9062   3.503   5.850   1.626
 2721SOL    HW2 9063   3.372   5.754   1.617
 2722SOL     OW 9064   4.970   5.670   6.833
 2722SOL    HW1 9065   4.871   5.677   6.834
 2722SOL    HW2 9066   5.009   5.758   6.807
 2723SOL     OW 9067   3.195   6.706   0.455
 2723SOL    HW1 9068   3.175   6.803   0.471
 2723SOL    HW2 9069   3.154   6.652   0.528
 2724SOL     OW 9070   1.214   5.750   0.949
 2724SOL    HW1 9071   1.279   5.775   0.876
 2724SOL    HW2 9072   1.181   5.833   0.993
 2725SOL     OW 9073   5.352   3.770   5.174
 2725SOL    HW1 9074   5.350   3.839   5.247
 2725SOL    HW2 9075   5.287   3.796   5.103
 2726SOL     OW 9076   0.160   1.211   1.821
 2726SOL    HW1 9077   0.199   1.119   1.812
 2726SOL    HW2 9078   0.230   1.279   1.802
 2727SOL     OW 9079   1.950   4.119   4.705
 2727SOL    HW1 9080   1.938   4.187   4.777
 2727SOL    HW2 9081   2.012   4.155   4.635
 2728SOL     OW 9082   5.630   5.904   6.030
 2728SOL    HW1 9083   5.543   5.854   6.027
 2728SOL    HW2 9084   5.642   5.944   6.120
 2729SOL     OW 9085   5.367   5.861   6.032
 2729SOL    HW1 9086   5.321   5.780   6.067
 2729SOL    HW2 9087   5.303   5.914   5.975
 2730SOL     OW 9088   1.382   5.615   2.311
 2730SOL    HW1 9089   1.437   5.583   2.388
 2730SOL    HW2 9090   1.292   5.643   2.344
 2731SOL     OW 9091   3.261   3.567   3.812
 2731SOL    HW1 9092   3.335   3.616   3.857
 2731SOL    HW2 9093   3.232   3.490   3.870
 2732SOL     OW 9094   5.747   1.489   1.764
 2732SOL    HW1 9095   5.708   1.580   1.777
 2732SOL    HW2 9096   5.735   1.461   1.669
 2733SOL     OW 9097   0.978   0.058   6.069
 2733SOL    HW1 9098   1.048   7.008   6.085
 2733SOL    HW2 9099   0.923   0.069   6.152
 2734SOL     OW 9100   3.120   5.970   1.433
 2734SOL    HW1 9101   3.200   5.954   1.491
 2734SOL    HW2 9102   3.048   5.905   1.457
 2735SOL     OW 9103   0.569   1.358   1.611
 2735SOL    HW1 9104   0.608   1.439   1.566
 2735SOL    HW2 9105   0.475   1.344   1.580
 2736SOL     OW 9106   4.724   5.039   3.473
 2736SOL    HW1 9107   4.721   5.078   3.381
 2736SOL    HW2 9108   4.711   4.940   3.468
 2737SOL     OW 9109   2.498   2.543   6.714
 2737SOL    HW1 9110   2.404   2.517   6.735
 2737SOL    HW2 9111   2.516   2.635   6.748
 2738SOL     OW 9112   5.751   6.838   1.911
 2738SOL    HW1 9113   5.825   6.832   1.978
 2738SOL    HW2 9114   5.747   6.931   1.874
 2739SOL     OW 9115   1.142   5.409   2.083
 2739SOL    HW1 9116   1.213   5.339   2.091
 2739SOL    HW2 9117   1.185   5.498   2.068
 2740SOL     OW 9118   6.509   6.314   3.522
 2740SOL    HW1 9119   6.604   6.300   3.550
 2740SOL    HW2 9120   6.472   6.393   3.571
 2741SOL     OW 9121   1.218   1.619   4.886
 2741SOL    HW1 9122   1.237   1.637   4.789
 2741SOL    HW2 9123   1.177   1.529   4.896
 2742SOL     OW 9124   3.332   5.186   1.833
 2742SOL    HW1 9125   3.410   5.231   1.790
 2742SOL    HW2 9126   3.360   5.097   1.868
 2743SOL     OW 9127   5.477   4.167   3.003
 2743SOL    HW1 9128   5.550   4.232   2.986
 2743SOL    HW2 9129   5.391   4.203   2.967
 2744SOL     OW 9130   3.736   3.992   3.261
 2744SOL    HW1 9131   3.650   3.999   3.311
 2744SOL    HW2 9132   3.726   4.034   3.171
 2745SOL     OW 9133   7.015   0.399   6.007
 2745SOL    HW1 9134   7.013   0.419   6.105
 2745SOL    HW2 9135   0.076   0.443   5.966
 2746SOL     OW 9136   1.688   0.904   3.969
 2746SOL    HW1 9137   1.694   0.813   3.930
 2746SOL    HW2 9138   1.721   0.971   3.902
 2747SOL     OW 9139   3.681   5.713   0.602
 2747SOL    HW1 9140   3.612   5.722   0.530
 2747SOL    HW2 9141   3.706   5.803   0.636
 2748SOL     OW 9142   4.633   6.657   1.716
 2748SOL    HW1 9143   4.668   6.728   1.655
 2748SOL    HW2 9144   4.709   6.617   1.767
 2749SOL     OW 9145   1.922   3.320   0.172
 2749SOL    HW1 9146   1.887   3.383   0.241
 2749SOL    HW2 9147   1.915   3.226   0.206
 2750SOL     OW 9148   2.372   5.574   2.515
 2750SOL    HW1 9149   2.276   5.557   2.494
 2750SOL    HW2 9150   2.394   5.535   2.605
 2751SOL     OW 9151   0.374   3.086   0.828
 2751SOL    HW1 9152   0.300   3.148   0.805
 2751SOL    HW2 9153   0.462   3.131   0.814
 2752SOL     OW 9154   3.453   4.918   6.724
 2752SOL    HW1 9155   3.495   4.832   6.694
 2752SOL    HW2 9156   3.355   4.916   6.705
 2753SOL     OW 9157   5.916   5.631   5.019
 2753SOL    HW1 9158   5.939   5.683   4.937
 2753SOL    HW2 9159   5.941   5.684   5.100
 2754SOL     OW 9160   1.197   6.955   6.137
 2754SOL    HW1 9161   1.288   6.916   6.118
 2754SOL    HW2 9162   1.158   6.911   6.217
 2755SOL     OW 9163   2.933   6.788   2.573
 2755SOL    HW1 9164   2.976   6.698   2.564
 2755SOL    HW2 9165   2.998   6.859   2.545
 2756SOL     OW 9166   4.946   6.163   0.138
 2756SOL    HW1 9167   4.925   6.116   0.052
 2756SOL    HW2 9168   5.044   6.164   0.153
 2757SOL     OW 9169   0.858   4.905   1.463
 2757SOL    HW1 9170   0.923   4.976   1.491
 2757SOL    HW2 9171   0.775   4.912   1.519
 2758SOL     OW 9172   5.106   0.642   5.433
 2758SOL    HW1 9173   5.177   0.608   5.372
 2758SOL    HW2 9174   5.088   0.576   5.505
 2759SOL     OW 9175   5.776   6.212   4.633
 2759SOL    HW1 9176   5.876   6.220   4.641
 2759SOL    HW2 9177   5.754   6.133   4.575
 2760SOL     OW 9178   2.332   5.115   2.659
 2760SOL    HW1 9179   2.377   5.033   2.624
 2760SOL    HW2 9180   2.399   5.172   2.708
 2761SOL     OW 9181   2.254   5.663   2.906
 2761SOL    HW1 9182   2.334   5.674   2.966
 2761SOL    HW2 9183   2.172   5.650   2.961
 2762SOL     OW 9184   0.863   6.867   5.390
 2762SOL    HW1 9185   0.814   6.787   5.358
 2762SOL    HW2 9186   0.876   6.861   5.489
 2763SOL     OW 9187   5.232   1.708   3.718
 2763SOL    HW1 9188   5.287   1.693   3.635
 2763SOL    HW2 9189   5.292   1.711   3.798
 2764SOL     OW 9190   6.124   1.013   2.294
 2764SOL    HW1 9191   6.067   0.939   2.258
 2764SOL    HW2 9192   6.155   1.071   2.219
 2765SOL     OW 9193   6.090   1.285   2.086
 2765SOL    HW1 9194   6.035   1.201   2.089
 2765SOL    HW2 9195   6.040   1.359   2.130
 2766SOL     OW 9196   6.075   1.128   1.846
 2766SOL    HW1 9197   6.013   1.163   1.916
 2766SOL    HW2 9198   6.024   1.072   1.781
 2767SOL     OW 9199   5.658   3.981   6.767
 2767SOL    HW1 9200   5.577   4.039   6.780
 2767SOL    HW2 9201   5.631   3.885   6.774
 2768SOL     OW 9202   4.702   1.175   6.642
 2768SOL    HW1 9203   4.691   1.210   6.549
 2768SOL    HW2 9204   4.737   1.248   6.701
 2769SOL     OW 9205   0.114   4.569   1.799
 2769SOL    HW1 9206   0.141   4.660   1.831
 2769SOL    HW2 9207   0.070   4.519   1.873
 2770SOL     OW 9208   0.991   4.996   1.941
 2770SOL    HW1 9209   1.065   4.991   1.874
 2770SOL    HW2 9210   0.905   4.969   1.897
 2771SOL     OW 9211   5.589   1.413   1.145
 2771SOL    HW1 9212   5.673   1.361   1.158
 2771SOL    HW2 9213   5.532   1.369   1.075
 2772SOL     OW 9214   3.405   2.784   0.019
 2772SOL    HW1 9215   3.318   2.765   6.991
 2772SOL    HW2 9216   3.411   2.730   0.102
 2773SOL     OW 9217   3.709   4.225   6.894
 2773SOL    HW1 9218   3.727   4.272   6.981
 2773SOL    HW2 9219   3.792   4.176   6.866
 2774SOL     OW 9220   5.560   3.145   1.992
 2774SOL    HW1 9221   5.659   3.152   1.986
 2774SOL    HW2 9222   5.528   3.063   1.945
 2775SOL     OW 9223   0.276   5.657   1.640
 2775SOL    HW1 9224   0.330   5.609   1.572
 2775SOL    HW2 9225   0.268   5.754   1.615
 2776SOL     OW 9226   3.226   6.340   6.360
 2776SOL    HW1 9227   3.209   6.290   6.274
 2776SOL    HW2 9228   3.161   6.416   6.367
 2777SOL     OW 9229   3.289   1.492   2.466
 2777SOL    HW1 9230   3.334   1.531   2.386
 2777SOL    HW2 9231   3.261   1.398   2.447
 2778SOL     OW 9232   2.297   2.190   5.773
 2778SOL    HW1 9233   2.228   2.233   5.715
 2778SOL    HW2 9234   2.363   2.258   5.804
 2779SOL     OW 9235   5.189   0.319   6.492
 2779SOL    HW1 9236   5.240   0.343   6.575
 2779SOL    HW2 9237   5.126   0.243   6.513
 2780SOL     OW 9238   5.381   5.248   6.398
 2780SOL    HW1 9239   5.374   5.221   6.302
 2780SOL    HW2 9240   5.472   5.226   6.432
 2781SOL     OW 9241   5.404   4.568   1.295
 2781SOL    HW1 9242   5.313   4.540   1.326
 2781SOL    HW2 9243   5.456   4.487   1.266
 2782SOL     OW 9244   3.011   2.785   6.479
 2782SOL    HW1 9245   3.048   2.877   6.465
 2782SOL    HW2 9246   3.015   2.734   6.393
 2783SOL     OW 9247   6.855   4.822   5.186
 2783SOL    HW1 9248   6.802   4.907   5.183
 2783SOL    HW2 9249   6.953   4.844   5.189
 2784SOL     OW 9250   1.986   2.258   1.410
 2784SOL    HW1 9251   2.057   2.323   1.381
 2784SOL    HW2 9252   1.995   2.173   1.358
 2785SOL     OW 9253   6.587   0.601   0.601
 2785SOL    HW1 9254   6.557   0.510   0.631
 2785SOL    HW2 9255   6.507   0.659   0.586
 2786SOL     OW 9256   3.822   6.226   1.036
 2786SOL    HW1 9257   3.787   6.266   1.121
 2786SOL    HW2 9258   3.886   6.290   0.993
 2787SOL     OW 9259   2.324   2.735   5.734
 2787SOL    HW1 9260   2.386   2.786   5.675
 2787SOL    HW2 9261   2.377   2.684   5.801
 2788SOL     OW 9262   2.401   4.492   0.841
 2788SOL    HW1 9263   2.501   4.505   0.843
 2788SOL    HW2 9264   2.362   4.516   0.930
 2789SOL     OW 9265   0.789   1.946   4.105
 2789SOL    HW1 9266   0.761   1.870   4.046
 2789SOL    HW2 9267   0.756   1.931   4.198
 2790SOL     OW 9268   3.806   5.039   2.869
 2790SOL    HW1 9269   3.763   5.104   2.807
 2790SOL    HW2 9270   3.806   5.076   2.962
 2791SOL     OW 9271   1.632   3.575   4.516
 2791SOL    HW1 9272   1.695   3.646   4.483
 2791SOL    HW2 9273   1.684   3.499   4.554
 2792SOL     OW 9274   0.431   0.901   4.939
 2792SOL    HW1 9275   0.396   0.873   5.028
 2792SOL    HW2 9276   0.399   0.993   4.918
 2793SOL     OW 9277   5.158   1.867   2.744
 2793SOL    HW1 9278   5.156   1.770   2.766
 2793SOL    HW2 9279   5.137   1.881   2.647
 2794SOL     OW 9280   0.245   0.870   0.356
 2794SOL    HW1 9281   0.308   0.818   0.413
 2794SOL    HW2 9282   0.162   0.892   0.407
 2795SOL     OW 9283   3.059   3.899   1.568
 2795SOL    HW1 9284   3.159   3.906   1.573
 2795SOL    HW2 9285   3.034   3.848   1.486
 2796SOL     OW 9286   5.282   4.324   2.883
 2796SOL    HW1 9287   5.297   4.416   2.920
 2796SOL    HW2 9288   5.287   4.328   2.783
 2797SOL     OW 9289   4.969   5.513   4.834
 2797SOL    HW1 9290   4.888   5.476   4.880
 2797SOL    HW2 9291   5.042   5.526   4.901
 2798SOL     OW 9292   0.986   3.311   3.312
 2798SOL    HW1 9293   0.950   3.219   3.332
 2798SOL    HW2 9294   1.025   3.311   3.220
 2799SOL     OW 9295   6.763   5.062   6.183
 2799SOL    HW1 9296   6.809   4.976   6.162
 2799SOL    HW2 9297   6.785   5.130   6.113
 2800SOL     OW 9298   2.767   5.005   6.620
 2800SOL    HW1 9299   2.764   5.013   6.521
 2800SOL    HW2 9300   2.797   4.913   6.646
 2801SOL     OW 9301   4.964   5.411   1.912
 2801SOL    HW1 9302   5.047   5.454   1.949
 2801SOL    HW2 9303   4.896   5.482   1.893
 2802SOL     OW 9304   4.260   1.778   5.851
 2802SOL    HW1 9305   4.231   1.831   5.771
 2802SOL    HW2 9306   4.258   1.836   5.932
 2803SOL     OW 9307   2.936   6.860   6.106
 2803SOL    HW1 9308   2.898   6.768   6.114
 2803SOL    HW2 9309   2.866   6.927   6.127
 2804SOL     OW 9310   6.543   4.684   3.574
 2804SOL    HW1 9311   6.606   4.633   3.515
 2804SOL    HW2 9312   6.578   4.684   3.668
 2805SOL     OW 9313   5.091   2.992   0.844
 2805SOL    HW1 9314   5.030   3.071   0.835
 2805SOL    HW2 9315   5.152   3.005   0.922
 2806SOL     OW 9316   6.622   5.388   2.864
 2806SOL    HW1 9317   6.561   5.435   2.927
 2806SOL    HW2 9318   6.635   5.293   2.894
 2807SOL     OW 9319   3.809   4.992   3.535
 2807SOL    HW1 9320   3.896   4.950   3.562
 2807SOL    HW2 9321   3.765   4.936   3.465
 2808SOL     OW 9322   5.459   1.405   3.901
 2808SOL    HW1 9323   5.549   1.366   3.920
 2808SOL    HW2 9324   5.462   1.457   3.816
 2809SOL     OW 9325   5.818   2.629   0.734
 2809SOL    HW1 9326   5.750   2.699   0.715
 2809SOL    HW2 9327   5.881   2.622   0.657
 2810SOL     OW 9328   2.461   0.207   5.158
 2810SOL    HW1 9329   2.422   0.117   5.138
 2810SOL    HW2 9330   2.441   0.270   5.082
 2811SOL     OW 9331   0.575   1.062   3.258
 2811SOL    HW1 9332   0.645   0.996   3.284
 2811SOL    HW2 9333   0.551   1.117   3.338
 2812SOL     OW 9334   4.881   3.699   2.537
 2812SOL    HW1 9335   4.876   3.632   2.612
 2812SOL    HW2 9336   4.888   3.651   2.450
 2813SOL     OW 9337   5.769   6.950   6.210
 2813SOL    HW1 9338   5.723   0.016   6.238
 2813SOL    HW2 9339   5.705   6.874   6.220
 2814SOL     OW 9340   4.096   4.124   5.947
 2814SOL    HW1 9341   4.092   4.122   6.047
 2814SOL    HW2 9342   4.004   4.113   5.909
 2815SOL     OW 9343   6.791   1.244   4.809
 2815SOL    HW1 9344   6.763   1.305   4.734
 2815SOL    HW2 9345   6.840   1.166   4.771
 2816SOL     OW 9346   5.895   0.399   4.058
 2816SOL    HW1 9347   5.935   0.439   4.139
 2816SOL    HW2 9348   5.962   0.340   4.012
 2817SOL     OW 9349   1.773   1.173   1.493
 2817SOL    HW1 9350   1.849   1.230   1.523
 2817SOL    HW2 9351   1.709   1.159   1.569
 2818SOL     OW 9352   6.861   4.450   6.094
 2818SOL    HW1 9353   6.924   4.430   6.169
 2818SOL    HW2 9354   6.827   4.365   6.054
 2819SOL     OW 9355   0.198   3.268   6.930
 2819SOL    HW1 9356   0.193   3.326   6.850
 2819SOL    HW2 9357   0.182   3.173   6.904
 2820SOL     OW 9358   0.112   2.572   2.960
 2820SOL    HW1 9359   0.126   2.483   2.916
 2820SOL    HW2 9360   0.121   2.561   3.059
 2821SOL     OW 9361   1.676   4.834   4.836
 2821SOL    HW1 9362   1.762   4.877   4.865
 2821SOL    HW2 9363   1.695   4.768   4.763
 2822SOL     OW 9364   5.393   2.287   6.977
 2822SOL    HW1 9365   5.397   2.386   6.988
 2822SOL    HW2 9366   5.462   2.244   0.016
 2823SOL     OW 9367   2.225   6.901   2.312
 2823SOL    HW1 9368   2.138   6.909   2.360
 2823SOL    HW2 9369   2.211   6.849   2.228
 2824SOL     OW 9370   2.618   1.645   5.379
 2824SOL    HW1 9371   2.708   1.655   5.336
 2824SOL    HW2 9372   2.558   1.592   5.318
 2825SOL     OW 9373   6.840   6.700   1.456
 2825SOL    HW1 9374   6.762   6.636   1.456
 2825SOL    HW2 9375   6.850   6.740   1.365
 2826SOL     OW 9376   5.056   1.941   5.122
 2826SOL    HW1 9377   5.128   1.968   5.058
 2826SOL    HW2 9378   5.003   1.865   5.084
 2827SOL     OW 9379   5.944   1.331   5.519
 2827SOL    HW1 9380   6.024   1.290   5.475
 2827SOL    HW2 9381   5.863   1.313   5.464
 2828SOL     OW 9382   4.165   0.548   5.570
 2828SOL    HW1 9383   4.258   0.583   5.582
 2828SOL    HW2 9384   4.152   0.518   5.476
 2829SOL     OW 9385   3.493   6.362   5.964
 2829SOL    HW1 9386   3.591   6.365   5.982
 2829SOL    HW2 9387   3.460   6.268   5.970
 2830SOL     OW 9388   4.667   3.639   6.424
 2830SOL    HW1 9389   4.684   3.695   6.504
 2830SOL    HW2 9390   4.632   3.549   6.453
 2831SOL     OW 9391   5.762   6.285   3.949
 2831SOL    HW1 9392   5.840   6.247   4.000
 2831SOL    HW2 9393   5.705   6.338   4.011
 2832SOL     OW 9394   0.308   1.342   1.523
 2832SOL    HW1 9395   0.357   1.267   1.478
 2832SOL    HW2 9396   0.290   1.415   1.457
 2833SOL     OW 9397   5.899   2.350   1.997
 2833SOL    HW1 9398   5.852   2.402   1.926
 2833SOL    HW2 9399   5.906   2.405   2.080
 2834SOL     OW 9400   3.604   1.629   5.582
 2834SOL    HW1 9401   3.511   1.640   5.616
 2834SOL    HW2 9402   3.644   1.546   5.620
 2835SOL     OW 9403   0.512   6.602   2.599
 2835SOL    HW1 9404   0.440   6.667   2.626
 2835SOL    HW2 9405   0.542   6.623   2.506
 2836SOL     OW 9406   6.971   6.775   1.817
 2836SOL    HW1 9407   0.018   6.699   1.811
 2836SOL    HW2 9408   6.942   6.787   1.912
 2837SOL     OW 9409   5.416   4.079   3.884
 2837SOL    HW1 9410   5.430   4.123   3.795
 2837SOL    HW2 9411   5.322   4.093   3.914
 2838SOL     OW 9412   2.781   4.955   1.876
 2838SOL    HW1 9413   2.733   5.012   1.942
 2838SOL    HW2 9414   2.853   4.903   1.923
 2839SOL     OW 9415   5.764   1.731   1.561
 2839SOL    HW1 9416   5.864   1.734   1.565
 2839SOL    HW2 9417   5.729   1.818   1.525
 2840SOL     OW 9418   6.844   1.398   5.244
 2840SOL    HW1 9419   6.921   1.417   5.305
 2840SOL    HW2 9420   6.877   1.348   5.163
 2841SOL     OW 9421   0.873   5.641   1.145
 2841SOL    HW1 9422   0.898   5.687   1.060
 2841SOL    HW2 9423   0.940   5.663   1.216
 2842SOL     OW 9424   6.686   3.355   3.656
 2842SOL    HW1 9425   6.703   3.436   3.600
 2842SOL    HW2 9426   6.762   3.291   3.646
 2843SOL     OW 9427   3.525   1.122   4.960
 2843SOL    HW1 9428   3.621   1.115   4.933
 2843SOL    HW2 9429   3.483   1.031   4.958
 2844SOL     OW 9430   1.081   4.190   0.018
 2844SOL    HW1 9431   1.042   4.234   6.956
 2844SOL    HW2 9432   1.157   4.244   0.052
 2845SOL     OW 9433   0.559   4.242   6.660
 2845SOL    HW1 9434   0.563   4.155   6.612
 2845SOL    HW2 9435   0.464   4.268   6.674
 2846SOL     OW 9436   4.897   1.520   6.445
 2846SOL    HW1 9437   4.811   1.538   6.492
 2846SOL    HW2 9438   4.940   1.439   6.484
 2847SOL     OW 9439   6.122   4.614   3.833
 2847SOL    HW1 9440   6.111   4.707   3.868
 2847SOL    HW2 9441   6.036   4.564   3.847
 2848SOL     OW 9442   0.476   5.143   4.804
 2848SOL    HW1 9443   0.427   5.219   4.847
 2848SOL    HW2 9444   0.561   5.125   4.855
 2849SOL     OW 9445   2.884   1.675   0.474
 2849SOL    HW1 9446   2.880   1.719   0.564
 2849SOL    HW2 9447   2.865   1.743   0.403
 2850SOL     OW 9448   3.508   0.203   0.904
 2850SOL    HW1 9449   3.539   0.231   0.995
 2850SOL    HW2 9450   3.424   0.151   0.913
 2851SOL     OW 9451   1.015   4.408   5.619
 2851SOL    HW1 9452   1.016   4.308   5.609
 2851SOL    HW2 9453   1.089   4.436   5.679
 2852SOL     OW 9454   6.643   3.314   6.488
 2852SOL    HW1 9455   6.668   3.346   6.580
 2852SOL    HW2 9456   6.590   3.384   6.442
 2853SOL     OW 9457   3.540   2.682   1.088
 2853SOL    HW1 9458   3.489   2.618   1.146
 2853SOL    HW2 9459   3.588   2.748   1.146
 2854SOL     OW 9460   2.634   0.193   4.339
 2854SOL    HW1 9461   2.544   0.214   4.301
 2854SOL    HW2 9462   2.689   0.145   4.271
 2855SOL     OW 9463   1.931   0.839   5.336
 2855SOL    HW1 9464   1.852   0.894   5.311
 2855SOL    HW2 9465   1.972   0.801   5.252
 2856SOL     OW 9466   2.622   2.838   5.359
 2856SOL    HW1 9467   2.541   2.780   5.349
 2856SOL    HW2 9468   2.620   2.911   5.291
 2857SOL     OW 9469   2.803   2.492   1.431
 2857SOL    HW1 9470   2.719   2.440   1.413
 2857SOL    HW2 9471   2.825   2.547   1.350
 2858SOL     OW 9472   6.032   2.766   2.642
 2858SOL    HW1 9473   5.960   2.710   2.681
 2858SOL    HW2 9474   6.031   2.758   2.542
 2859SOL     OW 9475   4.932   0.946   0.618
 2859SOL    HW1 9476   4.851   0.914   0.570
 2859SOL    HW2 9477   4.906   0.981   0.708
 2860SOL     OW 9478   4.014   1.873   1.827
 2860SOL    HW1 9479   3.981   1.786   1.864
 2860SOL    HW2 9480   4.107   1.860   1.791
 2861SOL     OW 9481   3.897   5.633   5.245
 2861SOL    HW1 9482   3.878   5.678   5.332
 2861SOL    HW2 9483   3.811   5.604   5.202
 2862SOL     OW 9484   5.370   1.165   3.949
 2862SOL    HW1 9485   5.460   1.131   3.974
 2862SOL    HW2 9486   5.377   1.259   3.915
 2863SOL     OW 9487   6.176   2.023   6.918
 2863SOL    HW1 9488   6.151   2.112   6.881
 2863SOL    HW2 9489   6.165   1.952   6.848
 2864SOL     OW 9490   4.040   0.310   1.386
 2864SOL    HW1 9491   4.034   0.341   1.291
 2864SOL    HW2 9492   3.984   0.369   1.444
 2865SOL     OW 9493   4.492   4.294   5.268
 2865SOL    HW1 9494   4.418   4.338   5.216
 2865SOL    HW2 9495   4.580   4.331   5.238
 2866SOL     OW 9496   0.086   5.660   6.148
 2866SOL    HW1 9497   0.083   5.730   6.220
 2866SOL    HW2 9498   7.012   5.642   6.116
 2867SOL     OW 9499   6.096   4.929   2.925
 2867SOL    HW1 9500   6.160   4.902   2.853
 2867SOL    HW2 9501   6.018   4.976   2.884
 2868SOL     OW 9502   1.354   4.288   4.970
 2868SOL    HW1 9503   1.298   4.319   5.047
 2868SOL    HW2 9504   1.412   4.213   4.999
 2869SOL     OW 9505   5.636   0.367   2.092
 2869SOL    HW1 9506   5.637   0.274   2.127
 2869SOL    HW2 9507   5.658   0.367   1.995
 2870SOL     OW 9508   6.375   2.215   3.266
 2870SOL    HW1 9509   6.298   2.277   3.247
 2870SOL    HW2 9510   6.380   2.146   3.193
 2871SOL     OW 9511   2.060   1.957   6.465
 2871SOL    HW1 9512   2.111   2.023   6.410
 2871SOL    HW2 9513   1.962   1.978   6.460
 2872SOL     OW 9514   2.736   0.552   4.195
 2872SOL    HW1 9515   2.735   0.644   4.157
 2872SOL    HW2 9516   2.770   0.487   4.127
 2873SOL     OW 9517   1.373   5.591   2.628
 2873SOL    HW1 9518   1.418   5.679   2.646
 2873SOL    HW2 9519   1.430   5.536   2.567
 2874SOL     OW 9520   5.687   3.789   2.604
 2874SOL    HW1 9521   5.590   3.765   2.602
 2874SOL    HW2 9522   5.701   3.877   2.560
 2875SOL     OW 9523   3.798   6.159   6.017
 2875SOL    HW1 9524   3.706   6.120   6.012
 2875SOL    HW2 9525   3.863   6.096   5.974
 2876SOL     OW 9526   0.909   1.028   1.326
 2876SOL    HW1 9527   0.881   0.991   1.238
 2876SOL    HW2 9528   0.940   0.954   1.385
 2877SOL     OW 9529   3.038   2.655   5.349
 2877SOL    HW1 9530   3.085   2.587   5.292
 2877SOL    HW2 9531   3.095   2.675   5.429
 2878SOL     OW 9532   2.513   4.789   4.936
 2878SOL    HW1 9533   2.442   4.843   4.891
 2878SOL    HW2 9534   2.515   4.697   4.896
 2879SOL     OW 9535   5.218   4.982   0.297
 2879SOL    HW1 9536   5.142   4.924   0.269
 2879SOL    HW2 9537   5.233   4.973   0.396
 2880SOL     OW 9538   0.720   5.966   1.120
 2880SOL    HW1 9539   0.748   6.031   1.050
 2880SOL    HW2 9540   0.623   5.946   1.111
 2881SOL     OW 9541   6.644   6.195   1.151
 2881SOL    HW1 9542   6.639   6.278   1.207
 2881SOL    HW2 9543   6.559   6.143   1.162
 2882SOL     OW 9544   6.880   3.233   2.226
 2882SOL    HW1 9545   6.782   3.249   2.220
 2882SOL    HW2 9546   6.899   3.135   2.216
 2883SOL     OW 9547   3.605   6.758   2.509
 2883SOL    HW1 9548   3.691   6.789   2.468
 2883SOL    HW2 9549   3.564   6.832   2.561
 2884SOL     OW 9550   0.635   6.312   3.087
 2884SOL    HW1 9551   0.536   6.309   3.069
 2884SOL    HW2 9552   0.681   6.240   3.036
 2885SOL     OW 9553   0.309   2.218   2.539
 2885SOL    HW1 9554   0.309   2.305   2.588
 2885SOL    HW2 9555   0.394   2.207   2.488
 2886SOL     OW 9556   2.097   2.120   6.685
 2886SOL    HW1 9557   2.129   2.198   6.631
 2886SOL    HW2 9558   2.066   2.048   6.622
 2887SOL     OW 9559   1.580   0.031   4.759
 2887SOL    HW1 9560   1.527   0.102   4.804
 2887SOL    HW2 9561   1.607   6.980   4.826
 2888SOL     OW 9562   6.458   4.771   6.522
 2888SOL    HW1 9563   6.548   4.752   6.483
 2888SOL    HW2 9564   6.437   4.704   6.593
 2889SOL     OW 9565   0.759   0.638   1.922
 2889SOL    HW1 9566   0.745   0.723   1.972
 2889SOL    HW2 9567   0.693   0.631   1.847
 2890SOL     OW 9568   4.076   0.466   1.118
 2890SOL    HW1 9569   3.999   0.462   1.055
 2890SOL    HW2 9570   4.097   0.561   1.140
 2891SOL     OW 9571   1.964   4.137   3.790
 2891SOL    HW1 9572   1.947   4.164   3.695
 2891SOL    HW2 9573   2.061   4.115   3.802
 2892SOL     OW 9574   3.916   4.291   6.420
 2892SOL    HW1 9575   3.837   4.244   6.458
 2892SOL    HW2 9576   3.897   4.389   6.412
 2893SOL     OW 9577   2.664   6.996   5.020
 2893SOL    HW1 9578   2.645   6.928   4.949
 2893SOL    HW2 9579   2.691   0.063   4.978
 2894SOL     OW 9580   2.938   3.319   0.211
 2894SOL    HW1 9581   2.950   3.300   0.113
 2894SOL    HW2 9582   2.844   3.298   0.238
 2895SOL     OW 9583   4.071   3.346   6.882
 2895SOL    HW1 9584   4.101   3.266   6.830
 2895SOL    HW2 9585   3.985   3.325   6.928
 2896SOL     OW 9586   2.314   5.410   6.876
 2896SOL    HW1 9587   2.391   5.457   6.918
 2896SOL    HW2 9588   2.253   5.377   6.948
 2897SOL     OW 9589   2.703   6.055   3.259
 2897SOL    HW1 9590   2.641   5.976   3.266
 2897SOL    HW2 9591   2.750   6.067   3.346
 2898SOL     OW 9592   4.529   5.193   2.154
 2898SOL    HW1 9593   4.579   5.238   2.228
 2898SOL    HW2 9594   4.492   5.106   2.187
 2899SOL     OW 9595   0.157   0.360   6.691
 2899SOL    HW1 9596   0.197   0.270   6.674
 2899SOL    HW2 9597   0.093   0.353   6.768
 2900SOL     OW 9598   1.340   5.224   5.819
 2900SOL    HW1 9599   1.438   5.240   5.810
 2900SOL    HW2 9600   1.292   5.312   5.819
 2901SOL     OW 9601   2.821   0.700   2.130
 2901SOL    HW1 9602   2.778   0.709   2.040
 2901SOL    HW2 9603   2.766   0.748   2.198
 2902SOL     OW 9604   5.584   6.450   0.973
 2902SOL    HW1 9605   5.637   6.447   0.889
 2902SOL    HW2 9606   5.528   6.367   0.980
 2903SOL     OW 9607   2.729   1.586   2.137
 2903SOL    HW1 9608   2.756   1.558   2.045
 2903SOL    HW2 9609   2.686   1.676   2.133
 2904SOL     OW 9610   2.186   3.246   5.133
 2904SOL    HW1 9611   2.094   3.240   5.093
 2904SOL    HW2 9612   2.245   3.180   5.087
 2905SOL     OW 9613   1.421   1.489   1.989
 2905SOL    HW1 9614   1.399   1.435   2.070
 2905SOL    HW2 9615   1.420   1.586   2.012
 2906SOL     OW 9616   5.717   5.530   2.332
 2906SOL    HW1 9617   5.796   5.523   2.272
 2906SOL    HW2 9618   5.748   5.545   2.426
 2907SOL     OW 9619   0.354   1.496   5.371
 2907SOL    HW1 9620   0.292   1.472   5.297
 2907SOL    HW2 9621   0.340   1.592   5.396
 2908SOL     OW 9622   4.543   6.254   4.234
 2908SOL    HW1 9623   4.451   6.217   4.241
 2908SOL    HW2 9624   4.539   6.351   4.210
 2909SOL     OW 9625   1.292   5.347   4.511
 2909SOL    HW1 9626   1.323   5.361   4.417
 2909SOL    HW2 9627   1.352   5.282   4.557
 2910SOL     OW 9628   3.844   6.506   4.784
 2910SOL    HW1 9629   3.871   6.419   4.825
 2910SOL    HW2 9630   3.747   6.523   4.802
 2911SOL     OW 9631   2.452   4.324   3.712
 2911SOL    HW1 9632   2.372   4.293   3.764
 2911SOL    HW2 9633   2.529   4.262   3.730
 2912SOL     OW 9634   3.067   5.940   0.066
 2912SOL    HW1 9635   3.063   5.912   0.162
 2912SOL    HW2 9636   3.037   6.035   0.058
 2913SOL     OW 9637   1.493   3.561   2.249
 2913SOL    HW1 9638   1.533   3.552   2.158
 2913SOL    HW2 9639   1.469   3.657   2.266
 2914SOL     OW 9640   5.632   4.748   5.932
 2914SOL    HW1 9641   5.635   4.753   5.832
 2914SOL    HW2 9642   5.692   4.674   5.963
 2915SOL     OW 9643   4.343   1.371   4.087
 2915SOL    HW1 9644   4.267   1.360   4.151
 2915SOL    HW2 9645   4.310   1.414   4.003
 2916SOL     OW 9646   6.254   4.779   5.028
 2916SOL    HW1 9647   6.262   4.878   5.045
 2916SOL    HW2 9648   6.345   4.738   5.027
 2917SOL     OW 9649   4.466   0.321   1.601
 2917SOL    HW1 9650   4.532   0.382   1.645
 2917SOL    HW2 9651   4.467   0.337   1.502
 2918SOL     OW 9652   0.705   3.889   3.583
 2918SOL    HW1 9653   0.646   3.863   3.506
 2918SOL    HW2 9654   0.801   3.874   3.558
 2919SOL     OW 9655   6.132   6.262   0.734
 2919SOL    HW1 9656   6.163   6.296   0.823
 2919SOL    HW2 9657   6.161   6.324   0.662
 2920SOL     OW 9658   3.909   2.183   2.614
 2920SOL    HW1 9659   3.895   2.193   2.712
 2920SOL    HW2 9660   3.822   2.187   2.566
 2921SOL     OW 9661   0.401   0.900   3.124
 2921SOL    HW1 9662   0.311   0.931   3.093
 2921SOL    HW2 9663   0.451   0.977   3.164
 2922SOL     OW 9664   4.827   0.144   5.512
 2922SOL    HW1 9665   4.897   0.199   5.558
 2922SOL    HW2 9666   4.854   0.048   5.512
 2923SOL     OW 9667   6.538   5.164   2.142
 2923SOL    HW1 9668   6.531   5.194   2.237
 2923SOL    HW2 9669   6.504   5.236   2.081
 2924SOL     OW 9670   0.569   1.061   5.722
 2924SOL    HW1 9671   0.653   1.101   5.758
 2924SOL    HW2 9672   0.536   1.116   5.645
 2925SOL     OW 9673   5.299   3.025   1.437
 2925SOL    HW1 9674   5.337   2.952   1.380
 2925SOL    HW2 9675   5.200   3.028   1.427
 2926SOL     OW 9676   6.868   1.968   4.633
 2926SOL    HW1 9677   6.863   2.067   4.640
 2926SOL    HW2 9678   6.832   1.938   4.545
 2927SOL     OW 9679   1.384   2.402   2.251
 2927SOL    HW1 9680   1.440   2.484   2.265
 2927SOL    HW2 9681   1.431   2.340   2.188
 2928SOL     OW 9682   6.371   0.385   0.110
 2928SOL    HW1 9683   6.461   0.419   0.082
 2928SOL    HW2 9684   6.335   0.324   0.039
 2929SOL     OW 9685   0.847   0.279   6.583
 2929SOL    HW1 9686   0.896   0.363   6.607
 2929SOL    HW2 9687   0.843   0.270   6.483
 2930SOL     OW 9688   5.111   0.974   4.773
 2930SOL    HW1 9689   5.053   1.039   4.723
 2930SOL    HW2 9690   5.114   0.887   4.724
 2931SOL     OW 9691   4.730   6.384   6.304
 2931SOL    HW1 9692   4.659   6.313   6.309
 2931SOL    HW2 9693   4.688   6.474   6.309
 2932SOL     OW 9694   0.979   3.858   1.420
 2932SOL    HW1 9695   1.011   3.846   1.326
 2932SOL    HW2 9696   1.019   3.941   1.458
 2933SOL     OW 9697   5.323   2.805   3.774
 2933SOL    HW1 9698   5.420   2.780   3.769
 2933SOL    HW2 9699   5.287   2.778   3.863
 2934SOL     OW 9700   2.913   0.485   0.065
 2934SOL    HW1 9701   2.965   0.503   7.001
 2934SOL    HW2 9702   2.817   0.511   0.051
 2935SOL     OW 9703   6.218   4.145   0.991
 2935SOL    HW1 9704   6.272   4.127   1.073
 2935SOL    HW2 9705   6.128   4.102   1.000
 2936SOL     OW 9706   4.882   5.728   0.120
 2936SOL    HW1 9707   4.814   5.722   0.047
 2936SOL    HW2 9708   4.956   5.664   0.101
 2937SOL     OW 9709   3.640   5.541   0.822
 2937SOL    HW1 9710   3.673   5.584   0.738
 2937SOL    HW2 9711   3.593   5.456   0.799
 2938SOL     OW 9712   4.788   5.585   5.337
 2938SOL    HW1 9713   4.884   5.563   5.354
 2938SOL    HW2 9714   4.769   5.677   5.370
 2939SOL     OW 9715   6.003   6.833   5.144
 2939SOL    HW1 9716   6.086   6.889   5.144
 2939SOL    HW2 9717   5.938   6.871   5.211
 2940SOL     OW 9718   5.814   0.216   5.221
 2940SOL    HW1 9719   5.884   0.256   5.162
 2940SOL    HW2 9720   5.793   0.278   5.297
 2941SOL     OW 9721   0.471   2.005   5.227
 2941SOL    HW1 9722   0.526   1.943   5.170
 2941SOL    HW2 9723   0.523   2.031   5.308
 2942SOL     OW 9724   3.445   0.499   2.135
 2942SOL    HW1 9725   3.421   0.562   2.062
 2942SOL    HW2 9726   3.474   0.551   2.216
 2943SOL     OW 9727   5.896   3.286   3.189
 2943SOL    HW1 9728   5.965   3.342   3.144
 2943SOL    HW2 9729   5.831   3.252   3.121
 2944SOL     OW 9730   3.627   4.948   4.943
 2944SOL    HW1 9731   3.570   4.952   5.025
 2944SOL    HW2 9732   3.571   4.967   4.863
 2945SOL     OW 9733   3.317   3.825   3.452
 2945SOL    HW1 9734   3.235   3.858   3.500
 2945SOL    HW2 9735   3.295   3.740   3.403
 2946SOL     OW 9736   6.640   5.657   5.919
 2946SOL    HW1 9737   6.662   5.717   5.842
 2946SOL    HW2 9738   6.544   5.668   5.944
 2947SOL     OW 9739   6.666   3.786   6.652
 2947SOL    HW1 9740   6.657   3.870   6.705
 2947SOL    HW2 9741   6.628   3.800   6.560
 2948SOL     OW 9742   6.209   3.842   4.978
 2948SOL    HW1 9743   6.165   3.777   4.916
 2948SOL    HW2 9744   6.156   3.927   4.980
 2949SOL     OW 9745   1.744   6.949   0.721
 2949SOL    HW1 9746   1.666   6.976   0.778
 2949SOL    HW2 9747   1.788   0.013   0.686
 2950SOL     OW 9748   6.193   3.586   4.259
 2950SOL    HW1 9749   6.143   3.668   4.230
 2950SOL    HW2 9750   6.127   3.512   4.275
 2951SOL     OW 9751   0.485   1.302   0.731
 2951SOL    HW1 9752   0.427   1.260   0.662
 2951SOL    HW2 9753   0.437   1.380   0.772
 2952SOL     OW 9754   1.197   4.427   3.071
 2952SOL    HW1 9755   1.258   4.504   3.051
 2952SOL    HW2 9756   1.113   4.462   3.113
 2953SOL     OW 9757   4.592   2.315   1.987
 2953SOL    HW1 9758   4.625   2.348   1.899
 2953SOL    HW2 9759   4.590   2.391   2.052
 2954SOL     OW 9760   6.856   6.502   2.602
 2954SOL    HW1 9761   6.852   6.596   2.568
 2954SOL    HW2 9762   6.786   6.488   2.672
 2955SOL     OW 9763   0.662   3.209   0.759
 2955SOL    HW1 9764   0.679   3.127   0.703
 2955SOL    HW2 9765   0.667   3.290   0.701
 2956SOL     OW 9766   0.448   5.192   3.086
 2956SOL    HW1 9767   0.524   5.258   3.089
 2956SOL    HW2 9768   0.378   5.220   3.152
 2957SOL     OW 9769   0.393   3.629   1.215
 2957SOL    HW1 9770   0.310   3.683   1.204
 2957SOL    HW2 9771   0.400   3.562   1.141
 2958SOL     OW 9772   1.679   4.377   5.453
 2958SOL    HW1 9773   1.611   4.314   5.415
 2958SOL    HW2 9774   1.683   4.460   5.398
 2959SOL     OW 9775   4.965   5.269   6.236
 2959SOL    HW1 9776   5.023   5.256   6.317
 2959SOL    HW2 9777   5.022   5.290   6.157
 2960SOL     OW 9778   2.542   2.375   6.955
 2960SOL    HW1 9779   2.547   2.439   0.013
 2960SOL    HW2 9780   2.538   2.427   6.869
 2961SOL     OW 9781   5.752   3.645   4.152
 2961SOL    HW1 9782   5.822   3.716   4.158
 2961SOL    HW2 9783   5.764   3.593   4.068
 2962SOL     OW 9784   4.317   1.133   3.293
 2962SOL    HW1 9785   4.377   1.120   3.372
 2962SOL    HW2 9786   4.341   1.217   3.246
 2963SOL     OW 9787   1.736   1.070   5.308
 2963SOL    HW1 9788   1.812   1.130   5.334
 2963SOL    HW2 9789   1.671   1.122   5.253
 2964SOL     OW 9790   1.934   6.267   1.747
 2964SOL    HW1 9791   2.004   6.330   1.713
 2964SOL    HW2 9792   1.936   6.266   1.847
 2965SOL     OW 9793   0.385   1.366   5.886
 2965SOL    HW1 9794   0.483   1.347   5.878
 2965SOL    HW2 9795   0.357   1.431   5.816
 2966SOL     OW 9796   5.442   4.687   3.925
 2966SOL    HW1 9797   5.462   4.709   4.020
 2966SOL    HW2 9798   5.351   4.721   3.901
 2967SOL     OW 9799   5.581   2.757   3.764
 2967SOL    HW1 9800   5.671   2.773   3.805
 2967SOL    HW2 9801   5.592   2.712   3.675
 2968SOL     OW 9802   0.718   3.926   4.113
 2968SOL    HW1 9803   0.664   3.922   4.029
 2968SOL    HW2 9804   0.670   3.985   4.179
 2969SOL     OW 9805   5.828   2.102   4.661
 2969SOL    HW1 9806   5.905   2.162   4.680
 2969SOL    HW2 9807   5.746   2.136   4.707
 2970SOL     OW 9808   0.885   4.403   6.198
 2970SOL    HW1 9809   0.869   4.502   6.196
 2970SOL    HW2 9810   0.852   4.366   6.285
 2971SOL     OW 9811   6.028   3.087   3.675
 2971SOL    HW1 9812   5.955   3.020   3.663
 2971SOL    HW2 9813   6.037   3.142   3.592
 2972SOL     OW 9814   6.248   3.452   6.285
 2972SOL    HW1 9815   6.174   3.494   6.337
 2972SOL    HW2 9816   6.212   3.372   6.235
 2973SOL     OW 9817   5.408   0.133   3.656
 2973SOL    HW1 9818   5.437   0.038   3.659
 2973SOL    HW2 9819   5.466   0.188   3.716
 2974SOL     OW 9820   6.996   4.704   2.802
 2974SOL    HW1 9821   6.905   4.732   2.835
 2974SOL    HW2 9822   7.019   4.757   2.720
 2975SOL     OW 9823   0.473   0.924   5.440
 2975SOL    HW1 9824   0.431   0.882   5.520
 2975SOL    HW2 9825   0.403   0.939   5.370
 2976SOL     OW 9826   4.173   1.355   2.401
 2976SOL    HW1 9827   4.087   1.340   2.351
 2976SOL    HW2 9828   4.246   1.303   2.358
 2977SOL     OW 9829   2.950   6.670   4.058
 2977SOL    HW1 9830   2.997   6.702   3.975
 2977SOL    HW2 9831   2.931   6.748   4.117
 2978SOL     OW 9832   4.657   5.107   0.247
 2978SOL    HW1 9833   4.708   5.181   0.290
 2978SOL    HW2 9834   4.611   5.052   0.318
 2979SOL     OW 9835   4.133   0.287   2.933
 2979SOL    HW1 9836   4.114   0.385   2.932
 2979SOL    HW2 9837   4.212   0.269   2.991
 2980SOL     OW 9838   1.202   6.498   4.330
 2980SOL    HW1 9839   1.210   6.411   4.379
 2980SOL    HW2 9840   1.293   6.529   4.303
 2981SOL     OW 9841   1.397   0.889   5.771
 2981SOL    HW1 9842   1.331   0.878   5.696
 2981SOL    HW2 9843   1.359   0.849   5.855
 2982SOL     OW 9844   4.347   5.951   2.622
 2982SOL    HW1 9845   4.321   5.881   2.555
 2982SOL    HW2 9846   4.442   5.977   2.608
 2983SOL     OW 9847   6.969   0.845   4.569
 2983SOL    HW1 9848   6.969   0.776   4.498
 2983SOL    HW2 9849   6.908   0.816   4.644
 2984SOL     OW 9850   6.108   5.485   1.893
 2984SOL    HW1 9851   6.051   5.407   1.920
 2984SOL    HW2 9852   6.062   5.570   1.916
 2985SOL     OW 9853   0.371   2.076   3.748
 2985SOL    HW1 9854   0.377   2.143   3.822
 2985SOL    HW2 9855   0.384   2.122   3.661
 2986SOL     OW 9856   1.498   3.640   4.966
 2986SOL    HW1 9857   1.420   3.626   4.905
 2986SOL    HW2 9858   1.492   3.731   5.007
 2987SOL     OW 9859   4.332   1.429   4.576
 2987SOL    HW1 9860   4.407   1.404   4.637
 2987SOL    HW2 9861   4.315   1.355   4.512
 2988SOL     OW 9862   0.959   0.628   1.536
 2988SOL    HW1 9863   0.936   0.585   1.623
 2988SOL    HW2 9864   0.884   0.615   1.471
 2989SOL     OW 9865   6.587   4.928   1.131
 2989SOL    HW1 9866   6.602   4.830   1.116
 2989SOL    HW2 9867   6.623   4.979   1.054
 2990SOL     OW 9868   3.179   1.222   2.371
 2990SOL    HW1 9869   3.102   1.173   2.412
 2990SOL    HW2 9870   3.173   1.215   2.272
 2991SOL     OW 9871   0.259   4.372   0.200
 2991SOL    HW1 9872   0.338   4.390   0.259
 2991SOL    HW2 9873   0.195   4.311   0.246
 2992SOL     OW 9874   3.543   5.524   6.439
 2992SOL    HW1 9875   3.456   5.531   6.488
 2992SOL    HW2 9876   3.555   5.604   6.380
 2993SOL     OW 9877   1.656   5.155   1.293
 2993SOL    HW1 9878   1.577   5.129   1.348
 2993SOL    HW2 9879   1.737   5.162   1.352
 2994SOL     OW 9880   4.905   0.502   0.339
 2994SOL    HW1 9881   4.900   0.602   0.348
 2994SOL    HW2 9882   4.813   0.464   0.347
 2995SOL     OW 9883   1.149   2.194   6.659
 2995SOL    HW1 9884   1.131   2.193   6.561
 2995SOL    HW2 9885   1.174   2.286   6.688
 2996SOL     OW 9886   3.707   4.935   5.305
 2996SOL    HW1 9887   3.701   4.895   5.397
 2996SOL    HW2 9888   3.802   4.932   5.274
 2997SOL     OW 9889   5.485   6.431   1.277
 2997SOL    HW1 9890   5.507   6.334   1.279
 2997SOL    HW2 9891   5.478   6.462   1.181
 2998SOL     OW 9892   5.633   6.230   3.691
 2998SOL    HW1 9893   5.694   6.284   3.633
 2998SOL    HW2 9894   5.665   6.234   3.786
 2999SOL     OW 9895   3.579   6.634   3.067
 2999SOL    HW1 9896   3.614   6.695   2.996
 2999SOL    HW2 9897   3.487   6.664   3.094
 3000SOL     OW 9898   1.252   3.098   6.194
 3000SOL    HW1 9899   1.309   3.173   6.160
 3000SOL    HW2 9900   1.252   3.024   6.127
 3001SOL     OW 9901   4.888   0.965   5.398
 3001SOL    HW1 9902   4.823   0.920   5.336
 3001SOL    HW2 9903   4.944   1.030   5.346
 3002SOL     OW 9904   4.571   0.063   5.423
 3002SOL    HW1 9905   4.650   0.096   5.473
 3002SOL    HW2 9906   4.515   0.141   5.394
 3003SOL     OW 9907   3.083   6.451   5.962
 3003SOL    HW1 9908   3.092   6.441   5.863
 3003SOL    HW2 9909   2.989   6.478   5.984
 3004SOL     OW 9910   6.071   3.573   3.756
 3004SOL    HW1 9911   6.035   3.663   3.733
 3004SOL    HW2 9912   6.141   3.582   3.827
 3005SOL     OW 9913   3.466   3.062   1.220
 3005SOL    HW1 9914   3.449   3.140   1.281
 3005SOL    HW2 9915   3.485   2.981   1.274
 3006SOL     OW 9916   5.436   1.271   0.990
 3006SOL    HW1 9917   5.370   1.264   0.915
 3006SOL    HW2 9918   5.453   1.180   1.028
 3007SOL     OW 9919   6.477   4.663   2.992
 3007SOL    HW1 9920   6.509   4.579   3.036
 3007SOL    HW2 9921   6.384   4.684   3.024
 3008SOL     OW 9922   3.482   6.354   6.248
 3008SOL    HW1 9923   3.432   6.337   6.333
 3008SOL    HW2 9924   3.431   6.421   6.193
 3009SOL     OW 9925   1.108   0.320   2.543
 3009SOL    HW1 9926   1.033   0.386   2.541
 3009SOL    HW2 9927   1.162   0.335   2.625
 3010SOL     OW 9928   3.393   5.622   2.887
 3010SOL    HW1 9929   3.372   5.543   2.829
 3010SOL    HW2 9930   3.470   5.599   2.947
 3011SOL     OW 9931   6.312   0.258   6.858
 3011SOL    HW1 9932   6.377   0.331   6.839
 3011SOL    HW2 9933   6.355   0.170   6.836
 3012SOL     OW 9934   0.128   3.723   3.230
 3012SOL    HW1 9935   0.100   3.814   3.260
 3012SOL    HW2 9936   0.065   3.655   3.267
 3013SOL     OW 9937   6.156   5.602   2.336
 3013SOL    HW1 9938   6.094   5.576   2.262
 3013SOL    HW2 9939   6.104   5.643   2.411
 3014SOL     OW 9940   5.233   1.825   4.138
 3014SOL    HW1 9941   5.268   1.847   4.229
 3014SOL    HW2 9942   5.232   1.726   4.126
 3015SOL     OW 9943   2.730   2.571   0.574
 3015SOL    HW1 9944   2.788   2.652   0.584
 3015SOL    HW2 9945   2.635   2.596   0.589
 3016SOL     OW 9946   3.813   6.441   3.724
 3016SOL    HW1 9947   3.817   6.344   3.747
 3016SOL    HW2 9948   3.730   6.481   3.764
 3017SOL     OW 9949   1.353   6.479   1.654
 3017SOL    HW1 9950   1.287   6.422   1.605
 3017SOL    HW2 9951   1.341   6.466   1.753
 3018SOL     OW 9952   3.990   6.767   6.790
 3018SOL    HW1 9953   4.075   6.797   6.834
 3018SOL    HW2 9954   3.968   6.828   6.714
 3019SOL     OW 9955   3.174   6.037   0.947
 3019SOL    HW1 9956   3.117   5.979   1.005
 3019SOL    HW2 9957   3.116   6.089   0.884
 3020SOL     OW 9958   2.937   3.477   1.556
 3020SOL    HW1 9959   3.008   3.417   1.520
 3020SOL    HW2 9960   2.967   3.517   1.643
 3021SOL     OW 9961   1.786   2.015   6.424
 3021SOL    HW1 9962   1.791   2.101   6.474
 3021SOL    HW2 9963   1.721   1.953   6.468
 3022SOL     OW 9964   4.470   6.070   2.887
 3022SOL    HW1 9965   4.548   6.130   2.867
 3022SOL    HW2 9966   4.424   6.046   2.801
 3023SOL     OW 9967   4.042   5.880   3.782
 3023SOL    HW1 9968   4.111   5.824   3.828
 3023SOL    HW2 9969   4.066   5.976   3.792
 3024SOL     OW 9970   3.097   1.382   0.204
 3024SOL    HW1 9971   3.051   1.323   0.138
 3024SOL    HW2 9972   3.182   1.417   0.165
 3025SOL     OW 9973   2.280   3.186   1.155
 3025SOL    HW1 9974   2.181   3.172   1.155
 3025SOL    HW2 9975   2.309   3.214   1.247
 3026SOL     OW 9976   1.623   3.367   1.027
 3026SOL    HW1 9977   1.611   3.272   0.999
 3026SOL    HW2 9978   1.634   3.371   1.126
 3027SOL     OW 9979   2.478   0.988   2.562
 3027SOL    HW1 9980   2.480   1.022   2.656
 3027SOL    HW2 9981   2.442   0.895   2.562
 3028SOL     OW 9982   1.584   5.609   6.474
 3028SOL    HW1 9983   1.615   5.548   6.401
 3028SOL    HW2 9984   1.508   5.567   6.523
 3029SOL     OW 9985   5.820   5.132   4.838
 3029SOL    HW1 9986   5.734   5.081   4.843
 3029SOL    HW2 9987   5.872   5.117   4.922
 3030SOL     OW 9988   1.320   1.070   5.550
 3030SOL    HW1 9989   1.351   1.162   5.526
 3030SOL    HW2 9990   1.394   1.022   5.598
 3031SOL     OW 9991   0.548   4.025   6.493
 3031SOL    HW1 9992   0.460   4.032   6.446
 3031SOL    HW2 9993   0.622   4.044   6.429
 3032SOL     OW 9994   4.986   0.438   6.376
 3032SOL    HW1 9995   4.926   0.503   6.421
 3032SOL    HW2 9996   5.062   0.415   6.438
 3033SOL     OW 9997   0.301   3.974   6.912
 3033SOL    HW1 9998   0.300   4.063   6.957
 3033SOL    HW2 9999   0.209   3.952   6.878
 3034SOL     OW10000   3.357   6.414   3.733
 3034SOL    HW110001   3.335   6.323   3.697
 3034SOL    HW210002   3.284   6.444   3.794
 3035SOL     OW10003   6.005   1.476   0.210
 3035SOL    HW110004   6.063   1.542   0.163
 3035SOL    HW210005   5.958   1.419   0.143
 3036SOL     OW10006   1.094   4.023   6.761
 3036SOL    HW110007   1.189   4.051   6.764
 3036SOL    HW210008   1.036   4.095   6.799
 3037SOL     OW10009   6.583   5.871   4.890
 3037SOL    HW110010   6.599   5.968   4.910
 3037SOL    HW210011   6.509   5.863   4.824
 3038SOL     OW10012   5.115   7.013   5.955
 3038SOL    HW110013   5.213   6.992   5.960
 3038SOL    HW210014   5.082   0.019   6.046
 3039SOL     OW10015   0.296   4.419   1.688
 3039SOL    HW110016   0.220   4.456   1.741
 3039SOL    HW210017   0.261   4.370   1.608
 3040SOL     OW10018   2.881   3.861   6.405
 3040SOL    HW110019   2.947   3.844   6.332
 3040SOL    HW210020   2.924   3.847   6.494
 3041SOL     OW10021   1.991   2.271   5.159
 3041SOL    HW110022   1.923   2.324   5.209
 3041SOL    HW210023   2.029   2.326   5.085
 3042SOL     OW10024   4.797   0.429   1.942
 3042SOL    HW110025   4.791   0.491   2.020
 3042SOL    HW210026   4.705   0.409   1.909
 3043SOL     OW10027   1.000   5.613   7.012
 3043SOL    HW110028   1.056   5.645   0.069
 3043SOL    HW210029   0.977   5.690   6.952
 3044SOL     OW10030   3.214   3.868   5.733
 3044SOL    HW110031   3.296   3.888   5.680
 3044SOL    HW210032   3.145   3.827   5.673
 3045SOL     OW10033   4.789   1.702   2.502
 3045SOL    HW110034   4.799   1.615   2.454
 3045SOL    HW210035   4.696   1.737   2.489
 3046SOL     OW10036   1.307   3.274   5.743
 3046SOL    HW110037   1.331   3.242   5.651
 3046SOL    HW210038   1.390   3.299   5.792
 3047SOL     OW10039   6.389   5.759   2.286
 3047SOL    HW110040   6.310   5.710   2.323
 3047SOL    HW210041   6.432   5.814   2.358
 3048SOL     OW10042   3.801   3.650   1.533
 3048SOL    HW110043   3.810   3.602   1.620
 3048SOL    HW210044   3.730   3.606   1.478
 3049SOL     OW10045   1.227   0.637   1.936
 3049SOL    HW110046   1.310   0.629   1.991
 3049SOL    HW210047   1.252   0.663   1.843
 3050SOL     OW10048   3.875   5.634   3.776
 3050SOL    HW110049   3.933   5.715   3.767
 3050SOL    HW210050   3.821   5.640   3.860
 3051SOL     OW10051   3.009   5.516   6.538
 3051SOL    HW110052   2.933   5.451   6.534
 3051SOL    HW210053   2.998   5.585   6.467
 3052SOL     OW10054   3.884   0.180   2.615
 3052SOL    HW110055   3.807   0.238   2.643
 3052SOL    HW210056   3.883   0.095   2.668
 3053SOL     OW10057   6.063   0.165   0.163
 3053SOL    HW110058   6.041   0.207   0.075
 3053SOL    HW210059   6.084   0.237   0.230
 3054SOL     OW10060   0.228   3.414   0.422
 3054SOL    HW110061   0.153   3.459   0.373
 3054SOL    HW210062   0.311   3.418   0.366
 3055SOL     OW10063   5.808   6.896   3.258
 3055SOL    HW110064   5.816   6.802   3.289
 3055SOL    HW210065   5.811   6.900   3.158
 3056SOL     OW10066   6.962   0.071   0.125
 3056SOL    HW110067   0.032   0.113   0.143
 3056SOL    HW210068   6.939   0.008   0.199
 3057SOL     OW10069   5.863   4.546   2.511
 3057SOL    HW110070   5.915   4.611   2.457
 3057SOL    HW210071   5.804   4.492   2.451
 3058SOL     OW10072   6.093   5.711   0.813
 3058SOL    HW110073   6.034   5.631   0.801
 3058SOL    HW210074   6.036   5.791   0.833
 3059SOL     OW10075   0.664   2.602   4.845
 3059SOL    HW110076   0.670   2.701   4.839
 3059SOL    HW210077   0.620   2.565   4.764
 3060SOL     OW10078   0.403   6.297   1.525
 3060SOL    HW110079   0.322   6.311   1.469
 3060SOL    HW210080   0.468   6.239   1.476
 3061SOL     OW10081   6.735   0.805   5.012
 3061SOL    HW110082   6.725   0.898   5.048
 3061SOL    HW210083   6.824   0.768   5.040
 3062SOL     OW10084   2.587   6.319   1.324
 3062SOL    HW110085   2.583   6.273   1.235
 3062SOL    HW210086   2.574   6.252   1.397
 3063SOL     OW10087   1.737   4.829   1.358
 3063SOL    HW110088   1.815   4.889   1.373
 3063SOL    HW210089   1.769   4.736   1.338
 3064SOL     OW10090   6.243   3.929   3.046
 3064SOL    HW110091   6.156   3.972   3.022
 3064SOL    HW210092   6.230   3.865   3.121
 3065SOL     OW10093   1.397   0.849   0.142
 3065SOL    HW110094   1.374   0.942   0.114
 3065SOL    HW210095   1.332   0.785   0.101
 3066SOL     OW10096   6.156   4.593   0.902
 3066SOL    HW110097   6.066   4.592   0.946
 3066SOL    HW210098   6.223   4.551   0.963
 3067SOL     OW10099   4.668   0.200   4.349
 3067SOL    HW110100   4.632   0.243   4.432
 3067SOL    HW210101   4.603   0.132   4.315
 3068SOL     OW10102   5.767   5.714   1.757
 3068SOL    HW110103   5.721   5.639   1.804
 3068SOL    HW210104   5.755   5.705   1.659
 3069SOL     OW10105   1.062   5.800   1.873
 3069SOL    HW110106   1.031   5.717   1.827
 3069SOL    HW210107   1.130   5.777   1.942
 3070SOL     OW10108   2.169   1.676   3.053
 3070SOL    HW110109   2.229   1.659   2.975
 3070SOL    HW210110   2.093   1.734   3.024
 3071SOL     OW10111   6.395   6.987   4.120
 3071SOL    HW110112   6.454   0.030   4.068
 3071SOL    HW210113   6.324   0.020   4.167
 3072SOL     OW10114   0.618   6.253   2.152
 3072SOL    HW110115   0.613   6.154   2.167
 3072SOL    HW210116   0.588   6.301   2.235
 3073SOL     OW10117   0.906   3.180   5.480
 3073SOL    HW110118   0.922   3.113   5.552
 3073SOL    HW210119   0.808   3.184   5.460
 3074SOL     OW10120   4.713   3.030   0.131
 3074SOL    HW110121   4.808   3.045   0.104
 3074SOL    HW210122   4.661   3.115   0.121
 3075SOL     OW10123   1.960   6.475   1.179
 3075SOL    HW110124   1.986   6.487   1.275
 3075SOL    HW210125   1.964   6.564   1.133
 3076SOL     OW10126   6.246   0.364   4.986
 3076SOL    HW110127   6.214   0.336   4.895
 3076SOL    HW210128   6.336   0.326   5.003
 3077SOL     OW10129   6.131   4.318   4.347
 3077SOL    HW110130   6.211   4.338   4.290
 3077SOL    HW210131   6.162   4.273   4.431
 3078SOL     OW10132   1.814   3.779   2.160
 3078SOL    HW110133   1.911   3.787   2.137
 3078SOL    HW210134   1.760   3.834   2.097
 3079SOL     OW10135   0.277   2.280   5.144
 3079SOL    HW110136   0.215   2.237   5.078
 3079SOL    HW210137   0.354   2.322   5.095
 3080SOL     OW10138   5.962   5.085   1.236
 3080SOL    HW110139   5.938   5.157   1.171
 3080SOL    HW210140   6.053   5.103   1.273
 3081SOL     OW10141   0.271   4.231   5.729
 3081SOL    HW110142   0.194   4.287   5.700
 3081SOL    HW210143   0.306   4.265   5.816
 3082SOL     OW10144   3.407   0.266   2.541
 3082SOL    HW110145   3.392   0.235   2.447
 3082SOL    HW210146   3.497   0.309   2.548
 3083SOL     OW10147   3.477   0.559   1.650
 3083SOL    HW110148   3.379   0.579   1.655
 3083SOL    HW210149   3.528   0.641   1.626
 3084SOL     OW10150   4.953   5.092   4.288
 3084SOL    HW110151   4.991   5.085   4.380
 3084SOL    HW210152   4.920   5.185   4.272
 3085SOL     OW10153   6.828   5.334   2.546
 3085SOL    HW110154   6.889   5.408   2.516
 3085SOL    HW210155   6.734   5.368   2.547
 3086SOL     OW10156   5.119   1.556   2.488
 3086SOL    HW110157   5.111   1.520   2.581
 3086SOL    HW210158   5.032   1.541   2.439
 3087SOL     OW10159   5.933   4.345   3.143
 3087SOL    HW110160   5.990   4.395   3.208
 3087SOL    HW210161   5.860   4.298   3.192
 3088SOL     OW10162   2.585   4.548   5.159
 3088SOL    HW110163   2.511   4.613   5.144
 3088SOL    HW210164   2.673   4.594   5.143
 3089SOL     OW10165   0.788   2.797   6.914
 3089SOL    HW110166   0.797   2.895   6.903
 3089SOL    HW210167   0.867   2.761   6.964
 3090SOL     OW10168   1.615   1.660   1.344
 3090SOL    HW110169   1.571   1.719   1.412
 3090SOL    HW210170   1.697   1.618   1.384
 3091SOL     OW10171   2.168   6.650   0.828
 3091SOL    HW110172   2.118   6.616   0.908
 3091SOL    HW210173   2.258   6.605   0.823
 3092SOL     OW10174   6.927   6.549   0.426
 3092SOL    HW110175   6.883   6.638   0.437
 3092SOL    HW210176   6.989   6.532   0.503
 3093SOL     OW10177   5.883   5.334   5.104
 3093SOL    HW110178   5.916   5.423   5.074
 3093SOL    HW210179   5.809   5.304   5.044
 3094SOL     OW10180   3.257   5.699   4.953
 3094SOL    HW110181   3.321   5.657   5.018
 3094SOL    HW210182   3.173   5.723   5.001
 3095SOL     OW10183   2.614   4.605   4.309
 3095SOL    HW110184   2.595   4.599   4.408
 3095SOL    HW210185   2.687   4.671   4.294
 3096SOL     OW10186   6.823   6.922   5.394
 3096SOL    HW110187   6.909   6.879   5.367
 3096SOL    HW210188   6.754   6.905   5.324
 3097SOL     OW10189   0.450   2.681   0.526
 3097SOL    HW110190   0.464   2.638   0.615
 3097SOL    HW210191   0.353   2.704   0.515
 3098SOL     OW10192   2.734   3.839   0.646
 3098SOL    HW110193   2.657   3.882   0.692
 3098SOL    HW210194   2.794   3.795   0.713
 3099SOL     OW10195   0.400   6.019   5.361
 3099SOL    HW110196   0.498   6.030   5.346
 3099SOL    HW210197   0.350   6.045   5.278
 3100SOL     OW10198   6.386   6.114   6.254
 3100SOL    HW110199   6.375   6.144   6.348
 3100SOL    HW210200   6.355   6.186   6.192
 3101SOL     OW10201   4.770   6.470   5.957
 3101SOL    HW110202   4.765   6.377   5.992
 3101SOL    HW210203   4.680   6.513   5.963
 3102SOL     OW10204   1.737   4.297   1.354
 3102SOL    HW110205   1.821   4.292   1.299
 3102SOL    HW210206   1.758   4.338   1.443
 3103SOL     OW10207   4.081   2.758   0.675
 3103SOL    HW110208   3.989   2.784   0.645
 3103SOL    HW210209   4.113   2.681   0.620
 3104SOL     OW10210   5.279   5.677   4.070
 3104SOL    HW110211   5.256   5.584   4.042
 3104SOL    HW210212   5.270   5.685   4.169
 3105SOL     OW10213   5.613   6.996   3.985
 3105SOL    HW110214   5.574   6.904   3.990
 3105SOL    HW210215   5.540   0.045   3.984
 3106SOL     OW10216   6.103   2.824   3.088
 3106SOL    HW110217   6.146   2.849   3.175
 3106SOL    HW210218   6.008   2.856   3.088
 3107SOL     OW10219   2.923   0.586   3.797
 3107SOL    HW110220   3.021   0.572   3.813
 3107SOL    HW210221   2.887   0.648   3.866
 3108SOL     OW10222   2.038   0.853   4.319
 3108SOL    HW110223   1.966   0.828   4.383
 3108SOL    HW210224   2.087   0.933   4.353
 3109SOL     OW10225   4.846   6.405   2.708
 3109SOL    HW110226   4.902   6.330   2.673
 3109SOL    HW210227   4.898   6.458   2.775
 3110SOL     OW10228   0.098   3.616   2.762
 3110SOL    HW110229   0.165   3.591   2.693
 3110SOL    HW210230   0.009   3.629   2.720
 3111SOL     OW10231   6.841   4.880   3.649
 3111SOL    HW110232   6.779   4.803   3.665
 3111SOL    HW210233   6.911   4.881   3.721
 3112SOL     OW10234   4.491   3.870   6.594
 3112SOL    HW110235   4.452   3.954   6.632
 3112SOL    HW210236   4.583   3.890   6.559
 3113SOL     OW10237   2.257   6.730   3.704
 3113SOL    HW110238   2.325   6.691   3.642
 3113SOL    HW210239   2.214   6.656   3.756
 3114SOL     OW10240   5.211   4.168   0.760
 3114SOL    HW110241   5.246   4.253   0.800
 3114SOL    HW210242   5.271   4.092   0.785
 3115SOL     OW10243   3.910   3.987   0.514
 3115SOL    HW110244   3.873   3.896   0.492
 3115SOL    HW210245   3.836   4.046   0.546
 3116SOL     OW10246   6.304   2.598   6.318
 3116SOL    HW110247   6.298   2.663   6.242
 3116SOL    HW210248   6.236   2.526   6.306
 3117SOL     OW10249   4.158   3.406   5.308
 3117SOL    HW110250   4.236   3.361   5.351
 3117SOL    HW210251   4.075   3.382   5.359
 3118SOL     OW10252   0.001   5.014   0.625
 3118SOL    HW110253   6.922   5.008   0.644
 3118SOL    HW210254   0.050   5.036   0.709
 3119SOL     OW10255   1.714   4.442   4.947
 3119SOL    HW110256   1.657   4.463   4.867
 3119SOL    HW210257   1.681   4.493   5.026
 3120SOL     OW10258   2.883   5.244   4.649
 3120SOL    HW110259   2.831   5.207   4.726
 3120SOL    HW210260   2.920   5.169   4.594
 3121SOL     OW10261   6.745   1.094   2.239
 3121SOL    HW110262   6.734   1.128   2.145
 3121SOL    HW210263   6.839   1.111   2.269
 3122SOL     OW10264   2.721   5.799   6.444
 3122SOL    HW110265   2.751   5.733   6.375
 3122SOL    HW210266   2.669   5.752   6.515
 3123SOL     OW10267   3.973   6.895   4.075
 3123SOL    HW110268   3.889   6.870   4.028
 3123SOL    HW210269   3.969   6.991   4.103
 3124SOL     OW10270   4.322   1.397   5.355
 3124SOL    HW110271   4.355   1.487   5.324
 3124SOL    HW210272   4.227   1.386   5.328
 3125SOL     OW10273   6.479   1.690   5.434
 3125SOL    HW110274   6.520   1.717   5.521
 3125SOL    HW210275   6.472   1.771   5.375
 3126SOL     OW10276   4.499   5.655   6.464
 3126SOL    HW110277   4.507   5.735   6.523
 3126SOL    HW210278   4.533   5.574   6.513
 3127SOL     OW10279   1.039   2.301   3.911
 3127SOL    HW110280   0.992   2.323   3.825
 3127SOL    HW210281   1.118   2.362   3.921
 3128SOL     OW10282   2.346   1.621   0.563
 3128SOL    HW110283   2.302   1.705   0.531
 3128SOL    HW210284   2.340   1.551   0.491
 3129SOL     OW10285   6.863   4.174   5.272
 3129SOL    HW110286   6.934   4.245   5.275
 3129SOL    HW210287   6.901   4.091   5.232
 3130SOL     OW10288   2.378   4.435   2.688
 3130SOL    HW110289   2.289   4.471   2.716
 3130SOL    HW210290   2.366   4.346   2.644
 3131SOL     OW10291   6.625   3.615   2.521
 3131SOL    HW110292   6.725   3.613   2.528
 3131SOL    HW210293   6.588   3.528   2.555
 3132SOL     OW10294   5.594   5.916   5.751
 3132SOL    HW110295   5.623   5.921   5.847
 3132SOL    HW210296   5.501   5.953   5.743
 3133SOL     OW10297   2.915   1.824   3.238
 3133SOL    HW110298   2.937   1.812   3.335
 3133SOL    HW210299   2.989   1.874   3.193
 3134SOL     OW10300   5.000   3.065   1.575
 3134SOL    HW110301   4.985   3.010   1.657
 3134SOL    HW210302   4.976   3.012   1.494
 3135SOL     OW10303   3.940   2.110   3.561
 3135SOL    HW110304   3.940   2.091   3.659
 3135SOL    HW210305   3.969   2.028   3.511
 3136SOL     OW10306   6.096   5.597   6.260
 3136SOL    HW110307   6.073   5.501   6.277
 3136SOL    HW210308   6.195   5.608   6.265
 3137SOL     OW10309   5.637   1.783   4.418
 3137SOL    HW110310   5.632   1.856   4.350
 3137SOL    HW210311   5.717   1.797   4.476
 3138SOL     OW10312   5.950   1.142   4.705
 3138SOL    HW110313   5.990   1.060   4.664
 3138SOL    HW210314   5.974   1.222   4.649
 3139SOL     OW10315   4.835   6.022   5.267
 3139SOL    HW110316   4.815   5.942   5.209
 3139SOL    HW210317   4.931   6.019   5.294
 3140SOL     OW10318   6.833   6.140   6.888
 3140SOL    HW110319   6.762   6.207   6.907
 3140SOL    HW210320   6.921   6.174   6.922
 3141SOL     OW10321   1.343   5.892   0.195
 3141SOL    HW110322   1.400   5.973   0.183
 3141SOL    HW210323   1.349   5.834   0.113
 3142SOL     OW10324   4.250   6.384   6.078
 3142SOL    HW110325   4.285   6.406   6.169
 3142SOL    HW210326   4.314   6.323   6.031
 3143SOL     OW10327   6.904   1.943   0.114
 3143SOL    HW110328   6.902   1.974   0.019
 3143SOL    HW210329   6.909   2.022   0.175
 3144SOL     OW10330   1.677   3.885   6.604
 3144SOL    HW110331   1.726   3.966   6.635
 3144SOL    HW210332   1.741   3.825   6.554
 3145SOL     OW10333   2.559   5.607   3.317
 3145SOL    HW110334   2.477   5.609   3.374
 3145SOL    HW210335   2.592   5.512   3.309
 3146SOL     OW10336   1.425   0.521   3.443
 3146SOL    HW110337   1.442   0.424   3.424
 3146SOL    HW210338   1.341   0.529   3.498
 3147SOL     OW10339   5.017   3.978   0.807
 3147SOL    HW110340   4.976   3.936   0.726
 3147SOL    HW210341   5.080   4.050   0.779
 3148SOL     OW10342   3.934   5.816   4.398
 3148SOL    HW110343   3.984   5.830   4.313
 3148SOL    HW210344   3.857   5.879   4.402
 3149SOL     OW10345   3.448   0.039   5.579
 3149SOL    HW110346   3.506   0.068   5.503
 3149SOL    HW210347   3.353   0.037   5.549
 3150SOL     OW10348   6.187   6.526   4.821
 3150SOL    HW110349   6.184   6.506   4.723
 3150SOL    HW210350   6.096   6.556   4.851
 3151SOL     OW10351   4.230   1.544   5.987
 3151SOL    HW110352   4.323   1.508   5.995
 3151SOL    HW210353   4.232   1.627   5.932
 3152SOL     OW10354   0.941   5.489   1.485
 3152SOL    HW110355   1.011   5.418   1.477
 3152SOL    HW210356   0.984   5.579   1.474
 3153SOL     OW10357   6.096   4.378   2.436
 3153SOL    HW110358   6.002   4.346   2.426
 3153SOL    HW210359   6.099   4.454   2.500
 3154SOL     OW10360   5.573   2.775   6.019
 3154SOL    HW110361   5.527   2.688   6.037
 3154SOL    HW210362   5.652   2.760   5.959
 3155SOL     OW10363   5.491   5.731   0.841
 3155SOL    HW110364   5.517   5.695   0.931
 3155SOL    HW210365   5.399   5.699   0.818
 3156SOL     OW10366   4.010   3.839   3.704
 3156SOL    HW110367   4.010   3.922   3.647
 3156SOL    HW210368   3.921   3.795   3.699
 3157SOL     OW10369   2.079   3.596   4.135
 3157SOL    HW110370   1.982   3.574   4.145
 3157SOL    HW210371   2.101   3.675   4.192
 3158SOL     OW10372   4.961   6.592   1.212
 3158SOL    HW110373   5.050   6.625   1.242
 3158SOL    HW210374   4.922   6.531   1.282
 3159SOL     OW10375   4.867   5.229   6.995
 3159SOL    HW110376   4.803   5.294   6.953
 3159SOL    HW210377   4.821   5.181   0.051
 3160SOL     OW10378   4.698   4.559   6.825
 3160SOL    HW110379   4.755   4.477   6.812
 3160SOL    HW210380   4.681   4.573   6.922
 3161SOL     OW10381   1.404   0.988   2.940
 3161SOL    HW110382   1.414   0.891   2.959
 3161SOL    HW210383   1.348   1.001   2.858
 3162SOL     OW10384   0.465   5.253   6.297
 3162SOL    HW110385   0.387   5.254   6.359
 3162SOL    HW210386   0.445   5.192   6.220
 3163SOL     OW10387   3.883   3.583   6.610
 3163SOL    HW110388   3.821   3.505   6.596
 3163SOL    HW210389   3.946   3.589   6.534
 3164SOL     OW10390   5.610   4.012   0.384
 3164SOL    HW110391   5.562   4.099   0.393
 3164SOL    HW210392   5.628   3.994   0.287
 3165SOL     OW10393   0.524   1.217   2.399
 3165SOL    HW110394   0.492   1.122   2.398
 3165SOL    HW210395   0.521   1.254   2.306
 3166SOL     OW10396   5.142   3.452   6.496
 3166SOL    HW110397   5.132   3.551   6.510
 3166SOL    HW210398   5.238   3.426   6.509
 3167SOL     OW10399   0.773   5.213   1.675
 3167SOL    HW110400   0.725   5.287   1.722
 3167SOL    HW210401   0.713   5.174   1.605
 3168SOL     OW10402   5.621   3.167   1.163
 3168SOL    HW110403   5.614   3.231   1.240
 3168SOL    HW210404   5.572   3.204   1.085
 3169SOL     OW10405   0.974   2.726   4.839
 3169SOL    HW110406   0.960   2.815   4.795
 3169SOL    HW210407   0.892   2.670   4.828
 3170SOL     OW10408   4.229   1.095   0.075
 3170SOL    HW110409   4.137   1.086   0.038
 3170SOL    HW210410   4.224   1.116   0.172
 3171SOL     OW10411   5.561   6.439   2.786
 3171SOL    HW110412   5.638   6.402   2.734
 3171SOL    HW210413   5.517   6.365   2.837
 3172SOL     OW10414   6.359   0.131   5.069
 3172SOL    HW110415   6.361   0.104   5.165
 3172SOL    HW210416   6.443   0.099   5.024
 3173SOL     OW10417   2.290   0.683   1.732
 3173SOL    HW110418   2.370   0.718   1.780
 3173SOL    HW210419   2.309   0.678   1.634
 3174SOL     OW10420   2.661   2.997   5.958
 3174SOL    HW110421   2.757   3.008   5.984
 3174SOL    HW210422   2.621   2.922   6.011
 3175SOL     OW10423   1.134   6.307   0.814
 3175SOL    HW110424   1.230   6.300   0.838
 3175SOL    HW210425   1.125   6.313   0.715
 3176SOL     OW10426   1.242   4.318   6.602
 3176SOL    HW110427   1.310   4.344   6.672
 3176SOL    HW210428   1.151   4.318   6.643
 3177SOL     OW10429   5.758   5.521   6.125
 3177SOL    HW110430   5.806   5.452   6.179
 3177SOL    HW210431   5.824   5.589   6.092
 3178SOL     OW10432   0.500   4.462   1.900
 3178SOL    HW110433   0.473   4.444   1.806
 3178SOL    HW210434   0.459   4.547   1.931
 3179SOL     OW10435   1.296   1.326   2.200
 3179SOL    HW110436   1.207   1.353   2.235
 3179SOL    HW210437   1.300   1.226   2.191
 3180SOL     OW10438   5.543   0.695   5.907
 3180SOL    HW110439   5.454   0.739   5.918
 3180SOL    HW210440   5.612   0.747   5.957
 3181SOL     OW10441   1.133   0.727   3.447
 3181SOL    HW110442   1.173   0.676   3.523
 3181SOL    HW210443   1.060   0.786   3.482
 3182SOL     OW10444   1.888   5.918   5.491
 3182SOL    HW110445   1.854   5.825   5.478
 3182SOL    HW210446   1.811   5.982   5.491
 3183SOL     OW10447   4.057   3.864   1.067
 3183SOL    HW110448   4.121   3.788   1.080
 3183SOL    HW210449   4.101   3.950   1.090
 3184SOL     OW10450   2.845   1.911   2.332
 3184SOL    HW110451   2.842   1.890   2.235
 3184SOL    HW210452   2.902   1.992   2.347
 3185SOL     OW10453   6.844   7.009   6.222
 3185SOL    HW110454   6.842   6.997   6.123
 3185SOL    HW210455   6.922   0.048   6.247
 3186SOL     OW10456   3.274   0.891   2.493
 3186SOL    HW110457   3.181   0.854   2.504
 3186SOL    HW210458   3.293   0.955   2.568
 3187SOL     OW10459   3.360   4.616   0.414
 3187SOL    HW110460   3.287   4.683   0.428
 3187SOL    HW210461   3.320   4.525   0.399
 3188SOL     OW10462   3.885   6.169   3.663
 3188SOL    HW110463   3.815   6.119   3.612
 3188SOL    HW210464   3.970   6.173   3.609
 3189SOL     OW10465   1.159   6.413   3.272
 3189SOL    HW110466   1.210   6.490   3.233
 3189SOL    HW210467   1.091   6.382   3.206
 3190SOL     OW10468   1.184   6.209   2.782
 3190SOL    HW110469   1.212   6.167   2.868
 3190SOL    HW210470   1.257   6.198   2.715
 3191SOL     OW10471   4.162   1.161   0.852
 3191SOL    HW110472   4.214   1.241   0.883
 3191SOL    HW210473   4.098   1.133   0.923
 3192SOL     OW10474   6.823   2.918   2.076
 3192SOL    HW110475   6.835   2.982   2.000
 3192SOL    HW210476   6.800   2.827   2.041
 3193SOL     OW10477   4.698   2.886   5.854
 3193SOL    HW110478   4.782   2.932   5.885
 3193SOL    HW210479   4.689   2.799   5.903
 3194SOL     OW10480   0.955   3.448   5.877
 3194SOL    HW110481   0.934   3.542   5.905
 3194SOL    HW210482   0.931   3.436   5.780
 3195SOL     OW10483   0.639   3.084   3.064
 3195SOL    HW110484   0.660   3.024   3.141
 3195SOL    HW210485   0.701   3.065   2.989
 3196SOL     OW10486   6.846   0.161   5.431
 3196SOL    HW110487   6.757   0.202   5.413
 3196SOL    HW210488   6.841   0.062   5.418
 3197SOL     OW10489   1.265   4.508   3.879
 3197SOL    HW110490   1.178   4.544   3.846
 3197SOL    HW210491   1.291   4.427   3.825
 3198SOL     OW10492   0.382   2.190   6.142
 3198SOL    HW110493   0.477   2.167   6.163
 3198SOL    HW210494   0.365   2.176   6.045
 3199SOL     OW10495   4.643   2.098   1.649
 3199SOL    HW110496   4.720   2.037   1.628
 3199SOL    HW210497   4.565   2.044   1.679
 3200SOL     OW10498   6.793   2.060   0.644
 3200SOL    HW110499   6.888   2.064   0.613
 3200SOL    HW210500   6.765   1.965   0.656
 3201SOL     OW10501   4.491   4.475   3.690
 3201SOL    HW110502   4.446   4.559   3.721
 3201SOL    HW210503   4.510   4.417   3.769
 3202SOL     OW10504   1.775   5.402   1.618
 3202SOL    HW110505   1.742   5.420   1.710
 3202SOL    HW210506   1.831   5.479   1.587
 3203SOL     OW10507   6.599   0.246   1.343
 3203SOL    HW110508   6.504   0.228   1.370
 3203SOL    HW210509   6.649   0.159   1.341
 3204SOL     OW10510   6.665   5.594   1.868
 3204SOL    HW110511   6.669   5.645   1.955
 3204SOL    HW210512   6.617   5.650   1.800
 3205SOL     OW10513   0.708   3.588   3.786
 3205SOL    HW110514   0.766   3.643   3.727
 3205SOL    HW210515   0.619   3.574   3.742
 3206SOL     OW10516   1.608   6.762   6.420
 3206SOL    HW110517   1.644   6.797   6.507
 3206SOL    HW210518   1.647   6.814   6.344
 3207SOL     OW10519   0.518   0.830   4.448
 3207SOL    HW110520   0.569   0.746   4.428
 3207SOL    HW210521   0.561   0.877   4.525
 3208SOL     OW10522   5.016   6.751   4.650
 3208SOL    HW110523   5.106   6.754   4.694
 3208SOL    HW210524   5.028   6.732   4.552
 3209SOL     OW10525   2.553   0.438   3.992
 3209SOL    HW110526   2.600   0.520   4.026
 3209SOL    HW210527   2.520   0.384   4.069
 3210SOL     OW10528   6.895   4.408   2.706
 3210SOL    HW110529   6.874   4.407   2.608
 3210SOL    HW210530   6.975   4.466   2.722
 3211SOL     OW10531   1.606   4.296   2.221
 3211SOL    HW110532   1.639   4.233   2.150
 3211SOL    HW210533   1.681   4.317   2.284
 3212SOL     OW10534   4.903   2.065   6.385
 3212SOL    HW110535   4.806   2.039   6.390
 3212SOL    HW210536   4.957   1.985   6.359
 3213SOL     OW10537   6.081   6.155   2.302
 3213SOL    HW110538   6.048   6.207   2.223
 3213SOL    HW210539   6.005   6.106   2.343
 3214SOL     OW10540   4.278   5.856   6.022
 3214SOL    HW110541   4.276   5.756   6.021
 3214SOL    HW210542   4.310   5.890   5.934
 3215SOL     OW10543   5.885   1.856   6.689
 3215SOL    HW110544   5.812   1.809   6.739
 3215SOL    HW210545   5.948   1.788   6.650
 3216SOL     OW10546   5.563   6.940   3.705
 3216SOL    HW110547   5.614   6.981   3.629
 3216SOL    HW210548   5.593   6.980   3.791
 3217SOL     OW10549   6.640   4.408   1.952
 3217SOL    HW110550   6.720   4.449   1.908
 3217SOL    HW210551   6.564   4.473   1.950
 3218SOL     OW10552   3.437   0.331   3.298
 3218SOL    HW110553   3.429   0.268   3.375
 3218SOL    HW210554   3.361   0.318   3.235
 3219SOL     OW10555   6.342   0.503   3.820
 3219SOL    HW110556   6.296   0.415   3.806
 3219SOL    HW210557   6.371   0.540   3.732
 3220SOL     OW10558   6.370   3.346   5.548
 3220SOL    HW110559   6.429   3.365   5.470
 3220SOL    HW210560   6.417   3.374   5.632
 3221SOL     OW10561   3.082   6.773   3.006
 3221SOL    HW110562   3.006   6.808   3.061
 3221SOL    HW210563   3.124   6.695   3.053
 3222SOL     OW10564   5.972   2.552   2.988
 3222SOL    HW110565   6.013   2.501   2.913
 3222SOL    HW210566   6.023   2.637   3.003
 3223SOL     OW10567   2.038   5.134   5.248
 3223SOL    HW110568   1.968   5.205   5.232
 3223SOL    HW210569   2.064   5.092   5.161
 3224SOL     OW10570   4.133   5.160   6.947
 3224SOL    HW110571   4.132   5.138   6.849
 3224SOL    HW210572   4.225   5.144   6.983
 3225SOL     OW10573   2.455   3.833   6.889
 3225SOL    HW110574   2.391   3.837   6.812
 3225SOL    HW210575   2.440   3.748   6.941
 3226SOL     OW10576   1.487   1.032   4.100
 3226SOL    HW110577   1.423   0.960   4.074
 3226SOL    HW210578   1.579   1.009   4.068
 3227SOL     OW10579   3.050   1.509   6.154
 3227SOL    HW110580   2.965   1.561   6.166
 3227SOL    HW210581   3.040   1.447   6.076
 3228SOL     OW10582   5.592   3.426   4.636
 3228SOL    HW110583   5.555   3.375   4.714
 3228SOL    HW210584   5.679   3.468   4.663
 3229SOL     OW10585   4.097   2.346   5.347
 3229SOL    HW110586   4.144   2.399   5.277
 3229SOL    HW210587   4.116   2.384   5.437
 3230SOL     OW10588   1.298   0.850   4.040
 3230SOL    HW110589   1.247   0.766   4.058
 3230SOL    HW210590   1.235   0.920   4.005
 3231SOL     OW10591   5.862   6.115   1.266
 3231SOL    HW110592   5.903   6.025   1.248
 3231SOL    HW210593   5.889   6.179   1.194
 3232SOL     OW10594   1.904   5.117   4.013
 3232SOL    HW110595   1.941   5.111   4.105
 3232SOL    HW210596   1.862   5.029   3.989
 3233SOL     OW10597   0.490   4.265   1.085
 3233SOL    HW110598   0.448   4.291   0.998
 3233SOL    HW210599   0.501   4.346   1.142
 3234SOL     OW10600   0.554   1.630   5.684
 3234SOL    HW110601   0.592   1.695   5.750
 3234SOL    HW210602   0.573   1.537   5.715
 3235SOL     OW10603   5.290   6.973   2.583
 3235SOL    HW110604   5.222   7.014   2.522
 3235SOL    HW210605   5.262   6.989   2.678
 3236SOL     OW10606   0.274   3.225   1.772
 3236SOL    HW110607   0.346   3.294   1.768
 3236SOL    HW210608   0.300   3.146   1.716
 3237SOL     OW10609   3.200   0.424   4.493
 3237SOL    HW110610   3.229   0.516   4.523
 3237SOL    HW210611   3.179   0.426   4.396
 3238SOL     OW10612   0.336   6.517   6.555
 3238SOL    HW110613   0.256   6.476   6.511
 3238SOL    HW210614   0.393   6.444   6.594
 3239SOL     OW10615   6.695   6.632   5.635
 3239SOL    HW110616   6.626   6.625   5.707
 3239SOL    HW210617   6.682   6.558   5.569
 3240SOL     OW10618   0.858   1.437   4.693
 3240SOL    HW110619   0.770   1.464   4.653
 3240SOL    HW210620   0.930   1.448   4.624
 3241SOL     OW10621   5.547   0.759   3.997
 3241SOL    HW110622   5.460   0.755   4.045
 3241SOL    HW210623   5.570   0.668   3.962
 3242SOL     OW10624   3.692   6.860   0.428
 3242SOL    HW110625   3.636   6.909   0.363
 3242SOL    HW210626   3.704   6.915   0.511
 3243SOL     OW10627   3.401   5.114   0.341
 3243SOL    HW110628   3.462   5.089   0.266
 3243SOL    HW210629   3.311   5.137   0.303
 3244SOL     OW10630   2.981   6.022   6.625
 3244SOL    HW110631   2.935   6.050   6.541
 3244SOL    HW210632   3.044   6.093   6.654
 3245SOL     OW10633   3.866   2.645   6.518
 3245SOL    HW110634   3.820   2.731   6.539
 3245SOL    HW210635   3.876   2.591   6.601
 3246SOL     OW10636   5.620   6.461   3.396
 3246SOL    HW110637   5.630   6.459   3.495
 3246SOL    HW210638   5.605   6.368   3.362
 3247SOL     OW10639   0.518   2.484   4.403
 3247SOL    HW110640   0.479   2.572   4.379
 3247SOL    HW210641   0.618   2.488   4.393
 3248SOL     OW10642   6.054   3.669   2.170
 3248SOL    HW110643   6.043   3.699   2.075
 3248SOL    HW210644   5.989   3.595   2.190
 3249SOL     OW10645   2.178   4.192   4.983
 3249SOL    HW110646   2.200   4.096   4.996
 3249SOL    HW210647   2.245   4.249   5.030
 3250SOL     OW10648   4.409   6.623   1.881
 3250SOL    HW110649   4.486   6.609   1.818
 3250SOL    HW210650   4.427   6.576   1.967
 3251SOL     OW10651   3.151   0.821   3.062
 3251SOL    HW110652   3.246   0.792   3.073
 3251SOL    HW210653   3.136   0.854   2.969
 3252SOL     OW10654   3.307   1.933   3.304
 3252SOL    HW110655   3.392   1.972   3.270
 3252SOL    HW210656   3.233   1.954   3.240
 3253SOL     OW10657   4.976   3.274   1.360
 3253SOL    HW110658   4.988   3.184   1.403
 3253SOL    HW210659   4.880   3.288   1.338
 3254SOL     OW10660   5.005   4.724   2.619
 3254SOL    HW110661   4.968   4.668   2.693
 3254SOL    HW210662   5.000   4.672   2.533
 3255SOL     OW10663   4.279   5.001   0.433
 3255SOL    HW110664   4.247   5.093   0.412
 3255SOL    HW210665   4.378   5.002   0.445
 3256SOL     OW10666   6.345   6.016   5.235
 3256SOL    HW110667   6.334   6.108   5.271
 3256SOL    HW210668   6.423   5.972   5.280
 3257SOL     OW10669   2.073   2.470   0.860
 3257SOL    HW110670   2.067   2.565   0.889
 3257SOL    HW210671   2.046   2.462   0.764
 3258SOL     OW10672   6.007   0.040   1.678
 3258SOL    HW110673   5.916   0.069   1.648
 3258SOL    HW210674   6.011   6.959   1.678
 3259SOL     OW10675   4.858   6.808   3.947
 3259SOL    HW110676   4.835   6.822   4.043
 3259SOL    HW210677   4.955   6.825   3.933
 3260SOL     OW10678   1.592   2.361   6.733
 3260SOL    HW110679   1.574   2.458   6.745
 3260SOL    HW210680   1.646   2.347   6.649
 3261SOL     OW10681   4.163   0.462   2.501
 3261SOL    HW110682   4.227   0.445   2.427
 3261SOL    HW210683   4.158   0.381   2.560
 3262SOL     OW10684   4.187   1.597   2.814
 3262SOL    HW110685   4.257   1.525   2.819
 3262SOL    HW210686   4.139   1.589   2.727
 3263SOL     OW10687   3.795   6.166   1.691
 3263SOL    HW110688   3.791   6.192   1.787
 3263SOL    HW210689   3.889   6.178   1.657
 3264SOL     OW10690   5.114   5.228   6.464
 3264SOL    HW110691   5.212   5.223   6.450
 3264SOL    HW210692   5.095   5.275   6.550
 3265SOL     OW10693   4.707   0.244   6.425
 3265SOL    HW110694   4.670   0.337   6.429
 3265SOL    HW210695   4.664   0.187   6.495
 3266SOL     OW10696   0.523   1.310   6.360
 3266SOL    HW110697   0.570   1.395   6.337
 3266SOL    HW210698   0.436   1.332   6.405
 3267SOL     OW10699   3.379   2.557   1.265
 3267SOL    HW110700   3.361   2.606   1.351
 3267SOL    HW210701   3.446   2.484   1.282
 3268SOL     OW10702   0.318   4.168   6.402
 3268SOL    HW110703   0.243   4.188   6.466
 3268SOL    HW210704   0.284   4.107   6.330
 3269SOL     OW10705   4.732   3.064   0.711
 3269SOL    HW110706   4.790   3.085   0.632
 3269SOL    HW210707   4.750   3.130   0.784
 3270SOL     OW10708   1.440   6.308   4.850
 3270SOL    HW110709   1.480   6.309   4.758
 3270SOL    HW210710   1.375   6.383   4.859
 3271SOL     OW10711   5.986   1.646   0.970
 3271SOL    HW110712   6.025   1.555   0.951
 3271SOL    HW210713   6.001   1.669   1.066
 3272SOL     OW10714   5.130   0.337   0.346
 3272SOL    HW110715   5.051   0.399   0.342
 3272SOL    HW210716   5.205   0.382   0.394
 3273SOL     OW10717   6.574   6.542   2.322
 3273SOL    HW110718   6.575   6.618   2.256
 3273SOL    HW210719   6.622   6.464   2.284
 3274SOL     OW10720   3.469   2.186   6.184
 3274SOL    HW110721   3.558   2.160   6.222
 3274SOL    HW210722   3.482   2.259   6.116
 3275SOL     OW10723   2.922   1.554   6.510
 3275SOL    HW110724   2.959   1.642   6.541
 3275SOL    HW210725   2.867   1.569   6.428
 3276SOL     OW10726   3.215   6.277   0.314
 3276SOL    HW110727   3.277   6.322   0.378
 3276SOL    HW210728   3.268   6.241   0.236
 3277SOL     OW10729   6.891   6.683   5.126
 3277SOL    HW110730   6.795   6.701   5.150
 3277SOL    HW210731   6.950   6.730   5.191
 3278SOL     OW10732   1.080   1.078   6.940
 3278SOL    HW110733   1.149   1.144   6.910
 3278SOL    HW210734   1.122   1.012   7.002
 3279SOL     OW10735   1.541   0.271   1.146
 3279SOL    HW110736   1.456   0.310   1.181
 3279SOL    HW210737   1.602   0.250   1.222
 3280SOL     OW10738   1.564   4.708   6.210
 3280SOL    HW110739   1.662   4.702   6.230
 3280SOL    HW210740   1.531   4.619   6.177
 3281SOL     OW10741   2.603   5.801   0.023
 3281SOL    HW110742   2.693   5.766   0.001
 3281SOL    HW210743   2.611   5.879   0.086
 3282SOL     OW10744   2.412   5.492   2.753
 3282SOL    HW110745   2.367   5.568   2.800
 3282SOL    HW210746   2.403   5.409   2.808
 3283SOL     OW10747   2.521   0.446   3.526
 3283SOL    HW110748   2.517   0.529   3.471
 3283SOL    HW210749   2.522   0.366   3.465
 3284SOL     OW10750   6.586   3.773   0.045
 3284SOL    HW110751   6.525   3.846   0.014
 3284SOL    HW210752   6.566   3.689   7.013
 3285SOL     OW10753   0.221   1.916   4.116
 3285SOL    HW110754   0.240   1.830   4.069
 3285SOL    HW210755   0.287   1.985   4.087
 3286SOL     OW10756   3.361   3.950   5.437
 3286SOL    HW110757   3.377   3.898   5.353
 3286SOL    HW210758   3.421   4.030   5.438
 3287SOL     OW10759   1.486   5.039   0.973
 3287SOL    HW110760   1.392   5.050   1.005
 3287SOL    HW210761   1.524   4.954   1.011
 3288SOL     OW10762   0.481   6.431   6.873
 3288SOL    HW110763   0.385   6.426   6.900
 3288SOL    HW210764   0.498   6.363   6.801
 3289SOL     OW10765   2.022   5.362   4.430
 3289SOL    HW110766   1.983   5.270   4.418
 3289SOL    HW210767   2.028   5.383   4.527
 3290SOL     OW10768   6.830   5.103   1.504
 3290SOL    HW110769   6.841   5.040   1.428
 3290SOL    HW210770   6.733   5.112   1.527
 3291SOL     OW10771   1.916   6.726   1.435
 3291SOL    HW110772   1.982   6.681   1.374
 3291SOL    HW210773   1.901   6.669   1.516
 3292SOL     OW10774   0.895   6.327   6.255
 3292SOL    HW110775   0.906   6.247   6.196
 3292SOL    HW210776   0.799   6.353   6.258
 3293SOL     OW10777   0.102   0.988   2.973
 3293SOL    HW110778   0.079   1.073   3.021
 3293SOL    HW210779   0.068   0.992   2.880
 3294SOL     OW10780   0.496   0.176   0.224
 3294SOL    HW110781   0.526   0.270   0.206
 3294SOL    HW210782   0.575   0.115   0.224
 3295SOL     OW10783   1.325   2.534   6.541
 3295SOL    HW110784   1.237   2.527   6.589
 3295SOL    HW210785   1.332   2.459   6.475
 3296SOL     OW10786   0.772   6.868   2.666
 3296SOL    HW110787   0.861   6.888   2.707
 3296SOL    HW210788   0.776   6.780   2.619
 3297SOL     OW10789   3.263   2.739   6.657
 3297SOL    HW110790   3.302   2.654   6.692
 3297SOL    HW210791   3.198   2.718   6.585
 3298SOL     OW10792   6.330   3.572   3.029
 3298SOL    HW110793   6.350   3.612   2.939
 3298SOL    HW210794   6.319   3.646   3.096
 3299SOL     OW10795   2.302   7.003   5.093
 3299SOL    HW110796   2.294   6.923   5.152
 3299SOL    HW210797   2.339   6.976   5.004
 3300SOL     OW10798   6.197   6.842   4.843
 3300SOL    HW110799   6.191   6.750   4.805
 3300SOL    HW210800   6.105   6.881   4.851
 3301SOL     OW10801   0.521   3.735   2.598
 3301SOL    HW110802   0.462   3.815   2.587
 3301SOL    HW210803   0.582   3.750   2.676
 3302SOL     OW10804   1.008   4.530   3.737
 3302SOL    HW110805   1.026   4.625   3.711
 3302SOL    HW210806   0.938   4.528   3.808
 3303SOL     OW10807   3.410   3.630   3.070
 3303SOL    HW110808   3.343   3.617   3.143
 3303SOL    HW210809   3.498   3.658   3.110
 3304SOL     OW10810   0.651   6.267   4.647
 3304SOL    HW110811   0.680   6.200   4.578
 3304SOL    HW210812   0.596   6.220   4.717
 3305SOL     OW10813   1.744   1.138   1.911
 3305SOL    HW110814   1.788   1.049   1.919
 3305SOL    HW210815   1.734   1.179   2.002
 3306SOL     OW10816   1.040   3.527   2.906
 3306SOL    HW110817   0.995   3.484   2.985
 3306SOL    HW210818   0.977   3.529   2.829
 3307SOL     OW10819   0.568   6.058   6.856
 3307SOL    HW110820   0.643   6.083   6.795
 3307SOL    HW210821   0.481   6.081   6.812
 3308SOL     OW10822   4.202   5.968   0.668
 3308SOL    HW110823   4.275   6.018   0.621
 3308SOL    HW210824   4.120   5.967   0.611
 3309SOL     OW10825   0.122   4.824   3.189
 3309SOL    HW110826   0.023   4.825   3.197
 3309SOL    HW210827   0.152   4.737   3.149
 3310SOL     OW10828   1.404   6.566   1.944
 3310SOL    HW110829   1.471   6.639   1.932
 3310SOL    HW210830   1.313   6.601   1.922
 3311SOL     OW10831   4.016   6.418   0.953
 3311SOL    HW110832   4.075   6.388   1.028
 3311SOL    HW210833   4.072   6.444   0.875
 3312SOL     OW10834   2.665   3.403   0.271
 3312SOL    HW110835   2.722   3.483   0.290
 3312SOL    HW210836   2.594   3.395   0.341
 3313SOL     OW10837   6.569   5.446   4.301
 3313SOL    HW110838   6.605   5.368   4.352
 3313SOL    HW210839   6.644   5.505   4.272
 3314SOL     OW10840   0.558   3.530   5.429
 3314SOL    HW110841   0.576   3.452   5.369
 3314SOL    HW210842   0.572   3.503   5.524
 3315SOL     OW10843   6.796   1.959   3.007
 3315SOL    HW110844   6.822   2.035   2.947
 3315SOL    HW210845   6.855   1.881   2.989
 3316SOL     OW10846   4.659   1.066   7.018
 3316SOL    HW110847   4.617   1.152   6.989
 3316SOL    HW210848   4.746   1.085   0.044
 3317SOL     OW10849   4.095   2.554   1.570
 3317SOL    HW110850   4.090   2.557   1.470
 3317SOL    HW210851   4.008   2.520   1.606
 3318SOL     OW10852   2.736   5.473   5.032
 3318SOL    HW110853   2.639   5.478   5.008
 3318SOL    HW210854   2.750   5.504   5.126
 3319SOL     OW10855   0.263   5.762   4.758
 3319SOL    HW110856   0.300   5.823   4.688
 3319SOL    HW210857   0.303   5.786   4.847
 3320SOL     OW10858   0.231   0.866   6.471
 3320SOL    HW110859   0.214   0.799   6.543
 3320SOL    HW210860   0.284   0.942   6.508
 3321SOL     OW10861   3.797   4.086   3.839
 3321SOL    HW110862   3.879   4.081   3.782
 3321SOL    HW210863   3.824   4.094   3.935
 3322SOL     OW10864   4.371   1.680   1.497
 3322SOL    HW110865   4.331   1.609   1.439
 3322SOL    HW210866   4.303   1.750   1.517
 3323SOL     OW10867   2.038   5.295   0.473
 3323SOL    HW110868   1.949   5.300   0.518
 3323SOL    HW210869   2.031   5.335   0.381
 3324SOL     OW10870   0.515   2.086   0.516
 3324SOL    HW110871   0.478   2.167   0.472
 3324SOL    HW210872   0.480   2.004   0.470
 3325SOL     OW10873   1.854   3.213   0.838
 3325SOL    HW110874   1.783   3.186   0.902
 3325SOL    HW210875   1.813   3.228   0.748
 3326SOL     OW10876   6.352   0.717   1.609
 3326SOL    HW110877   6.410   0.796   1.589
 3326SOL    HW210878   6.374   0.643   1.546
 3327SOL     OW10879   2.920   5.914   2.157
 3327SOL    HW110880   3.017   5.939   2.154
 3327SOL    HW210881   2.897   5.882   2.249
 3328SOL     OW10882   4.229   0.899   2.534
 3328SOL    HW110883   4.264   0.978   2.484
 3328SOL    HW210884   4.135   0.918   2.563
 3329SOL     OW10885   5.197   0.818   5.098
 3329SOL    HW110886   5.102   0.788   5.102
 3329SOL    HW210887   5.251   0.752   5.047
 3330SOL     OW10888   0.007   5.589   2.603
 3330SOL    HW110889   0.001   5.684   2.633
 3330SOL    HW210890   0.098   5.572   2.564
 3331SOL     OW10891   1.885   3.185   3.013
 3331SOL    HW110892   1.883   3.226   3.104
 3331SOL    HW210893   1.907   3.255   2.945
 3332SOL     OW10894   3.626   5.265   1.092
 3332SOL    HW110895   3.595   5.223   1.007
 3332SOL    HW210896   3.566   5.342   1.115
 3333SOL     OW10897   2.518   3.056   1.708
 3333SOL    HW110898   2.609   3.019   1.725
 3333SOL    HW210899   2.519   3.155   1.719
 3334SOL     OW10900   1.727   1.964   2.507
 3334SOL    HW110901   1.795   1.915   2.453
 3334SOL    HW210902   1.686   2.037   2.451
 3335SOL     OW10903   3.719   4.448   5.560
 3335SOL    HW110904   3.627   4.439   5.598
 3335SOL    HW210905   3.786   4.434   5.633
 3336SOL     OW10906   5.020   5.575   3.664
 3336SOL    HW110907   5.034   5.629   3.747
 3336SOL    HW210908   5.105   5.573   3.611
 3337SOL     OW10909   3.350   3.328   3.178
 3337SOL    HW110910   3.329   3.230   3.170
 3337SOL    HW210911   3.369   3.366   3.088
 3338SOL     OW10912   2.840   2.673   1.629
 3338SOL    HW110913   2.851   2.620   1.544
 3338SOL    HW210914   2.773   2.628   1.688
 3339SOL     OW10915   1.654   6.893   5.922
 3339SOL    HW110916   1.571   6.846   5.891
 3339SOL    HW210917   1.734   6.837   5.900
 3340SOL     OW10918   3.752   0.800   4.352
 3340SOL    HW110919   3.776   0.757   4.265
 3340SOL    HW210920   3.712   0.890   4.336
 3341SOL     OW10921   1.663   4.065   2.804
 3341SOL    HW110922   1.712   4.121   2.871
 3341SOL    HW210923   1.698   3.972   2.806
 3342SOL     OW10924   0.028   0.361   1.992
 3342SOL    HW110925   0.121   0.324   1.986
 3342SOL    HW210926   0.020   0.417   2.075
 3343SOL     OW10927   4.727   5.050   5.975
 3343SOL    HW110928   4.718   5.144   5.943
 3343SOL    HW210929   4.821   5.019   5.961
 3344SOL     OW10930   0.230   3.255   2.334
 3344SOL    HW110931   0.173   3.185   2.292
 3344SOL    HW210932   0.173   3.316   2.389
 3345SOL     OW10933   5.989   4.877   0.424
 3345SOL    HW110934   5.938   4.793   0.409
 3345SOL    HW210935   6.070   4.878   0.365
 3346SOL     OW10936   1.586   1.257   0.568
 3346SOL    HW110937   1.669   1.304   0.540
 3346SOL    HW210938   1.604   1.158   0.575
 3347SOL     OW10939   0.080   3.584   6.036
 3347SOL    HW110940   0.106   3.621   6.125
 3347SOL    HW210941   0.108   3.488   6.030
 3348SOL     OW10942   3.550   3.693   6.180
 3348SOL    HW110943   3.584   3.656   6.093
 3348SOL    HW210944   3.616   3.759   6.215
 3349SOL     OW10945   1.703   4.369   4.024
 3349SOL    HW110946   1.603   4.375   4.030
 3349SOL    HW210947   1.733   4.392   3.932
 3350SOL     OW10948   1.130   4.152   4.675
 3350SOL    HW110949   1.130   4.183   4.580
 3350SOL    HW210950   1.176   4.063   4.681
 3351SOL     OW10951   4.735   0.752   1.432
 3351SOL    HW110952   4.701   0.814   1.362
 3351SOL    HW210953   4.790   0.803   1.498
 3352SOL     OW10954   6.415   1.431   0.124
 3352SOL    HW110955   6.346   1.495   0.158
 3352SOL    HW210956   6.476   1.478   0.060
 3353SOL     OW10957   2.515   6.851   1.146
 3353SOL    HW110958   2.553   6.870   1.237
 3353SOL    HW210959   2.454   6.926   1.120
 3354SOL     OW10960   2.845   4.555   6.229
 3354SOL    HW110961   2.941   4.548   6.203
 3354SOL    HW210962   2.806   4.463   6.235
 3355SOL     OW10963   1.777   0.981   4.918
 3355SOL    HW110964   1.732   1.069   4.931
 3355SOL    HW210965   1.711   0.912   4.888
 3356SOL     OW10966   1.560   0.016   5.534
 3356SOL    HW110967   1.560   0.095   5.472
 3356SOL    HW210968   1.642   0.017   5.590
 3357SOL     OW10969   2.884   3.170   1.920
 3357SOL    HW110970   2.970   3.155   1.871
 3357SOL    HW210971   2.833   3.243   1.876
 3358SOL     OW10972   6.858   0.408   1.333
 3358SOL    HW110973   6.849   0.363   1.422
 3358SOL    HW210974   6.779   0.385   1.276
 3359SOL     OW10975   0.147   6.751   4.499
 3359SOL    HW110976   0.138   6.653   4.483
 3359SOL    HW210977   0.213   6.766   4.573
 3360SOL     OW10978   1.048   3.167   4.438
 3360SOL    HW110979   1.090   3.099   4.378
 3360SOL    HW210980   1.065   3.258   4.402
 3361SOL     OW10981   6.490   6.782   4.855
 3361SOL    HW110982   6.406   6.816   4.897
 3361SOL    HW210983   6.479   6.685   4.834
 3362SOL     OW10984   3.831   0.704   4.105
 3362SOL    HW110985   3.797   0.709   4.011
 3362SOL    HW210986   3.931   0.707   4.104
 3363SOL     OW10987   5.759   3.666   6.697
 3363SOL    HW110988   5.750   3.590   6.632
 3363SOL    HW210989   5.672   3.679   6.745
 3364SOL     OW10990   1.861   3.517   3.302
 3364SOL    HW110991   1.837   3.528   3.398
 3364SOL    HW210992   1.777   3.503   3.248
 3365SOL     OW10993   2.142   4.128   3.541
 3365SOL    HW110994   2.181   4.097   3.628
 3365SOL    HW210995   2.074   4.062   3.510
 3366SOL     OW10996   6.086   4.022   4.182
 3366SOL    HW110997   6.179   4.058   4.171
 3366SOL    HW210998   6.020   4.098   4.178
 3367SOL     OW10999   3.617   3.493   3.517
 3367SOL    HW111000   3.694   3.502   3.580
 3367SOL    HW211001   3.573   3.582   3.505
 3368SOL     OW11002   1.686   0.043   2.068
 3368SOL    HW111003   1.695   0.057   1.969
 3368SOL    HW211004   1.696   6.965   2.089
 3369SOL     OW11005   5.195   2.355   0.732
 3369SOL    HW111006   5.202   2.321   0.826
 3369SOL    HW211007   5.157   2.447   0.733
 3370SOL     OW11008   1.084   5.659   2.662
 3370SOL    HW111009   1.038   5.632   2.747
 3370SOL    HW211010   1.182   5.644   2.671
 3371SOL     OW11011   2.145   2.591   2.536
 3371SOL    HW111012   2.072   2.634   2.482
 3371SOL    HW211013   2.198   2.530   2.477
 3372SOL     OW11014   6.094   3.295   2.496
 3372SOL    HW111015   6.139   3.233   2.432
 3372SOL    HW211016   6.036   3.359   2.445
 3373SOL     OW11017   6.538   3.250   1.592
 3373SOL    HW111018   6.604   3.309   1.546
 3373SOL    HW211019   6.445   3.281   1.570
 3374SOL     OW11020   0.451   0.009   4.162
 3374SOL    HW111021   0.521   6.957   4.167
 3374SOL    HW211022   0.366   6.993   4.201
 3375SOL     OW11023   6.862   4.621   5.880
 3375SOL    HW111024   6.811   4.700   5.914
 3375SOL    HW211025   6.847   4.543   5.941
 3376SOL     OW11026   3.121   3.475   4.339
 3376SOL    HW111027   3.082   3.567   4.340
 3376SOL    HW211028   3.052   3.410   4.305
 3377SOL     OW11029   6.465   5.051   3.404
 3377SOL    HW111030   6.450   4.974   3.342
 3377SOL    HW211031   6.415   5.131   3.371
 3378SOL     OW11032   1.299   6.234   0.327
 3378SOL    HW111033   1.346   6.321   0.339
 3378SOL    HW211034   1.351   6.161   0.371
 3379SOL     OW11035   6.985   3.941   3.362
 3379SOL    HW111036   6.899   3.891   3.370
 3379SOL    HW211037   6.967   4.034   3.329
 3380SOL     OW11038   2.913   4.778   0.283
 3380SOL    HW111039   2.901   4.715   0.206
 3380SOL    HW211040   2.824   4.802   0.321
 3381SOL     OW11041   1.615   3.646   6.350
 3381SOL    HW111042   1.706   3.619   6.381
 3381SOL    HW211043   1.623   3.719   6.282
 3382SOL     OW11044   0.144   3.153   0.383
 3382SOL    HW111045   0.180   3.241   0.414
 3382SOL    HW211046   0.170   3.139   0.287
 3383SOL     OW11047   4.456   5.612   0.270
 3383SOL    HW111048   4.373   5.653   0.307
 3383SOL    HW211049   4.509   5.572   0.345
 3384SOL     OW11050   2.957   4.427   6.614
 3384SOL    HW111051   2.893   4.369   6.564
 3384SOL    HW211052   2.911   4.465   6.694
 3385SOL     OW11053   0.432   2.149   4.036
 3385SOL    HW111054   0.335   2.176   4.036
 3385SOL    HW211055   0.465   2.147   4.131
 3386SOL     OW11056   0.737   4.418   5.047
 3386SOL    HW111057   0.743   4.514   5.020
 3386SOL    HW211058   0.760   4.409   5.144
 3387SOL     OW11059   6.159   0.810   3.022
 3387SOL    HW111060   6.065   0.808   3.057
 3387SOL    HW211061   6.187   0.718   2.997
 3388SOL     OW11062   6.635   3.921   0.917
 3388SOL    HW111063   6.685   3.856   0.861
 3388SOL    HW211064   6.544   3.884   0.939
 3389SOL     OW11065   5.673   6.331   0.312
 3389SOL    HW111066   5.579   6.353   0.337
 3389SOL    HW211067   5.692   6.366   0.220
 3390SOL     OW11068   2.852   6.097   6.020
 3390SOL    HW111069   2.943   6.078   6.056
 3390SOL    HW211070   2.790   6.022   6.044
 3391SOL     OW11071   5.799   3.628   4.631
 3391SOL    HW111072   5.790   3.727   4.633
 3391SOL    HW211073   5.851   3.600   4.550
 3392SOL     OW11074   4.733   6.891   5.766
 3392SOL    HW111075   4.741   6.991   5.768
 3392SOL    HW211076   4.637   6.865   5.758
 3393SOL     OW11077   5.231   5.682   0.763
 3393SOL    HW111078   5.136   5.662   0.787
 3393SOL    HW211079   5.244   5.668   0.665
 3394SOL     OW11080   2.542   5.618   1.020
 3394SOL    HW111081   2.499   5.539   0.976
 3394SOL    HW211082   2.474   5.664   1.077
 3395SOL     OW11083   2.422   0.081   3.467
 3395SOL    HW111084   2.351   0.136   3.423
 3395SOL    HW211085   2.487   0.049   3.398
 3396SOL     OW11086   4.983   1.427   4.309
 3396SOL    HW111087   4.995   1.479   4.225
 3396SOL    HW211088   4.939   1.484   4.378
 3397SOL     OW11089   2.433   5.901   0.274
 3397SOL    HW111090   2.502   5.914   0.345
 3397SOL    HW211091   2.342   5.910   0.313
 3398SOL     OW11092   6.702   2.450   5.046
 3398SOL    HW111093   6.722   2.545   5.069
 3398SOL    HW211094   6.788   2.399   5.035
 3399SOL     OW11095   6.563   5.801   1.726
 3399SOL    HW111096   6.598   5.895   1.717
 3399SOL    HW211097   6.467   5.804   1.753
 3400SOL     OW11098   5.021   1.775   6.047
 3400SOL    HW111099   4.982   1.843   5.985
 3400SOL    HW211100   5.051   1.695   5.995
 3401SOL     OW11101   5.912   3.528   5.524
 3401SOL    HW111102   5.990   3.510   5.585
 3401SOL    HW211103   5.829   3.536   5.578
 3402SOL     OW11104   6.022   3.446   1.399
 3402SOL    HW111105   6.110   3.483   1.368
 3402SOL    HW211106   5.955   3.519   1.406
 3403SOL     OW11107   5.274   6.696   6.676
 3403SOL    HW111108   5.310   6.623   6.619
 3403SOL    HW211109   5.259   6.662   6.769
 3404SOL     OW11110   5.006   4.444   4.995
 3404SOL    HW111111   5.083   4.506   5.008
 3404SOL    HW211112   5.038   4.350   5.001
 3405SOL     OW11113   5.144   6.217   6.807
 3405SOL    HW111114   5.230   6.173   6.782
 3405SOL    HW211115   5.085   6.152   6.854
 3406SOL     OW11116   2.290   5.398   1.656
 3406SOL    HW111117   2.212   5.355   1.700
 3406SOL    HW211118   2.262   5.440   1.570
 3407SOL     OW11119   0.975   3.666   6.923
 3407SOL    HW111120   0.950   3.600   6.994
 3407SOL    HW211121   1.033   3.621   6.855
 3408SOL     OW11122   4.704   1.202   3.201
 3408SOL    HW111123   4.702   1.278   3.266
 3408SOL    HW211124   4.794   1.158   3.205
 3409SOL     OW11125   4.309   0.154   1.093
 3409SOL    HW111126   4.261   0.231   1.052
 3409SOL    HW211127   4.378   0.119   1.029
 3410SOL     OW11128   6.233   0.439   3.395
 3410SOL    HW111129   6.160   0.497   3.359
 3410SOL    HW211130   6.201   0.344   3.398
 3411SOL     OW11131   5.728   2.596   0.121
 3411SOL    HW111132   5.770   2.687   0.121
 3411SOL    HW211133   5.760   2.544   0.042
 3412SOL     OW11134   5.827   3.154   1.981
 3412SOL    HW111135   5.837   3.104   2.067
 3412SOL    HW211136   5.887   3.114   1.912
 3413SOL     OW11137   6.893   2.023   6.873
 3413SOL    HW111138   6.838   2.045   6.792
 3413SOL    HW211139   6.983   1.990   6.844
 3414SOL     OW11140   2.966   4.469   1.094
 3414SOL    HW111141   3.029   4.441   1.167
 3414SOL    HW211142   2.875   4.431   1.112
 3415SOL     OW11143   1.905   1.519   6.544
 3415SOL    HW111144   1.866   1.562   6.463
 3415SOL    HW211145   1.926   1.423   6.523
 3416SOL     OW11146   6.017   6.840   6.831
 3416SOL    HW111147   5.937   6.897   6.848
 3416SOL    HW211148   6.100   6.888   6.860
 3417SOL     OW11149   5.311   6.460   3.627
 3417SOL    HW111150   5.321   6.371   3.583
 3417SOL    HW211151   5.219   6.469   3.663
 3418SOL     OW11152   4.458   5.119   1.052
 3418SOL    HW111153   4.447   5.044   1.117
 3418SOL    HW211154   4.544   5.107   1.001
 3419SOL     OW11155   2.268   5.469   5.367
 3419SOL    HW111156   2.351   5.467   5.310
 3419SOL    HW211157   2.237   5.376   5.384
 3420SOL     OW11158   4.578   2.157   2.340
 3420SOL    HW111159   4.655   2.221   2.330
 3420SOL    HW211160   4.507   2.180   2.273
 3421SOL     OW11161   6.903   2.537   4.262
 3421SOL    HW111162   6.868   2.611   4.319
 3421SOL    HW211163   6.953   2.576   4.185
 3422SOL     OW11164   2.206   6.301   0.712
 3422SOL    HW111165   2.118   6.347   0.698
 3422SOL    HW211166   2.280   6.360   0.680
 3423SOL     OW11167   1.380   4.417   5.776
 3423SOL    HW111168   1.439   4.340   5.753
 3423SOL    HW211169   1.294   4.383   5.815
 3424SOL     OW11170   4.469   0.865   1.827
 3424SOL    HW111171   4.392   0.926   1.806
 3424SOL    HW211172   4.500   0.821   1.742
 3425SOL     OW11173   6.380   3.952   6.956
 3425SOL    HW111174   6.292   3.905   6.964
 3425SOL    HW211175   6.372   4.045   6.992
 3426SOL     OW11176   5.430   3.459   6.529
 3426SOL    HW111177   5.444   3.456   6.430
 3426SOL    HW211178   5.448   3.552   6.562
 3427SOL     OW11179   0.959   2.467   0.926
 3427SOL    HW111180   0.961   2.502   1.020
 3427SOL    HW211181   0.919   2.375   0.926
 3428SOL     OW11182   4.801   6.443   5.347
 3428SOL    HW111183   4.743   6.384   5.290
 3428SOL    HW211184   4.748   6.473   5.426
 3429SOL     OW11185   6.150   0.124   1.165
 3429SOL    HW111186   6.075   0.121   1.099
 3429SOL    HW211187   6.144   0.044   1.224
 3430SOL     OW11188   2.255   4.698   5.465
 3430SOL    HW111189   2.352   4.683   5.447
 3430SOL    HW211190   2.241   4.714   5.563
 3431SOL     OW11191   0.681   4.632   2.733
 3431SOL    HW111192   0.653   4.536   2.733
 3431SOL    HW211193   0.773   4.640   2.772
 3432SOL     OW11194   1.523   4.210   0.124
 3432SOL    HW111195   1.543   4.213   0.222
 3432SOL    HW211196   1.552   4.297   0.082
 3433SOL     OW11197   2.780   1.984   6.665
 3433SOL    HW111198   2.750   1.925   6.590
 3433SOL    HW211199   2.768   1.934   6.752
 3434SOL     OW11200   3.498   2.508   1.676
 3434SOL    HW111201   3.415   2.454   1.668
 3434SOL    HW211202   3.564   2.461   1.735
 3435SOL     OW11203   2.381   1.020   0.908
 3435SOL    HW111204   2.348   1.024   1.002
 3435SOL    HW211205   2.422   1.108   0.883
 3436SOL     OW11206   3.859   6.938   6.597
 3436SOL    HW111207   3.788   7.005   6.617
 3436SOL    HW211208   3.887   6.947   6.501
 3437SOL     OW11209   1.411   0.089   6.267
 3437SOL    HW111210   1.471   0.143   6.325
 3437SOL    HW211211   1.372   0.013   6.319
 3438SOL     OW11212   1.673   3.619   1.301
 3438SOL    HW111213   1.597   3.667   1.257
 3438SOL    HW211214   1.751   3.681   1.309
 3439SOL     OW11215   2.454   5.290   2.194
 3439SOL    HW111216   2.467   5.296   2.095
 3439SOL    HW211217   2.521   5.348   2.240
 3440SOL     OW11218   3.732   3.825   4.606
 3440SOL    HW111219   3.725   3.894   4.677
 3440SOL    HW211220   3.827   3.798   4.594
 3441SOL     OW11221   5.646   4.755   5.615
 3441SOL    HW111222   5.743   4.781   5.612
 3441SOL    HW211223   5.599   4.793   5.536
 3442SOL     OW11224   2.915   3.239   1.223
 3442SOL    HW111225   2.932   3.177   1.146
 3442SOL    HW211226   2.820   3.230   1.253
 3443SOL     OW11227   1.072   5.984   2.512
 3443SOL    HW111228   1.000   6.007   2.446
 3443SOL    HW211229   1.032   5.971   2.602
 3444SOL     OW11230   6.008   3.736   6.449
 3444SOL    HW111231   5.935   3.678   6.411
 3444SOL    HW211232   6.022   3.713   6.545
 3445SOL     OW11233   6.131   4.724   3.503
 3445SOL    HW111234   6.043   4.736   3.548
 3445SOL    HW211235   6.201   4.777   3.552
 3446SOL     OW11236   4.967   0.950   1.299
 3446SOL    HW111237   5.058   0.910   1.293
 3446SOL    HW211238   4.972   1.036   1.350
 3447SOL     OW11239   4.954   0.553   6.627
 3447SOL    HW111240   5.016   0.582   6.700
 3447SOL    HW211241   4.907   0.469   6.655
 3448SOL     OW11242   1.864   5.310   5.143
 3448SOL    HW111243   1.792   5.338   5.207
 3448SOL    HW211244   1.905   5.392   5.102
 3449SOL     OW11245   0.030   4.409   5.342
 3449SOL    HW111246   7.000   4.495   5.357
 3449SOL    HW211247   0.079   4.413   5.255
 3450SOL     OW11248   2.592   6.449   1.636
 3450SOL    HW111249   2.524   6.377   1.649
 3450SOL    HW211250   2.606   6.463   1.538
 3451SOL     OW11251   2.300   1.657   1.636
 3451SOL    HW111252   2.279   1.668   1.539
 3451SOL    HW211253   2.354   1.736   1.667
 3452SOL     OW11254   4.305   0.945   4.403
 3452SOL    HW111255   4.331   0.888   4.481
 3452SOL    HW211256   4.211   0.925   4.376
 3453SOL     OW11257   4.035   6.562   6.100
 3453SOL    HW111258   4.063   6.657   6.107
 3453SOL    HW211259   4.113   6.506   6.072
 3454SOL     OW11260   0.443   2.810   1.212
 3454SOL    HW111261   0.468   2.893   1.162
 3454SOL    HW211262   0.360   2.770   1.172
 3455SOL     OW11263   0.897   3.026   4.942
 3455SOL    HW111264   0.924   2.961   5.013
 3455SOL    HW211265   0.955   3.014   4.862
 3456SOL     OW11266   5.715   5.773   3.568
 3456SOL    HW111267   5.634   5.765   3.627
 3456SOL    HW211268   5.721   5.865   3.532
 3457SOL     OW11269   2.910   4.717   6.579
 3457SOL    HW111270   2.974   4.687   6.650
 3457SOL    HW211271   2.830   4.657   6.577
 3458SOL     OW11272   4.162   1.154   1.628
 3458SOL    HW111273   4.228   1.224   1.654
 3458SOL    HW211274   4.208   1.080   1.580
 3459SOL     OW11275   4.538   5.860   2.306
 3459SOL    HW111276   4.445   5.835   2.279
 3459SOL    HW211277   4.603   5.822   2.241
 3460SOL     OW11278   4.043   1.721   4.851
 3460SOL    HW111279   4.062   1.813   4.819
 3460SOL    HW211280   3.972   1.679   4.793
 3461SOL     OW11281   5.655   5.324   4.636
 3461SOL    HW111282   5.587   5.255   4.608
 3461SOL    HW211283   5.720   5.282   4.699
 3462SOL     OW11284   0.969   3.805   6.346
 3462SOL    HW111285   1.034   3.852   6.406
 3462SOL    HW211286   1.006   3.717   6.318
 3463SOL     OW11287   4.782   4.015   1.474
 3463SOL    HW111288   4.774   4.049   1.380
 3463SOL    HW211289   4.873   3.976   1.488
 3464SOL     OW11290   0.130   4.825   5.190
 3464SOL    HW111291   0.191   4.848   5.266
 3464SOL    HW211292   0.144   4.890   5.115
 3465SOL     OW11293   1.030   1.195   1.569
 3465SOL    HW111294   0.987   1.115   1.526
 3465SOL    HW211295   0.983   1.278   1.539
 3466SOL     OW11296   6.310   3.679   5.398
 3466SOL    HW111297   6.281   3.637   5.484
 3466SOL    HW211298   6.235   3.732   5.359
 3467SOL     OW11299   2.069   2.828   6.929
 3467SOL    HW111300   2.113   2.757   6.984
 3467SOL    HW211301   1.974   2.839   6.958
 3468SOL     OW11302   3.767   6.200   3.356
 3468SOL    HW111303   3.865   6.184   3.369
 3468SOL    HW211304   3.754   6.275   3.292
 3469SOL     OW11305   4.912   3.521   2.758
 3469SOL    HW111306   4.861   3.470   2.828
 3469SOL    HW211307   4.974   3.586   2.803
 3470SOL     OW11308   0.211   5.300   1.434
 3470SOL    HW111309   0.204   5.267   1.528
 3470SOL    HW211310   0.120   5.314   1.396
 3471SOL     OW11311   4.246   0.099   4.792
 3471SOL    HW111312   4.175   0.084   4.723
 3471SOL    HW211313   4.215   0.166   4.858
 3472SOL     OW11314   3.751   0.874   5.540
 3472SOL    HW111315   3.658   0.908   5.555
 3472SOL    HW211316   3.768   0.797   5.602
 3473SOL     OW11317   4.951   0.957   4.982
 3473SOL    HW111318   4.923   0.864   5.008
 3473SOL    HW211319   5.016   0.952   4.906
 3474SOL     OW11320   4.713   4.531   0.736
 3474SOL    HW111321   4.738   4.436   0.714
 3474SOL    HW211322   4.613   4.538   0.743
 3475SOL     OW11323   1.939   6.064   5.214
 3475SOL    HW111324   1.993   5.992   5.171
 3475SOL    HW211325   1.908   6.034   5.304
 3476SOL     OW11326   4.851   1.254   4.118
 3476SOL    HW111327   4.814   1.197   4.191
 3476SOL    HW211328   4.928   1.307   4.153
 3477SOL     OW11329   4.684   6.020   1.581
 3477SOL    HW111330   4.709   5.940   1.527
 3477SOL    HW211331   4.648   5.991   1.670
 3478SOL     OW11332   3.997   4.756   6.721
 3478SOL    HW111333   3.924   4.740   6.788
 3478SOL    HW211334   4.084   4.723   6.758
 3479SOL     OW11335   0.659   0.288   1.757
 3479SOL    HW111336   0.695   0.283   1.850
 3479SOL    HW211337   0.611   0.375   1.744
 3480SOL     OW11338   1.421   1.481   3.897
 3480SOL    HW111339   1.321   1.482   3.893
 3480SOL    HW211340   1.458   1.463   3.806
 3481SOL     OW11341   2.551   0.129   6.494
 3481SOL    HW111342   2.536   0.227   6.486
 3481SOL    HW211343   2.548   0.087   6.403
 3482SOL     OW11344   0.978   1.689   0.986
 3482SOL    HW111345   0.983   1.766   1.050
 3482SOL    HW211346   1.001   1.721   0.894
 3483SOL     OW11347   4.081   0.718   0.799
 3483SOL    HW111348   4.172   0.680   0.817
 3483SOL    HW211349   4.046   0.762   0.882
 3484SOL     OW11350   3.184   4.093   3.408
 3484SOL    HW111351   3.280   4.119   3.417
 3484SOL    HW211352   3.160   4.030   3.482
 3485SOL     OW11353   6.966   1.360   4.984
 3485SOL    HW111354   6.923   1.337   4.897
 3485SOL    HW211355   0.001   1.444   4.974
 3486SOL     OW11356   4.257   1.774   2.486
 3486SOL    HW111357   4.233   1.850   2.547
 3486SOL    HW211358   4.209   1.692   2.516
 3487SOL     OW11359   0.304   0.622   6.947
 3487SOL    HW111360   0.385   0.668   6.911
 3487SOL    HW211361   0.327   0.527   6.969
 3488SOL     OW11362   6.048   3.281   3.921
 3488SOL    HW111363   6.123   3.253   3.981
 3488SOL    HW211364   6.086   3.330   3.842
 3489SOL     OW11365   2.531   6.665   0.948
 3489SOL    HW111366   2.592   6.687   0.872
 3489SOL    HW211367   2.516   6.747   1.003
 3490SOL     OW11368   3.634   3.375   0.295
 3490SOL    HW111369   3.588   3.444   0.240
 3490SOL    HW211370   3.636   3.405   0.391
 3491SOL     OW11371   6.999   3.090   4.894
 3491SOL    HW111372   6.917   3.136   4.860
 3491SOL    HW211373   0.060   3.150   4.882
 3492SOL     OW11374   5.713   4.995   6.493
 3492SOL    HW111375   5.649   4.941   6.437
 3492SOL    HW211376   5.665   5.071   6.536
 3493SOL     OW11377   6.654   5.294   0.466
 3493SOL    HW111378   6.635   5.263   0.559
 3493SOL    HW211379   6.752   5.296   0.451
 3494SOL     OW11380   3.380   6.890   1.145
 3494SOL    HW111381   3.329   6.825   1.201
 3494SOL    HW211382   3.465   6.849   1.114
 3495SOL     OW11383   5.069   5.005   0.606
 3495SOL    HW111384   5.128   5.039   0.679
 3495SOL    HW211385   5.020   4.924   0.637
 3496SOL     OW11386   1.546   4.298   0.376
 3496SOL    HW111387   1.452   4.270   0.398
 3496SOL    HW211388   1.603   4.290   0.457
 3497SOL     OW11389   4.855   6.715   3.672
 3497SOL    HW111390   4.931   6.665   3.631
 3497SOL    HW211391   4.879   6.742   3.765
 3498SOL     OW11392   2.405   1.386   1.683
 3498SOL    HW111393   2.382   1.477   1.649
 3498SOL    HW211394   2.386   1.317   1.613
 3499SOL     OW11395   5.922   3.642   3.260
 3499SOL    HW111396   5.903   3.740   3.264
 3499SOL    HW211397   5.841   3.592   3.291
 3500SOL     OW11398   6.544   3.082   0.999
 3500SOL    HW111399   6.527   2.991   1.036
 3500SOL    HW211400   6.533   3.080   0.899
 3501SOL     OW11401   0.958   4.339   4.253
 3501SOL    HW111402   1.027   4.398   4.213
 3501SOL    HW211403   0.951   4.254   4.200
 3502SOL     OW11404   0.926   3.587   1.492
 3502SOL    HW111405   0.944   3.686   1.496
 3502SOL    HW211406   0.855   3.569   1.424
 3503SOL     OW11407   5.011   6.191   3.642
 3503SOL    HW111408   4.951   6.256   3.689
 3503SOL    HW211409   5.022   6.109   3.698
 3504SOL     OW11410   2.113   3.285   2.718
 3504SOL    HW111411   2.070   3.279   2.628
 3504SOL    HW211412   2.059   3.343   2.778
 3505SOL     OW11413   4.606   5.461   4.833
 3505SOL    HW111414   4.614   5.378   4.778
 3505SOL    HW211415   4.649   5.538   4.785
 3506SOL     OW11416   5.660   5.245   2.324
 3506SOL    HW111417   5.665   5.343   2.304
 3506SOL    HW211418   5.624   5.197   2.244
 3507SOL     OW11419   0.531   0.740   6.052
 3507SOL    HW111420   0.580   0.784   5.977
 3507SOL    HW211421   0.508   0.646   6.026
 3508SOL     OW11422   6.063   3.047   6.503
 3508SOL    HW111423   6.135   2.981   6.480
 3508SOL    HW211424   5.979   3.022   6.455
 3509SOL     OW11425   6.990   6.506   1.127
 3509SOL    HW111426   0.034   6.429   1.129
 3509SOL    HW211427   7.008   6.562   1.047
 3510SOL     OW11428   1.707   2.894   1.805
 3510SOL    HW111429   1.675   2.892   1.899
 3510SOL    HW211430   1.631   2.875   1.743
 3511SOL     OW11431   0.627   1.158   5.344
 3511SOL    HW111432   0.598   1.072   5.385
 3511SOL    HW211433   0.614   1.154   5.244
 3512SOL     OW11434   3.516   3.515   1.101
 3512SOL    HW111435   3.542   3.591   1.042
 3512SOL    HW211436   3.476   3.549   1.185
 3513SOL     OW11437   5.877   4.812   1.247
 3513SOL    HW111438   5.890   4.901   1.203
 3513SOL    HW211439   5.862   4.826   1.345
 3514SOL     OW11440   1.402   0.025   1.763
 3514SOL    HW111441   1.397   0.051   1.667
 3514SOL    HW211442   1.373   6.949   1.773
 3515SOL     OW11443   3.016   6.417   3.257
 3515SOL    HW111444   3.059   6.327   3.268
 3515SOL    HW211445   2.940   6.425   3.321
 3516SOL     OW11446   3.222   1.087   0.660
 3516SOL    HW111447   3.160   1.024   0.706
 3516SOL    HW211448   3.261   1.150   0.728
 3517SOL     OW11449   1.192   0.800   6.787
 3517SOL    HW111450   1.104   0.828   6.749
 3517SOL    HW211451   1.196   0.823   6.884
 3518SOL     OW11452   4.442   2.921   5.999
 3518SOL    HW111453   4.353   2.910   5.954
 3518SOL    HW211454   4.515   2.915   5.930
 3519SOL     OW11455   2.346   0.014   1.061
 3519SOL    HW111456   2.335   0.098   1.114
 3519SOL    HW211457   2.265   7.018   1.005
 3520SOL     OW11458   3.990   5.301   1.391
 3520SOL    HW111459   4.050   5.251   1.327
 3520SOL    HW211460   3.958   5.385   1.348
 3521SOL     OW11461   5.414   2.314   0.591
 3521SOL    HW111462   5.333   2.316   0.650
 3521SOL    HW211463   5.464   2.400   0.602
 3522SOL     OW11464   2.975   5.467   1.831
 3522SOL    HW111465   2.965   5.510   1.742
 3522SOL    HW211466   2.995   5.369   1.820
 3523SOL     OW11467   2.026   4.893   5.669
 3523SOL    HW111468   2.003   4.796   5.681
 3523SOL    HW211469   2.002   4.921   5.576
 3524SOL     OW11470   2.574   6.630   1.840
 3524SOL    HW111471   2.631   6.601   1.917
 3524SOL    HW211472   2.590   6.570   1.762
 3525SOL     OW11473   1.606   3.017   2.312
 3525SOL    HW111474   1.572   2.926   2.335
 3525SOL    HW211475   1.595   3.078   2.390
 3526SOL     OW11476   2.792   0.383   3.137
 3526SOL    HW111477   2.887   0.351   3.138
 3526SOL    HW211478   2.743   0.337   3.064
 3527SOL     OW11479   4.601   3.161   5.838
 3527SOL    HW111480   4.603   3.166   5.938
 3527SOL    HW211481   4.679   3.106   5.807
 3528SOL     OW11482   1.019   6.640   4.546
 3528SOL    HW111483   0.942   6.646   4.610
 3528SOL    HW211484   1.089   6.706   4.573
 3529SOL     OW11485   3.500   5.920   0.158
 3529SOL    HW111486   3.596   5.924   0.129
 3529SOL    HW211487   3.459   5.835   0.125
 3530SOL     OW11488   1.428   5.609   2.907
 3530SOL    HW111489   1.417   5.603   2.808
 3530SOL    HW211490   1.479   5.693   2.930
 3531SOL     OW11491   4.434   3.955   6.862
 3531SOL    HW111492   4.469   3.867   6.893
 3531SOL    HW211493   4.356   3.982   6.919
 3532SOL     OW11494   1.996   6.782   0.298
 3532SOL    HW111495   2.065   6.710   0.294
 3532SOL    HW211496   1.905   6.742   0.287
 3533SOL     OW11497   1.553   1.460   3.621
 3533SOL    HW111498   1.463   1.482   3.582
 3533SOL    HW211499   1.612   1.424   3.549
 3534SOL     OW11500   5.285   1.110   4.921
 3534SOL    HW111501   5.231   1.045   4.868
 3534SOL    HW211502   5.260   1.103   5.018
 3535SOL     OW11503   4.324   6.080   6.971
 3535SOL    HW111504   4.323   6.180   6.974
 3535SOL    HW211505   4.267   6.044   0.027
 3536SOL     OW11506   0.959   4.524   3.180
 3536SOL    HW111507   0.884   4.487   3.236
 3536SOL    HW211508   0.963   4.623   3.191
 3537SOL     OW11509   2.269   5.151   0.356
 3537SOL    HW111510   2.189   5.194   0.399
 3537SOL    HW211511   2.305   5.080   0.417
 3538SOL     OW11512   2.870   0.646   4.438
 3538SOL    HW111513   2.777   0.657   4.472
 3538SOL    HW211514   2.868   0.624   4.340
 3539SOL     OW11515   5.292   5.992   6.571
 3539SOL    HW111516   5.352   6.040   6.635
 3539SOL    HW211517   5.331   5.902   6.550
 3540SOL     OW11518   2.820   4.189   6.542
 3540SOL    HW111519   2.874   4.105   6.538
 3540SOL    HW211520   2.773   4.202   6.455
 3541SOL     OW11521   1.984   3.019   1.471
 3541SOL    HW111522   1.952   3.056   1.558
 3541SOL    HW211523   2.024   2.928   1.485
 3542SOL     OW11524   5.642   1.319   6.342
 3542SOL    HW111525   5.578   1.253   6.380
 3542SOL    HW211526   5.596   1.374   6.272
 3543SOL     OW11527   0.365   2.200   3.479
 3543SOL    HW111528   0.324   2.253   3.554
 3543SOL    HW211529   0.292   2.163   3.422
 3544SOL     OW11530   3.219   3.932   6.749
 3544SOL    HW111531   3.291   3.863   6.750
 3544SOL    HW211532   3.252   4.015   6.795
 3545SOL     OW11533   3.786   6.383   1.487
 3545SOL    HW111534   3.698   6.369   1.533
 3545SOL    HW211535   3.859   6.388   1.555
 3546SOL     OW11536   6.871   4.328   2.389
 3546SOL    HW111537   6.773   4.317   2.407
 3546SOL    HW211538   6.887   4.416   2.345
 3547SOL     OW11539   0.721   3.595   5.061
 3547SOL    HW111540   0.623   3.609   5.058
 3547SOL    HW211541   0.745   3.510   5.014
 3548SOL     OW11542   5.613   0.464   5.507
 3548SOL    HW111543   5.546   0.474   5.581
 3548SOL    HW211544   5.687   0.530   5.518
 3549SOL     OW11545   2.756   6.949   0.489
 3549SOL    HW111546   2.826   6.992   0.547
 3549SOL    HW211547   2.671   7.000   0.496
 3550SOL     OW11548   5.540   0.757   5.094
 3550SOL    HW111549   5.515   0.785   5.186
 3550SOL    HW211550   5.514   0.829   5.029
 3551SOL     OW11551   4.519   2.079   4.565
 3551SOL    HW111552   4.480   1.997   4.607
 3551SOL    HW211553   4.614   2.090   4.595
 3552SOL     OW11554   6.618   6.758   3.146
 3552SOL    HW111555   6.522   6.783   3.132
 3552SOL    HW211556   6.625   6.696   3.224
 3553SOL     OW11557   5.622   5.895   6.724
 3553SOL    HW111558   5.674   5.834   6.665
 3553SOL    HW211559   5.625   5.860   6.818
 3554SOL     OW11560   5.685   3.732   0.435
 3554SOL    HW111561   5.673   3.812   0.376
 3554SOL    HW211562   5.776   3.694   0.420
 3555SOL     OW11563   3.251   2.144   4.786
 3555SOL    HW111564   3.344   2.112   4.804
 3555SOL    HW211565   3.234   2.227   4.839
 3556SOL     OW11566   5.592   0.985   5.696
 3556SOL    HW111567   5.648   0.903   5.690
 3556SOL    HW211568   5.638   1.061   5.649
 3557SOL     OW11569   5.902   0.345   0.991
 3557SOL    HW111570   5.931   0.403   0.915
 3557SOL    HW211571   5.955   0.261   0.990
 3558SOL     OW11572   3.383   5.607   1.725
 3558SOL    HW111573   3.476   5.575   1.708
 3558SOL    HW211574   3.336   5.543   1.786
 3559SOL     OW11575   4.863   6.869   5.455
 3559SOL    HW111576   4.847   6.820   5.541
 3559SOL    HW211577   4.779   6.871   5.401
 3560SOL     OW11578   2.054   5.215   3.795
 3560SOL    HW111579   1.989   5.158   3.846
 3560SOL    HW211580   2.045   5.196   3.697
 3561SOL     OW11581   4.546   3.803   5.366
 3561SOL    HW111582   4.466   3.751   5.393
 3561SOL    HW211583   4.591   3.759   5.289
 3562SOL     OW11584   2.112   1.524   5.756
 3562SOL    HW111585   2.091   1.486   5.846
 3562SOL    HW211586   2.034   1.579   5.724
 3563SOL     OW11587   6.059   2.836   5.140
 3563SOL    HW111588   6.082   2.876   5.229
 3563SOL    HW211589   6.007   2.902   5.087
 3564SOL     OW11590   5.950   3.629   1.627
 3564SOL    HW111591   5.885   3.703   1.608
 3564SOL    HW211592   5.911   3.566   1.694
 3565SOL     OW11593   3.788   6.070   3.914
 3565SOL    HW111594   3.839   6.108   3.836
 3565SOL    HW211595   3.692   6.095   3.905
 3566SOL     OW11596   1.661   6.609   5.188
 3566SOL    HW111597   1.739   6.626   5.128
 3566SOL    HW211598   1.645   6.689   5.245
 3567SOL     OW11599   6.855   3.364   6.323
 3567SOL    HW111600   6.869   3.290   6.257
 3567SOL    HW211601   6.795   3.331   6.397
 3568SOL     OW11602   5.370   4.051   6.517
 3568SOL    HW111603   5.302   4.076   6.448
 3568SOL    HW211604   5.401   3.958   6.501
 3569SOL     OW11605   2.002   1.219   4.481
 3569SOL    HW111606   2.077   1.187   4.423
 3569SOL    HW211607   2.039   1.276   4.555
 3570SOL     OW11608   6.114   2.026   3.991
 3570SOL    HW111609   6.045   2.052   3.923
 3570SOL    HW211610   6.183   2.097   3.998
 3571SOL     OW11611   6.178   5.943   5.542
 3571SOL    HW111612   6.195   5.909   5.449
 3571SOL    HW211613   6.128   6.030   5.537
 3572SOL     OW11614   6.444   5.863   3.917
 3572SOL    HW111615   6.370   5.909   3.867
 3572SOL    HW211616   6.443   5.892   4.013
 3573SOL     OW11617   1.189   2.300   2.845
 3573SOL    HW111618   1.244   2.355   2.782
 3573SOL    HW211619   1.108   2.266   2.798
 3574SOL     OW11620   6.721   4.117   0.753
 3574SOL    HW111621   6.817   4.142   0.742
 3574SOL    HW211622   6.709   4.071   0.841
 3575SOL     OW11623   6.419   5.392   1.498
 3575SOL    HW111624   6.369   5.450   1.561
 3575SOL    HW211625   6.436   5.302   1.540
 3576SOL     OW11626   0.310   1.841   6.192
 3576SOL    HW111627   0.282   1.753   6.154
 3576SOL    HW211628   0.229   1.896   6.212
 3577SOL     OW11629   1.538   2.863   0.038
 3577SOL    HW111630   1.468   2.837   6.989
 3577SOL    HW211631   1.595   2.935   7.018
 3578SOL     OW11632   3.887   5.285   0.746
 3578SOL    HW111633   3.789   5.268   0.739
 3578SOL    HW211634   3.903   5.364   0.805
 3579SOL     OW11635   0.049   4.551   4.736
 3579SOL    HW111636   0.037   4.453   4.721
 3579SOL    HW211637   7.006   4.601   4.676
 3580SOL     OW11638   6.604   2.160   2.122
 3580SOL    HW111639   6.683   2.105   2.149
 3580SOL    HW211640   6.587   2.149   2.024
 3581SOL     OW11641   6.606   0.590   2.969
 3581SOL    HW111642   6.692   0.543   2.947
 3581SOL    HW211643   6.582   0.573   3.064
 3582SOL     OW11644   0.906   0.815   5.643
 3582SOL    HW111645   0.963   0.842   5.721
 3582SOL    HW211646   0.917   0.717   5.627
 3583SOL     OW11647   1.910   5.745   0.538
 3583SOL    HW111648   1.861   5.732   0.452
 3583SOL    HW211649   2.007   5.727   0.524
 3584SOL     OW11650   4.506   6.233   5.994
 3584SOL    HW111651   4.497   6.156   5.931
 3584SOL    HW211652   4.602   6.246   6.018
 3585SOL     OW11653   2.473   4.976   3.641
 3585SOL    HW111654   2.487   4.892   3.589
 3585SOL    HW211655   2.512   4.966   3.732
 3586SOL     OW11656   6.855   2.184   6.105
 3586SOL    HW111657   6.909   2.251   6.156
 3586SOL    HW211658   6.797   2.133   6.168
 3587SOL     OW11659   4.173   0.009   6.439
 3587SOL    HW111660   4.254   0.002   6.380
 3587SOL    HW211661   4.113   0.081   6.404
 3588SOL     OW11662   1.808   1.123   5.741
 3588SOL    HW111663   1.873   1.074   5.683
 3588SOL    HW211664   1.715   1.102   5.712
 3589SOL     OW11665   3.516   0.828   5.034
 3589SOL    HW111666   3.590   0.782   5.084
 3589SOL    HW211667   3.505   0.786   4.944
 3590SOL     OW11668   1.995   5.423   6.325
 3590SOL    HW111669   2.011   5.520   6.304
 3590SOL    HW211670   2.026   5.367   6.249
 3591SOL     OW11671   5.204   2.671   5.477
 3591SOL    HW111672   5.275   2.691   5.544
 3591SOL    HW211673   5.244   2.624   5.398
 3592SOL     OW11674   4.770   2.715   2.087
 3592SOL    HW111675   4.813   2.667   2.011
 3592SOL    HW211676   4.741   2.806   2.057
 3593SOL     OW11677   1.612   5.122   3.243
 3593SOL    HW111678   1.666   5.183   3.185
 3593SOL    HW211679   1.641   5.132   3.338
 3594SOL     OW11680   3.237   1.167   4.369
 3594SOL    HW111681   3.159   1.229   4.354
 3594SOL    HW211682   3.319   1.207   4.329
 3595SOL     OW11683   3.000   5.719   5.285
 3595SOL    HW111684   3.002   5.765   5.374
 3595SOL    HW211685   2.950   5.776   5.220
 3596SOL     OW11686   6.876   2.900   3.039
 3596SOL    HW111687   6.900   2.833   2.969
 3596SOL    HW211688   6.813   2.859   3.104
 3597SOL     OW11689   3.594   5.546   4.056
 3597SOL    HW111690   3.663   5.475   4.070
 3597SOL    HW211691   3.639   5.633   4.038
 3598SOL     OW11692   0.867   0.036   6.695
 3598SOL    HW111693   0.795   6.990   6.670
 3598SOL    HW211694   0.848   0.125   6.654
 3599SOL     OW11695   0.381   1.358   4.197
 3599SOL    HW111696   0.320   1.380   4.273
 3599SOL    HW211697   0.474   1.344   4.231
 3600SOL     OW11698   5.637   1.057   0.823
 3600SOL    HW111699   5.690   1.131   0.782
 3600SOL    HW211700   5.553   1.043   0.770
 3601SOL     OW11701   6.434   3.699   6.144
 3601SOL    HW111702   6.447   3.609   6.102
 3601SOL    HW211703   6.354   3.696   6.204
 3602SOL     OW11704   2.066   1.343   0.337
 3602SOL    HW111705   2.062   1.350   0.237
 3602SOL    HW211706   2.146   1.393   0.370
 3603SOL     OW11707   4.114   5.016   4.671
 3603SOL    HW111708   4.037   5.041   4.730
 3603SOL    HW211709   4.100   4.923   4.636
 3604SOL     OW11710   0.354   2.813   3.119
 3604SOL    HW111711   0.437   2.811   3.175
 3604SOL    HW211712   0.369   2.868   3.038
 3605SOL     OW11713   6.001   3.788   6.796
 3605SOL    HW111714   5.928   3.720   6.785
 3605SOL    HW211715   6.049   3.771   6.882
 3606SOL     OW11716   0.760   4.451   4.747
 3606SOL    HW111717   0.767   4.418   4.841
 3606SOL    HW211718   0.704   4.387   4.693
 3607SOL     OW11719   4.952   6.965   6.771
 3607SOL    HW111720   5.032   6.992   6.825
 3607SOL    HW211721   4.881   6.931   6.832
 3608SOL     OW11722   0.901   2.576   2.401
 3608SOL    HW111723   0.890   2.675   2.407
 3608SOL    HW211724   0.836   2.531   2.463
 3609SOL     OW11725   7.005   0.306   4.900
 3609SOL    HW111726   6.967   0.363   4.973
 3609SOL    HW211727   0.078   0.278   4.925
 3610SOL     OW11728   1.322   6.642   5.489
 3610SOL    HW111729   1.275   6.697   5.420
 3610SOL    HW211730   1.273   6.557   5.504
 3611SOL     OW11731   3.709   5.363   5.347
 3611SOL    HW111732   3.684   5.432   5.279
 3611SOL    HW211733   3.631   5.303   5.365
 3612SOL     OW11734   0.906   0.309   1.370
 3612SOL    HW111735   0.885   0.242   1.299
 3612SOL    HW211736   0.998   0.347   1.354
 3613SOL     OW11737   5.090   5.724   6.499
 3613SOL    HW111738   5.183   5.740   6.534
 3613SOL    HW211739   5.094   5.711   6.400
 3614SOL     OW11740   3.364   2.951   3.359
 3614SOL    HW111741   3.359   2.925   3.262
 3614SOL    HW211742   3.459   2.969   3.383
 3615SOL     OW11743   6.281   6.196   6.516
 3615SOL    HW111744   6.359   6.251   6.548
 3615SOL    HW211745   6.208   6.257   6.485
 3616SOL     OW11746   0.107   1.975   5.726
 3616SOL    HW111747   0.170   1.920   5.671
 3616SOL    HW211748   0.016   1.973   5.685
 3617SOL     OW11749   6.851   1.275   6.285
 3617SOL    HW111750   6.804   1.194   6.320
 3617SOL    HW211751   6.949   1.254   6.275
 3618SOL     OW11752   2.436   2.143   6.614
 3618SOL    HW111753   2.463   2.052   6.582
 3618SOL    HW211754   2.465   2.212   6.548
 3619SOL     OW11755   6.070   2.214   4.325
 3619SOL    HW111756   6.049   2.224   4.422
 3619SOL    HW211757   6.007   2.148   4.284
 3620SOL     OW11758   5.857   6.568   5.396
 3620SOL    HW111759   5.937   6.529   5.351
 3620SOL    HW211760   5.781   6.573   5.332
 3621SOL     OW11761   1.837   3.700   5.701
 3621SOL    HW111762   1.828   3.607   5.737
 3621SOL    HW211763   1.767   3.759   5.740
 3622SOL     OW11764   0.560   2.871   1.453
 3622SOL    HW111765   0.511   2.850   1.369
 3622SOL    HW211766   0.552   2.794   1.517
 3623SOL     OW11767   5.874   4.766   3.606
 3623SOL    HW111768   5.838   4.683   3.648
 3623SOL    HW211769   5.800   4.833   3.597
 3624SOL     OW11770   2.860   6.773   2.168
 3624SOL    HW111771   2.790   6.824   2.218
 3624SOL    HW211772   2.922   6.728   2.232
 3625SOL     OW11773   6.766   3.530   5.004
 3625SOL    HW111774   6.750   3.436   5.035
 3625SOL    HW211775   6.852   3.534   4.954
 3626SOL     OW11776   2.416   3.726   5.319
 3626SOL    HW111777   2.421   3.794   5.246
 3626SOL    HW211778   2.391   3.637   5.279
 3627SOL     OW11779   3.039   3.873   3.190
 3627SOL    HW111780   3.085   3.918   3.113
 3627SOL    HW211781   3.040   3.933   3.269
 3628SOL     OW11782   2.676   5.120   2.105
 3628SOL    HW111783   2.620   5.180   2.048
 3628SOL    HW211784   2.620   5.043   2.136
 3629SOL     OW11785   6.059   2.093   5.492
 3629SOL    HW111786   5.990   2.153   5.532
 3629SOL    HW211787   6.014   2.026   5.432
 3630SOL     OW11788   6.189   1.928   4.351
 3630SOL    HW111789   6.259   1.894   4.288
 3630SOL    HW211790   6.213   2.021   4.379
 3631SOL     OW11791   2.427   1.119   4.618
 3631SOL    HW111792   2.371   1.169   4.684
 3631SOL    HW211793   2.379   1.036   4.589
 3632SOL     OW11794   4.686   0.903   0.450
 3632SOL    HW111795   4.630   0.894   0.368
 3632SOL    HW211796   4.627   0.910   0.530
 3633SOL     OW11797   1.985   3.114   5.816
 3633SOL    HW111798   2.046   3.192   5.826
 3633SOL    HW211799   2.032   3.041   5.767
 3634SOL     OW11800   1.870   6.475   5.052
 3634SOL    HW111801   1.802   6.403   5.038
 3634SOL    HW211802   1.916   6.494   4.965
 3635SOL     OW11803   2.550   1.506   5.655
 3635SOL    HW111804   2.576   1.411   5.640
 3635SOL    HW211805   2.569   1.559   5.572
 3636SOL     OW11806   0.873   5.129   5.703
 3636SOL    HW111807   0.912   5.067   5.635
 3636SOL    HW211808   0.899   5.099   5.795
 3637SOL     OW11809   5.462   1.135   1.799
 3637SOL    HW111810   5.460   1.043   1.759
 3637SOL    HW211811   5.478   1.202   1.726
 3638SOL     OW11812   0.102   4.217   3.496
 3638SOL    HW111813   0.129   4.124   3.470
 3638SOL    HW211814   0.179   4.262   3.541
 3639SOL     OW11815   2.601   5.029   0.700
 3639SOL    HW111816   2.581   4.988   0.790
 3639SOL    HW211817   2.540   4.990   0.632
 3640SOL     OW11818   3.363   5.839   1.168
 3640SOL    HW111819   3.301   5.823   1.091
 3640SOL    HW211820   3.457   5.819   1.139
 3641SOL     OW11821   2.676   1.438   4.584
 3641SOL    HW111822   2.620   1.437   4.666
 3641SOL    HW211823   2.756   1.379   4.597
 3642SOL     OW11824   5.377   0.619   4.219
 3642SOL    HW111825   5.302   0.562   4.185
 3642SOL    HW211826   5.353   0.715   4.207
 3643SOL     OW11827   2.862   4.804   4.694
 3643SOL    HW111828   2.907   4.717   4.670
 3643SOL    HW211829   2.878   4.824   4.791
 3644SOL     OW11830   6.896   0.842   0.840
 3644SOL    HW111831   6.845   0.800   0.765
 3644SOL    HW211832   6.940   0.771   0.894
 3645SOL     OW11833   4.253   0.898   3.674
 3645SOL    HW111834   4.259   0.994   3.647
 3645SOL    HW211835   4.272   0.840   3.595
 3646SOL     OW11836   6.777   5.042   5.604
 3646SOL    HW111837   6.768   5.060   5.702
 3646SOL    HW211838   6.695   5.073   5.556
 3647SOL     OW11839   2.025   3.164   1.240
 3647SOL    HW111840   1.977   3.251   1.229
 3647SOL    HW211841   2.016   3.133   1.335
 3648SOL     OW11842   3.479   5.737   2.309
 3648SOL    HW111843   3.402   5.763   2.250
 3648SOL    HW211844   3.491   5.805   2.380
 3649SOL     OW11845   4.004   3.335   0.650
 3649SOL    HW111846   3.978   3.336   0.554
 3649SOL    HW211847   4.083   3.395   0.664
 3650SOL     OW11848   0.748   6.004   1.601
 3650SOL    HW111849   0.839   6.019   1.637
 3650SOL    HW211850   0.739   5.909   1.570
 3651SOL     OW11851   1.489   6.009   2.857
 3651SOL    HW111852   1.428   6.043   2.786
 3651SOL    HW211853   1.454   6.037   2.947
 3652SOL     OW11854   4.467   5.810   3.338
 3652SOL    HW111855   4.495   5.870   3.263
 3652SOL    HW211856   4.386   5.758   3.311
 3653SOL     OW11857   0.146   1.470   2.778
 3653SOL    HW111858   0.127   1.552   2.724
 3653SOL    HW211859   0.064   1.444   2.829
 3654SOL     OW11860   1.475   6.916   1.355
 3654SOL    HW111861   1.560   6.935   1.403
 3654SOL    HW211862   1.495   6.886   1.262
 3655SOL     OW11863   2.016   0.676   4.779
 3655SOL    HW111864   2.051   0.666   4.686
 3655SOL    HW211865   1.916   0.669   4.778
 3656SOL     OW11866   1.966   2.669   2.122
 3656SOL    HW111867   2.016   2.584   2.142
 3656SOL    HW211868   1.936   2.668   2.027
 3657SOL     OW11869   4.010   5.657   0.911
 3657SOL    HW111870   4.049   5.612   0.991
 3657SOL    HW211871   3.967   5.742   0.939
 3658SOL     OW11872   0.991   6.168   5.711
 3658SOL    HW111873   0.896   6.198   5.706
 3658SOL    HW211874   0.995   6.071   5.735
 3659SOL     OW11875   2.386   4.450   6.956
 3659SOL    HW111876   2.398   4.547   6.936
 3659SOL    HW211877   2.468   4.400   6.931
 3660SOL     OW11878   4.361   5.635   2.113
 3660SOL    HW111879   4.295   5.707   2.133
 3660SOL    HW211880   4.427   5.668   2.044
 3661SOL     OW11881   4.926   1.061   0.179
 3661SOL    HW111882   4.975   1.051   0.265
 3661SOL    HW211883   4.868   1.142   0.182
 3662SOL     OW11884   3.188   0.405   5.420
 3662SOL    HW111885   3.121   0.428   5.492
 3662SOL    HW211886   3.157   0.323   5.372
 3663SOL     OW11887   1.713   2.608   7.011
 3663SOL    HW111888   1.721   2.593   6.913
 3663SOL    HW211889   1.698   2.705   0.010
 3664SOL     OW11890   5.002   1.483   0.648
 3664SOL    HW111891   5.019   1.409   0.713
 3664SOL    HW211892   4.994   1.569   0.698
 3665SOL     OW11893   0.723   0.427   5.039
 3665SOL    HW111894   0.659   0.498   5.069
 3665SOL    HW211895   0.749   0.444   4.944
 3666SOL     OW11896   1.993   4.059   4.410
 3666SOL    HW111897   1.991   4.045   4.311
 3666SOL    HW211898   2.088   4.071   4.440
 3667SOL     OW11899   6.444   1.114   6.414
 3667SOL    HW111900   6.444   1.029   6.468
 3667SOL    HW211901   6.464   1.093   6.318
 3668SOL     OW11902   1.263   6.878   2.640
 3668SOL    HW111903   1.343   6.838   2.594
 3668SOL    HW211904   1.253   6.836   2.731
 3669SOL     OW11905   6.771   2.797   3.268
 3669SOL    HW111906   6.747   2.820   3.362
 3669SOL    HW211907   6.869   2.780   3.261
 3670SOL     OW11908   2.064   5.898   5.697
 3670SOL    HW111909   2.021   5.914   5.608
 3670SOL    HW211910   2.026   5.960   5.764
 3671SOL     OW11911   0.922   0.522   3.349
 3671SOL    HW111912   0.979   0.604   3.364
 3671SOL    HW211913   0.925   0.465   3.430
 3672SOL     OW11914   6.830   0.702   0.237
 3672SOL    HW111915   6.747   0.758   0.234
 3672SOL    HW211916   6.805   0.607   0.255
 3673SOL     OW11917   4.773   0.629   0.056
 3673SOL    HW111918   4.838   0.559   0.026
 3673SOL    HW211919   4.814   0.685   0.128
 3674SOL     OW11920   1.141   6.860   0.252
 3674SOL    HW111921   1.164   6.763   0.242
 3674SOL    HW211922   1.077   6.872   0.328
 3675SOL     OW11923   2.263   2.306   5.326
 3675SOL    HW111924   2.238   2.316   5.230
 3675SOL    HW211925   2.345   2.360   5.346
 3676SOL     OW11926   3.106   5.437   3.921
 3676SOL    HW111927   3.125   5.467   4.014
 3676SOL    HW211928   3.014   5.464   3.894
 3677SOL     OW11929   6.531   6.496   4.126
 3677SOL    HW111930   6.563   6.569   4.064
 3677SOL    HW211931   6.584   6.413   4.108
 3678SOL     OW11932   1.493   2.109   3.604
 3678SOL    HW111933   1.592   2.109   3.619
 3678SOL    HW211934   1.466   2.193   3.556
 3679SOL     OW11935   0.295   0.599   1.863
 3679SOL    HW111936   0.286   0.698   1.865
 3679SOL    HW211937   0.356   0.573   1.788
 3680SOL     OW11938   6.858   3.261   3.865
 3680SOL    HW111939   6.906   3.173   3.857
 3680SOL    HW211940   6.760   3.244   3.866
 3681SOL     OW11941   0.207   6.555   6.099
 3681SOL    HW111942   0.129   6.613   6.075
 3681SOL    HW211943   0.286   6.613   6.121
 3682SOL     OW11944   6.468   1.986   5.952
 3682SOL    HW111945   6.435   2.062   6.008
 3682SOL    HW211946   6.558   1.956   5.985
 3683SOL     OW11947   6.187   6.504   4.529
 3683SOL    HW111948   6.113   6.521   4.464
 3683SOL    HW211949   6.274   6.500   4.480
 3684SOL     OW11950   1.081   3.601   1.962
 3684SOL    HW111951   1.090   3.544   1.880
 3684SOL    HW211952   1.165   3.596   2.015
 3685SOL     OW11953   6.117   6.299   0.224
 3685SOL    HW111954   6.107   6.398   0.223
 3685SOL    HW211955   6.214   6.275   0.214
 3686SOL     OW11956   6.611   4.523   1.645
 3686SOL    HW111957   6.511   4.518   1.644
 3686SOL    HW211958   6.648   4.455   1.581
 3687SOL     OW11959   3.751   0.680   6.863
 3687SOL    HW111960   3.663   0.634   6.876
 3687SOL    HW211961   3.826   0.615   6.875
 3688SOL     OW11962   1.495   3.289   0.236
 3688SOL    HW111963   1.575   3.338   0.201
 3688SOL    HW211964   1.435   3.353   0.284
 3689SOL     OW11965   1.719   0.972   4.409
 3689SOL    HW111966   1.754   1.030   4.335
 3689SOL    HW211967   1.691   1.030   4.486
 3690SOL     OW11968   5.572   0.138   5.977
 3690SOL    HW111969   5.563   0.215   6.040
 3690SOL    HW211970   5.658   0.145   5.926
 3691SOL     OW11971   2.441   3.383   0.471
 3691SOL    HW111972   2.348   3.392   0.505
 3691SOL    HW211973   2.502   3.442   0.524
 3692SOL     OW11974   2.061   0.125   4.928
 3692SOL    HW111975   2.065   0.219   4.893
 3692SOL    HW211976   2.153   0.087   4.935
 3693SOL     OW11977   3.025   2.268   3.210
 3693SOL    HW111978   3.104   2.288   3.268
 3693SOL    HW211979   2.941   2.281   3.263
 3694SOL     OW11980   1.948   5.983   3.533
 3694SOL    HW111981   1.929   6.007   3.438
 3694SOL    HW211982   1.958   6.067   3.586
 3695SOL     OW11983   2.228   1.788   2.484
 3695SOL    HW111984   2.246   1.844   2.565
 3695SOL    HW211985   2.277   1.825   2.406
 3696SOL     OW11986   4.312   0.150   5.745
 3696SOL    HW111987   4.405   0.183   5.730
 3696SOL    HW211988   4.254   0.226   5.773
 3697SOL     OW11989   6.412   6.813   3.527
 3697SOL    HW111990   6.329   6.758   3.536
 3697SOL    HW211991   6.388   6.910   3.524
 3698SOL     OW11992   3.065   6.981   5.683
 3698SOL    HW111993   3.131   6.964   5.756
 3698SOL    HW211994   2.995   0.026   5.715
 3699SOL     OW11995   6.838   3.970   2.662
 3699SOL    HW111996   6.865   3.920   2.579
 3699SOL    HW211997   6.893   3.938   2.739
 3700SOL     OW11998   6.988   0.449   4.320
 3700SOL    HW111999   6.947   0.531   4.361
 3700SOL    HW212000   6.946   0.368   4.360
 3701SOL     OW12001   6.052   0.915   4.582
 3701SOL    HW112002   6.069   0.939   4.486
 3701SOL    HW212003   6.113   0.841   4.609
 3702SOL     OW12004   4.126   0.824   0.557
 3702SOL    HW112005   4.121   0.792   0.651
 3702SOL    HW212006   4.066   0.904   0.545
 3703SOL     OW12007   3.506   4.392   6.406
 3703SOL    HW112008   3.577   4.460   6.388
 3703SOL    HW212009   3.500   4.374   6.504
 3704SOL     OW12010   2.856   0.613   2.950
 3704SOL    HW112011   2.807   0.550   3.010
 3704SOL    HW212012   2.955   0.602   2.966
 3705SOL     OW12013   5.282   0.441   3.781
 3705SOL    HW112014   5.238   0.397   3.702
 3705SOL    HW212015   5.379   0.453   3.762
 3706SOL     OW12016   1.916   2.667   4.363
 3706SOL    HW112017   1.940   2.731   4.436
 3706SOL    HW212018   1.817   2.654   4.360
 3707SOL     OW12019   5.216   2.581   5.938
 3707SOL    HW112020   5.170   2.670   5.943
 3707SOL    HW212021   5.212   2.548   5.843
 3708SOL     OW12022   6.323   0.524   6.652
 3708SOL    HW112023   6.338   0.580   6.570
 3708SOL    HW212024   6.410   0.490   6.686
 3709SOL     OW12025   3.705   0.735   6.242
 3709SOL    HW112026   3.658   0.680   6.311
 3709SOL    HW212027   3.664   0.827   6.240
 3710SOL     OW12028   6.769   4.961   0.693
 3710SOL    HW112029   6.759   4.964   0.793
 3710SOL    HW212030   6.679   4.947   0.651
 3711SOL     OW12031   6.783   5.606   2.332
 3711SOL    HW112032   6.875   5.637   2.355
 3711SOL    HW212033   6.746   5.553   2.409
 3712SOL     OW12034   1.496   6.646   6.793
 3712SOL    HW112035   1.554   6.722   6.764
 3712SOL    HW212036   1.454   6.667   6.882
 3713SOL     OW12037   3.850   6.061   5.365
 3713SOL    HW112038   3.932   6.006   5.348
 3713SOL    HW212039   3.789   6.013   5.428
 3714SOL     OW12040   4.051   0.353   4.647
 3714SOL    HW112041   4.011   0.441   4.624
 3714SOL    HW212042   4.147   0.367   4.674
 3715SOL     OW12043   5.417   4.855   4.644
 3715SOL    HW112044   5.331   4.867   4.594
 3715SOL    HW212045   5.475   4.789   4.597
 3716SOL     OW12046   0.206   0.172   4.682
 3716SOL    HW112047   0.221   0.270   4.699
 3716SOL    HW212048   0.177   0.127   4.766
 3717SOL     OW12049   5.965   6.217   1.554
 3717SOL    HW112050   5.927   6.204   1.463
 3717SOL    HW212051   5.964   6.315   1.577
 3718SOL     OW12052   1.221   5.893   6.793
 3718SOL    HW112053   1.267   5.826   6.851
 3718SOL    HW212054   1.246   5.985   6.823
 3719SOL     OW12055   4.137   5.360   6.079
 3719SOL    HW112056   4.160   5.264   6.061
 3719SOL    HW212057   4.171   5.385   6.169
 3720SOL     OW12058   6.192   1.456   6.308
 3720SOL    HW112059   6.188   1.508   6.223
 3720SOL    HW212060   6.163   1.362   6.290
 3721SOL     OW12061   5.533   4.931   0.548
 3721SOL    HW112062   5.474   4.852   0.538
 3721SOL    HW212063   5.626   4.901   0.570
 3722SOL     OW12064   6.706   6.310   2.749
 3722SOL    HW112065   6.666   6.318   2.658
 3722SOL    HW212066   6.642   6.345   2.817
 3723SOL     OW12067   4.627   0.510   1.083
 3723SOL    HW112068   4.622   0.577   1.009
 3723SOL    HW212069   4.562   0.535   1.155
 3724SOL     OW12070   1.347   5.721   6.979
 3724SOL    HW112071   1.340   5.650   0.031
 3724SOL    HW212072   1.408   5.689   6.906
 3725SOL     OW12073   6.615   5.881   6.424
 3725SOL    HW112074   6.536   5.918   6.375
 3725SOL    HW212075   6.694   5.878   6.362
 3726SOL     OW12076   5.767   3.849   1.602
 3726SOL    HW112077   5.736   3.865   1.696
 3726SOL    HW212078   5.731   3.921   1.543
 3727SOL     OW12079   1.680   3.179   4.755
 3727SOL    HW112080   1.646   3.121   4.681
 3727SOL    HW212081   1.675   3.129   4.841
 3728SOL     OW12082   1.922   3.121   6.808
 3728SOL    HW112083   1.980   3.040   6.804
 3728SOL    HW212084   1.864   3.124   6.727
 3729SOL     OW12085   1.209   1.897   3.257
 3729SOL    HW112086   1.302   1.929   3.273
 3729SOL    HW212087   1.158   1.901   3.344
 3730SOL     OW12088   3.297   1.438   6.734
 3730SOL    HW112089   3.255   1.420   6.645
 3730SOL    HW212090   3.247   1.510   6.781
 3731SOL     OW12091   4.980   0.358   0.628
 3731SOL    HW112092   5.038   0.279   0.606
 3731SOL    HW212093   4.920   0.377   0.551
 3732SOL     OW12094   2.242   3.523   5.248
 3732SOL    HW112095   2.213   3.585   5.174
 3732SOL    HW212096   2.233   3.428   5.217
 3733SOL     OW12097   2.829   4.106   1.573
 3733SOL    HW112098   2.896   4.041   1.610
 3733SOL    HW212099   2.738   4.067   1.577
 3734SOL     OW12100   4.689   0.942   2.398
 3734SOL    HW112101   4.684   0.973   2.303
 3734SOL    HW212102   4.755   0.999   2.447
 3735SOL     OW12103   2.579   2.488   2.458
 3735SOL    HW112104   2.654   2.554   2.468
 3735SOL    HW212105   2.582   2.447   2.367
 3736SOL     OW12106   6.268   2.353   0.929
 3736SOL    HW112107   6.343   2.375   0.866
 3736SOL    HW212108   6.278   2.406   1.013
 3737SOL     OW12109   4.753   0.183   3.416
 3737SOL    HW112110   4.816   0.258   3.400
 3737SOL    HW212111   4.684   0.210   3.483
 3738SOL     OW12112   6.909   6.629   3.720
 3738SOL    HW112113   6.866   6.670   3.640
 3738SOL    HW212114   6.935   6.535   3.701
 3739SOL     OW12115   0.496   4.032   2.346
 3739SOL    HW112116   0.483   4.046   2.445
 3739SOL    HW212117   0.473   3.938   2.323
 3740SOL     OW12118   5.294   1.456   6.623
 3740SOL    HW112119   5.325   1.365   6.651
 3740SOL    HW212120   5.261   1.506   6.703
 3741SOL     OW12121   4.688   3.074   0.414
 3741SOL    HW112122   4.630   3.155   0.416
 3741SOL    HW212123   4.746   3.076   0.333
 3742SOL     OW12124   3.507   2.508   5.710
 3742SOL    HW112125   3.591   2.558   5.733
 3742SOL    HW212126   3.479   2.453   5.789
 3743SOL     OW12127   6.513   5.019   6.627
 3743SOL    HW112128   6.474   4.934   6.593
 3743SOL    HW212129   6.610   5.006   6.650
 3744SOL     OW12130   0.242   5.253   3.760
 3744SOL    HW112131   0.313   5.300   3.812
 3744SOL    HW212132   0.184   5.201   3.824
 3745SOL     OW12133   3.626   5.583   2.617
 3745SOL    HW112134   3.616   5.516   2.690
 3745SOL    HW212135   3.667   5.667   2.653
 3746SOL     OW12136   4.383   1.816   1.989
 3746SOL    HW112137   4.458   1.864   1.944
 3746SOL    HW212138   4.391   1.826   2.088
 3747SOL     OW12139   3.250   1.137   6.880
 3747SOL    HW112140   3.291   1.092   6.959
 3747SOL    HW212141   3.321   1.186   6.829
 3748SOL     OW12142   5.857   0.603   2.711
 3748SOL    HW112143   5.766   0.644   2.718
 3748SOL    HW212144   5.924   0.674   2.687
 3749SOL     OW12145   1.988   6.943   4.726
 3749SOL    HW112146   1.912   6.972   4.668
 3749SOL    HW212147   2.000   7.008   4.801
 3750SOL     OW12148   0.328   3.772   0.854
 3750SOL    HW112149   0.295   3.716   0.930
 3750SOL    HW212150   0.423   3.798   0.871
 3751SOL     OW12151   0.208   4.319   2.834
 3751SOL    HW112152   0.257   4.292   2.751
 3751SOL    HW212153   0.223   4.417   2.850
 3752SOL     OW12154   6.778   0.724   6.621
 3752SOL    HW112155   6.742   0.735   6.529
 3752SOL    HW212156   6.806   0.628   6.636
 3753SOL     OW12157   6.686   0.625   4.170
 3753SOL    HW112158   6.632   0.607   4.253
 3753SOL    HW212159   6.630   0.676   4.105
 3754SOL     OW12160   2.263   2.032   0.971
 3754SOL    HW112161   2.281   2.022   0.873
 3754SOL    HW212162   2.350   2.029   1.021
 3755SOL     OW12163   2.667   4.665   3.802
 3755SOL    HW112164   2.575   4.631   3.823
 3755SOL    HW212165   2.685   4.651   3.704
 3756SOL     OW12166   3.021   6.651   6.823
 3756SOL    HW112167   3.114   6.615   6.821
 3756SOL    HW212168   3.001   6.698   6.737
 3757SOL     OW12169   6.281   4.929   1.716
 3757SOL    HW112170   6.364   4.925   1.660
 3757SOL    HW212171   6.303   4.968   1.805
 3758SOL     OW12172   1.854   0.196   3.424
 3758SOL    HW112173   1.888   0.242   3.342
 3758SOL    HW212174   1.910   0.114   3.441
 3759SOL     OW12175   5.137   0.329   4.486
 3759SOL    HW112176   5.190   0.255   4.528
 3759SOL    HW212177   5.187   0.415   4.496
 3760SOL     OW12178   0.414   0.456   3.153
 3760SOL    HW112179   0.437   0.458   3.056
 3760SOL    HW212180   0.442   0.542   3.196
 3761SOL     OW12181   4.836   1.154   3.836
 3761SOL    HW112182   4.853   1.186   3.930
 3761SOL    HW212183   4.836   1.054   3.835
 3762SOL     OW12184   0.541   3.177   2.172
 3762SOL    HW112185   0.560   3.217   2.082
 3762SOL    HW212186   0.455   3.213   2.207
 3763SOL     OW12187   0.325   5.223   0.684
 3763SOL    HW112188   0.374   5.235   0.770
 3763SOL    HW212189   0.233   5.261   0.692
 3764SOL     OW12190   2.118   0.025   2.627
 3764SOL    HW112191   2.072   6.978   2.570
 3764SOL    HW212192   2.057   0.101   2.647
 3765SOL     OW12193   6.205   2.879   1.689
 3765SOL    HW112194   6.213   2.978   1.702
 3765SOL    HW212195   6.260   2.833   1.759
 3766SOL     OW12196   0.710   3.371   3.154
 3766SOL    HW112197   0.624   3.323   3.137
 3766SOL    HW212198   0.749   3.340   3.242
 3767SOL     OW12199   1.620   4.654   5.842
 3767SOL    HW112200   1.532   4.640   5.887
 3767SOL    HW212201   1.662   4.565   5.824
 3768SOL     OW12202   1.245   0.636   4.815
 3768SOL    HW112203   1.192   0.721   4.817
 3768SOL    HW212204   1.193   0.563   4.861
 3769SOL     OW12205   5.532   5.767   4.649
 3769SOL    HW112206   5.445   5.785   4.696
 3769SOL    HW212207   5.572   5.683   4.685
 3770SOL     OW12208   1.301   0.983   0.800
 3770SOL    HW112209   1.314   1.081   0.788
 3770SOL    HW212210   1.351   0.951   0.881
 3771SOL     OW12211   6.867   4.691   0.728
 3771SOL    HW112212   6.834   4.658   0.639
 3771SOL    HW212213   6.837   4.785   0.742
 3772SOL     OW12214   1.746   5.976   0.589
 3772SOL    HW112215   1.753   6.025   0.502
 3772SOL    HW212216   1.785   5.884   0.579
 3773SOL     OW12217   5.293   4.067   6.012
 3773SOL    HW112218   5.241   3.981   6.013
 3773SOL    HW212219   5.362   4.063   5.939
 3774SOL     OW12220   6.108   5.504   1.405
 3774SOL    HW112221   6.139   5.429   1.346
 3774SOL    HW212222   6.061   5.466   1.485
 3775SOL     OW12223   4.178   5.264   4.405
 3775SOL    HW112224   4.270   5.294   4.433
 3775SOL    HW212225   4.186   5.200   4.328
 3776SOL     OW12226   3.455   2.940   6.589
 3776SOL    HW112227   3.376   2.880   6.593
 3776SOL    HW212228   3.481   2.967   6.682
 3777SOL     OW12229   3.036   6.522   4.270
 3777SOL    HW112230   3.015   6.557   4.179
 3777SOL    HW212231   2.952   6.493   4.315
 3778SOL     OW12232   3.054   5.324   5.341
 3778SOL    HW112233   2.954   5.316   5.333
 3778SOL    HW212234   3.083   5.412   5.305
 3779SOL     OW12235   6.606   5.067   6.924
 3779SOL    HW112236   6.697   5.103   6.902
 3779SOL    HW212237   6.609   4.967   6.926
 3780SOL     OW12238   5.904   4.003   1.357
 3780SOL    HW112239   5.962   3.924   1.378
 3780SOL    HW212240   5.938   4.083   1.407
 3781SOL     OW12241   2.778   5.876   5.170
 3781SOL    HW112242   2.683   5.849   5.186
 3781SOL    HW212243   2.794   5.968   5.204
 3782SOL     OW12244   5.087   6.116   1.774
 3782SOL    HW112245   5.082   6.215   1.760
 3782SOL    HW212246   5.023   6.089   1.846
 3783SOL     OW12247   5.176   5.191   5.039
 3783SOL    HW112248   5.116   5.125   4.993
 3783SOL    HW212249   5.132   5.223   5.123
 3784SOL     OW12250   6.019   1.737   4.327
 3784SOL    HW112251   6.005   1.693   4.416
 3784SOL    HW212252   6.096   1.801   4.334
 3785SOL     OW12253   1.390   3.913   4.645
 3785SOL    HW112254   1.325   3.898   4.719
 3785SOL    HW212255   1.470   3.963   4.680
 3786SOL     OW12256   2.675   2.427   4.873
 3786SOL    HW112257   2.623   2.439   4.957
 3786SOL    HW212258   2.616   2.443   4.794
 3787SOL     OW12259   4.125   6.937   3.182
 3787SOL    HW112260   4.115   6.897   3.273
 3787SOL    HW212261   4.211   6.987   3.176
 3788SOL     OW12262   6.558   3.779   5.379
 3788SOL    HW112263   6.598   3.695   5.415
 3788SOL    HW212264   6.460   3.780   5.396
 3789SOL     OW12265   1.228   2.643   2.504
 3789SOL    HW112266   1.214   2.715   2.572
 3789SOL    HW212267   1.267   2.562   2.549
 3790SOL     OW12268   0.897   6.745   1.266
 3790SOL    HW112269   0.803   6.771   1.243
 3790SOL    HW212270   0.950   6.738   1.182
 3791SOL     OW12271   4.972   0.763   6.078
 3791SOL    HW112272   5.040   0.832   6.055
 3791SOL    HW212273   5.012   0.698   6.143
 3792SOL     OW12274   6.941   0.706   4.127
 3792SOL    HW112275   6.863   0.648   4.149
 3792SOL    HW212276   6.975   0.682   4.036
 3793SOL     OW12277   5.189   5.200   0.084
 3793SOL    HW112278   5.243   5.144   0.146
 3793SOL    HW212279   5.117   5.247   0.135
 3794SOL     OW12280   1.454   3.998   6.385
 3794SOL    HW112281   1.430   3.932   6.457
 3794SOL    HW212282   1.522   4.062   6.420
 3795SOL     OW12283   2.189   5.604   1.876
 3795SOL    HW112284   2.100   5.621   1.832
 3795SOL    HW212285   2.262   5.646   1.822
 3796SOL     OW12286   4.177   1.910   6.762
 3796SOL    HW112287   4.141   1.905   6.855
 3796SOL    HW212288   4.111   1.869   6.698
 3797SOL     OW12289   1.128   4.354   2.598
 3797SOL    HW112290   1.089   4.403   2.521
 3797SOL    HW212291   1.064   4.284   2.629
 3798SOL     OW12292   1.677   6.940   3.397
 3798SOL    HW112293   1.647   7.006   3.465
 3798SOL    HW212294   1.598   6.897   3.354
 3799SOL     OW12295   0.134   1.724   2.633
 3799SOL    HW112296   0.137   1.691   2.539
 3799SOL    HW212297   0.203   1.795   2.646
 3800SOL     OW12298   6.034   2.215   2.938
 3800SOL    HW112299   6.031   2.262   2.850
 3800SOL    HW212300   5.947   2.168   2.953
 3801SOL     OW12301   5.373   0.418   2.089
 3801SOL    HW112302   5.330   0.334   2.054
 3801SOL    HW212303   5.468   0.400   2.112
 3802SOL     OW12304   5.785   2.199   2.450
 3802SOL    HW112305   5.794   2.199   2.351
 3802SOL    HW212306   5.803   2.291   2.485
 3803SOL     OW12307   2.910   3.662   4.049
 3803SOL    HW112308   2.921   3.755   4.013
 3803SOL    HW212309   2.932   3.662   4.147
 3804SOL     OW12310   3.292   6.157   3.652
 3804SOL    HW112311   3.231   6.085   3.685
 3804SOL    HW212312   3.322   6.135   3.559
 3805SOL     OW12313   2.452   3.118   0.051
 3805SOL    HW112314   2.405   3.044   0.003
 3805SOL    HW212315   2.454   3.097   0.149
 3806SOL     OW12316   3.783   4.411   0.932
 3806SOL    HW112317   3.685   4.425   0.917
 3806SOL    HW212318   3.807   4.315   0.915
 3807SOL     OW12319   1.971   4.186   4.068
 3807SOL    HW112320   1.875   4.157   4.069
 3807SOL    HW212321   1.986   4.248   3.991
 3808SOL     OW12322   3.724   6.457   0.011
 3808SOL    HW112323   3.734   6.541   0.064
 3808SOL    HW212324   3.730   6.478   6.933
 3809SOL     OW12325   4.892   2.321   1.415
 3809SOL    HW112326   4.933   2.286   1.499
 3809SOL    HW212327   4.927   2.413   1.397
 3810SOL     OW12328   6.385   2.170   1.736
 3810SOL    HW112329   6.342   2.086   1.767
 3810SOL    HW212330   6.484   2.162   1.746
 3811SOL     OW12331   0.126   5.298   5.211
 3811SOL    HW112332   0.218   5.305   5.171
 3811SOL    HW212333   0.073   5.380   5.189
 3812SOL     OW12334   4.920   6.804   0.712
 3812SOL    HW112335   4.867   6.727   0.748
 3812SOL    HW212336   4.933   6.872   0.784
 3813SOL     OW12337   6.590   4.012   0.547
 3813SOL    HW112338   6.496   4.005   0.582
 3813SOL    HW212339   6.644   4.068   0.610
 3814SOL     OW12340   6.302   0.321   4.730
 3814SOL    HW112341   6.233   0.257   4.696
 3814SOL    HW212342   6.389   0.272   4.741
 3815SOL     OW12343   5.610   3.555   6.990
 3815SOL    HW112344   5.623   3.648   0.005
 3815SOL    HW212345   5.546   3.506   0.030
 3816SOL     OW12346   1.242   6.270   5.719
 3816SOL    HW112347   1.152   6.226   5.720
 3816SOL    HW212348   1.311   6.204   5.692
 3817SOL     OW12349   5.036   3.335   2.329
 3817SOL    HW112350   5.019   3.243   2.292
 3817SOL    HW212351   5.030   3.332   2.429
 3818SOL     OW12352   6.796   0.287   1.560
 3818SOL    HW112353   6.810   0.281   1.659
 3818SOL    HW212354   6.712   0.240   1.534
 3819SOL     OW12355   6.610   3.946   4.130
 3819SOL    HW112356   6.628   4.024   4.069
 3819SOL    HW212357   6.591   3.865   4.076
 3820SOL     OW12358   5.258   0.233   4.787
 3820SOL    HW112359   5.291   0.178   4.864
 3820SOL    HW212360   5.331   0.295   4.757
 3821SOL     OW12361   1.224   0.148   0.548
 3821SOL    HW112362   1.291   0.161   0.475
 3821SOL    HW212363   1.183   0.236   0.572
 3822SOL     OW12364   4.869   1.333   1.141
 3822SOL    HW112365   4.915   1.258   1.189
 3822SOL    HW212366   4.937   1.397   1.106
 3823SOL     OW12367   4.984   4.992   5.913
 3823SOL    HW112368   5.044   4.912   5.918
 3823SOL    HW212369   5.035   5.074   5.940
 3824SOL     OW12370   1.955   3.545   6.809
 3824SOL    HW112371   2.046   3.548   6.767
 3824SOL    HW212372   1.915   3.455   6.794
 3825SOL     OW12373   1.539   4.205   5.681
 3825SOL    HW112374   1.621   4.262   5.676
 3825SOL    HW212375   1.533   4.146   5.601
 3826SOL     OW12376   5.725   4.166   3.201
 3826SOL    HW112377   5.657   4.199   3.136
 3826SOL    HW212378   5.738   4.068   3.188
 3827SOL     OW12379   1.485   1.424   1.570
 3827SOL    HW112380   1.501   1.352   1.637
 3827SOL    HW212381   1.572   1.456   1.533
 3828SOL     OW12382   3.568   3.532   4.559
 3828SOL    HW112383   3.635   3.600   4.587
 3828SOL    HW212384   3.570   3.521   4.460
 3829SOL     OW12385   0.694   4.016   2.992
 3829SOL    HW112386   0.755   3.941   3.021
 3829SOL    HW212387   0.605   3.979   2.966
 3830SOL     OW12388   0.271   1.082   4.670
 3830SOL    HW112389   0.264   1.004   4.608
 3830SOL    HW212390   0.180   1.121   4.684
 3831SOL     OW12391   4.218   1.778   3.167
 3831SOL    HW112392   4.166   1.812   3.245
 3831SOL    HW212393   4.181   1.689   3.140
 3832SOL     OW12394   0.337   0.625   2.884
 3832SOL    HW112395   0.420   0.645   2.832
 3832SOL    HW212396   0.260   0.615   2.821
 3833SOL     OW12397   0.631   0.816   5.801
 3833SOL    HW112398   0.707   0.782   5.744
 3833SOL    HW212399   0.594   0.899   5.760
 3834SOL     OW12400   4.873   4.278   0.458
 3834SOL    HW112401   4.871   4.272   0.557
 3834SOL    HW212402   4.961   4.242   0.424
 3835SOL     OW12403   4.187   5.998   4.779
 3835SOL    HW112404   4.172   6.096   4.793
 3835SOL    HW212405   4.103   5.956   4.744
 3836SOL     OW12406   6.844   5.629   6.113
 3836SOL    HW112407   6.825   5.548   6.168
 3836SOL    HW212408   6.784   5.629   6.033
 3837SOL     OW12409   4.448   4.856   5.181
 3837SOL    HW112410   4.386   4.892   5.251
 3837SOL    HW212411   4.498   4.932   5.139
 3838SOL     OW12412   1.470   1.944   3.349
 3838SOL    HW112413   1.496   1.849   3.365
 3838SOL    HW212414   1.427   1.982   3.431
 3839SOL     OW12415   4.025   0.554   2.884
 3839SOL    HW112416   3.960   0.609   2.831
 3839SOL    HW212417   4.117   0.567   2.846
 3840SOL     OW12418   2.729   0.822   0.056
 3840SOL    HW112419   2.692   0.784   0.141
 3840SOL    HW212420   2.686   0.776   6.997
 3841SOL     OW12421   6.799   4.384   3.204
 3841SOL    HW112422   6.820   4.287   3.203
 3841SOL    HW212423   6.855   4.432   3.136
 3842SOL     OW12424   2.328   2.877   5.320
 3842SOL    HW112425   2.342   2.905   5.225
 3842SOL    HW212426   2.236   2.902   5.349
 3843SOL     OW12427   5.573   2.529   0.655
 3843SOL    HW112428   5.658   2.526   0.708
 3843SOL    HW212429   5.566   2.618   0.609
 3844SOL     OW12430   1.761   5.264   0.312
 3844SOL    HW112431   1.750   5.185   0.373
 3844SOL    HW212432   1.671   5.295   0.281
 3845SOL     OW12433   2.643   6.399   0.899
 3845SOL    HW112434   2.741   6.384   0.912
 3845SOL    HW212435   2.623   6.496   0.908
 3846SOL     OW12436   1.107   2.700   3.833
 3846SOL    HW112437   1.168   2.742   3.766
 3846SOL    HW212438   1.020   2.749   3.836
 3847SOL     OW12439   6.283   1.170   5.675
 3847SOL    HW112440   6.353   1.106   5.642
 3847SOL    HW212441   6.326   1.259   5.695
 3848SOL     OW12442   5.235   3.682   2.357
 3848SOL    HW112443   5.216   3.766   2.409
 3848SOL    HW212444   5.149   3.645   2.323
 3849SOL     OW12445   0.049   6.212   6.521
 3849SOL    HW112446   0.016   6.129   6.476
 3849SOL    HW212447   0.096   6.270   6.455
 3850SOL     OW12448   2.616   2.648   1.146
 3850SOL    HW112449   2.524   2.646   1.107
 3850SOL    HW212450   2.626   2.573   1.212
 3851SOL     OW12451   0.121   5.445   3.185
 3851SOL    HW112452   0.030   5.466   3.221
 3851SOL    HW212453   0.190   5.491   3.241
 3852SOL     OW12454   3.695   5.844   5.199
 3852SOL    HW112455   3.614   5.836   5.256
 3852SOL    HW212456   3.670   5.840   5.103
 3853SOL     OW12457   2.779   0.982   3.848
 3853SOL    HW112458   2.859   0.971   3.789
 3853SOL    HW212459   2.701   1.010   3.792
 3854SOL     OW12460   1.463   2.816   2.433
 3854SOL    HW112461   1.385   2.754   2.419
 3854SOL    HW212462   1.522   2.780   2.506
 3855SOL     OW12463   4.596   6.530   0.650
 3855SOL    HW112464   4.577   6.463   0.578
 3855SOL    HW212465   4.541   6.612   0.634
 3856SOL     OW12466   0.510   1.979   6.348
 3856SOL    HW112467   0.429   1.960   6.292
 3856SOL    HW212468   0.590   1.984   6.288
 3857SOL     OW12469   2.092   0.891   5.865
 3857SOL    HW112470   2.148   0.958   5.913
 3857SOL    HW212471   2.103   0.902   5.766
 3858SOL     OW12472   3.856   1.431   5.099
 3858SOL    HW112473   3.916   1.387   5.032
 3858SOL    HW212474   3.788   1.488   5.051
 3859SOL     OW12475   5.456   0.327   1.025
 3859SOL    HW112476   5.404   0.319   1.110
 3859SOL    HW212477   5.414   0.397   0.967
 3860SOL     OW12478   1.840   0.735   4.477
 3860SOL    HW112479   1.778   0.813   4.475
 3860SOL    HW212480   1.824   0.682   4.560
 3861SOL     OW12481   4.454   5.539   1.753
 3861SOL    HW112482   4.437   5.468   1.822
 3861SOL    HW212483   4.407   5.623   1.779
 3862SOL     OW12484   0.974   6.541   4.191
 3862SOL    HW112485   0.960   6.456   4.139
 3862SOL    HW212486   1.042   6.526   4.263
 3863SOL     OW12487   4.477   0.840   0.704
 3863SOL    HW112488   4.475   0.934   0.737
 3863SOL    HW212489   4.384   0.809   0.685
 3864SOL     OW12490   2.232   0.611   4.560
 3864SOL    HW112491   2.228   0.561   4.474
 3864SOL    HW212492   2.237   0.547   4.637
 3865SOL     OW12493   4.324   0.503   6.942
 3865SOL    HW112494   4.251   0.438   6.964
 3865SOL    HW212495   4.304   0.546   6.854
 3866SOL     OW12496   2.663   2.859   6.244
 3866SOL    HW112497   2.753   2.903   6.249
 3866SOL    HW212498   2.592   2.927   6.260
 3867SOL     OW12499   0.756   4.231   2.467
 3867SOL    HW112500   0.815   4.242   2.387
 3867SOL    HW212501   0.739   4.134   2.483
 3868SOL     OW12502   3.426   0.954   0.025
 3868SOL    HW112503   3.430   0.875   0.085
 3868SOL    HW212504   3.517   0.974   7.007
 3869SOL     OW12505   6.427   3.006   3.459
 3869SOL    HW112506   6.431   3.091   3.512
 3869SOL    HW212507   6.419   3.028   3.362
 3870SOL     OW12508   6.453   0.326   3.583
 3870SOL    HW112509   6.399   0.404   3.552
 3870SOL    HW212510   6.547   0.355   3.602
 3871SOL     OW12511   3.055   6.035   4.057
 3871SOL    HW112512   3.054   5.936   4.069
 3871SOL    HW212513   3.149   6.069   4.071
 3872SOL     OW12514   3.387   2.892   4.078
 3872SOL    HW112515   3.391   2.792   4.087
 3872SOL    HW212516   3.317   2.916   4.011
 3873SOL     OW12517   4.942   2.343   0.518
 3873SOL    HW112518   5.030   2.369   0.558
 3873SOL    HW212519   4.869   2.398   0.558
 3874SOL     OW12520   3.983   6.742   1.089
 3874SOL    HW112521   3.942   6.740   0.998
 3874SOL    HW212522   3.911   6.728   1.158
 3875SOL     OW12523   1.961   2.094   4.953
 3875SOL    HW112524   1.904   2.138   4.882
 3875SOL    HW212525   1.958   2.149   5.036
 3876SOL     OW12526   4.520   6.435   0.974
 3876SOL    HW112527   4.561   6.524   0.991
 3876SOL    HW212528   4.587   6.374   0.932
 3877SOL     OW12529   6.777   1.753   0.646
 3877SOL    HW112530   6.815   1.691   0.578
 3877SOL    HW212531   6.821   1.737   0.734
 3878SOL     OW12532   4.866   0.685   4.783
 3878SOL    HW112533   4.933   0.712   4.714
 3878SOL    HW212534   4.905   0.613   4.841
 3879SOL     OW12535   5.131   4.692   6.560
 3879SOL    HW112536   5.040   4.655   6.543
 3879SOL    HW212537   5.135   4.787   6.528
 3880SOL     OW12538   5.545   4.295   4.808
 3880SOL    HW112539   5.475   4.238   4.851
 3880SOL    HW212540   5.528   4.300   4.710
 3881SOL     OW12541   1.340   3.630   0.763
 3881SOL    HW112542   1.428   3.583   0.770
 3881SOL    HW212543   1.332   3.674   0.673
 3882SOL     OW12544   0.944   1.054   0.595
 3882SOL    HW112545   0.861   1.109   0.586
 3882SOL    HW212546   1.023   1.109   0.566
 3883SOL     OW12547   4.372   0.433   2.868
 3883SOL    HW112548   4.384   0.338   2.895
 3883SOL    HW212549   4.402   0.445   2.773
 3884SOL     OW12550   0.656   6.246   3.422
 3884SOL    HW112551   0.587   6.205   3.481
 3884SOL    HW212552   0.700   6.323   3.469
 3885SOL     OW12553   5.532   6.975   2.988
 3885SOL    HW112554   5.489   6.906   3.045
 3885SOL    HW212555   5.552   6.937   2.898
 3886SOL     OW12556   4.460   6.515   5.558
 3886SOL    HW112557   4.471   6.541   5.461
 3886SOL    HW212558   4.533   6.557   5.611
 3887SOL     OW12559   0.740   6.221   0.972
 3887SOL    HW112560   0.734   6.264   1.062
 3887SOL    HW212561   0.765   6.289   0.903
 3888SOL     OW12562   5.852   6.155   4.256
 3888SOL    HW112563   5.795   6.075   4.239
 3888SOL    HW212564   5.906   6.176   4.175
 3889SOL     OW12565   5.912   2.642   6.728
 3889SOL    HW112566   5.884   2.673   6.637
 3889SOL    HW212567   5.985   2.573   6.718
 3890SOL     OW12568   5.351   4.222   4.543
 3890SOL    HW112569   5.340   4.212   4.444
 3890SOL    HW212570   5.271   4.185   4.590
 3891SOL     OW12571   5.401   4.415   3.877
 3891SOL    HW112572   5.324   4.391   3.936
 3891SOL    HW212573   5.423   4.512   3.888
 3892SOL     OW12574   6.781   2.395   0.984
 3892SOL    HW112575   6.812   2.358   0.896
 3892SOL    HW212576   6.786   2.323   1.053
 3893SOL     OW12577   4.681   3.595   1.224
 3893SOL    HW112578   4.623   3.560   1.150
 3893SOL    HW212579   4.635   3.582   1.312
 3894SOL     OW12580   5.138   0.601   6.246
 3894SOL    HW112581   5.215   0.564   6.194
 3894SOL    HW212582   5.078   0.527   6.275
 3895SOL     OW12583   1.350   0.026   5.194
 3895SOL    HW112584   1.445   0.029   5.163
 3895SOL    HW212585   1.329   0.110   5.245
 3896SOL     OW12586   0.602   0.954   6.686
 3896SOL    HW112587   0.642   0.928   6.773
 3896SOL    HW212588   0.647   0.904   6.612
 3897SOL     OW12589   4.567   5.741   1.958
 3897SOL    HW112590   4.627   5.804   2.007
 3897SOL    HW212591   4.622   5.682   1.898
 3898SOL     OW12592   3.973   2.732   0.049
 3898SOL    HW112593   3.946   2.653   0.103
 3898SOL    HW212594   4.045   2.705   7.004
 3899SOL     OW12595   4.663   6.797   6.028
 3899SOL    HW112596   4.691   6.839   5.942
 3899SOL    HW212597   4.627   6.706   6.011
 3900SOL     OW12598   5.196   3.723   3.961
 3900SOL    HW112599   5.103   3.689   3.972
 3900SOL    HW212600   5.230   3.756   4.050
 3901SOL     OW12601   3.362   0.435   5.982
 3901SOL    HW112602   3.462   0.444   5.991
 3901SOL    HW212603   3.341   0.349   5.935
 3902SOL     OW12604   5.711   3.128   2.446
 3902SOL    HW112605   5.690   3.225   2.434
 3902SOL    HW212606   5.632   3.074   2.418
 3903SOL     OW12607   4.004   6.386   0.535
 3903SOL    HW112608   3.938   6.444   0.583
 3903SOL    HW212609   3.981   6.384   0.438
 3904SOL     OW12610   1.339   0.661   6.544
 3904SOL    HW112611   1.431   0.685   6.511
 3904SOL    HW212612   1.322   0.709   6.630
 3905SOL     OW12613   6.762   6.486   6.615
 3905SOL    HW112614   6.829   6.559   6.610
 3905SOL    HW212615   6.773   6.424   6.538
 3906SOL     OW12616   5.362   6.297   6.240
 3906SOL    HW112617   5.428   6.306   6.315
 3906SOL    HW212618   5.400   6.337   6.157
 3907SOL     OW12619   5.246   1.546   4.069
 3907SOL    HW112620   5.258   1.495   4.154
 3907SOL    HW212621   5.323   1.529   4.008
 3908SOL     OW12622   1.204   2.397   6.857
 3908SOL    HW112623   1.283   2.458   6.865
 3908SOL    HW212624   1.174   2.369   6.948
 3909SOL     OW12625   5.121   5.842   4.511
 3909SOL    HW112626   5.062   5.919   4.486
 3909SOL    HW212627   5.096   5.809   4.602
 3910SOL     OW12628   3.835   4.023   2.716
 3910SOL    HW112629   3.824   3.948   2.781
 3910SOL    HW212630   3.874   3.988   2.630
 3911SOL     OW12631   6.012   1.557   5.011
 3911SOL    HW112632   6.003   1.494   4.934
 3911SOL    HW212633   6.108   1.567   5.035
 3912SOL     OW12634   5.276   2.055   5.342
 3912SOL    HW112635   5.261   1.965   5.380
 3912SOL    HW212636   5.192   2.087   5.297
 3913SOL     OW12637   1.877   0.252   6.734
 3913SOL    HW112638   1.902   0.155   6.729
 3913SOL    HW212639   1.854   0.276   6.829
 3914SOL     OW12640   2.969   0.171   0.383
 3914SOL    HW112641   3.052   0.204   0.428
 3914SOL    HW212642   2.891   0.226   0.413
 3915SOL     OW12643   5.540   5.836   1.182
 3915SOL    HW112644   5.462   5.875   1.133
 3915SOL    HW212645   5.536   5.736   1.178
 3916SOL     OW12646   0.953   0.185   3.085
 3916SOL    HW112647   0.958   0.257   3.016
 3916SOL    HW212648   0.885   0.212   3.154
 3917SOL     OW12649   1.012   6.756   6.731
 3917SOL    HW112650   1.039   6.736   6.637
 3917SOL    HW212651   0.912   6.765   6.736
 3918SOL     OW12652   5.232   5.266   1.579
 3918SOL    HW112653   5.287   5.184   1.569
 3918SOL    HW212654   5.288   5.347   1.560
 3919SOL     OW12655   4.289   6.921   0.902
 3919SOL    HW112656   4.199   6.902   0.864
 3919SOL    HW212657   4.308   6.859   0.978
 3920SOL     OW12658   2.488   3.670   0.503
 3920SOL    HW112659   2.502   3.624   0.591
 3920SOL    HW212660   2.577   3.692   0.462
 3921SOL     OW12661   0.350   4.038   1.248
 3921SOL    HW112662   0.377   4.116   1.191
 3921SOL    HW212663   0.417   3.964   1.236
 3922SOL     OW12664   6.849   3.981   2.093
 3922SOL    HW112665   6.886   3.909   2.033
 3922SOL    HW212666   6.766   3.948   2.137
 3923SOL     OW12667   0.052   0.891   0.574
 3923SOL    HW112668   7.008   0.828   0.619
 3923SOL    HW212669   0.011   0.982   0.570
 3924SOL     OW12670   5.939   4.489   4.152
 3924SOL    HW112671   6.039   4.486   4.146
 3924SOL    HW212672   5.912   4.541   4.233
 3925SOL     OW12673   1.253   4.380   1.623
 3925SOL    HW112674   1.337   4.328   1.603
 3925SOL    HW212675   1.259   4.469   1.579
 3926SOL     OW12676   4.454   4.940   2.263
 3926SOL    HW112677   4.361   4.910   2.287
 3926SOL    HW212678   4.520   4.872   2.295
 3927SOL     OW12679   6.322   2.472   5.244
 3927SOL    HW112680   6.350   2.451   5.337
 3927SOL    HW212681   6.315   2.387   5.191
 3928SOL     OW12682   4.729   6.502   6.622
 3928SOL    HW112683   4.709   6.562   6.699
 3928SOL    HW212684   4.761   6.557   6.545
 3929SOL     OW12685   1.274   0.367   5.122
 3929SOL    HW112686   1.194   0.406   5.077
 3929SOL    HW212687   1.244   0.302   5.193
 3930SOL     OW12688   3.037   2.196   4.523
 3930SOL    HW112689   3.055   2.279   4.470
 3930SOL    HW212690   3.122   2.168   4.568
 3931SOL     OW12691   1.108   1.603   1.541
 3931SOL    HW112692   1.169   1.635   1.613
 3931SOL    HW212693   1.013   1.604   1.574
 3932SOL     OW12694   0.811   3.444   3.493
 3932SOL    HW112695   0.828   3.515   3.560
 3932SOL    HW212696   0.898   3.405   3.463
 3933SOL     OW12697   2.444   0.001   6.238
 3933SOL    HW112698   2.373   0.042   6.180
 3933SOL    HW212699   2.496   6.954   6.183
 3934SOL     OW12700   6.193   6.917   6.415
 3934SOL    HW112701   6.286   6.953   6.425
 3934SOL    HW212702   6.151   6.955   6.333
 3935SOL     OW12703   3.581   0.111   6.912
 3935SOL    HW112704   3.514   0.040   6.933
 3935SOL    HW212705   3.667   0.091   6.959
 3936SOL     OW12706   6.520   5.285   4.913
 3936SOL    HW112707   6.468   5.323   4.989
 3936SOL    HW212708   6.550   5.358   4.852
 3937SOL     OW12709   0.283   1.952   2.633
 3937SOL    HW112710   0.355   1.994   2.687
 3937SOL    HW212711   0.236   2.022   2.580
 3938SOL     OW12712   1.215   1.609   3.220
 3938SOL    HW112713   1.270   1.692   3.231
 3938SOL    HW212714   1.218   1.579   3.125
 3939SOL     OW12715   2.510   2.488   2.747
 3939SOL    HW112716   2.528   2.493   2.649
 3939SOL    HW212717   2.559   2.410   2.786
 3940SOL     OW12718   4.282   4.087   1.033
 3940SOL    HW112719   4.373   4.124   1.055
 3940SOL    HW212720   4.278   4.064   0.936
 3941SOL     OW12721   5.122   4.743   5.950
 3941SOL    HW112722   5.168   4.773   6.034
 3941SOL    HW212723   5.057   4.670   5.972
 3942SOL     OW12724   0.100   5.928   6.967
 3942SOL    HW112725   0.002   5.909   6.975
 3942SOL    HW212726   0.120   5.956   6.873
 3943SOL     OW12727   0.958   2.732   4.332
 3943SOL    HW112728   0.978   2.677   4.413
 3943SOL    HW212729   0.939   2.672   4.255
 3944SOL     OW12730   4.711   2.707   5.145
 3944SOL    HW112731   4.717   2.778   5.216
 3944SOL    HW212732   4.780   2.725   5.075
 3945SOL     OW12733   0.379   2.085   0.251
 3945SOL    HW112734   0.446   2.016   0.222
 3945SOL    HW212735   0.292   2.040   0.270
 3946SOL     OW12736   4.966   4.583   4.054
 3946SOL    HW112737   5.038   4.514   4.058
 3946SOL    HW212738   4.905   4.572   4.132
 3947SOL     OW12739   4.785   6.317   6.816
 3947SOL    HW112740   4.867   6.261   6.805
 3947SOL    HW212741   4.784   6.388   6.746
 3948SOL     OW12742   6.894   4.564   2.208
 3948SOL    HW112743   6.806   4.594   2.173
 3948SOL    HW212744   6.943   4.512   2.138
 3949SOL     OW12745   5.203   5.837   2.982
 3949SOL    HW112746   5.122   5.889   3.008
 3949SOL    HW212747   5.175   5.747   2.947
 3950SOL     OW12748   1.170   5.078   0.437
 3950SOL    HW112749   1.231   5.080   0.358
 3950SOL    HW212750   1.213   5.028   0.511
 3951SOL     OW12751   5.120   0.237   1.966
 3951SOL    HW112752   5.104   0.319   2.021
 3951SOL    HW212753   5.059   0.237   1.887
 3952SOL     OW12754   0.011   2.640   1.525
 3952SOL    HW112755   6.994   2.554   1.491
 3952SOL    HW212756   0.074   2.679   1.458
 3953SOL     OW12757   3.996   4.135   1.176
 3953SOL    HW112758   4.084   4.133   1.224
 3953SOL    HW212759   3.922   4.129   1.242
 3954SOL     OW12760   3.856   5.881   6.017
 3954SOL    HW112761   3.869   5.813   6.089
 3954SOL    HW212762   3.761   5.912   6.017
 3955SOL     OW12763   2.755   1.286   6.155
 3955SOL    HW112764   2.666   1.249   6.130
 3955SOL    HW212765   2.828   1.232   6.112
 3956SOL     OW12766   1.560   0.839   2.445
 3956SOL    HW112767   1.613   0.758   2.419
 3956SOL    HW212768   1.466   0.812   2.465
 3957SOL     OW12769   3.962   0.130   4.216
 3957SOL    HW112770   3.880   0.157   4.266
 3957SOL    HW212771   3.999   0.210   4.168
 3958SOL     OW12772   5.746   1.756   3.944
 3958SOL    HW112773   5.730   1.849   3.977
 3958SOL    HW212774   5.843   1.734   3.949
 3959SOL     OW12775   5.549   5.177   0.417
 3959SOL    HW112776   5.467   5.209   0.370
 3959SOL    HW212777   5.534   5.085   0.453
 3960SOL     OW12778   5.078   1.223   5.656
 3960SOL    HW112779   4.988   1.266   5.649
 3960SOL    HW212780   5.117   1.212   5.565
 3961SOL     OW12781   4.880   0.682   3.318
 3961SOL    HW112782   4.947   0.721   3.255
 3961SOL    HW212783   4.871   0.741   3.398
 3962SOL     OW12784   1.221   4.859   6.214
 3962SOL    HW112785   1.197   4.789   6.147
 3962SOL    HW212786   1.299   4.913   6.180
 3963SOL     OW12787   4.314   5.565   2.483
 3963SOL    HW112788   4.331   5.528   2.574
 3963SOL    HW212789   4.243   5.511   2.438
 3964SOL     OW12790   4.925   4.430   3.655
 3964SOL    HW112791   4.913   4.388   3.746
 3964SOL    HW212792   4.842   4.418   3.602
 3965SOL     OW12793   5.012   3.478   4.150
 3965SOL    HW112794   5.036   3.422   4.229
 3965SOL    HW212795   4.989   3.418   4.073
 3966SOL     OW12796   4.085   6.074   6.777
 3966SOL    HW112797   4.098   6.031   6.688
 3966SOL    HW212798   4.172   6.109   6.810
 3967SOL     OW12799   2.203   4.349   1.736
 3967SOL    HW112800   2.194   4.445   1.761
 3967SOL    HW212801   2.188   4.338   1.638
 3968SOL     OW12802   4.621   0.346   0.858
 3968SOL    HW112803   4.585   0.389   0.940
 3968SOL    HW212804   4.711   0.384   0.836
 3969SOL     OW12805   1.276   4.843   1.970
 3969SOL    HW112806   1.206   4.824   1.901
 3969SOL    HW212807   1.361   4.870   1.924
 3970SOL     OW12808   5.258   5.940   2.696
 3970SOL    HW112809   5.344   5.979   2.730
 3970SOL    HW212810   5.248   5.846   2.728
 3971SOL     OW12811   2.788   5.616   4.462
 3971SOL    HW112812   2.710   5.677   4.458
 3971SOL    HW212813   2.858   5.646   4.397
 3972SOL     OW12814   1.438   4.158   6.769
 3972SOL    HW112815   1.489   4.243   6.781
 3972SOL    HW212816   1.428   4.112   6.857
 3973SOL     OW12817   1.129   5.504   0.660
 3973SOL    HW112818   1.203   5.559   0.621
 3973SOL    HW212819   1.100   5.435   0.594
 3974SOL     OW12820   1.850   0.350   5.853
 3974SOL    HW112821   1.792   0.420   5.893
 3974SOL    HW212822   1.823   0.260   5.887
 3975SOL     OW12823   4.972   1.250   6.463
 3975SOL    HW112824   4.921   1.177   6.510
 3975SOL    HW212825   5.065   1.217   6.443
 3976SOL     OW12826   2.288   6.317   2.910
 3976SOL    HW112827   2.249   6.331   2.819
 3976SOL    HW212828   2.387   6.327   2.906
 3977SOL     OW12829   1.045   3.301   6.495
 3977SOL    HW112830   0.948   3.323   6.481
 3977SOL    HW212831   1.101   3.356   6.433
 3978SOL     OW12832   6.361   4.491   3.266
 3978SOL    HW112833   6.265   4.510   3.286
 3978SOL    HW212834   6.420   4.552   3.319
 3979SOL     OW12835   3.884   1.134   6.278
 3979SOL    HW112836   3.864   1.076   6.199
 3979SOL    HW212837   3.816   1.117   6.350
 3980SOL     OW12838   5.352   6.505   6.474
 3980SOL    HW112839   5.435   6.449   6.472
 3980SOL    HW212840   5.345   6.558   6.389
 3981SOL     OW12841   4.501   5.999   0.742
 3981SOL    HW112842   4.573   6.056   0.703
 3981SOL    HW212843   4.412   6.037   0.718
 3982SOL     OW12844   2.333   6.882   2.757
 3982SOL    HW112845   2.248   6.930   2.737
 3982SOL    HW212846   2.359   6.826   2.679
 3983SOL     OW12847   5.343   5.065   4.013
 3983SOL    HW112848   5.386   5.146   4.052
 3983SOL    HW212849   5.248   5.059   4.044
 3984SOL     OW12850   6.293   0.909   2.457
 3984SOL    HW112851   6.236   0.952   2.388
 3984SOL    HW212852   6.344   0.833   2.415
 3985SOL     OW12853   3.571   5.354   6.825
 3985SOL    HW112854   3.600   5.299   6.746
 3985SOL    HW212855   3.606   5.312   6.909
 3986SOL     OW12856   4.629   1.893   3.100
 3986SOL    HW112857   4.580   1.824   3.153
 3986SOL    HW212858   4.609   1.881   3.003
 3987SOL     OW12859   3.399   4.939   4.050
 3987SOL    HW112860   3.480   4.908   4.100
 3987SOL    HW212861   3.420   5.024   4.002
 3988SOL     OW12862   3.959   4.921   7.012
 3988SOL    HW112863   4.019   4.985   6.963
 3988SOL    HW212864   3.995   4.828   7.003
 3989SOL     OW12865   6.624   2.149   0.004
 3989SOL    HW112866   6.544   2.113   0.051
 3989SOL    HW212867   6.671   2.075   6.975
 3990SOL     OW12868   5.097   2.546   1.989
 3990SOL    HW112869   5.028   2.578   1.924
 3990SOL    HW212870   5.152   2.473   1.948
 3991SOL     OW12871   0.294   1.449   1.782
 3991SOL    HW112872   0.250   1.465   1.693
 3991SOL    HW212873   0.334   1.534   1.815
 3992SOL     OW12874   3.182   2.379   0.816
 3992SOL    HW112875   3.142   2.385   0.908
 3992SOL    HW212876   3.119   2.329   0.756
 3993SOL     OW12877   1.642   2.568   2.205
 3993SOL    HW112878   1.699   2.573   2.287
 3993SOL    HW212879   1.688   2.615   2.130
 3994SOL     OW12880   2.975   0.409   5.615
 3994SOL    HW112881   2.972   0.328   5.672
 3994SOL    HW212882   2.971   0.491   5.672
 3995SOL     OW12883   1.798   3.390   5.766
 3995SOL    HW112884   1.748   3.362   5.684
 3995SOL    HW212885   1.895   3.396   5.745
 3996SOL     OW12886   0.339   6.655   5.729
 3996SOL    HW112887   0.308   6.640   5.636
 3996SOL    HW212888   0.431   6.619   5.741
 3997SOL     OW12889   5.902   1.187   4.092
 3997SOL    HW112890   5.862   1.237   4.016
 3997SOL    HW212891   5.965   1.246   4.142
 3998SOL     OW12892   3.490   1.258   4.276
 3998SOL    HW112893   3.463   1.287   4.184
 3998SOL    HW212894   3.499   1.338   4.335
 3999SOL     OW12895   5.889   2.601   4.455
 3999SOL    HW112896   5.828   2.676   4.480
 3999SOL    HW212897   5.931   2.619   4.366
 4000SOL     OW12898   3.332   6.822   3.745
 4000SOL    HW112899   3.421   6.846   3.784
 4000SOL    HW212900   3.344   6.759   3.669
 4001SOL     OW12901   2.305   1.645   3.695
 4001SOL    HW112902   2.333   1.670   3.788
 4001SOL    HW212903   2.374   1.586   3.654
 4002SOL     OW12904   2.640   3.696   1.626
 4002SOL    HW112905   2.671   3.651   1.543
 4002SOL    HW212906   2.552   3.658   1.654
 4003SOL     OW12907   3.186   0.413   4.205
 4003SOL    HW112908   3.154   0.357   4.129
 4003SOL    HW212909   3.206   0.506   4.172
 4004SOL     OW12910   6.482   2.303   4.371
 4004SOL    HW112911   6.579   2.312   4.394
 4004SOL    HW212912   6.434   2.387   4.396
 4005SOL     OW12913   4.545   5.963   6.130
 4005SOL    HW112914   4.453   5.975   6.094
 4005SOL    HW212915   4.589   6.053   6.138
 4006SOL     OW12916   3.902   5.173   2.529
 4006SOL    HW112917   3.913   5.207   2.435
 4006SOL    HW212918   3.836   5.098   2.530
 4007SOL     OW12919   0.025   2.542   6.676
 4007SOL    HW112920   6.972   2.594   6.629
 4007SOL    HW212921   0.042   2.582   6.766
 4008SOL     OW12922   2.862   2.231   4.849
 4008SOL    HW112923   2.815   2.172   4.783
 4008SOL    HW212924   2.818   2.320   4.852
 4009SOL     OW12925   4.110   3.201   2.513
 4009SOL    HW112926   4.189   3.160   2.559
 4009SOL    HW212927   4.031   3.141   2.524
 4010SOL     OW12928   2.629   2.807   1.497
 4010SOL    HW112929   2.714   2.804   1.549
 4010SOL    HW212930   2.580   2.720   1.508
 4011SOL     OW12931   0.710   2.206   1.679
 4011SOL    HW112932   0.716   2.300   1.645
 4011SOL    HW212933   0.722   2.142   1.604
 4012SOL     OW12934   6.555   4.261   2.153
 4012SOL    HW112935   6.602   4.299   2.074
 4012SOL    HW212936   6.510   4.334   2.204
 4013SOL     OW12937   4.491   2.079   4.246
 4013SOL    HW112938   4.474   2.054   4.341
 4013SOL    HW212939   4.581   2.121   4.238
 4014SOL     OW12940   6.011   6.573   2.714
 4014SOL    HW112941   5.991   6.560   2.811
 4014SOL    HW212942   6.075   6.649   2.703
 4015SOL     OW12943   4.399   4.301   6.020
 4015SOL    HW112944   4.481   4.276   5.970
 4015SOL    HW212945   4.323   4.242   5.993
 4016SOL     OW12946   3.149   5.996   5.737
 4016SOL    HW112947   3.198   5.908   5.740
 4016SOL    HW212948   3.112   6.011   5.645
 4017SOL     OW12949   6.872   5.844   6.972
 4017SOL    HW112950   6.813   5.774   7.012
 4017SOL    HW212951   6.824   5.932   6.969
 4018SOL     OW12952   4.052   5.658   1.891
 4018SOL    HW112953   4.111   5.708   1.827
 4018SOL    HW212954   4.086   5.565   1.901
 4019SOL     OW12955   5.498   4.152   2.661
 4019SOL    HW112956   5.495   4.251   2.644
 4019SOL    HW212957   5.409   4.121   2.695
 4020SOL     OW12958   4.969   2.499   5.100
 4020SOL    HW112959   4.971   2.584   5.048
 4020SOL    HW212960   4.977   2.518   5.198
 4021SOL     OW12961   3.165   4.955   5.436
 4021SOL    HW112962   3.074   4.996   5.444
 4021SOL    HW212963   3.226   5.017   5.388
 4022SOL     OW12964   5.348   1.076   0.132
 4022SOL    HW112965   5.259   1.085   0.087
 4022SOL    HW212966   5.338   1.025   0.217
 4023SOL     OW12967   6.525   1.885   5.228
 4023SOL    HW112968   6.449   1.927   5.179
 4023SOL    HW212969   6.591   1.956   5.254
 4024SOL     OW12970   3.880   4.834   4.117
 4024SOL    HW112971   3.906   4.894   4.042
 4024SOL    HW212972   3.905   4.740   4.094
 4025SOL     OW12973   0.719   4.450   3.638
 4025SOL    HW112974   0.675   4.524   3.587
 4025SOL    HW212975   0.796   4.415   3.585
 4026SOL     OW12976   5.338   6.274   3.993
 4026SOL    HW112977   5.387   6.191   3.965
 4026SOL    HW212978   5.248   6.249   4.030
 4027SOL     OW12979   4.266   4.909   1.767
 4027SOL    HW112980   4.262   4.979   1.695
 4027SOL    HW212981   4.359   4.904   1.804
 4028SOL     OW12982   2.536   1.492   3.828
 4028SOL    HW112983   2.521   1.450   3.739
 4028SOL    HW212984   2.635   1.497   3.846
 4029SOL     OW12985   1.726   4.577   5.235
 4029SOL    HW112986   1.803   4.590   5.299
 4029SOL    HW212987   1.684   4.665   5.216
 4030SOL     OW12988   0.922   1.690   5.594
 4030SOL    HW112989   0.895   1.779   5.557
 4030SOL    HW212990   0.884   1.679   5.686
 4031SOL     OW12991   3.977   5.611   4.198
 4031SOL    HW112992   4.061   5.596   4.249
 4031SOL    HW212993   3.992   5.593   4.101
 4032SOL     OW12994   5.656   0.308   4.190
 4032SOL    HW112995   5.716   0.382   4.161
 4032SOL    HW212996   5.706   0.221   4.187
 4033SOL     OW12997   2.981   3.754   5.303
 4033SOL    HW112998   2.958   3.823   5.234
 4033SOL    HW212999   2.942   3.782   5.391
 4034SOL     OW13000   0.055   2.357   3.791
 4034SOL    HW113001   6.990   2.398   3.755
 4034SOL    HW213002   0.052   2.258   3.777
 4035SOL     OW13003   0.333   4.711   6.856
 4035SOL    HW113004   0.371   4.661   6.934
 4035SOL    HW213005   0.345   4.809   6.869
 4036SOL     OW13006   6.433   6.984   2.719
 4036SOL    HW113007   6.422   6.913   2.650
 4036SOL    HW213008   6.530   6.996   2.740
 4037SOL     OW13009   0.262   3.628   0.065
 4037SOL    HW113010   0.206   3.599   7.006
 4037SOL    HW213011   0.207   3.623   0.149
 4038SOL     OW13012   5.925   4.418   3.825
 4038SOL    HW113013   5.870   4.497   3.851
 4038SOL    HW213014   5.939   4.360   3.906
 4039SOL     OW13015   5.187   6.116   0.224
 4039SOL    HW113016   5.274   6.149   0.187
 4039SOL    HW213017   5.165   6.168   0.307
 4040SOL     OW13018   3.458   6.421   1.271
 4040SOL    HW113019   3.447   6.500   1.331
 4040SOL    HW213020   3.399   6.347   1.303
 4041SOL     OW13021   1.469   6.401   3.726
 4041SOL    HW113022   1.376   6.369   3.711
 4041SOL    HW213023   1.531   6.323   3.733
 4042SOL     OW13024   6.132   4.929   2.134
 4042SOL    HW113025   6.203   4.948   2.067
 4042SOL    HW213026   6.082   5.014   2.154
 4043SOL     OW13027   6.076   1.642   1.232
 4043SOL    HW113028   6.175   1.632   1.243
 4043SOL    HW213029   6.040   1.698   1.307
 4044SOL     OW13030   5.709   6.646   3.821
 4044SOL    HW113031   5.615   6.612   3.814
 4044SOL    HW213032   5.729   6.669   3.917
 4045SOL     OW13033   2.493   5.935   6.307
 4045SOL    HW113034   2.523   5.869   6.376
 4045SOL    HW213035   2.414   5.986   6.342
 4046SOL     OW13036   0.630   3.294   1.189
 4046SOL    HW113037   0.665   3.350   1.113
 4046SOL    HW213038   0.631   3.348   1.273
 4047SOL     OW13039   2.917   3.693   1.369
 4047SOL    HW113040   2.946   3.614   1.424
 4047SOL    HW213041   2.909   3.665   1.274
 4048SOL     OW13042   5.315   0.802   0.900
 4048SOL    HW113043   5.376   0.765   0.969
 4048SOL    HW213044   5.252   0.868   0.942
 4049SOL     OW13045   5.351   0.022   5.258
 4049SOL    HW113046   5.270   7.017   5.310
 4049SOL    HW213047   5.394   0.103   5.297
 4050SOL     OW13048   3.023   0.466   1.137
 4050SOL    HW113049   3.011   0.369   1.156
 4050SOL    HW213050   2.968   0.492   1.057
 4051SOL     OW13051   3.348   3.924   1.402
 4051SOL    HW113052   3.408   3.898   1.477
 4051SOL    HW213053   3.394   3.905   1.315
 4052SOL     OW13054   0.711   0.178   0.596
 4052SOL    HW113055   0.630   0.119   0.599
 4052SOL    HW213056   0.723   0.222   0.684
 4053SOL     OW13057   3.578   4.955   3.663
 4053SOL    HW113058   3.567   4.987   3.757
 4053SOL    HW213059   3.670   4.974   3.631
 4054SOL     OW13060   4.718   2.014   0.677
 4054SOL    HW113061   4.665   2.092   0.710
 4054SOL    HW213062   4.694   1.996   0.581
 4055SOL     OW13063   3.477   2.059   6.844
 4055SOL    HW113064   3.468   2.141   6.788
 4055SOL    HW213065   3.520   2.083   6.931
 4056SOL     OW13066   4.305   3.627   0.626
 4056SOL    HW113067   4.309   3.692   0.550
 4056SOL    HW213068   4.213   3.628   0.665
 4057SOL     OW13069   4.949   3.176   6.916
 4057SOL    HW113070   5.039   3.181   6.959
 4057SOL    HW213071   4.944   3.094   6.858
 4058SOL     OW13072   1.447   0.981   5.203
 4058SOL    HW113073   1.473   1.059   5.147
 4058SOL    HW213074   1.500   0.981   5.287
 4059SOL     OW13075   0.528   2.234   4.317
 4059SOL    HW113076   0.535   2.333   4.331
 4059SOL    HW213077   0.619   2.197   4.300
 4060SOL     OW13078   4.483   5.225   4.368
 4060SOL    HW113079   4.479   5.133   4.406
 4060SOL    HW213080   4.463   5.222   4.270
 4061SOL     OW13081   2.998   3.141   1.647
 4061SOL    HW113082   3.057   3.067   1.679
 4061SOL    HW213083   2.914   3.103   1.608
 4062SOL     OW13084   2.478   0.101   3.146
 4062SOL    HW113085   2.507   0.054   3.062
 4062SOL    HW213086   2.411   0.046   3.194
 4063SOL     OW13087   2.904   5.281   6.263
 4063SOL    HW113088   2.899   5.335   6.346
 4063SOL    HW213089   2.974   5.210   6.273
 4064SOL     OW13090   0.311   0.067   3.874
 4064SOL    HW113091   0.233   0.130   3.881
 4064SOL    HW213092   0.343   0.044   3.966
 4065SOL     OW13093   5.570   5.476   6.767
 4065SOL    HW113094   5.475   5.476   6.736
 4065SOL    HW213095   5.631   5.475   6.689
 4066SOL     OW13096   5.931   4.348   1.759
 4066SOL    HW113097   5.909   4.434   1.713
 4066SOL    HW213098   5.925   4.359   1.858
 4067SOL     OW13099   5.790   0.571   1.794
 4067SOL    HW113100   5.850   0.558   1.874
 4067SOL    HW213101   5.820   0.509   1.721
 4068SOL     OW13102   6.383   0.581   3.568
 4068SOL    HW113103   6.326   0.535   3.500
 4068SOL    HW213104   6.433   0.656   3.526
 4069SOL     OW13105   6.818   5.347   0.783
 4069SOL    HW113106   6.807   5.443   0.759
 4069SOL    HW213107   6.732   5.298   0.768
 4070SOL     OW13108   1.357   3.005   2.781
 4070SOL    HW113109   1.344   3.100   2.754
 4070SOL    HW213110   1.402   3.001   2.871
 4071SOL     OW13111   1.760   6.534   4.173
 4071SOL    HW113112   1.743   6.609   4.237
 4071SOL    HW213113   1.686   6.530   4.106
 4072SOL     OW13114   0.921   0.588   4.546
 4072SOL    HW113115   0.870   0.669   4.575
 4072SOL    HW213116   1.014   0.616   4.520
 4073SOL     OW13117   2.007   5.389   6.767
 4073SOL    HW113118   2.069   5.332   6.713
 4073SOL    HW213119   2.035   5.485   6.761
 4074SOL     OW13120   2.091   2.782   0.604
 4074SOL    HW113121   2.068   2.695   0.561
 4074SOL    HW213122   2.014   2.845   0.594
 4075SOL     OW13123   4.797   1.150   3.552
 4075SOL    HW113124   4.793   1.161   3.652
 4075SOL    HW213125   4.710   1.116   3.518
 4076SOL     OW13126   1.710   2.516   3.911
 4076SOL    HW113127   1.672   2.466   3.989
 4076SOL    HW213128   1.806   2.491   3.900
 4077SOL     OW13129   2.568   1.673   0.749
 4077SOL    HW113130   2.495   1.635   0.693
 4077SOL    HW213131   2.651   1.619   0.736
 4078SOL     OW13132   5.702   3.784   1.869
 4078SOL    HW113133   5.774   3.771   1.937
 4078SOL    HW213134   5.620   3.734   1.897
 4079SOL     OW13135   0.701   1.470   3.808
 4079SOL    HW113136   0.737   1.401   3.871
 4079SOL    HW213137   0.678   1.427   3.721
 4080SOL     OW13138   3.524   3.245   1.688
 4080SOL    HW113139   3.547   3.148   1.685
 4080SOL    HW213140   3.607   3.298   1.705
 4081SOL     OW13141   2.756   2.353   6.075
 4081SOL    HW113142   2.853   2.348   6.098
 4081SOL    HW213143   2.711   2.422   6.132
 4082SOL     OW13144   1.303   2.530   4.896
 4082SOL    HW113145   1.209   2.497   4.893
 4082SOL    HW213146   1.334   2.534   4.990
 4083SOL     OW13147   5.715   5.034   3.363
 4083SOL    HW113148   5.706   5.015   3.461
 4083SOL    HW213149   5.743   4.951   3.315
 4084SOL     OW13150   4.942   0.652   3.706
 4084SOL    HW113151   4.871   0.583   3.721
 4084SOL    HW213152   5.010   0.616   3.643
 4085SOL     OW13153   4.040   4.908   2.497
 4085SOL    HW113154   4.044   5.007   2.505
 4085SOL    HW213155   4.005   4.869   2.582
 4086SOL     OW13156   5.996   5.091   6.224
 4086SOL    HW113157   6.072   5.068   6.163
 4086SOL    HW213158   5.986   5.020   6.293
 4087SOL     OW13159   1.976   0.080   2.167
 4087SOL    HW113160   2.006   7.009   2.138
 4087SOL    HW213161   1.877   0.087   2.158
 4088SOL     OW13162   0.200   2.009   4.994
 4088SOL    HW113163   0.212   2.053   4.905
 4088SOL    HW213164   0.284   1.961   5.018
 4089SOL     OW13165   1.222   0.722   3.186
 4089SOL    HW113166   1.165   0.776   3.125
 4089SOL    HW213167   1.176   0.712   3.274
 4090SOL     OW13168   2.710   1.255   6.430
 4090SOL    HW113169   2.720   1.305   6.344
 4090SOL    HW213170   2.659   1.311   6.495
 4091SOL     OW13171   2.964   5.912   1.064
 4091SOL    HW113172   3.022   5.832   1.051
 4091SOL    HW213173   2.869   5.883   1.074
 4092SOL     OW13174   5.826   2.812   3.885
 4092SOL    HW113175   5.821   2.909   3.908
 4092SOL    HW213176   5.862   2.760   3.962
 4093SOL     OW13177   5.222   4.681   3.727
 4093SOL    HW113178   5.221   4.602   3.666
 4093SOL    HW213179   5.155   4.748   3.696
 4094SOL     OW13180   6.953   5.397   6.885
 4094SOL    HW113181   0.023   5.411   6.929
 4094SOL    HW213182   6.922   5.484   6.847
 4095SOL     OW13183   0.642   5.031   6.966
 4095SOL    HW113184   0.693   5.048   6.882
 4095SOL    HW213185   0.656   4.936   6.995
 4096SOL     OW13186   0.606   1.398   6.720
 4096SOL    HW113187   0.604   1.393   6.819
 4096SOL    HW213188   0.544   1.470   6.689
 4097SOL     OW13189   6.509   4.647   5.083
 4097SOL    HW113190   6.522   4.600   4.996
 4097SOL    HW213191   6.589   4.705   5.102
 4098SOL     OW13192   2.090   4.319   3.167
 4098SOL    HW113193   2.005   4.370   3.163
 4098SOL    HW213194   2.079   4.231   3.120
 4099SOL     OW13195   4.571   4.508   6.470
 4099SOL    HW113196   4.527   4.432   6.518
 4099SOL    HW213197   4.532   4.517   6.378
 4100SOL     OW13198   1.581   0.137   3.859
 4100SOL    HW113199   1.577   0.157   3.761
 4100SOL    HW213200   1.543   0.214   3.910
 4101SOL     OW13201   6.022   6.116   0.385
 4101SOL    HW113202   5.940   6.092   0.333
 4101SOL    HW213203   6.064   6.197   0.344
 4102SOL     OW13204   1.212   0.432   0.207
 4102SOL    HW113205   1.133   0.469   0.256
 4102SOL    HW213206   1.186   0.346   0.163
 4103SOL     OW13207   1.685   6.502   3.472
 4103SOL    HW113208   1.711   6.405   3.468
 4103SOL    HW213209   1.610   6.513   3.538
 4104SOL     OW13210   2.197   5.823   4.523
 4104SOL    HW113211   2.146   5.833   4.438
 4104SOL    HW213212   2.240   5.911   4.547
 4105SOL     OW13213   4.760   1.012   0.828
 4105SOL    HW113214   4.772   0.962   0.914
 4105SOL    HW213215   4.729   1.105   0.848
 4106SOL     OW13216   1.190   1.242   3.226
 4106SOL    HW113217   1.093   1.241   3.250
 4106SOL    HW213218   1.244   1.265   3.307
 4107SOL     OW13219   0.564   6.805   0.088
 4107SOL    HW113220   0.641   6.751   0.053
 4107SOL    HW213221   0.496   6.816   0.016
 4108SOL     OW13222   6.885   5.960   5.330
 4108SOL    HW113223   6.957   5.910   5.378
 4108SOL    HW213224   6.839   6.021   5.394
 4109SOL     OW13225   5.641   6.208   3.060
 4109SOL    HW113226   5.669   6.115   3.035
 4109SOL    HW213227   5.721   6.269   3.057
 4110SOL     OW13228   5.040   2.700   0.460
 4110SOL    HW113229   5.041   2.766   0.386
 4110SOL    HW213230   5.117   2.636   0.449
 4111SOL     OW13231   6.540   3.846   3.816
 4111SOL    HW113232   6.545   3.746   3.820
 4111SOL    HW213233   6.488   3.879   3.895
 4112SOL     OW13234   4.827   6.475   5.043
 4112SOL    HW113235   4.744   6.530   5.034
 4112SOL    HW213236   4.847   6.461   5.140
 4113SOL     OW13237   4.325   5.413   4.855
 4113SOL    HW113238   4.422   5.435   4.857
 4113SOL    HW213239   4.313   5.314   4.844
 4114SOL     OW13240   0.201   1.560   1.380
 4114SOL    HW113241   0.230   1.652   1.404
 4114SOL    HW213242   0.190   1.553   1.281
 4115SOL     OW13243   4.386   5.871   4.135
 4115SOL    HW113244   4.405   5.855   4.232
 4115SOL    HW213245   4.471   5.872   4.083
 4116SOL     OW13246   5.153   3.639   2.837
 4116SOL    HW113247   5.137   3.641   2.738
 4116SOL    HW213248   5.245   3.674   2.856
 4117SOL     OW13249   1.592   1.742   3.766
 4117SOL    HW113250   1.664   1.810   3.754
 4117SOL    HW213251   1.633   1.651   3.775
 4118SOL     OW13252   0.345   6.092   6.679
 4118SOL    HW113253   0.307   6.000   6.671
 4118SOL    HW213254   0.366   6.127   6.588
 4119SOL     OW13255   0.776   0.715   4.091
 4119SOL    HW113256   0.847   0.681   4.153
 4119SOL    HW213257   0.687   0.680   4.120
 4120SOL     OW13258   1.831   0.643   6.301
 4120SOL    HW113259   1.769   0.574   6.339
 4120SOL    HW213260   1.875   0.608   6.219
 4121SOL     OW13261   6.339   0.033   2.283
 4121SOL    HW113262   6.349   0.074   2.192
 4121SOL    HW213263   6.396   0.084   2.348
 4122SOL     OW13264   6.668   4.052   3.025
 4122SOL    HW113265   6.710   4.094   2.945
 4122SOL    HW213266   6.611   3.975   2.996
 4123SOL     OW13267   4.681   4.716   1.898
 4123SOL    HW113268   4.702   4.623   1.869
 4123SOL    HW213269   4.744   4.743   1.971
 4124SOL     OW13270   6.220   5.591   6.982
 4124SOL    HW113271   6.165   5.661   0.008
 4124SOL    HW213272   6.172   5.558   6.901
 4125SOL     OW13273   6.058   1.506   1.561
 4125SOL    HW113274   6.151   1.470   1.548
 4125SOL    HW213275   6.063   1.601   1.591
 4126SOL     OW13276   1.900   3.020   2.370
 4126SOL    HW113277   1.819   3.048   2.318
 4126SOL    HW213278   1.918   2.923   2.354
 4127SOL     OW13279   4.359   1.877   4.683
 4127SOL    HW113280   4.331   1.897   4.778
 4127SOL    HW213281   4.290   1.818   4.640
 4128SOL     OW13282   1.049   3.378   0.025
 4128SOL    HW113283   1.088   3.288   0.043
 4128SOL    HW213284   0.957   3.367   7.005
 4129SOL     OW13285   2.579   2.915   0.771
 4129SOL    HW113286   2.538   2.975   0.840
 4129SOL    HW213287   2.612   2.969   0.695
 4130SOL     OW13288   6.327   3.241   0.516
 4130SOL    HW113289   6.369   3.296   0.588
 4130SOL    HW213290   6.317   3.147   0.548
 4131SOL     OW13291   4.660   0.216   3.139
 4131SOL    HW113292   4.713   0.136   3.111
 4131SOL    HW213293   4.654   0.219   3.239
 4132SOL     OW13294   0.891   5.185   3.974
 4132SOL    HW113295   0.941   5.268   3.998
 4132SOL    HW213296   0.826   5.162   4.046
 4133SOL     OW13297   5.341   1.024   2.837
 4133SOL    HW113298   5.397   1.104   2.857
 4133SOL    HW213299   5.327   0.971   2.921
 4134SOL     OW13300   1.444   3.740   1.461
 4134SOL    HW113301   1.426   3.838   1.466
 4134SOL    HW213302   1.364   3.690   1.495
 4135SOL     OW13303   6.772   1.120   1.955
 4135SOL    HW113304   6.680   1.160   1.957
 4135SOL    HW213305   6.837   1.185   1.916
 4136SOL     OW13306   1.288   4.603   1.465
 4136SOL    HW113307   1.332   4.692   1.453
 4136SOL    HW213308   1.309   4.545   1.386
 4137SOL     OW13309   1.278   2.708   0.442
 4137SOL    HW113310   1.211   2.783   0.449
 4137SOL    HW213311   1.325   2.697   0.529
 4138SOL     OW13312   5.144   0.741   0.687
 4138SOL    HW113313   5.096   0.826   0.663
 4138SOL    HW213314   5.211   0.759   0.759
 4139SOL     OW13315   1.897   3.420   2.838
 4139SOL    HW113316   1.882   3.519   2.841
 4139SOL    HW213317   1.818   3.376   2.796
 4140SOL     OW13318   2.167   1.072   6.403
 4140SOL    HW113319   2.100   0.998   6.394
 4140SOL    HW213320   2.164   1.108   6.496
 4141SOL     OW13321   4.706   0.118   5.937
 4141SOL    HW113322   4.695   0.207   5.893
 4141SOL    HW213323   4.719   0.130   6.035
 4142SOL     OW13324   0.856   4.491   2.497
 4142SOL    HW113325   0.884   4.438   2.417
 4142SOL    HW213326   0.782   4.443   2.544
 4143SOL     OW13327   5.425   3.009   0.532
 4143SOL    HW113328   5.466   3.100   0.539
 4143SOL    HW213329   5.332   3.011   0.569
 4144SOL     OW13330   6.107   0.772   0.594
 4144SOL    HW113331   6.070   0.700   0.652
 4144SOL    HW213332   6.103   0.860   0.642
 4145SOL     OW13333   0.211   6.724   1.699
 4145SOL    HW113334   0.278   6.652   1.714
 4145SOL    HW213335   0.251   6.812   1.725
 4146SOL     OW13336   4.317   6.279   3.033
 4146SOL    HW113337   4.382   6.354   3.017
 4146SOL    HW213338   4.338   6.203   2.972
 4147SOL     OW13339   4.768   4.363   6.078
 4147SOL    HW113340   4.827   4.443   6.064
 4147SOL    HW213341   4.689   4.369   6.016
 4148SOL     OW13342   2.687   1.472   5.927
 4148SOL    HW113343   2.695   1.389   5.981
 4148SOL    HW213344   2.778   1.499   5.894
 4149SOL     OW13345   2.718   3.359   6.361
 4149SOL    HW113346   2.685   3.358   6.266
 4149SOL    HW213347   2.802   3.413   6.366
 4150SOL     OW13348   5.231   1.800   6.238
 4150SOL    HW113349   5.221   1.732   6.311
 4150SOL    HW213350   5.155   1.790   6.173
 4151SOL     OW13351   2.874   6.221   4.128
 4151SOL    HW113352   2.933   6.141   4.114
 4151SOL    HW213353   2.839   6.253   4.040
 4152SOL     OW13354   2.589   4.643   1.040
 4152SOL    HW113355   2.682   4.679   1.031
 4152SOL    HW213356   2.557   4.654   1.134
 4153SOL     OW13357   0.110   5.647   1.352
 4153SOL    HW113358   0.045   5.696   1.411
 4153SOL    HW213359   0.142   5.565   1.400
 4154SOL     OW13360   1.218   6.314   3.697
 4154SOL    HW113361   1.176   6.270   3.617
 4154SOL    HW213362   1.232   6.246   3.768
 4155SOL     OW13363   0.445   1.085   1.347
 4155SOL    HW113364   0.535   1.114   1.378
 4155SOL    HW213365   0.451   1.050   1.253
 4156SOL     OW13366   0.043   5.232   6.017
 4156SOL    HW113367   7.011   5.305   5.972
 4156SOL    HW213368   0.053   5.252   6.114
 4157SOL     OW13369   6.727   6.377   1.675
 4157SOL    HW113370   6.760   6.314   1.604
 4157SOL    HW213371   6.635   6.408   1.650
 4158SOL     OW13372   0.838   2.707   1.686
 4158SOL    HW113373   0.844   2.777   1.616
 4158SOL    HW213374   0.744   2.700   1.719
 4159SOL     OW13375   3.472   1.064   3.857
 4159SOL    HW113376   3.496   1.110   3.771
 4159SOL    HW213377   3.430   1.131   3.920
 4160SOL     OW13378   6.503   6.372   6.592
 4160SOL    HW113379   6.596   6.406   6.583
 4160SOL    HW213380   6.483   6.355   6.689
 4161SOL     OW13381   3.930   3.107   1.911
 4161SOL    HW113382   3.886   3.135   1.996
 4161SOL    HW213383   4.027   3.131   1.913
 4162SOL     OW13384   4.959   5.862   1.882
 4162SOL    HW113385   4.884   5.898   1.938
 4162SOL    HW213386   5.042   5.859   1.937
 4163SOL     OW13387   3.342   6.600   1.467
 4163SOL    HW113388   3.385   6.672   1.521
 4163SOL    HW213389   3.261   6.636   1.421
 4164SOL     OW13390   6.610   0.274   5.337
 4164SOL    HW113391   6.608   0.294   5.239
 4164SOL    HW213392   6.599   0.358   5.389
 4165SOL     OW13393   4.045   1.244   4.982
 4165SOL    HW113394   4.145   1.244   4.980
 4165SOL    HW213395   4.012   1.159   5.022
 4166SOL     OW13396   5.560   1.300   1.514
 4166SOL    HW113397   5.654   1.326   1.492
 4166SOL    HW213398   5.527   1.233   1.447
 4167SOL     OW13399   3.912   5.212   4.462
 4167SOL    HW113400   3.932   5.115   4.476
 4167SOL    HW213401   3.989   5.256   4.416
 4168SOL     OW13402   4.665   4.168   6.775
 4168SOL    HW113403   4.623   4.202   6.691
 4168SOL    HW213404   4.610   4.093   6.811
 4169SOL     OW13405   5.041   3.585   5.132
 4169SOL    HW113406   5.099   3.640   5.072
 4169SOL    HW213407   4.946   3.592   5.101
 4170SOL     OW13408   0.387   3.149   3.576
 4170SOL    HW113409   0.456   3.210   3.538
 4170SOL    HW213410   0.431   3.065   3.608
 4171SOL     OW13411   0.741   2.795   0.751
 4171SOL    HW113412   0.750   2.829   0.658
 4171SOL    HW213413   0.766   2.868   0.816
 4172SOL     OW13414   2.668   4.513   0.689
 4172SOL    HW113415   2.764   4.498   0.665
 4172SOL    HW213416   2.612   4.441   0.648
 4173SOL     OW13417   4.708   3.028   5.155
 4173SOL    HW113418   4.699   3.013   5.253
 4173SOL    HW213419   4.745   3.119   5.138
 4174SOL     OW13420   3.386   0.398   4.862
 4174SOL    HW113421   3.476   0.355   4.863
 4174SOL    HW213422   3.395   0.495   4.886
 4175SOL     OW13423   1.490   4.434   6.659
 4175SOL    HW113424   1.547   4.515   6.647
 4175SOL    HW213425   1.529   4.359   6.605
 4176SOL     OW13426   5.036   0.059   6.203
 4176SOL    HW113427   4.992   0.147   6.188
 4176SOL    HW213428   5.090   0.063   6.286
 4177SOL     OW13429   4.659   4.579   3.142
 4177SOL    HW113430   4.609   4.665   3.149
 4177SOL    HW213431   4.752   4.591   3.176
 4178SOL     OW13432   4.138   5.369   1.613
 4178SOL    HW113433   4.074   5.339   1.543
 4178SOL    HW213434   4.213   5.420   1.571
 4179SOL     OW13435   5.382   3.148   5.043
 4179SOL    HW113436   5.480   3.155   5.030
 4179SOL    HW213437   5.335   3.163   4.955
 4180SOL     OW13438   4.476   4.150   0.140
 4180SOL    HW113439   4.571   4.143   0.111
 4180SOL    HW213440   4.457   4.243   0.172
 4181SOL     OW13441   4.596   0.367   4.891
 4181SOL    HW113442   4.614   0.278   4.932
 4181SOL    HW213443   4.618   0.439   4.956
 4182SOL     OW13444   0.201   6.478   4.033
 4182SOL    HW113445   0.156   6.533   4.102
 4182SOL    HW213446   0.180   6.514   3.942
 4183SOL     OW13447   3.787   2.205   1.363
 4183SOL    HW113448   3.884   2.230   1.365
 4183SOL    HW213449   3.765   2.152   1.445
 4184SOL     OW13450   3.205   5.244   3.746
 4184SOL    HW113451   3.138   5.188   3.697
 4184SOL    HW213452   3.158   5.302   3.812
 4185SOL     OW13453   6.199   3.335   2.750
 4185SOL    HW113454   6.160   3.416   2.793
 4185SOL    HW213455   6.145   3.311   2.669
 4186SOL     OW13456   1.424   6.032   0.487
 4186SOL    HW113457   1.517   6.013   0.455
 4186SOL    HW213458   1.405   5.977   0.568
 4187SOL     OW13459   1.409   3.758   6.552
 4187SOL    HW113460   1.506   3.762   6.528
 4187SOL    HW213461   1.384   3.664   6.575
 4188SOL     OW13462   5.052   0.102   0.232
 4188SOL    HW113463   5.100   0.173   0.283
 4188SOL    HW213464   4.954   0.123   0.230
 4189SOL     OW13465   5.046   5.320   3.491
 4189SOL    HW113466   4.985   5.303   3.568
 4189SOL    HW213467   5.070   5.417   3.487
 4190SOL     OW13468   6.793   6.098   0.787
 4190SOL    HW113469   6.721   6.150   0.833
 4190SOL    HW213470   6.812   6.014   0.839
 4191SOL     OW13471   4.487   4.510   6.208
 4191SOL    HW113472   4.418   4.583   6.214
 4191SOL    HW213473   4.477   4.463   6.120
 4192SOL     OW13474   0.948   3.303   1.701
 4192SOL    HW113475   0.935   3.204   1.700
 4192SOL    HW213476   0.860   3.348   1.694
 4193SOL     OW13477   0.014   6.588   0.857
 4193SOL    HW113478   0.075   6.527   0.808
 4193SOL    HW213479   6.938   6.559   0.845
 4194SOL     OW13480   4.581   1.380   4.721
 4194SOL    HW113481   4.563   1.285   4.747
 4194SOL    HW213482   4.635   1.382   4.637
 4195SOL     OW13483   3.964   5.763   1.509
 4195SOL    HW113484   3.888   5.825   1.488
 4195SOL    HW213485   3.932   5.668   1.508
 4196SOL     OW13486   6.427   2.387   2.497
 4196SOL    HW113487   6.405   2.485   2.493
 4196SOL    HW213488   6.526   2.375   2.499
 4197SOL     OW13489   3.490   6.976   6.266
 4197SOL    HW113490   3.514   6.879   6.268
 4197SOL    HW213491   3.515   7.015   6.178
 4198SOL     OW13492   6.340   1.225   2.686
 4198SOL    HW113493   6.312   1.129   2.691
 4198SOL    HW213494   6.260   1.284   2.678
 4199SOL     OW13495   0.516   4.092   6.079
 4199SOL    HW113496   0.517   4.026   6.004
 4199SOL    HW213497   0.600   4.083   6.132
 4200SOL     OW13498   4.499   1.128   3.495
 4200SOL    HW113499   4.502   1.066   3.573
 4200SOL    HW213500   4.532   1.218   3.524
 4201SOL     OW13501   5.538   0.184   3.308
 4201SOL    HW113502   5.580   0.272   3.285
 4201SOL    HW213503   5.450   0.177   3.260
 4202SOL     OW13504   4.460   4.473   1.274
 4202SOL    HW113505   4.422   4.541   1.337
 4202SOL    HW213506   4.443   4.381   1.310
 4203SOL     OW13507   6.469   5.655   6.791
 4203SOL    HW113508   6.414   5.662   6.874
 4203SOL    HW213509   6.526   5.572   6.796
 4204SOL     OW13510   2.642   3.398   6.085
 4204SOL    HW113511   2.699   3.349   6.019
 4204SOL    HW213512   2.673   3.493   6.091
 4205SOL     OW13513   3.660   5.850   4.935
 4205SOL    HW113514   3.712   5.781   4.885
 4205SOL    HW213515   3.573   5.867   4.888
 4206SOL     OW13516   1.370   2.242   4.778
 4206SOL    HW113517   1.384   2.341   4.784
 4206SOL    HW213518   1.381   2.214   4.682
 4207SOL     OW13519   1.072   2.757   1.879
 4207SOL    HW113520   0.985   2.755   1.830
 4207SOL    HW213521   1.074   2.686   1.948
 4208SOL     OW13522   2.023   3.734   4.591
 4208SOL    HW113523   2.088   3.784   4.648
 4208SOL    HW213524   1.940   3.714   4.645
 4209SOL     OW13525   0.193   5.887   2.955
 4209SOL    HW113526   0.178   5.986   2.961
 4209SOL    HW213527   0.112   5.840   2.991
 4210SOL     OW13528   3.766   2.940   5.005
 4210SOL    HW113529   3.828   2.927   4.927
 4210SOL    HW213530   3.795   2.882   5.081
 4211SOL     OW13531   4.204   2.489   5.544
 4211SOL    HW113532   4.166   2.544   5.618
 4211SOL    HW213533   4.238   2.550   5.472
 4212SOL     OW13534   6.824   2.274   3.008
 4212SOL    HW113535   6.839   2.218   3.090
 4212SOL    HW213536   6.780   2.360   3.034
 4213SOL     OW13537   3.384   1.332   3.284
 4213SOL    HW113538   3.344   1.349   3.194
 4213SOL    HW213539   3.389   1.418   3.335
 4214SOL     OW13540   0.534   5.364   4.132
 4214SOL    HW113541   0.566   5.431   4.199
 4214SOL    HW213542   0.573   5.274   4.153
 4215SOL     OW13543   4.596   6.610   5.015
 4215SOL    HW113544   4.564   6.705   5.005
 4215SOL    HW213545   4.541   6.550   4.957
 4216SOL     OW13546   2.547   5.944   2.469
 4216SOL    HW113547   2.588   5.873   2.411
 4216SOL    HW213548   2.618   6.006   2.502
 4217SOL     OW13549   0.421   0.628   2.145
 4217SOL    HW113550   0.461   0.711   2.183
 4217SOL    HW213551   0.397   0.643   2.049
 4218SOL     OW13552   2.645   1.487   1.865
 4218SOL    HW113553   2.714   1.415   1.866
 4218SOL    HW213554   2.569   1.459   1.806
 4219SOL     OW13555   4.222   6.421   3.673
 4219SOL    HW113556   4.172   6.336   3.656
 4219SOL    HW213557   4.218   6.443   3.771
 4220SOL     OW13558   4.440   1.926   1.701
 4220SOL    HW113559   4.413   1.835   1.670
 4220SOL    HW213560   4.365   1.969   1.751
 4221SOL     OW13561   0.210   5.840   6.690
 4221SOL    HW113562   0.260   5.754   6.701
 4221SOL    HW213563   0.168   5.842   6.599
 4222SOL     OW13564   4.800   2.524   3.398
 4222SOL    HW113565   4.897   2.529   3.375
 4222SOL    HW213566   4.767   2.614   3.425
 4223SOL     OW13567   4.117   3.329   2.206
 4223SOL    HW113568   4.136   3.277   2.289
 4223SOL    HW213569   4.198   3.378   2.177
 4224SOL     OW13570   4.902   3.673   4.791
 4224SOL    HW113571   4.869   3.646   4.881
 4224SOL    HW213572   4.832   3.726   4.743
 4225SOL     OW13573   0.317   2.705   5.931
 4225SOL    HW113574   0.376   2.712   5.851
 4225SOL    HW213575   0.276   2.614   5.935
 4226SOL     OW13576   1.106   5.424   4.685
 4226SOL    HW113577   1.024   5.431   4.628
 4226SOL    HW213578   1.187   5.435   4.628
 4227SOL     OW13579   5.486   5.657   2.404
 4227SOL    HW113580   5.524   5.715   2.476
 4227SOL    HW213581   5.558   5.597   2.369
 4228SOL     OW13582   1.305   5.408   3.963
 4228SOL    HW113583   1.316   5.415   4.063
 4228SOL    HW213584   1.311   5.312   3.935
 4229SOL     OW13585   6.023   4.687   6.003
 4229SOL    HW113586   5.969   4.739   5.937
 4229SOL    HW213587   6.064   4.608   5.957
 4230SOL     OW13588   0.716   0.895   2.058
 4230SOL    HW113589   0.731   0.993   2.052
 4230SOL    HW213590   0.749   0.861   2.146
 4231SOL     OW13591   5.638   1.304   5.780
 4231SOL    HW113592   5.539   1.308   5.797
 4231SOL    HW213593   5.665   1.379   5.720
 4232SOL     OW13594   1.691   5.295   3.950
 4232SOL    HW113595   1.695   5.395   3.949
 4232SOL    HW213596   1.781   5.257   3.972
 4233SOL     OW13597   5.425   6.039   3.619
 4233SOL    HW113598   5.468   6.124   3.650
 4233SOL    HW213599   5.331   6.058   3.593
 4234SOL     OW13600   2.549   5.600   5.913
 4234SOL    HW113601   2.464   5.575   5.866
 4234SOL    HW213602   2.541   5.693   5.949
 4235SOL     OW13603   0.194   5.102   5.836
 4235SOL    HW113604   0.120   5.145   5.889
 4235SOL    HW213605   0.173   5.005   5.822
 4236SOL     OW13606   0.685   5.393   2.107
 4236SOL    HW113607   0.595   5.427   2.136
 4236SOL    HW213608   0.680   5.363   2.012
 4237SOL     OW13609   6.485   4.308   3.447
 4237SOL    HW113610   6.530   4.243   3.387
 4237SOL    HW213611   6.407   4.349   3.400
 4238SOL     OW13612   2.593   0.280   3.304
 4238SOL    HW113613   2.532   0.233   3.240
 4238SOL    HW213614   2.651   0.345   3.254
 4239SOL     OW13615   3.827   0.827   3.285
 4239SOL    HW113616   3.910   0.800   3.236
 4239SOL    HW213617   3.750   0.831   3.222
 4240SOL     OW13618   0.418   6.429   0.837
 4240SOL    HW113619   0.443   6.349   0.782
 4240SOL    HW213620   0.496   6.455   0.895
 4241SOL     OW13621   6.143   2.455   6.657
 4241SOL    HW113622   6.143   2.526   6.586
 4241SOL    HW213623   6.237   2.436   6.685
 4242SOL     OW13624   1.974   2.040   3.441
 4242SOL    HW113625   2.055   2.072   3.392
 4242SOL    HW213626   1.934   1.962   3.393
 4243SOL     OW13627   5.678   0.988   3.438
 4243SOL    HW113628   5.583   0.972   3.410
 4243SOL    HW213629   5.728   1.032   3.363
 4244SOL     OW13630   3.517   3.338   2.221
 4244SOL    HW113631   3.540   3.360   2.126
 4244SOL    HW213632   3.515   3.239   2.233
 4245SOL     OW13633   5.832   2.515   6.172
 4245SOL    HW113634   5.741   2.525   6.212
 4245SOL    HW213635   5.868   2.606   6.148
 4246SOL     OW13636   0.252   3.583   2.339
 4246SOL    HW113637   0.160   3.583   2.301
 4246SOL    HW213638   0.249   3.552   2.435
 4247SOL     OW13639   0.002   5.657   5.325
 4247SOL    HW113640   6.992   5.651   5.230
 4247SOL    HW213641   0.093   5.616   5.336
 4248SOL     OW13642   1.386   2.833   5.585
 4248SOL    HW113643   1.382   2.780   5.670
 4248SOL    HW213644   1.312   2.804   5.525
 4249SOL     OW13645   5.551   3.287   6.031
 4249SOL    HW113646   5.489   3.273   5.954
 4249SOL    HW213647   5.623   3.351   6.006
 4250SOL     OW13648   6.619   5.032   3.625
 4250SOL    HW113649   6.592   5.030   3.529
 4250SOL    HW213650   6.713   4.999   3.635
 4251SOL     OW13651   5.594   4.647   0.646
 4251SOL    HW113652   5.506   4.662   0.601
 4251SOL    HW213653   5.607   4.549   0.662
 4252SOL     OW13654   0.885   4.826   5.415
 4252SOL    HW113655   0.981   4.854   5.411
 4252SOL    HW213656   0.831   4.883   5.354
 4253SOL     OW13657   4.305   0.592   1.835
 4253SOL    HW113658   4.400   0.619   1.854
 4253SOL    HW213659   4.296   0.567   1.739
 4254SOL     OW13660   2.044   3.852   1.410
 4254SOL    HW113661   2.052   3.806   1.321
 4254SOL    HW213662   2.059   3.950   1.398
 4255SOL     OW13663   6.931   3.238   4.538
 4255SOL    HW113664   6.930   3.338   4.532
 4255SOL    HW213665   6.856   3.201   4.483
 4256SOL     OW13666   1.814   6.930   1.224
 4256SOL    HW113667   1.831   6.899   1.317
 4256SOL    HW213668   1.821   0.010   1.220
 4257SOL     OW13669   3.598   1.867   4.814
 4257SOL    HW113670   3.544   1.787   4.788
 4257SOL    HW213671   3.673   1.839   4.874
 4258SOL     OW13672   5.736   6.593   2.594
 4258SOL    HW113673   5.799   6.588   2.672
 4258SOL    HW213674   5.752   6.516   2.533
 4259SOL     OW13675   2.586   2.496   0.194
 4259SOL    HW113676   2.685   2.484   0.197
 4259SOL    HW213677   2.546   2.464   0.280
 4260SOL     OW13678   4.883   5.550   3.219
 4260SOL    HW113679   4.813   5.594   3.162
 4260SOL    HW213680   4.894   5.455   3.190
 4261SOL     OW13681   2.116   6.503   1.704
 4261SOL    HW113682   2.078   6.580   1.755
 4261SOL    HW213683   2.175   6.450   1.765
 4262SOL     OW13684   1.186   5.069   6.844
 4262SOL    HW113685   1.123   5.021   6.784
 4262SOL    HW213686   1.194   5.164   6.815
 4263SOL     OW13687   2.421   4.387   5.533
 4263SOL    HW113688   2.464   4.476   5.520
 4263SOL    HW213689   2.379   4.382   5.623
 4264SOL     OW13690   0.600   1.529   0.225
 4264SOL    HW113691   0.505   1.556   0.238
 4264SOL    HW213692   0.656   1.611   0.208
 4265SOL     OW13693   6.819   1.556   0.464
 4265SOL    HW113694   6.772   1.499   0.531
 4265SOL    HW213695   6.842   1.501   0.384
 4266SOL     OW13696   2.248   5.482   0.178
 4266SOL    HW113697   2.320   5.429   0.224
 4266SOL    HW213698   2.167   5.425   0.167
 4267SOL     OW13699   1.781   3.502   4.869
 4267SOL    HW113700   1.807   3.475   4.777
 4267SOL    HW213701   1.688   3.538   4.868
 4268SOL     OW13702   2.210   1.157   0.470
 4268SOL    HW113703   2.306   1.160   0.442
 4268SOL    HW213704   2.159   1.224   0.415
 4269SOL     OW13705   3.206   3.346   0.329
 4269SOL    HW113706   3.256   3.383   0.251
 4269SOL    HW213707   3.115   3.317   0.299
 4270SOL     OW13708   2.997   3.159   4.915
 4270SOL    HW113709   2.957   3.214   4.989
 4270SOL    HW213710   3.053   3.086   4.955
 4271SOL     OW13711   0.794   6.974   5.848
 4271SOL    HW113712   0.866   6.988   5.779
 4271SOL    HW213713   0.830   6.997   5.938
 4272SOL     OW13714   6.437   4.663   5.338
 4272SOL    HW113715   6.377   4.587   5.361
 4272SOL    HW213716   6.474   4.650   5.247
 4273SOL     OW13717   5.126   6.889   5.372
 4273SOL    HW113718   5.036   6.869   5.410
 4273SOL    HW213719   5.149   6.822   5.302
 4274SOL     OW13720   1.593   6.796   3.813
 4274SOL    HW113721   1.523   6.847   3.863
 4274SOL    HW213722   1.559   6.772   3.722
 4275SOL     OW13723   0.569   0.359   6.305
 4275SOL    HW113724   0.480   0.317   6.285
 4275SOL    HW213725   0.640   0.312   6.253
 4276SOL     OW13726   2.182   4.535   2.829
 4276SOL    HW113727   2.083   4.526   2.820
 4276SOL    HW213728   2.202   4.588   2.912
 4277SOL     OW13729   6.923   5.132   3.917
 4277SOL    HW113730   7.012   5.174   3.931
 4277SOL    HW213731   6.882   5.168   3.833
 4278SOL     OW13732   6.995   6.174   4.531
 4278SOL    HW113733   6.961   6.257   4.575
 4278SOL    HW213734   6.918   6.116   4.505
 4279SOL     OW13735   3.186   6.562   5.148
 4279SOL    HW113736   3.255   6.612   5.201
 4279SOL    HW213737   3.156   6.619   5.071
 4280SOL     OW13738   6.065   2.158   4.954
 4280SOL    HW113739   6.083   2.140   4.858
 4280SOL    HW213740   6.092   2.252   4.977
 4281SOL     OW13741   2.023   4.436   5.181
 4281SOL    HW113742   2.008   4.469   5.274
 4281SOL    HW213743   2.116   4.402   5.172
 4282SOL     OW13744   2.412   2.689   0.951
 4282SOL    HW113745   2.457   2.702   0.863
 4282SOL    HW213746   2.330   2.746   0.955
 4283SOL     OW13747   1.924   0.390   4.428
 4283SOL    HW113748   1.997   0.431   4.481
 4283SOL    HW213749   1.853   0.355   4.489
 4284SOL     OW13750   5.513   1.400   2.277
 4284SOL    HW113751   5.596   1.396   2.222
 4284SOL    HW213752   5.472   1.491   2.268
 4285SOL     OW13753   0.963   0.114   5.368
 4285SOL    HW113754   0.999   0.156   5.451
 4285SOL    HW213755   0.931   0.022   5.388
 4286SOL     OW13756   4.745   6.103   0.310
 4286SOL    HW113757   4.795   6.125   0.225
 4286SOL    HW213758   4.693   6.019   0.296
 4287SOL     OW13759   5.808   0.175   4.711
 4287SOL    HW113760   5.793   0.255   4.653
 4287SOL    HW213761   5.745   0.178   4.788
 4288SOL     OW13762   1.268   0.005   2.982
 4288SOL    HW113763   1.203   0.024   2.909
 4288SOL    HW213764   1.259   0.074   3.054
 4289SOL     OW13765   5.649   2.700   1.225
 4289SOL    HW113766   5.694   2.789   1.217
 4289SOL    HW213767   5.643   2.657   1.135
 4290SOL     OW13768   2.472   0.716   2.618
 4290SOL    HW113769   2.424   0.754   2.697
 4290SOL    HW213770   2.407   0.665   2.561
 4291SOL     OW13771   6.143   2.658   0.308
 4291SOL    HW113772   6.094   2.624   0.388
 4291SOL    HW213773   6.241   2.640   0.319
 4292SOL     OW13774   6.286   3.773   5.752
 4292SOL    HW113775   6.292   3.855   5.809
 4292SOL    HW213776   6.223   3.790   5.677
 4293SOL     OW13777   6.222   3.314   6.552
 4293SOL    HW113778   6.253   3.306   6.457
 4293SOL    HW213779   6.137   3.263   6.564
 4294SOL     OW13780   4.242   2.363   6.120
 4294SOL    HW113781   4.204   2.317   6.201
 4294SOL    HW213782   4.247   2.298   6.044
 4295SOL     OW13783   3.619   6.692   4.138
 4295SOL    HW113784   3.598   6.784   4.103
 4295SOL    HW213785   3.687   6.699   4.211
 4296SOL     OW13786   2.334   2.148   1.296
 4296SOL    HW113787   2.259   2.092   1.329
 4296SOL    HW213788   2.387   2.097   1.228
 4297SOL     OW13789   5.581   0.505   5.162
 4297SOL    HW113790   5.668   0.488   5.208
 4297SOL    HW213791   5.567   0.604   5.155
 4298SOL     OW13792   2.332   5.767   1.077
 4298SOL    HW113793   2.314   5.719   0.991
 4298SOL    HW213794   2.263   5.742   1.145
 4299SOL     OW13795   0.988   3.333   6.188
 4299SOL    HW113796   0.988   3.234   6.197
 4299SOL    HW213797   1.000   3.358   6.091
 4300SOL     OW13798   3.604   1.331   6.909
 4300SOL    HW113799   3.603   1.255   6.844
 4300SOL    HW213800   3.541   1.402   6.876
 4301SOL     OW13801   2.533   2.084   1.039
 4301SOL    HW113802   2.528   2.171   0.990
 4301SOL    HW213803   2.629   2.056   1.046
 4302SOL     OW13804   0.838   6.425   6.748
 4302SOL    HW113805   0.933   6.425   6.779
 4302SOL    HW213806   0.793   6.508   6.781
 4303SOL     OW13807   6.443   3.796   2.402
 4303SOL    HW113808   6.497   3.737   2.463
 4303SOL    HW213809   6.388   3.858   2.457
 4304SOL     OW13810   3.160   3.393   3.985
 4304SOL    HW113811   3.064   3.391   3.957
 4304SOL    HW213812   3.173   3.329   4.061
 4305SOL     OW13813   6.464   0.968   3.607
 4305SOL    HW113814   6.455   1.058   3.649
 4305SOL    HW213815   6.521   0.975   3.525
 4306SOL     OW13816   6.807   4.223   5.912
 4306SOL    HW113817   6.804   4.134   5.956
 4306SOL    HW213818   6.790   4.212   5.814
 4307SOL     OW13819   4.648   3.771   5.911
 4307SOL    HW113820   4.697   3.685   5.896
 4307SOL    HW213821   4.713   3.846   5.918
 4308SOL     OW13822   5.322   5.750   4.356
 4308SOL    HW113823   5.247   5.798   4.403
 4308SOL    HW213824   5.325   5.655   4.385
 4309SOL     OW13825   1.394   1.266   0.773
 4309SOL    HW113826   1.470   1.250   0.710
 4309SOL    HW213827   1.420   1.335   0.840
 4310SOL     OW13828   1.580   2.262   2.616
 4310SOL    HW113829   1.674   2.258   2.584
 4310SOL    HW213830   1.576   2.243   2.714
 4311SOL     OW13831   1.055   6.002   3.582
 4311SOL    HW113832   1.113   5.945   3.523
 4311SOL    HW213833   1.061   6.098   3.551
 4312SOL     OW13834   2.117   6.031   2.400
 4312SOL    HW113835   2.193   5.978   2.437
 4312SOL    HW213836   2.076   5.981   2.324
 4313SOL     OW13837   4.925   1.448   1.572
 4313SOL    HW113838   4.979   1.449   1.657
 4313SOL    HW213839   4.830   1.470   1.593
 4314SOL     OW13840   5.059   3.048   2.981
 4314SOL    HW113841   4.986   3.013   2.922
 4314SOL    HW213842   5.146   3.045   2.931
 4315SOL     OW13843   2.434   0.657   1.986
 4315SOL    HW113844   2.365   0.651   2.059
 4315SOL    HW213845   2.503   0.724   2.012
 4316SOL     OW13846   5.365   0.545   1.406
 4316SOL    HW113847   5.337   0.499   1.491
 4316SOL    HW213848   5.346   0.486   1.328
 4317SOL     OW13849   3.363   1.275   3.999
 4317SOL    HW113850   3.390   1.372   3.995
 4317SOL    HW213851   3.264   1.268   3.990
 4318SOL     OW13852   0.847   3.606   3.244
 4318SOL    HW113853   0.802   3.536   3.188
 4318SOL    HW213854   0.874   3.567   3.332
 4319SOL     OW13855   2.897   3.383   6.751
 4319SOL    HW113856   2.933   3.426   6.668
 4319SOL    HW213857   2.814   3.430   6.779
 4320SOL     OW13858   0.534   6.984   2.746
 4320SOL    HW113859   0.613   6.928   2.721
 4320SOL    HW213860   0.472   6.992   2.668
 4321SOL     OW13861   6.585   0.395   5.008
 4321SOL    HW113862   6.673   0.400   5.055
 4321SOL    HW213863   6.551   0.487   4.991
 4322SOL     OW13864   6.368   1.012   6.784
 4322SOL    HW113865   6.369   1.051   6.876
 4322SOL    HW213866   6.274   1.010   6.750
 4323SOL     OW13867   5.793   2.607   3.198
 4323SOL    HW113868   5.744   2.523   3.219
 4323SOL    HW213869   5.858   2.590   3.124
 4324SOL     OW13870   5.868   4.000   6.571
 4324SOL    HW113871   5.815   3.994   6.656
 4324SOL    HW213872   5.919   3.915   6.557
 4325SOL     OW13873   2.403   1.346   6.674
 4325SOL    HW113874   2.400   1.325   6.576
 4325SOL    HW213875   2.498   1.361   6.702
 4326SOL     OW13876   6.249   3.080   5.535
 4326SOL    HW113877   6.290   3.171   5.540
 4326SOL    HW213878   6.276   3.036   5.450
 4327SOL     OW13879   5.806   5.932   2.132
 4327SOL    HW113880   5.830   5.951   2.227
 4327SOL    HW213881   5.855   5.852   2.100
 4328SOL     OW13882   5.084   4.922   6.423
 4328SOL    HW113883   5.104   5.015   6.452
 4328SOL    HW213884   5.019   4.924   6.347
 4329SOL     OW13885   3.617   2.092   5.218
 4329SOL    HW113886   3.667   2.175   5.241
 4329SOL    HW213887   3.537   2.115   5.162
 4330SOL     OW13888   1.671   0.546   5.927
 4330SOL    HW113889   1.710   0.634   5.902
 4330SOL    HW213890   1.586   0.532   5.878
 4331SOL     OW13891   5.640   2.945   6.856
 4331SOL    HW113892   5.616   2.900   6.769
 4331SOL    HW213893   5.726   2.907   6.890
 4332SOL     OW13894   4.873   3.038   2.287
 4332SOL    HW113895   4.962   3.043   2.242
 4332SOL    HW213896   4.805   3.002   2.224
 4333SOL     OW13897   5.834   1.734   4.850
 4333SOL    HW113898   5.905   1.764   4.914
 4333SOL    HW213899   5.813   1.637   4.866
 4334SOL     OW13900   3.650   1.904   1.965
 4334SOL    HW113901   3.662   2.004   1.964
 4334SOL    HW213902   3.584   1.878   1.895
 4335SOL     OW13903   2.995   3.847   4.590
 4335SOL    HW113904   3.095   3.846   4.580
 4335SOL    HW213905   2.967   3.773   4.651
 4336SOL     OW13906   1.715   6.868   4.930
 4336SOL    HW113907   1.721   6.815   4.846
 4336SOL    HW213908   1.777   6.830   4.998
 4337SOL     OW13909   0.366   4.857   0.164
 4337SOL    HW113910   0.298   4.924   0.135
 4337SOL    HW213911   0.326   4.794   0.229
 4338SOL     OW13912   6.099   5.907   4.168
 4338SOL    HW113913   6.040   5.889   4.247
 4338SOL    HW213914   6.119   5.821   4.121
 4339SOL     OW13915   6.273   2.171   5.669
 4339SOL    HW113916   6.360   2.142   5.629
 4339SOL    HW213917   6.199   2.154   5.605
 4340SOL     OW13918   5.428   3.515   1.626
 4340SOL    HW113919   5.337   3.493   1.590
 4340SOL    HW213920   5.458   3.441   1.687
 4341SOL     OW13921   1.712   3.896   1.895
 4341SOL    HW113922   1.727   3.799   1.879
 4341SOL    HW213923   1.637   3.928   1.837
 4342SOL     OW13924   0.508   2.387   3.072
 4342SOL    HW113925   0.493   2.464   3.011
 4342SOL    HW213926   0.444   2.392   3.149
 4343SOL     OW13927   3.006   0.910   0.715
 4343SOL    HW113928   2.951   0.965   0.779
 4343SOL    HW213929   3.026   0.821   0.756
 4344SOL     OW13930   1.700   4.572   3.418
 4344SOL    HW113931   1.762   4.505   3.459
 4344SOL    HW213932   1.631   4.599   3.486
 4345SOL     OW13933   2.010   2.777   5.535
 4345SOL    HW113934   1.914   2.761   5.512
 4345SOL    HW213935   2.068   2.738   5.463
 4346SOL     OW13936   1.824   3.505   2.215
 4346SOL    HW113937   1.836   3.599   2.184
 4346SOL    HW213938   1.896   3.448   2.175
 4347SOL     OW13939   6.194   6.984   2.531
 4347SOL    HW113940   6.095   6.999   2.529
 4347SOL    HW213941   6.227   6.964   2.438
 4348SOL     OW13942   1.303   3.492   1.057
 4348SOL    HW113943   1.399   3.472   1.037
 4348SOL    HW213944   1.246   3.468   0.978
 4349SOL     OW13945   0.470   1.490   3.972
 4349SOL    HW113946   0.557   1.460   3.932
 4349SOL    HW213947   0.455   1.443   4.059
 4350SOL     OW13948   5.490   2.602   4.321
 4350SOL    HW113949   5.409   2.560   4.363
 4350SOL    HW213950   5.546   2.530   4.279
 4351SOL     OW13951   2.917   5.688   2.662
 4351SOL    HW113952   2.846   5.618   2.665
 4351SOL    HW213953   2.984   5.672   2.734
 4352SOL     OW13954   0.431   1.638   1.953
 4352SOL    HW113955   0.497   1.713   1.953
 4352SOL    HW213956   0.474   1.555   1.919
 4353SOL     OW13957   2.569   5.642   6.651
 4353SOL    HW113958   2.573   5.566   6.715
 4353SOL    HW213959   2.544   5.726   6.700
 4354SOL     OW13960   2.555   0.168   0.180
 4354SOL    HW113961   2.468   0.152   0.134
 4354SOL    HW213962   2.630   0.146   0.117
 4355SOL     OW13963   3.891   0.747   0.360
 4355SOL    HW113964   3.967   0.784   0.413
 4355SOL    HW213965   3.912   0.754   0.262
 4356SOL     OW13966   4.304   3.907   0.758
 4356SOL    HW113967   4.313   3.860   0.670
 4356SOL    HW213968   4.313   3.842   0.832
 4357SOL     OW13969   6.333   0.075   0.297
 4357SOL    HW113970   6.425   0.087   0.259
 4357SOL    HW213971   6.267   0.121   0.238
 4358SOL     OW13972   0.871   6.473   1.411
 4358SOL    HW113973   0.851   6.438   1.502
 4358SOL    HW213974   0.887   6.572   1.416
 4359SOL     OW13975   1.025   2.085   4.105
 4359SOL    HW113976   0.932   2.051   4.119
 4359SOL    HW213977   1.022   2.167   4.047
 4360SOL     OW13978   0.744   3.594   1.225
 4360SOL    HW113979   0.678   3.613   1.297
 4360SOL    HW213980   0.696   3.577   1.139
 4361SOL     OW13981   5.062   2.420   2.216
 4361SOL    HW113982   5.071   2.481   2.137
 4361SOL    HW213983   5.100   2.465   2.297
 4362SOL     OW13984   6.282   4.383   5.378
 4362SOL    HW113985   6.279   4.385   5.279
 4362SOL    HW213986   6.309   4.292   5.409
 4363SOL     OW13987   5.007   2.951   5.166
 4363SOL    HW113988   4.920   2.994   5.141
 4363SOL    HW213989   4.994   2.894   5.247
 4364SOL     OW13990   3.181   4.099   4.255
 4364SOL    HW113991   3.182   4.150   4.340
 4364SOL    HW213992   3.246   4.139   4.191
 4365SOL     OW13993   4.359   2.295   2.620
 4365SOL    HW113994   4.283   2.275   2.558
 4365SOL    HW213995   4.412   2.372   2.585
 4366SOL     OW13996   5.806   5.779   1.493
 4366SOL    HW113997   5.905   5.778   1.480
 4366SOL    HW213998   5.762   5.815   1.412
 4367SOL     OW13999   1.566   6.180   5.697
 4367SOL    HW114000   1.558   6.094   5.747
 4367SOL    HW214001   1.610   6.249   5.756
 4368SOL     OW14002   5.504   4.105   1.878
 4368SOL    HW114003   5.603   4.097   1.865
 4368SOL    HW214004   5.458   4.026   1.838
 4369SOL     OW14005   4.174   5.147   2.258
 4369SOL    HW114006   4.224   5.093   2.190
 4369SOL    HW214007   4.216   5.135   2.347
 4370SOL     OW14008   5.719   4.796   4.024
 4370SOL    HW114009   5.659   4.839   4.092
 4370SOL    HW214010   5.803   4.765   4.068
 4371SOL     OW14011   5.893   0.739   2.411
 4371SOL    HW114012   5.861   0.830   2.437
 4371SOL    HW214013   5.834   0.702   2.340
 4372SOL     OW14014   4.542   1.637   3.490
 4372SOL    HW114015   4.468   1.652   3.555
 4372SOL    HW214016   4.622   1.691   3.517
 4373SOL     OW14017   6.388   1.966   6.372
 4373SOL    HW114018   6.333   1.982   6.290
 4373SOL    HW214019   6.362   1.879   6.414
 4374SOL     OW14020   1.687   2.113   2.289
 4374SOL    HW114021   1.748   2.182   2.252
 4374SOL    HW214022   1.620   2.087   2.219
 4375SOL     OW14023   2.785   6.146   4.594
 4375SOL    HW114024   2.807   6.050   4.608
 4375SOL    HW214025   2.785   6.194   4.682
 4376SOL     OW14026   6.635   0.275   3.195
 4376SOL    HW114027   6.671   0.205   3.257
 4376SOL    HW214028   6.630   0.237   3.102
 4377SOL     OW14029   6.276   4.527   0.220
 4377SOL    HW114030   6.200   4.588   0.198
 4377SOL    HW214031   6.243   4.432   0.220
 4378SOL     OW14032   2.012   0.539   3.608
 4378SOL    HW114033   1.937   0.555   3.543
 4378SOL    HW214034   2.010   0.444   3.638
 4379SOL     OW14035   3.019   1.482   4.845
 4379SOL    HW114036   3.031   1.407   4.779
 4379SOL    HW214037   3.102   1.490   4.901
 4380SOL     OW14038   0.783   1.757   1.586
 4380SOL    HW114039   0.793   1.750   1.685
 4380SOL    HW214040   0.695   1.718   1.559
 4381SOL     OW14041   1.970   6.139   5.797
 4381SOL    HW114042   2.032   6.201   5.749
 4381SOL    HW214043   1.884   6.187   5.815
 4382SOL     OW14044   6.722   3.267   5.079
 4382SOL    HW114045   6.624   3.285   5.092
 4382SOL    HW214046   6.733   3.202   5.004
 4383SOL     OW14047   5.229   2.210   6.192
 4383SOL    HW114048   5.187   2.178   6.108
 4383SOL    HW214049   5.261   2.131   6.245
 4384SOL     OW14050   6.779   6.349   3.149
 4384SOL    HW114051   6.782   6.262   3.199
 4384SOL    HW214052   6.785   6.425   3.214
 4385SOL     OW14053   5.809   1.841   4.593
 4385SOL    HW114054   5.805   1.940   4.605
 4385SOL    HW214055   5.815   1.796   4.682
 4386SOL     OW14056   1.016   3.280   5.249
 4386SOL    HW114057   0.976   3.252   5.336
 4386SOL    HW214058   1.114   3.297   5.261
 4387SOL     OW14059   6.887   2.521   0.340
 4387SOL    HW114060   6.818   2.455   0.311
 4387SOL    HW214061   6.857   2.614   0.318
 4388SOL     OW14062   4.489   2.020   6.412
 4388SOL    HW114063   4.538   2.041   6.497
 4388SOL    HW214064   4.530   1.940   6.368
 4389SOL     OW14065   0.143   3.676   1.080
 4389SOL    HW114066   0.119   3.584   1.049
 4389SOL    HW214067   0.114   3.688   1.175
 4390SOL     OW14068   5.786   0.896   1.300
 4390SOL    HW114069   5.820   0.911   1.393
 4390SOL    HW214070   5.709   0.957   1.282
 4391SOL     OW14071   2.007   5.835   6.481
 4391SOL    HW114072   1.918   5.814   6.521
 4391SOL    HW214073   2.064   5.883   6.548
 4392SOL     OW14074   1.011   1.870   4.506
 4392SOL    HW114075   1.049   1.910   4.589
 4392SOL    HW214076   1.083   1.821   4.456
 4393SOL     OW14077   5.096   6.598   1.891
 4393SOL    HW114078   5.085   6.663   1.816
 4393SOL    HW214079   5.169   6.629   1.952
 4394SOL     OW14080   1.721   0.655   1.293
 4394SOL    HW114081   1.778   0.578   1.262
 4394SOL    HW214082   1.774   0.712   1.355
 4395SOL     OW14083   2.450   5.976   0.941
 4395SOL    HW114084   2.403   6.024   0.867
 4395SOL    HW214085   2.386   5.910   0.983
 4396SOL     OW14086   2.376   0.768   3.535
 4396SOL    HW114087   2.392   0.709   3.456
 4396SOL    HW214088   2.338   0.714   3.610
 4397SOL     OW14089   2.905   1.876   3.982
 4397SOL    HW114090   2.809   1.857   3.965
 4397SOL    HW214091   2.922   1.876   4.081
 4398SOL     OW14092   2.387   2.992   6.095
 4398SOL    HW114093   2.320   2.917   6.094
 4398SOL    HW214094   2.410   3.017   6.001
 4399SOL     OW14095   2.750   6.333   2.295
 4399SOL    HW114096   2.722   6.253   2.242
 4399SOL    HW214097   2.706   6.331   2.384
 4400SOL     OW14098   1.734   6.020   4.801
 4400SOL    HW114099   1.664   5.958   4.766
 4400SOL    HW214100   1.825   5.986   4.776
 4401SOL     OW14101   3.403   6.647   5.801
 4401SOL    HW114102   3.363   6.639   5.892
 4401SOL    HW214103   3.499   6.674   5.808
 4402SOL     OW14104   0.927   0.373   3.573
 4402SOL    HW114105   0.865   0.369   3.652
 4402SOL    HW214106   1.013   0.327   3.597
 4403SOL     OW14107   1.373   4.782   1.086
 4403SOL    HW114108   1.337   4.689   1.079
 4403SOL    HW214109   1.451   4.793   1.025
 4404SOL     OW14110   0.749   5.904   6.217
 4404SOL    HW114111   0.742   5.823   6.276
 4404SOL    HW214112   0.835   5.901   6.166
 4405SOL     OW14113   1.845   4.387   3.536
 4405SOL    HW114114   1.809   4.398   3.628
 4405SOL    HW214115   1.816   4.299   3.499
 4406SOL     OW14116   5.718   3.522   2.088
 4406SOL    HW114117   5.739   3.620   2.081
 4406SOL    HW214118   5.685   3.502   2.181
 4407SOL     OW14119   0.080   6.026   2.163
 4407SOL    HW114120   7.015   6.026   2.216
 4407SOL    HW214121   0.138   6.102   2.193
 4408SOL     OW14122   4.193   0.383   0.788
 4408SOL    HW114123   4.182   0.340   0.699
 4408SOL    HW214124   4.113   0.364   0.845
 4409SOL     OW14125   3.614   0.864   2.322
 4409SOL    HW114126   3.576   0.862   2.229
 4409SOL    HW214127   3.565   0.797   2.379
 4410SOL     OW14128   1.147   5.981   1.108
 4410SOL    HW114129   1.136   5.987   1.207
 4410SOL    HW214130   1.071   6.028   1.063
 4411SOL     OW14131   3.172   4.488   5.671
 4411SOL    HW114132   3.121   4.405   5.694
 4411SOL    HW214133   3.179   4.496   5.571
 4412SOL     OW14134   4.190   6.322   2.724
 4412SOL    HW114135   4.104   6.297   2.767
 4412SOL    HW214136   4.196   6.279   2.634
 4413SOL     OW14137   3.601   6.981   4.057
 4413SOL    HW114138   3.602   0.061   4.070
 4413SOL    HW214139   3.617   6.960   3.961
 4414SOL     OW14140   4.683   4.152   1.733
 4414SOL    HW114141   4.591   4.165   1.769
 4414SOL    HW214142   4.680   4.149   1.633
 4415SOL     OW14143   3.225   3.598   1.611
 4415SOL    HW114144   3.193   3.518   1.661
 4415SOL    HW214145   3.282   3.654   1.671
 4416SOL     OW14146   4.165   2.253   3.488
 4416SOL    HW114147   4.212   2.283   3.571
 4416SOL    HW214148   4.080   2.206   3.513
 4417SOL     OW14149   0.635   3.785   3.340
 4417SOL    HW114150   0.550   3.734   3.329
 4417SOL    HW214151   0.708   3.740   3.289
 4418SOL     OW14152   6.258   0.260   0.496
 4418SOL    HW114153   6.274   0.168   0.460
 4418SOL    HW214154   6.256   0.325   0.420
 4419SOL     OW14155   6.738   5.926   6.701
 4419SOL    HW114156   6.717   5.923   6.604
 4419SOL    HW214157   6.820   5.982   6.716
 4420SOL     OW14158   3.722   2.202   0.798
 4420SOL    HW114159   3.763   2.113   0.816
 4420SOL    HW214160   3.724   2.258   0.881
 4421SOL     OW14161   1.597   2.474   4.539
 4421SOL    HW114162   1.669   2.412   4.508
 4421SOL    HW214163   1.511   2.450   4.494
 4422SOL     OW14164   6.923   4.673   6.954
 4422SOL    HW114165   6.978   4.591   6.937
 4422SOL    HW214166   6.852   4.681   6.885
 4423SOL     OW14167   5.407   3.958   5.374
 4423SOL    HW114168   5.319   3.996   5.403
 4423SOL    HW214169   5.479   3.994   5.434
 4424SOL     OW14170   4.949   5.955   4.133
 4424SOL    HW114171   4.861   5.985   4.169
 4424SOL    HW214172   4.975   5.869   4.177
 4425SOL     OW14173   1.596   5.740   1.477
 4425SOL    HW114174   1.636   5.710   1.389
 4425SOL    HW214175   1.668   5.742   1.546
 4426SOL     OW14176   1.417   0.355   4.051
 4426SOL    HW114177   1.389   0.383   4.143
 4426SOL    HW214178   1.478   0.424   4.012
 4427SOL     OW14179   3.571   5.752   3.322
 4427SOL    HW114180   3.573   5.692   3.403
 4427SOL    HW214181   3.664   5.784   3.303
 4428SOL     OW14182   5.610   1.065   4.058
 4428SOL    HW114183   5.605   0.965   4.064
 4428SOL    HW214184   5.685   1.098   4.115
 4429SOL     OW14185   2.818   6.293   3.489
 4429SOL    HW114186   2.912   6.303   3.520
 4429SOL    HW214187   2.756   6.309   3.565
 4430SOL     OW14188   5.273   4.608   4.738
 4430SOL    HW114189   5.319   4.573   4.819
 4430SOL    HW214190   5.292   4.706   4.729
 4431SOL     OW14191   3.258   0.628   4.028
 4431SOL    HW114192   3.327   0.562   3.998
 4431SOL    HW214193   3.274   0.716   3.984
 4432SOL     OW14194   1.237   4.172   6.338
 4432SOL    HW114195   1.267   4.204   6.427
 4432SOL    HW214196   1.289   4.091   6.312
 4433SOL     OW14197   0.957   1.111   4.948
 4433SOL    HW114198   1.037   1.050   4.950
 4433SOL    HW214199   0.969   1.182   5.017
 4434SOL     OW14200   6.663   0.527   1.733
 4434SOL    HW114201   6.742   0.502   1.677
 4434SOL    HW214202   6.689   0.529   1.829
 4435SOL     OW14203   2.853   4.108   0.565
 4435SOL    HW114204   2.821   4.021   0.605
 4435SOL    HW214205   2.775   4.156   0.524
 4436SOL     OW14206   4.639   1.609   1.570
 4436SOL    HW114207   4.544   1.627   1.545
 4436SOL    HW214208   4.690   1.580   1.489
 4437SOL     OW14209   0.153   3.911   1.398
 4437SOL    HW114210   0.204   3.843   1.450
 4437SOL    HW214211   0.216   3.965   1.343
 4438SOL     OW14212   3.922   0.557   6.015
 4438SOL    HW114213   3.952   0.593   6.104
 4438SOL    HW214214   3.974   0.603   5.942
 4439SOL     OW14215   2.087   6.559   2.108
 4439SOL    HW114216   2.065   6.656   2.117
 4439SOL    HW214217   2.168   6.549   2.049
 4440SOL     OW14218   1.999   4.968   0.276
 4440SOL    HW114219   1.930   4.924   0.334
 4440SOL    HW214220   1.955   5.041   0.223
 4441SOL     OW14221   0.609   1.365   6.998
 4441SOL    HW114222   0.666   1.282   6.996
 4441SOL    HW214223   0.635   1.422   0.056
 4442SOL     OW14224   1.868   4.467   6.430
 4442SOL    HW114225   1.821   4.501   6.511
 4442SOL    HW214226   1.805   4.410   6.376
 4443SOL     OW14227   0.367   5.079   6.085
 4443SOL    HW114228   0.321   5.112   6.003
 4443SOL    HW214229   0.461   5.051   6.062
 4444SOL     OW14230   5.536   4.030   0.130
 4444SOL    HW114231   5.540   4.107   0.066
 4444SOL    HW214232   5.450   3.980   0.119
 4445SOL     OW14233   0.225   5.959   0.377
 4445SOL    HW114234   0.255   5.958   0.281
 4445SOL    HW214235   0.294   5.913   0.433
 4446SOL     OW14236   5.140   1.001   0.961
 4446SOL    HW114237   5.055   0.967   1.001
 4446SOL    HW214238   5.176   1.076   1.016
 4447SOL     OW14239   4.964   5.343   5.479
 4447SOL    HW114240   4.989   5.297   5.563
 4447SOL    HW214241   4.984   5.441   5.487
 4448SOL     OW14242   3.515   0.042   1.538
 4448SOL    HW114243   3.614   0.036   1.550
 4448SOL    HW214244   3.482   0.129   1.576
 4449SOL     OW14245   3.736   1.314   6.094
 4449SOL    HW114246   3.659   1.250   6.089
 4449SOL    HW214247   3.789   1.296   6.177
 4450SOL     OW14248   3.286   0.212   0.568
 4450SOL    HW114249   3.365   0.270   0.549
 4450SOL    HW214250   3.298   0.123   0.525
 4451SOL     OW14251   4.693   4.409   3.525
 4451SOL    HW114252   4.616   4.461   3.562
 4451SOL    HW214253   4.691   4.413   3.425
 4452SOL     OW14254   4.965   6.079   4.440
 4452SOL    HW114255   4.969   6.179   4.449
 4452SOL    HW214256   4.870   6.049   4.454
 4453SOL     OW14257   0.349   3.467   0.992
 4453SOL    HW114258   0.311   3.385   0.949
 4453SOL    HW214259   0.446   3.476   0.967
 4454SOL     OW14260   0.995   2.266   0.513
 4454SOL    HW114261   0.982   2.359   0.479
 4454SOL    HW214262   0.939   2.203   0.460
 4455SOL     OW14263   0.269   6.377   5.195
 4455SOL    HW114264   0.251   6.443   5.121
 4455SOL    HW214265   0.354   6.402   5.241
 4456SOL     OW14266   2.035   6.728   4.267
 4456SOL    HW114267   1.939   6.753   4.280
 4456SOL    HW214268   2.050   6.706   4.170
 4457SOL     OW14269   0.646   2.208   4.956
 4457SOL    HW114270   0.704   2.173   5.030
 4457SOL    HW214271   0.632   2.136   4.888
 4458SOL     OW14272   1.999   3.772   0.430
 4458SOL    HW114273   1.943   3.743   0.353
 4458SOL    HW214274   2.095   3.763   0.407
 4459SOL     OW14275   1.199   2.428   3.659
 4459SOL    HW114276   1.199   2.524   3.631
 4459SOL    HW214277   1.290   2.402   3.692
 4460SOL     OW14278   0.141   3.341   4.093
 4460SOL    HW114279   0.084   3.422   4.077
 4460SOL    HW214280   0.083   3.260   4.104
 4461SOL     OW14281   2.534   0.861   1.346
 4461SOL    HW114282   2.612   0.799   1.359
 4461SOL    HW214283   2.511   0.866   1.249
 4462SOL     OW14284   5.773   4.865   2.540
 4462SOL    HW114285   5.858   4.817   2.563
 4462SOL    HW214286   5.710   4.800   2.498
 4463SOL     OW14287   5.977   2.078   0.732
 4463SOL    HW114288   6.007   2.142   0.661
 4463SOL    HW214289   5.883   2.048   0.712
 4464SOL     OW14290   0.461   5.822   0.027
 4464SOL    HW114291   0.518   5.859   6.972
 4464SOL    HW214292   0.419   5.737   7.015
 4465SOL     OW14293   1.891   5.924   0.860
 4465SOL    HW114294   1.849   5.945   0.772
 4465SOL    HW214295   1.853   5.983   0.931
 4466SOL     OW14296   1.848   1.834   3.304
 4466SOL    HW114297   1.785   1.896   3.258
 4466SOL    HW214298   1.879   1.764   3.241
 4467SOL     OW14299   3.436   5.994   3.402
 4467SOL    HW114300   3.446   5.927   3.328
 4467SOL    HW214301   3.416   6.084   3.363
 4468SOL     OW14302   1.179   3.443   1.758
 4468SOL    HW114303   1.100   3.388   1.733
 4468SOL    HW214304   1.263   3.392   1.740
 4469SOL     OW14305   2.910   6.421   0.873
 4469SOL    HW114306   2.905   6.339   0.816
 4469SOL    HW214307   2.955   6.399   0.960
 4470SOL     OW14308   1.212   0.529   2.352
 4470SOL    HW114309   1.242   0.435   2.364
 4470SOL    HW214310   1.117   0.531   2.322
 4471SOL     OW14311   1.508   1.486   6.159
 4471SOL    HW114312   1.460   1.574   6.166
 4471SOL    HW214313   1.460   1.417   6.214
 4472SOL     OW14314   1.507   2.895   1.086
 4472SOL    HW114315   1.514   2.813   1.030
 4472SOL    HW214316   1.592   2.909   1.136
 4473SOL     OW14317   0.252   3.528   4.703
 4473SOL    HW114318   0.237   3.626   4.693
 4473SOL    HW214319   0.237   3.482   4.616
 4474SOL     OW14320   2.950   6.602   1.190
 4474SOL    HW114321   2.988   6.515   1.159
 4474SOL    HW214322   2.857   6.587   1.225
 4475SOL     OW14323   0.721   3.935   1.447
 4475SOL    HW114324   0.716   3.968   1.541
 4475SOL    HW214325   0.810   3.893   1.431
 4476SOL     OW14326   4.614   1.481   3.853
 4476SOL    HW114327   4.712   1.485   3.835
 4476SOL    HW214328   4.595   1.403   3.913
 4477SOL     OW14329   2.244   0.623   5.956
 4477SOL    HW114330   2.233   0.721   5.940
 4477SOL    HW214331   2.202   0.572   5.881
 4478SOL     OW14332   1.652   0.748   0.220
 4478SOL    HW114333   1.677   0.717   0.128
 4478SOL    HW214334   1.566   0.799   0.216
 4479SOL     OW14335   1.556   2.997   0.682
 4479SOL    HW114336   1.555   2.899   0.662
 4479SOL    HW214337   1.462   3.033   0.677
 4480SOL     OW14338   0.532   5.682   4.099
 4480SOL    HW114339   0.480   5.626   4.164
 4480SOL    HW214340   0.618   5.636   4.077
 4481SOL     OW14341   2.748   4.298   6.197
 4481SOL    HW114342   2.722   4.202   6.211
 4481SOL    HW214343   2.737   4.322   6.101
 4482SOL     OW14344   2.831   5.787   6.750
 4482SOL    HW114345   2.862   5.868   6.700
 4482SOL    HW214346   2.879   5.706   6.716
 4483SOL     OW14347   0.505   3.363   1.448
 4483SOL    HW114348   0.407   3.341   1.443
 4483SOL    HW214349   0.540   3.337   1.538
 4484SOL     OW14350   2.543   2.793   6.827
 4484SOL    HW114351   2.560   2.792   6.926
 4484SOL    HW214352   2.476   2.864   6.806
 4485SOL     OW14353   5.436   2.806   4.997
 4485SOL    HW114354   5.395   2.717   4.974
 4485SOL    HW214355   5.476   2.846   4.914
 4486SOL     OW14356   4.442   4.952   5.568
 4486SOL    HW114357   4.535   4.973   5.538
 4486SOL    HW214358   4.382   4.942   5.489
 4487SOL     OW14359   1.409   2.643   0.164
 4487SOL    HW114360   1.344   2.665   0.235
 4487SOL    HW214361   1.470   2.721   0.148
 4488SOL     OW14362   6.966   3.777   4.132
 4488SOL    HW114363   6.989   3.691   4.088
 4488SOL    HW214364   6.986   3.853   4.071
 4489SOL     OW14365   4.174   5.531   5.469
 4489SOL    HW114366   4.226   5.571   5.394
 4489SOL    HW214367   4.236   5.506   5.544
 4490SOL     OW14368   5.054   1.504   1.001
 4490SOL    HW114369   4.996   1.572   0.957
 4490SOL    HW214370   5.128   1.550   1.050
 4491SOL     OW14371   1.164   2.622   3.068
 4491SOL    HW114372   1.132   2.679   3.144
 4491SOL    HW214373   1.135   2.527   3.083
 4492SOL     OW14374   5.553   0.933   1.603
 4492SOL    HW114375   5.618   0.964   1.533
 4492SOL    HW214376   5.598   0.869   1.665
 4493SOL     OW14377   4.424   1.189   4.495
 4493SOL    HW114378   4.378   1.109   4.456
 4493SOL    HW214379   4.426   1.181   4.594
 4494SOL     OW14380   0.419   0.556   0.743
 4494SOL    HW114381   0.484   0.481   0.731
 4494SOL    HW214382   0.406   0.603   0.656
 4495SOL     OW14383   4.822   5.631   1.837
 4495SOL    HW114384   4.868   5.717   1.861
 4495SOL    HW214385   4.838   5.610   1.741
 4496SOL     OW14386   3.655   5.933   6.576
 4496SOL    HW114387   3.565   5.913   6.538
 4496SOL    HW214388   3.678   5.866   6.646
 4497SOL     OW14389   3.979   1.795   6.231
 4497SOL    HW114390   3.898   1.790   6.290
 4497SOL    HW214391   3.950   1.811   6.137
 4498SOL     OW14392   0.689   6.011   5.369
 4498SOL    HW114393   0.777   5.968   5.392
 4498SOL    HW214394   0.666   5.992   5.274
 4499SOL     OW14395   5.797   2.124   2.151
 4499SOL    HW114396   5.805   2.195   2.081
 4499SOL    HW214397   5.880   2.068   2.152
 4500SOL     OW14398   3.347   5.980   6.798
 4500SOL    HW114399   3.273   5.999   6.734
 4500SOL    HW214400   3.413   6.055   6.798
 4501SOL     OW14401   5.060   1.145   2.718
 4501SOL    HW114402   4.978   1.115   2.766
 4501SOL    HW214403   5.141   1.111   2.766
 4502SOL     OW14404   0.503   3.709   0.006
 4502SOL    HW114405   0.410   3.683   0.032
 4502SOL    HW214406   0.506   3.807   7.007
 4503SOL     OW14407   2.657   0.147   2.671
 4503SOL    HW114408   2.670   0.242   2.642
 4503SOL    HW214409   2.578   0.109   2.625
 4504SOL     OW14410   0.255   1.972   3.336
 4504SOL    HW114411   0.220   1.917   3.413
 4504SOL    HW214412   0.336   1.927   3.299
 4505SOL     OW14413   6.348   4.148   3.174
 4505SOL    HW114414   6.324   4.068   3.121
 4505SOL    HW214415   6.448   4.155   3.181
 4506SOL     OW14416   4.626   2.653   4.813
 4506SOL    HW114417   4.577   2.610   4.889
 4506SOL    HW214418   4.690   2.721   4.849
 4507SOL     OW14419   6.266   2.790   3.529
 4507SOL    HW114420   6.328   2.868   3.522
 4507SOL    HW214421   6.177   2.821   3.562
 4508SOL     OW14422   0.418   5.566   0.641
 4508SOL    HW114423   0.516   5.553   0.652
 4508SOL    HW214424   0.372   5.477   0.638
 4509SOL     OW14425   4.864   2.741   2.362
 4509SOL    HW114426   4.956   2.779   2.369
 4509SOL    HW214427   4.827   2.761   2.271
 4510SOL     OW14428   4.327   1.665   4.423
 4510SOL    HW114429   4.403   1.659   4.359
 4510SOL    HW214430   4.324   1.582   4.479
 4511SOL     OW14431   0.612   4.292   0.460
 4511SOL    HW114432   0.675   4.356   0.506
 4511SOL    HW214433   0.563   4.239   0.529
 4512SOL     OW14434   3.170   2.719   6.158
 4512SOL    HW114435   3.133   2.630   6.185
 4512SOL    HW214436   3.254   2.737   6.209
 4513SOL     OW14437   1.109   6.329   0.500
 4513SOL    HW114438   1.189   6.305   0.445
 4513SOL    HW214439   1.116   6.424   0.529
 4514SOL     OW14440   3.316   3.770   6.992
 4514SOL    HW114441   3.353   3.766   6.899
 4514SOL    HW214442   3.227   3.725   6.995
 4515SOL     OW14443   4.362   0.475   5.956
 4515SOL    HW114444   4.461   0.467   5.957
 4515SOL    HW214445   4.335   0.567   5.984
 4516SOL     OW14446   3.804   1.766   4.993
 4516SOL    HW114447   3.896   1.729   4.983
 4516SOL    HW214448   3.801   1.828   5.071
 4517SOL     OW14449   3.702   0.661   5.732
 4517SOL    HW114450   3.707   0.571   5.776
 4517SOL    HW214451   3.621   0.665   5.674
 4518SOL     OW14452   1.558   0.513   1.011
 4518SOL    HW114453   1.653   0.537   0.988
 4518SOL    HW214454   1.559   0.444   1.084
 4519SOL     OW14455   5.086   6.423   6.579
 4519SOL    HW114456   5.108   6.344   6.636
 4519SOL    HW214457   5.167   6.481   6.569
 4520SOL     OW14458   4.831   6.542   4.779
 4520SOL    HW114459   4.923   6.566   4.748
 4520SOL    HW214460   4.825   6.553   4.878
 4521SOL     OW14461   4.307   2.283   4.565
 4521SOL    HW114462   4.362   2.207   4.599
 4521SOL    HW214463   4.321   2.363   4.625
 4522SOL     OW14464   4.995   4.196   3.407
 4522SOL    HW114465   5.039   4.138   3.338
 4522SOL    HW214466   4.920   4.247   3.364
 4523SOL     OW14467   0.282   3.334   6.061
 4523SOL    HW114468   0.344   3.404   6.096
 4523SOL    HW214469   0.335   3.264   6.012
 4524SOL     OW14470   0.832   3.029   2.842
 4524SOL    HW114471   0.878   3.090   2.778
 4524SOL    HW214472   0.866   2.936   2.831
 4525SOL     OW14473   3.123   1.665   5.316
 4525SOL    HW114474   3.185   1.592   5.284
 4525SOL    HW214475   3.176   1.748   5.332
 4526SOL     OW14476   0.325   6.899   5.887
 4526SOL    HW114477   0.314   6.816   5.832
 4526SOL    HW214478   0.338   6.873   5.983
 4527SOL     OW14479   6.525   0.332   2.794
 4527SOL    HW114480   6.504   0.405   2.860
 4527SOL    HW214481   6.570   0.256   2.841
 4528SOL     OW14482   4.129   0.807   5.067
 4528SOL    HW114483   4.176   0.765   4.989
 4528SOL    HW214484   4.140   0.748   5.147
 4529SOL     OW14485   2.612   1.253   4.967
 4529SOL    HW114486   2.709   1.236   4.986
 4529SOL    HW214487   2.565   1.276   5.051
 4530SOL     OW14488   3.454   5.562   5.549
 4530SOL    HW114489   3.502   5.543   5.635
 4530SOL    HW214490   3.459   5.482   5.489
 4531SOL     OW14491   0.992   5.018   5.930
 4531SOL    HW114492   0.919   4.954   5.953
 4531SOL    HW214493   1.077   4.967   5.915
 4532SOL     OW14494   5.861   0.912   2.799
 4532SOL    HW114495   5.784   0.875   2.746
 4532SOL    HW214496   5.931   0.841   2.810
 4533SOL     OW14497   2.998   0.334   2.011
 4533SOL    HW114498   2.899   0.338   2.024
 4533SOL    HW214499   3.033   0.427   1.999
 4534SOL     OW14500   4.558   1.760   3.854
 4534SOL    HW114501   4.575   1.662   3.844
 4534SOL    HW214502   4.462   1.779   3.837
 4535SOL     OW14503   2.603   1.653   1.024
 4535SOL    HW114504   2.562   1.654   0.932
 4535SOL    HW214505   2.701   1.636   1.016
 4536SOL     OW14506   2.727   1.290   5.674
 4536SOL    HW114507   2.713   1.234   5.756
 4536SOL    HW214508   2.751   1.383   5.700
 4537SOL     OW14509   3.677   2.903   3.656
 4537SOL    HW114510   3.639   2.812   3.674
 4537SOL    HW214511   3.602   2.968   3.643
 4538SOL     OW14512   0.069   2.103   0.580
 4538SOL    HW114513   0.133   2.160   0.632
 4538SOL    HW214514   0.041   2.151   0.497
 4539SOL     OW14515   1.663   6.276   5.005
 4539SOL    HW114516   1.596   6.309   4.939
 4539SOL    HW214517   1.664   6.176   5.005
 4540SOL     OW14518   0.602   0.652   6.845
 4540SOL    HW114519   0.626   0.723   6.912
 4540SOL    HW214520   0.681   0.634   6.786
 4541SOL     OW14521   4.500   2.908   5.665
 4541SOL    HW114522   4.578   2.915   5.727
 4541SOL    HW214523   4.530   2.924   5.571
 4542SOL     OW14524   6.353   2.327   1.245
 4542SOL    HW114525   6.304   2.249   1.206
 4542SOL    HW214526   6.371   2.310   1.342
 4543SOL     OW14527   3.538   1.978   0.184
 4543SOL    HW114528   3.598   1.913   0.231
 4543SOL    HW214529   3.443   1.952   0.198
 4544SOL     OW14530   5.412   6.116   0.561
 4544SOL    HW114531   5.457   6.036   0.521
 4544SOL    HW214532   5.476   6.163   0.621
 4545SOL     OW14533   1.940   3.197   5.379
 4545SOL    HW114534   1.999   3.273   5.351
 4545SOL    HW214535   1.976   3.156   5.463
 4546SOL     OW14536   3.190   1.298   6.288
 4546SOL    HW114537   3.117   1.366   6.274
 4546SOL    HW214538   3.247   1.326   6.365
 4547SOL     OW14539   6.642   0.422   0.078
 4547SOL    HW114540   6.705   0.431   0.155
 4547SOL    HW214541   6.656   0.333   0.034
 4548SOL     OW14542   2.264   2.891   2.425
 4548SOL    HW114543   2.338   2.837   2.385
 4548SOL    HW214544   2.264   2.879   2.524
 4549SOL     OW14545   5.961   3.882   3.768
 4549SOL    HW114546   5.874   3.915   3.732
 4549SOL    HW214547   6.018   3.960   3.795
 4550SOL     OW14548   1.291   4.295   3.316
 4550SOL    HW114549   1.244   4.356   3.252
 4550SOL    HW214550   1.226   4.259   3.383
 4551SOL     OW14551   1.018   3.585   4.563
 4551SOL    HW114552   0.990   3.529   4.486
 4551SOL    HW214553   1.016   3.531   4.647
 4552SOL     OW14554   5.830   1.255   1.200
 4552SOL    HW114555   5.862   1.200   1.123
 4552SOL    HW214556   5.896   1.251   1.274
 4553SOL     OW14557   6.262   5.358   6.427
 4553SOL    HW114558   6.352   5.387   6.460
 4553SOL    HW214559   6.249   5.261   6.446
 4554SOL     OW14560   0.003   5.867   2.686
 4554SOL    HW114561   6.965   5.948   2.669
 4554SOL    HW214562   7.007   5.835   2.779
 4555SOL     OW14563   1.102   1.290   6.371
 4555SOL    HW114564   1.065   1.302   6.463
 4555SOL    HW214565   1.051   1.218   6.324
 4556SOL     OW14566   5.777   4.490   6.016
 4556SOL    HW114567   5.857   4.550   6.024
 4556SOL    HW214568   5.801   4.398   6.047
 4557SOL     OW14569   6.319   4.751   2.765
 4557SOL    HW114570   6.393   4.732   2.829
 4557SOL    HW214571   6.278   4.665   2.734
 4558SOL     OW14572   0.291   3.197   5.393
 4558SOL    HW114573   0.278   3.253   5.475
 4558SOL    HW214574   0.262   3.103   5.412
 4559SOL     OW14575   6.960   2.581   2.203
 4559SOL    HW114576   6.987   2.657   2.144
 4559SOL    HW214577   6.861   2.584   2.219
 4560SOL     OW14578   5.756   4.843   2.884
 4560SOL    HW114579   5.856   4.839   2.881
 4560SOL    HW214580   5.724   4.795   2.965
 4561SOL     OW14581   3.900   2.121   4.339
 4561SOL    HW114582   3.870   2.150   4.430
 4561SOL    HW214583   3.820   2.097   4.283
 4562SOL     OW14584   2.864   1.612   1.062
 4562SOL    HW114585   2.863   1.626   1.161
 4562SOL    HW214586   2.951   1.571   1.035
 4563SOL     OW14587   0.493   3.774   1.690
 4563SOL    HW114588   0.444   3.820   1.765
 4563SOL    HW214589   0.545   3.842   1.638
 4564SOL     OW14590   0.446   3.775   2.261
 4564SOL    HW114591   0.397   3.688   2.263
 4564SOL    HW214592   0.536   3.762   2.220
 4565SOL     OW14593   1.970   6.043   6.299
 4565SOL    HW114594   2.013   6.001   6.219
 4565SOL    HW214595   1.977   5.980   6.377
 4566SOL     OW14596   5.815   4.439   2.034
 4566SOL    HW114597   5.742   4.496   2.071
 4566SOL    HW214598   5.798   4.343   2.059
 4567SOL     OW14599   0.321   0.637   6.356
 4567SOL    HW114600   0.290   0.730   6.371
 4567SOL    HW214601   0.376   0.607   6.435
 4568SOL     OW14602   0.955   5.531   3.225
 4568SOL    HW114603   1.001   5.607   3.178
 4568SOL    HW214604   0.944   5.553   3.322
 4569SOL     OW14605   2.542   0.987   3.699
 4569SOL    HW114606   2.475   0.913   3.691
 4569SOL    HW214607   2.548   1.035   3.612
 4570SOL     OW14608   5.416   5.548   2.156
 4570SOL    HW114609   5.421   5.604   2.074
 4570SOL    HW214610   5.429   5.605   2.237
 4571SOL     OW14611   2.943   3.499   6.320
 4571SOL    HW114612   2.982   3.411   6.292
 4571SOL    HW214613   2.930   3.556   6.239
 4572SOL     OW14614   2.795   2.944   1.720
 4572SOL    HW114615   2.826   2.973   1.810
 4572SOL    HW214616   2.838   2.857   1.695
 4573SOL     OW14617   2.055   5.906   1.675
 4573SOL    HW114618   2.017   5.976   1.615
 4573SOL    HW214619   2.113   5.844   1.622
 4574SOL     OW14620   5.924   1.436   0.599
 4574SOL    HW114621   5.962   1.524   0.629
 4574SOL    HW214622   5.981   1.398   0.527
 4575SOL     OW14623   6.917   6.409   4.615
 4575SOL    HW114624   6.849   6.444   4.550
 4575SOL    HW214625   6.881   6.417   4.708
 4576SOL     OW14626   2.778   5.111   4.868
 4576SOL    HW114627   2.840   5.038   4.898
 4576SOL    HW214628   2.684   5.084   4.886
 4577SOL     OW14629   1.861   1.528   2.493
 4577SOL    HW114630   1.831   1.435   2.515
 4577SOL    HW214631   1.945   1.524   2.439
 4578SOL     OW14632   1.074   1.073   2.034
 4578SOL    HW114633   1.116   1.103   1.948
 4578SOL    HW214634   1.130   1.001   2.075
 4579SOL     OW14635   3.832   1.678   2.034
 4579SOL    HW114636   3.906   1.706   2.096
 4579SOL    HW214637   3.765   1.752   2.027
 4580SOL     OW14638   6.777   2.710   0.153
 4580SOL    HW114639   6.843   2.776   0.117
 4580SOL    HW214640   6.748   2.648   0.079
 4581SOL     OW14641   3.317   0.613   1.377
 4581SOL    HW114642   3.358   0.679   1.314
 4581SOL    HW214643   3.317   0.522   1.335
 4582SOL     OW14644   6.271   1.340   3.568
 4582SOL    HW114645   6.331   1.369   3.493
 4582SOL    HW214646   6.194   1.288   3.530
 4583SOL     OW14647   1.690   6.870   6.718
 4583SOL    HW114648   1.613   6.931   6.698
 4583SOL    HW214649   1.754   6.916   6.780
 4584SOL     OW14650   1.575   0.764   5.474
 4584SOL    HW114651   1.643   0.776   5.402
 4584SOL    HW214652   1.531   0.675   5.464
 4585SOL     OW14653   1.433   3.610   3.273
 4585SOL    HW114654   1.490   3.650   3.202
 4585SOL    HW214655   1.405   3.518   3.245
 4586SOL     OW14656   5.600   4.573   6.995
 4586SOL    HW114657   5.675   4.541   6.938
 4586SOL    HW214658   5.516   4.526   6.970
 4587SOL     OW14659   3.214   3.606   4.666
 4587SOL    HW114660   3.126   3.628   4.708
 4587SOL    HW214661   3.206   3.519   4.617
 4588SOL     OW14662   3.002   4.239   5.714
 4588SOL    HW114663   2.941   4.243   5.635
 4588SOL    HW214664   3.002   4.146   5.751
 4589SOL     OW14665   5.474   0.288   2.385
 4589SOL    HW114666   5.495   0.198   2.424
 4589SOL    HW214667   5.503   0.359   2.449
 4590SOL     OW14668   3.533   5.262   1.501
 4590SOL    HW114669   3.496   5.346   1.462
 4590SOL    HW214670   3.517   5.261   1.600
 4591SOL     OW14671   2.099   0.465   5.780
 4591SOL    HW114672   2.005   0.433   5.796
 4591SOL    HW214673   2.163   0.391   5.802
 4592SOL     OW14674   2.240   1.691   3.982
 4592SOL    HW114675   2.280   1.774   4.021
 4592SOL    HW214676   2.141   1.692   3.994
 4593SOL     OW14677   1.682   6.025   4.374
 4593SOL    HW114678   1.723   6.078   4.299
 4593SOL    HW214679   1.697   5.927   4.358
 4594SOL     OW14680   1.944   0.530   2.916
 4594SOL    HW114681   1.846   0.537   2.934
 4594SOL    HW214682   1.990   0.489   2.995
 4595SOL     OW14683   5.072   1.846   6.615
 4595SOL    HW114684   5.103   1.927   6.566
 4595SOL    HW214685   5.046   1.775   6.549
 4596SOL     OW14686   0.505   0.853   2.372
 4596SOL    HW114687   0.501   0.902   2.459
 4596SOL    HW214688   0.494   0.919   2.297
 4597SOL     OW14689   2.708   6.304   6.855
 4597SOL    HW114690   2.736   6.400   6.853
 4597SOL    HW214691   2.641   6.291   6.927
 4598SOL     OW14692   2.133   5.228   0.119
 4598SOL    HW114693   2.192   5.162   0.166
 4598SOL    HW214694   2.052   5.180   0.084
 4599SOL     OW14695   2.577   5.347   3.257
 4599SOL    HW114696   2.596   5.258   3.214
 4599SOL    HW214697   2.478   5.357   3.269
 4600SOL     OW14698   0.002   6.107   6.015
 4600SOL    HW114699   6.935   6.139   5.976
 4600SOL    HW214700   0.068   6.183   6.017
 4601SOL     OW14701   1.576   1.249   5.131
 4601SOL    HW114702   1.500   1.312   5.121
 4601SOL    HW214703   1.628   1.245   5.045
 4602SOL     OW14704   3.256   2.494   6.744
 4602SOL    HW114705   3.162   2.498   6.709
 4602SOL    HW214706   3.262   2.424   6.815
 4603SOL     OW14707   5.363   6.658   1.010
 4603SOL    HW114708   5.391   6.749   0.980
 4603SOL    HW214709   5.434   6.592   0.986
 4604SOL     OW14710   5.338   6.785   5.630
 4604SOL    HW114711   5.375   6.747   5.714
 4604SOL    HW214712   5.303   6.877   5.647
 4605SOL     OW14713   3.285   0.279   2.056
 4605SOL    HW114714   3.189   0.299   2.034
 4605SOL    HW214715   3.329   0.361   2.091
 4606SOL     OW14716   6.801   6.716   4.268
 4606SOL    HW114717   6.768   6.783   4.202
 4606SOL    HW214718   6.727   6.691   4.331
 4607SOL     OW14719   1.870   2.667   1.860
 4607SOL    HW114720   1.847   2.588   1.804
 4607SOL    HW214721   1.812   2.744   1.834
 4608SOL     OW14722   0.177   3.521   4.421
 4608SOL    HW114723   0.194   3.600   4.480
 4608SOL    HW214724   0.262   3.494   4.376
 4609SOL     OW14725   4.950   6.454   0.060
 4609SOL    HW114726   4.887   6.511   0.112
 4609SOL    HW214727   4.957   6.364   0.102
 4610SOL     OW14728   5.236   2.974   0.216
 4610SOL    HW114729   5.174   2.924   0.156
 4610SOL    HW214730   5.305   2.912   0.253
 4611SOL     OW14731   1.264   0.601   6.249
 4611SOL    HW114732   1.164   0.593   6.240
 4611SOL    HW214733   1.288   0.617   6.345
 4612SOL     OW14734   1.921   0.148   1.487
 4612SOL    HW114735   1.956   0.204   1.411
 4612SOL    HW214736   1.939   0.195   1.573
 4613SOL     OW14737   1.662   4.700   1.633
 4613SOL    HW114738   1.580   4.679   1.687
 4613SOL    HW214739   1.650   4.666   1.540
 4614SOL     OW14740   6.647   3.936   4.421
 4614SOL    HW114741   6.687   4.018   4.462
 4614SOL    HW214742   6.625   3.954   4.325
 4615SOL     OW14743   0.786   2.130   0.372
 4615SOL    HW114744   0.793   2.151   0.274
 4615SOL    HW214745   0.693   2.100   0.394
 4616SOL     OW14746   6.145   2.838   5.399
 4616SOL    HW114747   6.122   2.847   5.496
 4616SOL    HW214748   6.231   2.789   5.388
 4617SOL     OW14749   0.388   2.589   2.864
 4617SOL    HW114750   0.323   2.648   2.913
 4617SOL    HW214751   0.339   2.540   2.792
 4618SOL     OW14752   1.853   4.644   5.644
 4618SOL    HW114753   1.883   4.554   5.675
 4618SOL    HW214754   1.769   4.670   5.692
 4619SOL     OW14755   4.017   6.448   5.262
 4619SOL    HW114756   3.924   6.412   5.269
 4619SOL    HW214757   4.077   6.379   5.221
 4620SOL     OW14758   1.250   5.175   2.566
 4620SOL    HW114759   1.243   5.231   2.483
 4620SOL    HW214760   1.169   5.117   2.574
 4621SOL     OW14761   4.723   0.658   2.468
 4621SOL    HW114762   4.752   0.713   2.547
 4621SOL    HW214763   4.715   0.717   2.388
 4622SOL     OW14764   4.779   5.820   1.411
 4622SOL    HW114765   4.721   5.763   1.352
 4622SOL    HW214766   4.820   5.763   1.482
 4623SOL     OW14767   2.886   5.184   1.309
 4623SOL    HW114768   2.938   5.142   1.234
 4623SOL    HW214769   2.825   5.116   1.349
 4624SOL     OW14770   4.240   1.176   2.147
 4624SOL    HW114771   4.177   1.251   2.167
 4624SOL    HW214772   4.194   1.109   2.088
 4625SOL     OW14773   1.681   5.601   1.236
 4625SOL    HW114774   1.615   5.546   1.183
 4625SOL    HW214775   1.741   5.540   1.288
 4626SOL     OW14776   4.070   3.819   2.110
 4626SOL    HW114777   4.166   3.835   2.130
 4626SOL    HW214778   4.038   3.739   2.161
 4627SOL     OW14779   5.943   6.595   5.003
 4627SOL    HW114780   5.872   6.648   4.957
 4627SOL    HW214781   5.997   6.655   5.062
 4628SOL     OW14782   5.839   5.046   3.926
 4628SOL    HW114783   5.863   5.087   3.838
 4628SOL    HW214784   5.799   4.956   3.911
 4629SOL     OW14785   2.740   6.577   6.849
 4629SOL    HW114786   2.834   6.611   6.849
 4629SOL    HW214787   2.679   6.647   6.885
 4630SOL     OW14788   1.602   3.458   1.987
 4630SOL    HW114789   1.566   3.367   1.966
 4630SOL    HW214790   1.699   3.450   2.013
 4631SOL     OW14791   0.513   0.545   3.486
 4631SOL    HW114792   0.498   0.558   3.388
 4631SOL    HW214793   0.443   0.485   3.523
 4632SOL     OW14794   3.159   4.907   2.585
 4632SOL    HW114795   3.201   4.902   2.675
 4632SOL    HW214796   3.216   4.961   2.524
 4633SOL     OW14797   5.085   1.178   4.324
 4633SOL    HW114798   5.053   1.272   4.327
 4633SOL    HW214799   5.137   1.158   4.407
 4634SOL     OW14800   2.962   3.642   4.758
 4634SOL    HW114801   2.902   3.690   4.822
 4634SOL    HW214802   2.932   3.547   4.750
 4635SOL     OW14803   5.086   5.964   0.852
 4635SOL    HW114804   5.113   5.976   0.756
 4635SOL    HW214805   4.993   5.999   0.865
 4636SOL     OW14806   1.931   5.522   0.746
 4636SOL    HW114807   1.844   5.534   0.793
 4636SOL    HW214808   1.956   5.608   0.700
 4637SOL     OW14809   2.795   0.858   2.576
 4637SOL    HW114810   2.736   0.858   2.657
 4637SOL    HW214811   2.827   0.765   2.559
 4638SOL     OW14812   3.094   4.706   6.772
 4638SOL    HW114813   3.166   4.638   6.760
 4638SOL    HW214814   3.134   4.797   6.770
 4639SOL     OW14815   2.398   2.422   1.609
 4639SOL    HW114816   2.473   2.468   1.656
 4639SOL    HW214817   2.312   2.442   1.656
 4640SOL     OW14818   6.732   2.731   6.271
 4640SOL    HW114819   6.826   2.716   6.239
 4640SOL    HW214820   6.699   2.647   6.315
 4641SOL     OW14821   0.823   5.657   4.311
 4641SOL    HW114822   0.866   5.591   4.249
 4641SOL    HW214823   0.745   5.615   4.357
 4642SOL     OW14824   0.544   1.406   3.312
 4642SOL    HW114825   0.470   1.412   3.379
 4642SOL    HW214826   0.507   1.379   3.223
 4643SOL     OW14827   0.411   1.691   0.048
 4643SOL    HW114828   0.390   1.595   0.028
 4643SOL    HW214829   0.325   1.742   0.061
 4644SOL     OW14830   1.189   1.193   0.575
 4644SOL    HW114831   1.270   1.229   0.622
 4644SOL    HW214832   1.218   1.143   0.493
 4645SOL     OW14833   1.139   1.812   3.842
 4645SOL    HW114834   1.184   1.853   3.762
 4645SOL    HW214835   1.162   1.865   3.924
 4646SOL     OW14836   1.928   4.732   3.723
 4646SOL    HW114837   1.921   4.811   3.661
 4646SOL    HW214838   1.981   4.660   3.680
 4647SOL     OW14839   1.273   6.692   2.840
 4647SOL    HW114840   1.325   6.607   2.846
 4647SOL    HW214841   1.192   6.687   2.898
 4648SOL     OW14842   2.744   1.683   4.502
 4648SOL    HW114843   2.709   1.594   4.530
 4648SOL    HW214844   2.669   1.750   4.504
 4649SOL     OW14845   5.624   0.265   0.440
 4649SOL    HW114846   5.601   0.359   0.417
 4649SOL    HW214847   5.542   0.216   0.469
 4650SOL     OW14848   5.398   6.070   1.428
 4650SOL    HW114849   5.368   6.138   1.495
 4650SOL    HW214850   5.476   6.106   1.377
 4651SOL     OW14851   5.963   3.256   6.266
 4651SOL    HW114852   5.934   3.305   6.349
 4651SOL    HW214853   5.969   3.158   6.286
 4652SOL     OW14854   0.341   6.257   4.102
 4652SOL    HW114855   0.302   6.220   4.186
 4652SOL    HW214856   0.284   6.333   4.069
 4653SOL     OW14857   5.324   5.312   0.743
 4653SOL    HW114858   5.386   5.368   0.688
 4653SOL    HW214859   5.368   5.291   0.830
 4654SOL     OW14860   0.063   6.859   5.253
 4654SOL    HW114861   0.104   6.863   5.344
 4654SOL    HW214862   0.136   6.855   5.184
 4655SOL     OW14863   4.514   2.572   1.005
 4655SOL    HW114864   4.439   2.521   0.964
 4655SOL    HW214865   4.564   2.621   0.933
 4656SOL     OW14866   0.858   1.450   1.484
 4656SOL    HW114867   0.810   1.372   1.445
 4656SOL    HW214868   0.857   1.526   1.419
 4657SOL     OW14869   5.615   6.820   2.200
 4657SOL    HW114870   5.542   6.773   2.249
 4657SOL    HW214871   5.580   6.906   2.162
 4658SOL     OW14872   2.103   2.671   6.261
 4658SOL    HW114873   2.140   2.678   6.169
 4658SOL    HW214874   2.003   2.668   6.256
 4659SOL     OW14875   3.129   4.805   0.451
 4659SOL    HW114876   3.092   4.831   0.540
 4659SOL    HW214877   3.055   4.769   0.394
 4660SOL     OW14878   1.457   6.292   4.059
 4660SOL    HW114879   1.398   6.369   4.039
 4660SOL    HW214880   1.538   6.323   4.109
 4661SOL     OW14881   0.868   2.776   5.601
 4661SOL    HW114882   0.770   2.756   5.607
 4661SOL    HW214883   0.881   2.874   5.593
 4662SOL     OW14884   2.551   6.234   4.926
 4662SOL    HW114885   2.643   6.225   4.888
 4662SOL    HW214886   2.550   6.198   5.019
 4663SOL     OW14887   1.573   6.844   0.242
 4663SOL    HW114888   1.594   6.941   0.226
 4663SOL    HW214889   1.591   6.822   0.337
 4664SOL     OW14890   6.540   6.357   6.928
 4664SOL    HW114891   6.555   6.454   6.910
 4664SOL    HW214892   6.609   6.325   6.994
 4665SOL     OW14893   2.228   0.248   4.348
 4665SOL    HW114894   2.221   0.250   4.448
 4665SOL    HW214895   2.223   0.342   4.313
 4666SOL     OW14896   2.068   1.765   5.413
 4666SOL    HW114897   2.007   1.843   5.402
 4666SOL    HW214898   2.133   1.783   5.487
 4667SOL     OW14899   6.319   3.502   1.329
 4667SOL    HW114900   6.329   3.419   1.383
 4667SOL    HW214901   6.319   3.479   1.232
 4668SOL     OW14902   4.146   2.083   4.516
 4668SOL    HW114903   4.210   2.155   4.543
 4668SOL    HW214904   4.077   2.122   4.455
 4669SOL     OW14905   5.605   6.681   6.827
 4669SOL    HW114906   5.513   6.687   6.865
 4669SOL    HW214907   5.601   6.686   6.728
 4670SOL     OW14908   1.018   2.891   0.574
 4670SOL    HW114909   1.097   2.936   0.531
 4670SOL    HW214910   0.989   2.945   0.653
 4671SOL     OW14911   0.362   3.753   0.388
 4671SOL    HW114912   0.397   3.842   0.358
 4671SOL    HW214913   0.301   3.766   0.467
 4672SOL     OW14914   3.035   4.315   6.188
 4672SOL    HW114915   3.008   4.332   6.093
 4672SOL    HW214916   2.961   4.344   6.249
 4673SOL     OW14917   5.897   0.178   6.753
 4673SOL    HW114918   5.848   0.103   6.798
 4673SOL    HW214919   5.971   0.210   6.812
 4674SOL     OW14920   1.230   1.922   0.657
 4674SOL    HW114921   1.244   1.829   0.624
 4674SOL    HW214922   1.306   1.948   0.716
 4675SOL     OW14923   2.720   6.585   0.201
 4675SOL    HW114924   2.807   6.555   0.163
 4675SOL    HW214925   2.728   6.594   0.300
 4676SOL     OW14926   0.600   6.005   3.765
 4676SOL    HW114927   0.595   6.073   3.838
 4676SOL    HW214928   0.537   6.029   3.692
 4677SOL     OW14929   4.452   0.414   6.437
 4677SOL    HW114930   4.498   0.459   6.513
 4677SOL    HW214931   4.365   0.377   6.468
 4678SOL     OW14932   2.119   4.577   0.150
 4678SOL    HW114933   2.167   4.524   0.221
 4678SOL    HW214934   2.074   4.514   0.087
 4679SOL     OW14935   3.289   0.956   5.981
 4679SOL    HW114936   3.241   0.918   5.902
 4679SOL    HW214937   3.383   0.980   5.955
 4680SOL     OW14938   1.877   4.554   0.483
 4680SOL    HW114939   1.923   4.630   0.529
 4680SOL    HW214940   1.943   4.481   0.465
 4681SOL     OW14941   0.277   5.614   5.279
 4681SOL    HW114942   0.263   5.667   5.195
 4681SOL    HW214943   0.307   5.675   5.352
 4682SOL     OW14944   4.311   6.322   0.797
 4682SOL    HW114945   4.361   6.392   0.848
 4682SOL    HW214946   4.287   6.247   0.859
 4683SOL     OW14947   6.045   4.415   2.884
 4683SOL    HW114948   6.124   4.371   2.927
 4683SOL    HW214949   5.981   4.445   2.955
 4684SOL     OW14950   1.334   1.629   4.659
 4684SOL    HW114951   1.384   1.673   4.585
 4684SOL    HW214952   1.351   1.530   4.656
 4685SOL     OW14953   5.448   5.155   4.594
 4685SOL    HW114954   5.450   5.055   4.587
 4685SOL    HW214955   5.393   5.181   4.674
 4686SOL     OW14956   4.401   6.154   6.694
 4686SOL    HW114957   4.391   6.133   6.792
 4686SOL    HW214958   4.394   6.253   6.681
 4687SOL     OW14959   6.568   5.854   4.535
 4687SOL    HW114960   6.556   5.755   4.533
 4687SOL    HW214961   6.524   5.891   4.616
 4688SOL     OW14962   0.467   2.685   6.526
 4688SOL    HW114963   0.498   2.615   6.589
 4688SOL    HW214964   0.404   2.747   6.574
 4689SOL     OW14965   0.628   6.304   5.311
 4689SOL    HW114966   0.612   6.217   5.264
 4689SOL    HW214967   0.593   6.379   5.255
 4690SOL     OW14968   1.584   1.889   6.790
 4690SOL    HW114969   1.622   1.849   6.874
 4690SOL    HW214970   1.556   1.983   6.807
 4691SOL     OW14971   2.265   5.272   0.660
 4691SOL    HW114972   2.212   5.302   0.581
 4691SOL    HW214973   2.211   5.206   0.713
 4692SOL     OW14974   0.299   5.227   3.296
 4692SOL    HW114975   0.230   5.268   3.356
 4692SOL    HW214976   0.319   5.135   3.328
 4693SOL     OW14977   0.515   1.141   4.026
 4693SOL    HW114978   0.442   1.208   4.040
 4693SOL    HW214979   0.545   1.105   4.115
 4694SOL     OW14980   1.701   1.634   6.687
 4694SOL    HW114981   1.654   1.711   6.730
 4694SOL    HW214982   1.784   1.613   6.738
 4695SOL     OW14983   3.315   3.218   1.923
 4695SOL    HW114984   3.412   3.206   1.900
 4695SOL    HW214985   3.305   3.297   1.983
 4696SOL     OW14986   6.974   3.019   6.349
 4696SOL    HW114987   6.986   3.002   6.447
 4696SOL    HW214988   7.005   3.112   6.328
 4697SOL     OW14989   1.007   5.171   0.062
 4697SOL    HW114990   1.075   5.215   0.121
 4697SOL    HW214991   1.053   5.127   7.004
 4698SOL     OW14992   5.557   3.545   0.854
 4698SOL    HW114993   5.568   3.510   0.761
 4698SOL    HW214994   5.640   3.592   0.883
 4699SOL     OW14995   0.069   0.048   2.656
 4699SOL    HW114996   0.167   0.029   2.656
 4699SOL    HW214997   0.052   0.135   2.703
 4700SOL     OW14998   5.018   1.285   0.844
 4700SOL    HW114999   5.035   1.365   0.902
 4700SOL    HW215000   4.971   1.214   0.898
 4701SOL     OW15001   0.428   0.944   0.789
 4701SOL    HW115002   0.420   0.995   0.703
 4701SOL    HW215003   0.524   0.929   0.809
 4702SOL     OW15004   3.496   3.878   0.363
 4702SOL    HW115005   3.488   3.810   0.435
 4702SOL    HW215006   3.542   3.837   0.284
 4703SOL     OW15007   2.071   0.692   2.431
 4703SOL    HW115008   2.031   0.698   2.523
 4703SOL    HW215009   2.078   0.783   2.392
 4704SOL     OW15010   5.914   6.570   1.045
 4704SOL    HW115011   5.888   6.480   1.011
 4704SOL    HW215012   5.847   6.638   1.014
 4705SOL     OW15013   3.047   3.920   4.098
 4705SOL    HW115014   3.081   3.953   4.010
 4705SOL    HW215015   3.074   3.983   4.170
 4706SOL     OW15016   4.018   5.931   0.004
 4706SOL    HW115017   4.023   5.985   6.940
 4706SOL    HW215018   4.092   5.864   0.005
 4707SOL     OW15019   2.142   5.791   0.833
 4707SOL    HW115020   2.072   5.863   0.838
 4707SOL    HW215021   2.103   5.705   0.865
 4708SOL     OW15022   2.374   2.280   2.035
 4708SOL    HW115023   2.398   2.267   2.131
 4708SOL    HW215024   2.419   2.210   1.980
 4709SOL     OW15025   4.154   4.977   5.742
 4709SOL    HW115026   4.247   5.013   5.745
 4709SOL    HW215027   4.098   5.021   5.812
 4710SOL     OW15028   4.310   1.377   0.051
 4710SOL    HW115029   4.264   1.294   0.084
 4710SOL    HW215030   4.244   1.452   0.046
 4711SOL     OW15031   3.343   0.490   2.780
 4711SOL    HW115032   3.361   0.464   2.685
 4711SOL    HW215033   3.374   0.584   2.795
 4712SOL     OW15034   2.003   4.709   0.777
 4712SOL    HW115035   2.012   4.748   0.685
 4712SOL    HW215036   2.079   4.737   0.834
 4713SOL     OW15037   1.708   5.176   0.722
 4713SOL    HW115038   1.636   5.226   0.770
 4713SOL    HW215039   1.677   5.083   0.702
 4714SOL     OW15040   2.974   2.214   1.295
 4714SOL    HW115041   3.064   2.241   1.262
 4714SOL    HW215042   2.952   2.267   1.377
 4715SOL     OW15043   0.032   2.979   3.616
 4715SOL    HW115044   0.126   2.999   3.643
 4715SOL    HW215045   7.013   2.908   3.675
 4716SOL     OW15046   3.037   5.714   0.307
 4716SOL    HW115047   3.007   5.622   0.283
 4716SOL    HW215048   2.963   5.763   0.353
 4717SOL     OW15049   1.328   6.052   3.431
 4717SOL    HW115050   1.386   6.107   3.370
 4717SOL    HW215051   1.282   5.981   3.378
 4718SOL     OW15052   5.921   1.111   6.239
 4718SOL    HW115053   5.933   1.027   6.186
 4718SOL    HW215054   5.836   1.156   6.212
 4719SOL     OW15055   4.223   3.386   0.906
 4719SOL    HW115056   4.303   3.423   0.951
 4719SOL    HW215057   4.180   3.457   0.849
 4720SOL     OW15058   2.252   0.754   5.509
 4720SOL    HW115059   2.282   0.668   5.467
 4720SOL    HW215060   2.157   0.772   5.483
 4721SOL     OW15061   1.594   2.022   1.496
 4721SOL    HW115062   1.538   1.939   1.505
 4721SOL    HW215063   1.654   2.031   1.575
 4722SOL     OW15064   2.365   0.404   0.907
 4722SOL    HW115065   2.321   0.362   0.828
 4722SOL    HW215066   2.464   0.404   0.893
 4723SOL     OW15067   2.392   6.862   6.737
 4723SOL    HW115068   2.424   6.878   6.643
 4723SOL    HW215069   2.394   6.764   6.757
 4724SOL     OW15070   3.750   6.420   2.010
 4724SOL    HW115071   3.747   6.430   1.910
 4724SOL    HW215072   3.844   6.398   2.038
 4725SOL     OW15073   4.872   6.503   3.183
 4725SOL    HW115074   4.831   6.593   3.198
 4725SOL    HW215075   4.832   6.437   3.245
 4726SOL     OW15076   0.492   4.830   6.197
 4726SOL    HW115077   0.418   4.769   6.224
 4726SOL    HW215078   0.554   4.843   6.275
 4727SOL     OW15079   0.113   5.669   0.097
 4727SOL    HW115080   0.015   5.690   0.097
 4727SOL    HW215081   0.159   5.726   0.029
 4728SOL     OW15082   0.244   0.963   0.055
 4728SOL    HW115083   0.191   0.934   0.135
 4728SOL    HW215084   0.196   0.937   6.991
 4729SOL     OW15085   3.176   0.655   1.672
 4729SOL    HW115086   3.153   0.588   1.601
 4729SOL    HW215087   3.156   0.747   1.639
 4730SOL     OW15088   1.823   6.982   5.652
 4730SOL    HW115089   1.879   0.045   5.660
 4730SOL    HW215090   1.877   6.908   5.612
 4731SOL     OW15091   5.399   1.614   5.003
 4731SOL    HW115092   5.449   1.532   4.974
 4731SOL    HW215093   5.456   1.695   4.985
 4732SOL     OW15094   0.076   2.668   6.906
 4732SOL    HW115095   0.158   2.721   6.930
 4732SOL    HW215096   0.051   2.609   6.983
 4733SOL     OW15097   6.962   3.924   2.894
 4733SOL    HW115098   6.891   3.882   2.951
 4733SOL    HW215099   0.033   3.901   2.931
 4734SOL     OW15100   4.138   4.372   6.561
 4734SOL    HW115101   4.111   4.414   6.647
 4734SOL    HW215102   4.062   4.319   6.524
 4735SOL     OW15103   1.472   4.630   3.728
 4735SOL    HW115104   1.420   4.605   3.810
 4735SOL    HW215105   1.444   4.571   3.652
 4736SOL     OW15106   1.036   0.671   0.342
 4736SOL    HW115107   0.960   0.623   0.387
 4736SOL    HW215108   1.088   0.722   0.411
 4737SOL     OW15109   2.071   5.293   1.777
 4737SOL    HW115110   2.021   5.375   1.808
 4737SOL    HW215111   2.011   5.213   1.783
 4738SOL     OW15112   6.874   6.085   2.633
 4738SOL    HW115113   6.791   6.141   2.637
 4738SOL    HW215114   6.947   6.138   2.589
 4739SOL     OW15115   4.528   0.985   1.232
 4739SOL    HW115116   4.506   0.999   1.328
 4739SOL    HW215117   4.474   0.909   1.196
 4740SOL     OW15118   1.048   1.357   2.966
 4740SOL    HW115119   1.091   1.301   3.037
 4740SOL    HW215120   1.096   1.445   2.960
 4741SOL     OW15121   4.271   3.838   1.318
 4741SOL    HW115122   4.367   3.866   1.304
 4741SOL    HW215123   4.230   3.896   1.389
 4742SOL     OW15124   3.280   7.012   0.901
 4742SOL    HW115125   3.181   6.999   0.898
 4742SOL    HW215126   3.314   6.988   0.992
 4743SOL     OW15127   2.441   4.998   1.434
 4743SOL    HW115128   2.371   5.068   1.419
 4743SOL    HW215129   2.472   5.002   1.529
 4744SOL     OW15130   1.980   6.421   0.561
 4744SOL    HW115131   1.976   6.516   0.592
 4744SOL    HW215132   1.901   6.371   0.597
 4745SOL     OW15133   1.224   4.541   0.444
 4745SOL    HW115134   1.266   4.600   0.374
 4745SOL    HW215135   1.296   4.502   0.502
 4746SOL     OW15136   4.909   5.522   4.429
 4746SOL    HW115137   4.842   5.582   4.472
 4746SOL    HW215138   4.866   5.435   4.405
 4747SOL     OW15139   1.610   2.179   1.276
 4747SOL    HW115140   1.634   2.263   1.324
 4747SOL    HW215141   1.600   2.104   1.342
 4748SOL     OW15142   1.259   6.679   3.212
 4748SOL    HW115143   1.340   6.738   3.208
 4748SOL    HW215144   1.178   6.731   3.185
 4749SOL     OW15145   2.082   0.486   6.909
 4749SOL    HW115146   2.114   0.432   6.831
 4749SOL    HW215147   2.008   0.546   6.880
 4750SOL     OW15148   5.177   3.194   5.536
 4750SOL    HW115149   5.170   3.222   5.441
 4750SOL    HW215150   5.150   3.098   5.545
 4751SOL     OW15151   4.419   0.468   3.357
 4751SOL    HW115152   4.386   0.560   3.335
 4751SOL    HW215153   4.516   0.472   3.381
 4752SOL     OW15154   4.519   1.637   0.321
 4752SOL    HW115155   4.492   1.687   0.404
 4752SOL    HW215156   4.489   1.688   0.241
 4753SOL     OW15157   3.433   5.622   5.134
 4753SOL    HW115158   3.450   5.671   5.220
 4753SOL    HW215159   3.505   5.555   5.119
 4754SOL     OW15160   4.951   4.566   6.116
 4754SOL    HW115161   4.881   4.625   6.157
 4754SOL    HW215162   4.990   4.507   6.186
 4755SOL     OW15163   1.832   0.887   1.470
 4755SOL    HW115164   1.807   0.978   1.503
 4755SOL    HW215165   1.802   0.818   1.536
 4756SOL     OW15166   6.306   4.124   6.678
 4756SOL    HW115167   6.396   4.151   6.646
 4756SOL    HW215168   6.296   4.024   6.673
 4757SOL     OW15169   1.973   3.940   1.761
 4757SOL    HW115170   2.041   3.925   1.832
 4757SOL    HW215171   1.889   3.977   1.802
 4758SOL     OW15172   2.504   6.476   3.346
 4758SOL    HW115173   2.562   6.422   3.285
 4758SOL    HW215174   2.408   6.457   3.325
 4759SOL     OW15175   1.163   4.912   1.212
 4759SOL    HW115176   1.156   5.005   1.175
 4759SOL    HW215177   1.246   4.869   1.179
 4760SOL     OW15178   2.059   5.965   1.252
 4760SOL    HW115179   1.969   6.009   1.254
 4760SOL    HW215180   2.130   6.034   1.241
 4761SOL     OW15181   6.788   6.423   1.296
 4761SOL    HW115182   6.819   6.367   1.372
 4761SOL    HW215183   6.858   6.427   1.226
 4762SOL     OW15184   2.082   6.861   2.056
 4762SOL    HW115185   2.039   6.832   1.970
 4762SOL    HW215186   2.163   6.916   2.037
 4763SOL     OW15187   5.392   4.639   1.731
 4763SOL    HW115188   5.473   4.589   1.760
 4763SOL    HW215189   5.415   4.698   1.653
 4764SOL     OW15190   4.329   3.505   6.415
 4764SOL    HW115191   4.387   3.520   6.335
 4764SOL    HW215192   4.358   3.566   6.489
 4765SOL     OW15193   3.164   1.627   4.347
 4765SOL    HW115194   3.181   1.665   4.256
 4765SOL    HW215195   3.126   1.699   4.406
 4766SOL     OW15196   0.785   0.358   4.215
 4766SOL    HW115197   0.768   0.293   4.289
 4766SOL    HW215198   0.717   0.345   4.143
 4767SOL     OW15199   1.856   4.284   4.416
 4767SOL    HW115200   1.919   4.207   4.427
 4767SOL    HW215201   1.888   4.361   4.471
 4768SOL     OW15202   3.808   2.399   7.003
 4768SOL    HW115203   3.825   2.308   6.965
 4768SOL    HW215204   3.871   2.417   0.059
 4769SOL     OW15205   2.773   5.218   1.009
 4769SOL    HW115206   2.715   5.259   0.938
 4769SOL    HW215207   2.748   5.256   1.098
 4770SOL     OW15208   0.223   1.167   5.996
 4770SOL    HW115209   0.130   1.200   6.015
 4770SOL    HW215210   0.274   1.238   5.948
 4771SOL     OW15211   2.313   6.712   5.119
 4771SOL    HW115212   2.380   6.638   5.111
 4771SOL    HW215213   2.253   6.711   5.040
 4772SOL     OW15214   2.692   5.775   2.094
 4772SOL    HW115215   2.755   5.842   2.132
 4772SOL    HW215216   2.651   5.721   2.167
 4773SOL     OW15217   2.164   4.997   5.048
 4773SOL    HW115218   2.194   4.943   4.969
 4773SOL    HW215219   2.172   4.942   5.131
 4774SOL     OW15220   1.862   3.773   6.908
 4774SOL    HW115221   1.763   3.791   6.906
 4774SOL    HW215222   1.883   3.693   6.853
 4775SOL     OW15223   6.340   6.254   5.372
 4775SOL    HW115224   6.263   6.292   5.422
 4775SOL    HW215225   6.403   6.327   5.345
 4776SOL     OW15226   0.739   1.076   6.387
 4776SOL    HW115227   0.717   0.981   6.406
 4776SOL    HW215228   0.660   1.121   6.345
 4777SOL     OW15229   0.791   6.734   1.780
 4777SOL    HW115230   0.883   6.729   1.739
 4777SOL    HW215231   0.796   6.702   1.875
 4778SOL     OW15232   1.681   2.480   5.831
 4778SOL    HW115233   1.706   2.576   5.834
 4778SOL    HW215234   1.622   2.463   5.752
 4779SOL     OW15235   5.167   1.018   3.798
 4779SOL    HW115236   5.085   0.992   3.848
 4779SOL    HW215237   5.238   1.046   3.862
 4780SOL     OW15238   6.268   2.804   4.822
 4780SOL    HW115239   6.174   2.824   4.796
 4780SOL    HW215240   6.270   2.759   4.911
 4781SOL     OW15241   2.401   6.145   2.659
 4781SOL    HW115242   2.419   6.140   2.757
 4781SOL    HW215243   2.436   6.063   2.614
 4782SOL     OW15244   0.020   6.565   4.214
 4782SOL    HW115245   7.001   6.474   4.199
 4782SOL    HW215246   6.967   6.628   4.245
 4783SOL     OW15247   6.566   3.474   0.722
 4783SOL    HW115248   6.561   3.499   0.626
 4783SOL    HW215249   6.481   3.430   0.750
 4784SOL     OW15250   5.386   3.039   6.854
 4784SOL    HW115251   5.372   3.113   6.789
 4784SOL    HW215252   5.484   3.027   6.872
 4785SOL     OW15253   1.197   5.706   4.069
 4785SOL    HW115254   1.212   5.641   3.995
 4785SOL    HW215255   1.119   5.765   4.046
 4786SOL     OW15256   1.635   6.225   0.318
 4786SOL    HW115257   1.594   6.290   0.253
 4786SOL    HW215258   1.685   6.155   0.267
 4787SOL     OW15259   3.657   1.061   4.316
 4787SOL    HW115260   3.588   1.104   4.373
 4787SOL    HW215261   3.629   1.066   4.220
 4788SOL     OW15262   5.478   6.404   6.870
 4788SOL    HW115263   5.454   6.465   6.946
 4788SOL    HW215264   5.578   6.401   6.860
 4789SOL     OW15265   5.226   1.382   3.159
 4789SOL    HW115266   5.278   1.402   3.075
 4789SOL    HW215267   5.173   1.298   3.146
 4790SOL     OW15268   6.701   1.916   4.878
 4790SOL    HW115269   6.601   1.928   4.872
 4790SOL    HW215270   6.743   1.951   4.794
 4791SOL     OW15271   7.019   1.144   0.548
 4791SOL    HW115272   6.919   1.139   0.541
 4791SOL    HW215273   0.035   1.201   0.473
 4792SOL     OW15274   2.267   2.798   2.689
 4792SOL    HW115275   2.227   2.720   2.641
 4792SOL    HW215276   2.312   2.767   2.772
 4793SOL     OW15277   1.226   4.090   5.417
 4793SOL    HW115278   1.142   4.092   5.472
 4793SOL    HW215279   1.203   4.074   5.321
 4794SOL     OW15280   4.038   0.903   4.327
 4794SOL    HW115281   4.009   0.953   4.246
 4794SOL    HW215282   3.959   0.857   4.368
 4795SOL     OW15283   0.290   0.696   5.768
 4795SOL    HW115284   0.291   0.789   5.805
 4795SOL    HW215285   0.352   0.638   5.820
 4796SOL     OW15286   3.807   1.336   4.782
 4796SOL    HW115287   3.812   1.247   4.826
 4796SOL    HW215288   3.757   1.400   4.841
 4797SOL     OW15289   1.409   5.892   4.645
 4797SOL    HW115290   1.354   5.881   4.728
 4797SOL    HW215291   1.481   5.823   4.644
 4798SOL     OW15292   4.243   4.658   6.454
 4798SOL    HW115293   4.218   4.740   6.505
 4798SOL    HW215294   4.219   4.577   6.508
 4799SOL     OW15295   3.423   3.218   6.464
 4799SOL    HW115296   3.464   3.286   6.524
 4799SOL    HW215297   3.418   3.130   6.511
 4800SOL     OW15298   0.749   5.108   0.602
 4800SOL    HW115299   0.771   5.148   0.513
 4800SOL    HW215300   0.740   5.181   0.670
 4801SOL     OW15301   4.984   2.744   1.596
 4801SOL    HW115302   4.937   2.693   1.668
 4801SOL    HW215303   4.919   2.765   1.522
 4802SOL     OW15304   6.794   6.823   3.881
 4802SOL    HW115305   6.883   6.866   3.861
 4802SOL    HW215306   6.790   6.733   3.836
 4803SOL     OW15307   5.059   3.809   6.004
 4803SOL    HW115308   5.063   3.709   6.002
 4803SOL    HW215309   5.041   3.840   6.097
 4804SOL     OW15310   4.977   1.723   0.820
 4804SOL    HW115311   4.896   1.776   0.844
 4804SOL    HW215312   5.058   1.781   0.828
 4805SOL     OW15313   6.103   1.063   0.651
 4805SOL    HW115314   6.012   1.105   0.648
 4805SOL    HW215315   6.156   1.092   0.571
 4806SOL     OW15316   1.152   1.048   3.062
 4806SOL    HW115317   1.156   1.112   3.139
 4806SOL    HW215318   1.244   1.035   3.025
 4807SOL     OW15319   1.234   3.466   5.998
 4807SOL    HW115320   1.291   3.490   5.919
 4807SOL    HW215321   1.141   3.447   5.967
 4808SOL     OW15322   4.170   5.734   0.282
 4808SOL    HW115323   4.122   5.757   0.367
 4808SOL    HW215324   4.103   5.712   0.211
 4809SOL     OW15325   3.322   4.604   1.396
 4809SOL    HW115326   3.301   4.692   1.353
 4809SOL    HW215327   3.370   4.619   1.482
 4810SOL     OW15328   0.557   4.358   3.849
 4810SOL    HW115329   0.624   4.377   3.777
 4810SOL    HW215330   0.513   4.270   3.831
 4811SOL     OW15331   3.446   4.181   4.130
 4811SOL    HW115332   3.493   4.121   4.195
 4811SOL    HW215333   3.468   4.152   4.036
 4812SOL     OW15334   0.396   0.249   2.404
 4812SOL    HW115335   0.440   0.163   2.429
 4812SOL    HW215336   0.394   0.259   2.305
 4813SOL     OW15337   6.058   1.444   5.737
 4813SOL    HW115338   5.994   1.456   5.812
 4813SOL    HW215339   6.013   1.395   5.662
 4814SOL     OW15340   6.287   4.500   1.396
 4814SOL    HW115341   6.282   4.592   1.358
 4814SOL    HW215342   6.251   4.434   1.330
 4815SOL     OW15343   5.198   5.100   2.762
 4815SOL    HW115344   5.231   5.172   2.823
 4815SOL    HW215345   5.147   5.142   2.686
 4816SOL     OW15346   1.351   1.042   2.263
 4816SOL    HW115347   1.294   0.965   2.235
 4816SOL    HW215348   1.421   1.010   2.327
 4817SOL     OW15349   4.081   1.843   0.835
 4817SOL    HW115350   4.086   1.930   0.786
 4817SOL    HW215351   4.033   1.857   0.922
 4818SOL     OW15352   3.662   6.852   5.297
 4818SOL    HW115353   3.740   6.792   5.281
 4818SOL    HW215354   3.585   6.822   5.241
 4819SOL     OW15355   2.902   0.505   0.889
 4819SOL    HW115356   2.807   0.475   0.899
 4819SOL    HW215357   2.937   0.473   0.801
 4820SOL     OW15358   6.077   4.041   1.856
 4820SOL    HW115359   6.091   4.076   1.949
 4820SOL    HW215360   6.166   4.019   1.816
 4821SOL     OW15361   6.931   4.242   1.622
 4821SOL    HW115362   6.986   4.173   1.574
 4821SOL    HW215363   6.903   4.206   1.711
 4822SOL     OW15364   2.163   4.007   2.758
 4822SOL    HW115365   2.177   4.089   2.814
 4822SOL    HW215366   2.073   4.013   2.714
 4823SOL     OW15367   0.765   1.071   4.520
 4823SOL    HW115368   0.721   1.143   4.574
 4823SOL    HW215369   0.831   1.111   4.457
 4824SOL     OW15370   5.645   2.784   2.188
 4824SOL    HW115371   5.672   2.689   2.201
 4824SOL    HW215372   5.617   2.798   2.093
 4825SOL     OW15373   1.007   3.144   2.632
 4825SOL    HW115374   0.956   3.081   2.573
 4825SOL    HW215375   1.010   3.235   2.589
 4826SOL     OW15376   6.265   6.004   0.415
 4826SOL    HW115377   6.316   6.053   0.486
 4826SOL    HW215378   6.169   6.033   0.417
 4827SOL     OW15379   4.859   0.520   0.793
 4827SOL    HW115380   4.921   0.541   0.869
 4827SOL    HW215381   4.909   0.469   0.723
 4828SOL     OW15382   5.617   3.478   0.590
 4828SOL    HW115383   5.648   3.391   0.552
 4828SOL    HW215384   5.641   3.552   0.526
 4829SOL     OW15385   2.926   0.549   6.067
 4829SOL    HW115386   3.001   0.605   6.101
 4829SOL    HW215387   2.903   0.577   5.973
 4830SOL     OW15388   4.476   0.005   4.666
 4830SOL    HW115389   4.396   0.052   4.705
 4830SOL    HW215390   4.551   0.070   4.655
 4831SOL     OW15391   5.952   3.812   6.070
 4831SOL    HW115392   5.910   3.835   6.157
 4831SOL    HW215393   6.022   3.742   6.084
 4832SOL     OW15394   2.784   3.659   6.098
 4832SOL    HW115395   2.867   3.628   6.051
 4832SOL    HW215396   2.737   3.726   6.042
 4833SOL     OW15397   4.357   1.105   2.416
 4833SOL    HW115398   4.395   1.196   2.436
 4833SOL    HW215399   4.347   1.095   2.317
 4834SOL     OW15400   4.604   1.541   2.146
 4834SOL    HW115401   4.556   1.614   2.196
 4834SOL    HW215402   4.615   1.568   2.050
 4835SOL     OW15403   2.151   0.385   6.658
 4835SOL    HW115404   2.061   0.391   6.616
 4835SOL    HW215405   2.177   0.289   6.666
 4836SOL     OW15406   5.438   2.223   3.902
 4836SOL    HW115407   5.464   2.166   3.825
 4836SOL    HW215408   5.361   2.183   3.950
 4837SOL     OW15409   1.821   3.751   0.232
 4837SOL    HW115410   1.876   3.712   0.157
 4837SOL    HW215411   1.804   3.848   0.214
 4838SOL     OW15412   3.716   5.643   2.350
 4838SOL    HW115413   3.713   5.635   2.450
 4838SOL    HW215414   3.631   5.686   2.318
 4839SOL     OW15415   0.496   5.691   6.132
 4839SOL    HW115416   0.525   5.607   6.178
 4839SOL    HW215417   0.554   5.706   6.052
 4840SOL     OW15418   0.118   6.547   0.197
 4840SOL    HW115419   0.160   6.456   0.204
 4840SOL    HW215420   0.042   6.554   0.261
 4841SOL     OW15421   2.688   5.094   2.392
 4841SOL    HW115422   2.726   5.150   2.318
 4841SOL    HW215423   2.644   5.154   2.459
 4842SOL     OW15424   4.579   6.149   1.140
 4842SOL    HW115425   4.599   6.088   1.217
 4842SOL    HW215426   4.649   6.136   1.069
 4843SOL     OW15427   6.860   3.679   0.130
 4843SOL    HW115428   6.889   3.742   0.059
 4843SOL    HW215429   6.760   3.672   0.130
 4844SOL     OW15430   5.917   2.109   6.366
 4844SOL    HW115431   5.827   2.103   6.324
 4844SOL    HW215432   5.952   2.016   6.385
 4845SOL     OW15433   6.097   5.844   3.486
 4845SOL    HW115434   6.181   5.894   3.465
 4845SOL    HW215435   6.119   5.750   3.511
 4846SOL     OW15436   1.564   3.487   0.550
 4846SOL    HW115437   1.609   3.570   0.516
 4846SOL    HW215438   1.574   3.482   0.649
 4847SOL     OW15439   3.685   1.875   4.518
 4847SOL    HW115440   3.753   1.801   4.512
 4847SOL    HW215441   3.654   1.884   4.613
 4848SOL     OW15442   2.442   2.222   2.454
 4848SOL    HW115443   2.476   2.178   2.536
 4848SOL    HW215444   2.343   2.208   2.447
 4849SOL     OW15445   1.191   6.919   0.730
 4849SOL    HW115446   1.115   6.953   0.674
 4849SOL    HW215447   1.235   6.997   0.776
 4850SOL     OW15448   4.171   0.811   2.274
 4850SOL    HW115449   4.269   0.801   2.254
 4850SOL    HW215450   4.130   0.874   2.209
 4851SOL     OW15451   5.158   6.210   5.069
 4851SOL    HW115452   5.066   6.248   5.073
 4851SOL    HW215453   5.175   6.172   4.979
 4852SOL     OW15454   1.875   1.133   7.007
 4852SOL    HW115455   1.793   1.126   6.950
 4852SOL    HW215456   1.880   1.053   0.049
 4853SOL     OW15457   3.112   1.829   2.403
 4853SOL    HW115458   3.029   1.884   2.415
 4853SOL    HW215459   3.097   1.761   2.331
 4854SOL     OW15460   5.353   0.011   2.216
 4854SOL    HW115461   5.425   0.042   2.153
 4854SOL    HW215462   5.307   0.090   2.255
 4855SOL     OW15463   6.542   2.072   2.611
 4855SOL    HW115464   6.514   2.155   2.659
 4855SOL    HW215465   6.579   2.096   2.521
 4856SOL     OW15466   3.021   5.041   3.339
 4856SOL    HW115467   2.954   5.107   3.373
 4856SOL    HW215468   3.026   4.963   3.402
 4857SOL     OW15469   6.900   1.740   5.366
 4857SOL    HW115470   6.913   1.813   5.434
 4857SOL    HW215471   6.878   1.781   5.277
 4858SOL     OW15472   1.327   1.920   4.703
 4858SOL    HW115473   1.349   1.927   4.801
 4858SOL    HW215474   1.314   1.824   4.680
 4859SOL     OW15475   2.031   5.979   4.893
 4859SOL    HW115476   2.065   6.058   4.945
 4859SOL    HW215477   2.078   5.896   4.923
 4860SOL     OW15478   4.534   4.915   1.461
 4860SOL    HW115479   4.571   4.849   1.527
 4860SOL    HW215480   4.561   5.008   1.487
 4861SOL     OW15481   4.707   4.371   5.106
 4861SOL    HW115482   4.672   4.452   5.058
 4861SOL    HW215483   4.807   4.375   5.110
 4862SOL     OW15484   1.747   6.573   2.240
 4862SOL    HW115485   1.733   6.575   2.340
 4862SOL    HW215486   1.718   6.483   2.205
 4863SOL     OW15487   6.029   3.965   0.396
 4863SOL    HW115488   6.038   4.056   0.436
 4863SOL    HW215489   5.980   3.971   0.310
 4864SOL     OW15490   2.841   1.198   3.549
 4864SOL    HW115491   2.927   1.223   3.594
 4864SOL    HW215492   2.840   1.099   3.533
 4865SOL     OW15493   2.826   5.881   4.645
 4865SOL    HW115494   2.826   5.834   4.734
 4865SOL    HW215495   2.913   5.867   4.599
 4866SOL     OW15496   6.951   3.795   0.963
 4866SOL    HW115497   6.922   3.773   0.870
 4866SOL    HW215498   7.011   3.723   0.997
 4867SOL     OW15499   4.348   6.947   2.821
 4867SOL    HW115500   4.447   6.949   2.805
 4867SOL    HW215501   4.322   0.005   2.879
 4868SOL     OW15502   6.525   4.708   1.377
 4868SOL    HW115503   6.530   4.698   1.278
 4868SOL    HW215504   6.599   4.656   1.420
 4869SOL     OW15505   0.345   1.599   6.641
 4869SOL    HW115506   0.400   1.665   6.589
 4869SOL    HW215507   0.286   1.648   6.705
 4870SOL     OW15508   1.098   6.081   1.657
 4870SOL    HW115509   1.125   6.162   1.709
 4870SOL    HW215510   1.088   6.003   1.718
 4871SOL     OW15511   1.160   1.375   4.267
 4871SOL    HW115512   1.252   1.354   4.235
 4871SOL    HW215513   1.097   1.377   4.190
 4872SOL     OW15514   6.082   0.227   3.978
 4872SOL    HW115515   6.081   0.154   4.045
 4872SOL    HW215516   6.175   0.237   3.940
 4873SOL     OW15517   6.825   6.158   5.132
 4873SOL    HW115518   6.859   6.237   5.183
 4873SOL    HW215519   6.824   6.078   5.192
 4874SOL     OW15520   5.000   2.601   3.196
 4874SOL    HW115521   4.986   2.700   3.200
 4874SOL    HW215522   5.089   2.582   3.155
 4875SOL     OW15523   5.477   6.355   5.983
 4875SOL    HW115524   5.397   6.341   5.925
 4875SOL    HW215525   5.546   6.285   5.961
 4876SOL     OW15526   1.910   1.133   3.178
 4876SOL    HW115527   1.868   1.172   3.097
 4876SOL    HW215528   1.984   1.071   3.151
 4877SOL     OW15529   0.628   1.545   4.613
 4877SOL    HW115530   0.609   1.613   4.542
 4877SOL    HW215531   0.607   1.585   4.703
 4878SOL     OW15532   6.922   2.267   2.706
 4878SOL    HW115533   6.847   2.326   2.676
 4878SOL    HW215534   6.934   2.277   2.805
 4879SOL     OW15535   4.588   1.578   2.960
 4879SOL    HW115536   4.536   1.504   3.002
 4879SOL    HW215537   4.527   1.655   2.941
 4880SOL     OW15538   6.315   2.760   6.099
 4880SOL    HW115539   6.238   2.821   6.076
 4880SOL    HW215540   6.379   2.809   6.159
 4881SOL     OW15541   1.614   2.929   2.042
 4881SOL    HW115542   1.613   2.950   2.139
 4881SOL    HW215543   1.546   2.858   2.022
 4882SOL     OW15544   4.482   2.560   5.057
 4882SOL    HW115545   4.562   2.594   5.107
 4882SOL    HW215546   4.405   2.549   5.120
 4883SOL     OW15547   6.357   3.803   1.437
 4883SOL    HW115548   6.376   3.709   1.411
 4883SOL    HW215549   6.408   3.825   1.521
 4884SOL     OW15550   1.980   6.140   1.504
 4884SOL    HW115551   1.958   6.203   1.579
 4884SOL    HW215552   1.953   6.181   1.417
 4885SOL     OW15553   1.603   4.730   0.933
 4885SOL    HW115554   1.566   4.637   0.929
 4885SOL    HW215555   1.697   4.726   0.967
 4886SOL     OW15556   2.903   1.113   2.199
 4886SOL    HW115557   2.890   1.019   2.231
 4886SOL    HW215558   2.995   1.123   2.161
 4887SOL     OW15559   0.545   0.079   2.034
 4887SOL    HW115560   0.623   0.112   2.087
 4887SOL    HW215561   0.578   0.026   1.956
 4888SOL     OW15562   3.506   6.558   2.757
 4888SOL    HW115563   3.568   6.633   2.782
 4888SOL    HW215564   3.417   6.596   2.729
 4889SOL     OW15565   6.794   2.405   3.769
 4889SOL    HW115566   6.789   2.417   3.868
 4889SOL    HW215567   6.726   2.337   3.740
 4890SOL     OW15568   0.479   1.193   4.833
 4890SOL    HW115569   0.577   1.208   4.819
 4890SOL    HW215570   0.436   1.163   4.748
 4891SOL     OW15571   2.568   5.459   6.158
 4891SOL    HW115572   2.598   5.364   6.155
 4891SOL    HW215573   2.557   5.494   6.064
 4892SOL     OW15574   5.494   6.751   3.146
 4892SOL    HW115575   5.473   6.653   3.150
 4892SOL    HW215576   5.461   6.796   3.230
 4893SOL     OW15577   0.192   3.528   1.993
 4893SOL    HW115578   0.134   3.538   2.073
 4893SOL    HW215579   0.143   3.478   1.922
 4894SOL     OW15580   4.804   6.547   1.937
 4894SOL    HW115581   4.897   6.585   1.944
 4894SOL    HW215582   4.751   6.576   2.016
 4895SOL     OW15583   6.959   4.454   3.560
 4895SOL    HW115584   0.001   4.380   3.532
 4895SOL    HW215585   6.871   4.416   3.587
 4896SOL     OW15586   1.833   4.479   4.205
 4896SOL    HW115587   1.826   4.422   4.287
 4896SOL    HW215588   1.789   4.432   4.128
 4897SOL     OW15589   2.108   6.670   5.304
 4897SOL    HW115590   2.145   6.609   5.374
 4897SOL    HW215591   2.183   6.712   5.253
 4898SOL     OW15592   3.968   1.824   3.881
 4898SOL    HW115593   3.900   1.754   3.862
 4898SOL    HW215594   4.016   1.802   3.966
 4899SOL     OW15595   0.406   5.303   1.866
 4899SOL    HW115596   0.360   5.333   1.950
 4899SOL    HW215597   0.430   5.206   1.874
 4900SOL     OW15598   4.098   5.920   5.354
 4900SOL    HW115599   4.065   5.839   5.403
 4900SOL    HW215600   4.194   5.935   5.376
 4901SOL     OW15601   0.672   1.362   5.961
 4901SOL    HW115602   0.683   1.371   5.862
 4901SOL    HW215603   0.639   1.270   5.983
 4902SOL     OW15604   2.170   0.150   6.116
 4902SOL    HW115605   2.087   0.095   6.126
 4902SOL    HW215606   2.201   0.180   6.206
 4903SOL     OW15607   5.481   5.086   1.544
 4903SOL    HW115608   5.518   5.136   1.466
 4903SOL    HW215609   5.515   5.127   1.629
 4904SOL     OW15610   1.378   0.594   0.326
 4904SOL    HW115611   1.306   0.533   0.292
 4904SOL    HW215612   1.390   0.669   0.262
 4905SOL     OW15613   3.615   6.248   2.974
 4905SOL    HW115614   3.601   6.303   2.892
 4905SOL    HW215615   3.598   6.152   2.954
 4906SOL     OW15616   5.582   3.012   4.743
 4906SOL    HW115617   5.603   2.921   4.776
 4906SOL    HW215618   5.651   3.040   4.676
 4907SOL     OW15619   4.489   1.484   6.666
 4907SOL    HW115620   4.574   1.532   6.644
 4907SOL    HW215621   4.419   1.550   6.693
 4908SOL     OW15622   4.789   0.200   0.189
 4908SOL    HW115623   4.749   0.242   0.271
 4908SOL    HW215624   4.717   0.157   0.135
 4909SOL     OW15625   5.646   4.391   4.210
 4909SOL    HW115626   5.581   4.360   4.141
 4909SOL    HW215627   5.732   4.417   4.167
 4910SOL     OW15628   5.006   0.630   5.824
 4910SOL    HW115629   4.984   0.709   5.767
 4910SOL    HW215630   5.009   0.658   5.920
 4911SOL     OW15631   0.607   2.539   1.964
 4911SOL    HW115632   0.521   2.529   2.013
 4911SOL    HW215633   0.623   2.636   1.944
 4912SOL     OW15634   6.172   2.171   4.705
 4912SOL    HW115635   6.119   2.238   4.652
 4912SOL    HW215636   6.251   2.141   4.651
 4913SOL     OW15637   6.633   3.038   4.937
 4913SOL    HW115638   6.547   3.080   4.906
 4913SOL    HW215639   6.658   2.964   4.874
 4914SOL     OW15640   4.301   0.654   4.260
 4914SOL    HW115641   4.343   0.567   4.237
 4914SOL    HW215642   4.363   0.707   4.319
 4915SOL     OW15643   3.784   5.672   5.693
 4915SOL    HW115644   3.855   5.669   5.622
 4915SOL    HW215645   3.762   5.579   5.721
 4916SOL     OW15646   6.310   1.160   3.997
 4916SOL    HW115647   6.245   1.235   4.010
 4916SOL    HW215648   6.342   1.159   3.902
 4917SOL     OW15649   4.281   6.686   1.031
 4917SOL    HW115650   4.196   6.661   1.077
 4917SOL    HW215651   4.274   6.665   0.934
 4918SOL     OW15652   6.856   5.399   1.816
 4918SOL    HW115653   6.797   5.480   1.823
 4918SOL    HW215654   6.937   5.422   1.762
 4919SOL     OW15655   4.090   3.494   2.501
 4919SOL    HW115656   4.125   3.402   2.519
 4919SOL    HW215657   4.090   3.547   2.586
 4920SOL     OW15658   5.807   0.728   4.977
 4920SOL    HW115659   5.828   0.807   4.920
 4920SOL    HW215660   5.725   0.746   5.031
 4921SOL     OW15661   0.177   6.748   2.109
 4921SOL    HW115662   0.150   6.717   2.200
 4921SOL    HW215663   0.148   6.681   2.041
 4922SOL     OW15664   3.736   2.118   6.230
 4922SOL    HW115665   3.747   2.066   6.145
 4922SOL    HW215666   3.762   2.213   6.214
 4923SOL     OW15667   3.581   1.679   2.706
 4923SOL    HW115668   3.649   1.744   2.740
 4923SOL    HW215669   3.624   1.590   2.692
 4924SOL     OW15670   2.521   1.063   5.615
 4924SOL    HW115671   2.536   1.068   5.714
 4924SOL    HW215672   2.530   0.968   5.585
 4925SOL     OW15673   4.712   6.364   3.351
 4925SOL    HW115674   4.737   6.305   3.428
 4925SOL    HW215675   4.654   6.438   3.385
 4926SOL     OW15676   5.218   2.676   1.124
 4926SOL    HW115677   5.265   2.660   1.211
 4926SOL    HW215678   5.255   2.759   1.081
 4927SOL     OW15679   3.737   1.718   6.337
 4927SOL    HW115680   3.709   1.670   6.255
 4927SOL    HW215681   3.697   1.674   6.417
 4928SOL     OW15682   0.473   2.274   0.886
 4928SOL    HW115683   0.534   2.297   0.810
 4928SOL    HW215684   0.378   2.278   0.854
 4929SOL     OW15685   0.127   6.459   4.468
 4929SOL    HW115686   0.104   6.481   4.373
 4929SOL    HW215687   0.043   6.433   4.517
 4930SOL     OW15688   5.536   6.490   2.255
 4930SOL    HW115689   5.551   6.430   2.333
 4930SOL    HW215690   5.501   6.578   2.287
 4931SOL     OW15691   6.468   6.244   1.577
 4931SOL    HW115692   6.383   6.219   1.625
 4931SOL    HW215693   6.532   6.167   1.581
 4932SOL     OW15694   2.856   3.543   1.992
 4932SOL    HW115695   2.859   3.643   1.988
 4932SOL    HW215696   2.824   3.508   1.904
 4933SOL     OW15697   3.344   6.048   5.354
 4933SOL    HW115698   3.381   6.064   5.263
 4933SOL    HW215699   3.269   6.113   5.372
 4934SOL     OW15700   4.158   5.064   3.218
 4934SOL    HW115701   4.228   5.060   3.289
 4934SOL    HW215702   4.122   5.157   3.212
 4935SOL     OW15703   1.662   1.539   5.906
 4935SOL    HW115704   1.721   1.619   5.916
 4935SOL    HW215705   1.627   1.512   5.996
 4936SOL     OW15706   2.649   3.300   1.165
 4936SOL    HW115707   2.643   3.233   1.239
 4936SOL    HW215708   2.627   3.255   1.078
 4937SOL     OW15709   4.762   2.885   4.908
 4937SOL    HW115710   4.782   2.972   4.865
 4937SOL    HW215711   4.694   2.898   4.980
 4938SOL     OW15712   3.858   5.688   6.192
 4938SOL    HW115713   3.861   5.607   6.133
 4938SOL    HW215714   3.765   5.702   6.224
 4939SOL     OW15715   4.388   3.205   5.666
 4939SOL    HW115716   4.477   3.191   5.711
 4939SOL    HW215717   4.331   3.124   5.679
 4940SOL     OW15718   2.528   6.191   4.448
 4940SOL    HW115719   2.605   6.180   4.511
 4940SOL    HW215720   2.544   6.271   4.389
 4941SOL     OW15721   5.084   0.985   0.390
 4941SOL    HW115722   5.171   1.015   0.429
 4941SOL    HW215723   5.023   0.956   0.464
 4942SOL     OW15724   4.848   3.737   5.309
 4942SOL    HW115725   4.945   3.712   5.305
 4942SOL    HW215726   4.799   3.694   5.233
 4943SOL     OW15727   4.225   2.689   0.967
 4943SOL    HW115728   4.289   2.623   0.927
 4943SOL    HW215729   4.132   2.663   0.942
 4944SOL     OW15730   2.451   4.409   2.291
 4944SOL    HW115731   2.389   4.401   2.214
 4944SOL    HW215732   2.503   4.324   2.301
 4945SOL     OW15733   0.244   6.939   4.314
 4945SOL    HW115734   0.158   6.968   4.272
 4945SOL    HW215735   0.225   6.864   4.378
 4946SOL     OW15736   1.252   3.454   2.190
 4946SOL    HW115737   1.337   3.502   2.211
 4946SOL    HW215738   1.257   3.360   2.222
 4947SOL     OW15739   0.660   6.467   0.553
 4947SOL    HW115740   0.682   6.456   0.650
 4947SOL    HW215741   0.639   6.563   0.535
 4948SOL     OW15742   2.497   1.197   1.852
 4948SOL    HW115743   2.480   1.269   1.785
 4948SOL    HW215744   2.502   1.236   1.943
 4949SOL     OW15745   5.279   1.532   4.669
 4949SOL    HW115746   5.187   1.567   4.652
 4949SOL    HW215747   5.313   1.568   4.756
 4950SOL     OW15748   3.298   5.568   4.718
 4950SOL    HW115749   3.232   5.497   4.691
 4950SOL    HW215750   3.262   5.619   4.796
 4951SOL     OW15751   4.353   2.042   4.008
 4951SOL    HW115752   4.339   2.140   3.995
 4951SOL    HW215753   4.366   2.023   4.106
 4952SOL     OW15754   0.029   5.869   5.567
 4952SOL    HW115755   0.040   5.784   5.515
 4952SOL    HW215756   0.017   5.847   5.664
 4953SOL     OW15757   2.054   5.470   2.142
 4953SOL    HW115758   1.979   5.529   2.168
 4953SOL    HW215759   2.018   5.383   2.108
 4954SOL     OW15760   5.380   5.739   6.523
 4954SOL    HW115761   5.380   5.653   6.575
 4954SOL    HW215762   5.435   5.728   6.441
 4955SOL     OW15763   1.767   6.609   1.647
 4955SOL    HW115764   1.686   6.666   1.639
 4955SOL    HW215765   1.741   6.514   1.662
 4956SOL     OW15766   4.746   6.580   4.314
 4956SOL    HW115767   4.680   6.556   4.243
 4956SOL    HW215768   4.820   6.634   4.274
 4957SOL     OW15769   0.729   0.688   3.572
 4957SOL    HW115770   0.756   0.634   3.652
 4957SOL    HW215771   0.652   0.643   3.526
 4958SOL     OW15772   0.286   6.017   0.121
 4958SOL    HW115773   0.356   5.960   0.080
 4958SOL    HW215774   0.198   5.998   0.078
 4959SOL     OW15775   0.693   0.997   1.116
 4959SOL    HW115776   0.596   1.020   1.105
 4959SOL    HW215777   0.748   1.078   1.095
 4960SOL     OW15778   4.083   6.978   4.604
 4960SOL    HW115779   3.983   6.981   4.609
 4960SOL    HW215780   4.115   6.888   4.634
 4961SOL     OW15781   4.658   1.080   4.967
 4961SOL    HW115782   4.755   1.055   4.971
 4961SOL    HW215783   4.643   1.166   5.016
 4962SOL     OW15784   0.160   1.559   0.617
 4962SOL    HW115785   0.077   1.540   0.671
 4962SOL    HW215786   0.221   1.618   0.670
 4963SOL     OW15787   0.620   4.869   1.571
 4963SOL    HW115788   0.580   4.778   1.579
 4963SOL    HW215789   0.547   4.937   1.565
 4964SOL     OW15790   3.199   6.563   3.109
 4964SOL    HW115791   3.118   6.517   3.146
 4964SOL    HW215792   3.271   6.565   3.178
 4965SOL     OW15793   6.829   0.610   4.490
 4965SOL    HW115794   6.832   0.537   4.559
 4965SOL    HW215795   6.735   0.623   4.459
 4966SOL     OW15796   3.048   4.908   4.008
 4966SOL    HW115797   3.140   4.896   3.971
 4966SOL    HW215798   2.984   4.848   3.960
 4967SOL     OW15799   3.991   2.544   5.738
 4967SOL    HW115800   3.957   2.582   5.652
 4967SOL    HW215801   4.008   2.446   5.727
 4968SOL     OW15802   6.312   3.155   4.998
 4968SOL    HW115803   6.357   3.166   4.909
 4968SOL    HW215804   6.218   3.123   4.983
 4969SOL     OW15805   1.166   1.425   1.945
 4969SOL    HW115806   1.174   1.353   1.875
 4969SOL    HW215807   1.248   1.426   2.002
 4970SOL     OW15808   0.851   2.358   5.819
 4970SOL    HW115809   0.930   2.350   5.758
 4970SOL    HW215810   0.847   2.450   5.856
 4971SOL     OW15811   5.270   6.135   3.269
 4971SOL    HW115812   5.237   6.224   3.236
 4971SOL    HW215813   5.200   6.094   3.328
 4972SOL     OW15814   1.197   2.744   6.408
 4972SOL    HW115815   1.230   2.839   6.406
 4972SOL    HW215816   1.270   2.685   6.442
 4973SOL     OW15817   5.246   6.562   2.928
 4973SOL    HW115818   5.308   6.528   2.998
 4973SOL    HW215819   5.290   6.558   2.838
 4974SOL     OW15820   5.359   6.683   2.631
 4974SOL    HW115821   5.299   6.604   2.638
 4974SOL    HW215822   5.304   6.767   2.628
 4975SOL     OW15823   5.740   5.708   0.741
 4975SOL    HW115824   5.647   5.702   0.777
 4975SOL    HW215825   5.738   5.749   0.650
 4976SOL     OW15826   4.294   0.594   5.278
 4976SOL    HW115827   4.226   0.520   5.276
 4976SOL    HW215828   4.373   0.568   5.223
 4977SOL     OW15829   3.438   3.795   0.615
 4977SOL    HW115830   3.362   3.851   0.649
 4977SOL    HW215831   3.440   3.708   0.664
 4978SOL     OW15832   5.558   3.150   6.387
 4978SOL    HW115833   5.606   3.102   6.314
 4978SOL    HW215834   5.482   3.201   6.348
 4979SOL     OW15835   1.286   0.593   5.723
 4979SOL    HW115836   1.368   0.536   5.732
 4979SOL    HW215837   1.267   0.609   5.626
 4980SOL     OW15838   2.679   5.563   1.907
 4980SOL    HW115839   2.765   5.567   1.856
 4980SOL    HW215840   2.670   5.646   1.963
 4981SOL     OW15841   4.239   6.736   5.439
 4981SOL    HW115842   4.285   6.650   5.460
 4981SOL    HW215843   4.285   6.811   5.488
 4982SOL     OW15844   2.322   3.154   0.674
 4982SOL    HW115845   2.301   3.095   0.596
 4982SOL    HW215846   2.254   3.139   0.746
 4983SOL     OW15847   5.272   3.157   4.246
 4983SOL    HW115848   5.233   3.093   4.180
 4983SOL    HW215849   5.341   3.214   4.202
 4984SOL     OW15850   4.721   4.219   2.919
 4984SOL    HW115851   4.648   4.277   2.955
 4984SOL    HW215852   4.713   4.211   2.820
 4985SOL     OW15853   5.467   4.789   2.383
 4985SOL    HW115854   5.470   4.873   2.328
 4985SOL    HW215855   5.396   4.797   2.452
 4986SOL     OW15856   4.693   4.752   2.301
 4986SOL    HW115857   4.719   4.726   2.395
 4986SOL    HW215858   4.775   4.749   2.243
 4987SOL     OW15859   0.060   3.631   1.316
 4987SOL    HW115860   0.091   3.686   1.394
 4987SOL    HW215861   0.059   3.534   1.342
 4988SOL     OW15862   0.566   1.747   4.429
 4988SOL    HW115863   0.466   1.750   4.424
 4988SOL    HW215864   0.601   1.837   4.453
 4989SOL     OW15865   0.590   1.017   0.576
 4989SOL    HW115866   0.623   1.104   0.613
 4989SOL    HW215867   0.553   1.032   0.484
 4990SOL     OW15868   1.236   2.224   5.410
 4990SOL    HW115869   1.178   2.143   5.411
 4990SOL    HW215870   1.319   2.205   5.357
 4991SOL     OW15871   1.254   2.766   4.146
 4991SOL    HW115872   1.227   2.683   4.096
 4991SOL    HW215873   1.328   2.812   4.096
 4992SOL     OW15874   3.670   0.488   5.941
 4992SOL    HW115875   3.754   0.516   5.988
 4992SOL    HW215876   3.685   0.400   5.896
 4993SOL     OW15877   3.016   6.219   3.831
 4993SOL    HW115878   2.918   6.200   3.840
 4993SOL    HW215879   3.068   6.138   3.860
 4994SOL     OW15880   0.288   6.751   2.667
 4994SOL    HW115881   0.259   6.761   2.762
 4994SOL    HW215882   0.226   6.803   2.607
 4995SOL     OW15883   5.575   2.530   6.292
 4995SOL    HW115884   5.514   2.535   6.213
 4995SOL    HW215885   5.534   2.471   6.362
 4996SOL     OW15886   1.316   1.484   3.485
 4996SOL    HW115887   1.261   1.514   3.407
 4996SOL    HW215888   1.314   1.384   3.490
 4997SOL     OW15889   0.634   2.505   3.351
 4997SOL    HW115890   0.536   2.489   3.339
 4997SOL    HW215891   0.685   2.433   3.303
 4998SOL     OW15892   1.577   5.585   4.878
 4998SOL    HW115893   1.538   5.494   4.872
 4998SOL    HW215894   1.540   5.632   4.958
 4999SOL     OW15895   5.671   5.159   1.349
 4999SOL    HW115896   5.731   5.087   1.383
 4999SOL    HW215897   5.726   5.227   1.300
 5000SOL     OW15898   0.245   5.921   4.161
 5000SOL    HW115899   0.204   6.008   4.187
 5000SOL    HW215900   0.309   5.891   4.231
 5001SOL     OW15901   4.310   4.547   5.848
 5001SOL    HW115902   4.241   4.525   5.916
 5001SOL    HW215903   4.288   4.500   5.762
 5002SOL     OW15904   2.097   0.941   2.282
 5002SOL    HW115905   2.146   0.976   2.203
 5002SOL    HW215906   2.130   0.987   2.365
 5003SOL     OW15907   6.804   5.589   2.778
 5003SOL    HW115908   6.745   5.511   2.799
 5003SOL    HW215909   6.895   5.555   2.752
 5004SOL     OW15910   3.163   5.773   6.878
 5004SOL    HW115911   3.230   5.844   6.856
 5004SOL    HW215912   3.099   5.808   6.947
 5005SOL     OW15913   4.823   2.549   0.125
 5005SOL    HW115914   4.765   2.629   0.109
 5005SOL    HW215915   4.771   2.481   0.177
 5006SOL     OW15916   5.627   6.008   4.512
 5006SOL    HW115917   5.582   5.932   4.559
 5006SOL    HW215918   5.619   5.996   4.413
 5007SOL     OW15919   3.919   1.077   5.596
 5007SOL    HW115920   3.841   1.017   5.578
 5007SOL    HW215921   3.888   1.171   5.609
 5008SOL     OW15922   6.432   1.197   3.745
 5008SOL    HW115923   6.527   1.229   3.753
 5008SOL    HW215924   6.382   1.255   3.681
 5009SOL     OW15925   1.517   6.800   3.201
 5009SOL    HW115926   1.578   6.722   3.186
 5009SOL    HW215927   1.521   6.860   3.121
 5010SOL     OW15928   3.993   3.119   4.657
 5010SOL    HW115929   4.049   3.038   4.676
 5010SOL    HW215930   3.899   3.091   4.638
 5011SOL     OW15931   0.887   2.761   2.812
 5011SOL    HW115932   0.829   2.687   2.848
 5011SOL    HW215933   0.982   2.731   2.810
 5012SOL     OW15934   6.412   2.105   6.614
 5012SOL    HW115935   6.396   2.075   6.520
 5012SOL    HW215936   6.389   2.031   6.677
 5013SOL     OW15937   3.919   1.604   6.604
 5013SOL    HW115938   3.970   1.687   6.581
 5013SOL    HW215939   3.900   1.552   6.521
 5014SOL     OW15940   5.991   6.563   0.185
 5014SOL    HW115941   5.947   6.628   0.124
 5014SOL    HW215942   5.954   6.574   0.277
 5015SOL     OW15943   4.500   2.498   3.630
 5015SOL    HW115944   4.577   2.535   3.682
 5015SOL    HW215945   4.534   2.438   3.558
 5016SOL     OW15946   2.108   6.780   3.383
 5016SOL    HW115947   2.128   6.723   3.463
 5016SOL    HW215948   2.194   6.808   3.341
 5017SOL     OW15949   2.343   2.875   1.383
 5017SOL    HW115950   2.256   2.849   1.426
 5017SOL    HW215951   2.413   2.886   1.453
 5018SOL     OW15952   6.232   5.308   3.858
 5018SOL    HW115953   6.301   5.380   3.865
 5018SOL    HW215954   6.231   5.254   3.942
 5019SOL     OW15955   1.833   4.710   6.306
 5019SOL    HW115956   1.873   4.773   6.373
 5019SOL    HW215957   1.860   4.616   6.328
 5020SOL     OW15958   5.191   5.213   6.023
 5020SOL    HW115959   5.255   5.257   5.961
 5020SOL    HW215960   5.241   5.158   6.090
 5021SOL     OW15961   1.293   4.564   6.409
 5021SOL    HW115962   1.264   4.520   6.324
 5021SOL    HW215963   1.298   4.496   6.482
 5022SOL     OW15964   1.404   5.529   0.150
 5022SOL    HW115965   1.405   5.606   0.214
 5022SOL    HW215966   1.473   5.462   0.177
 5023SOL     OW15967   6.220   3.004   2.308
 5023SOL    HW115968   6.124   3.033   2.309
 5023SOL    HW215969   6.258   3.019   2.217
 5024SOL     OW15970   6.334   3.820   4.621
 5024SOL    HW115971   6.272   3.859   4.689
 5024SOL    HW215972   6.320   3.721   4.616
 5025SOL     OW15973   5.317   1.354   3.432
 5025SOL    HW115974   5.286   1.374   3.339
 5025SOL    HW215975   5.243   1.311   3.483
 5026SOL     OW15976   0.624   6.555   4.341
 5026SOL    HW115977   0.708   6.599   4.371
 5026SOL    HW215978   0.563   6.623   4.300
 5027SOL     OW15979   1.001   0.167   3.931
 5027SOL    HW115980   0.959   0.078   3.912
 5027SOL    HW215981   1.100   0.161   3.913
 5028SOL     OW15982   0.692   0.388   3.017
 5028SOL    HW115983   0.703   0.360   3.113
 5028SOL    HW215984   0.709   0.309   2.958
 5029SOL     OW15985   0.021   1.454   1.591
 5029SOL    HW115986   0.025   1.354   1.588
 5029SOL    HW215987   0.073   1.491   1.513
 5030SOL     OW15988   1.288   6.144   6.857
 5030SOL    HW115989   1.287   6.240   6.830
 5030SOL    HW215990   1.347   6.133   6.937
 5031SOL     OW15991   5.464   0.397   4.733
 5031SOL    HW115992   5.518   0.468   4.779
 5031SOL    HW215993   5.506   0.375   4.645
 5032SOL     OW15994   2.009   5.401   1.067
 5032SOL    HW115995   1.953   5.413   0.985
 5032SOL    HW215996   2.088   5.344   1.045
 5033SOL     OW15997   1.869   4.069   5.718
 5033SOL    HW115998   1.860   4.099   5.623
 5033SOL    HW215999   1.947   4.007   5.727
 5034SOL     OW16000   6.938   3.433   0.650
 5034SOL    HW116001   6.967   3.528   0.640
 5034SOL    HW216002   6.877   3.424   0.729
 5035SOL     OW16003   5.286   4.376   0.948
 5035SOL    HW116004   5.306   4.473   0.935
 5035SOL    HW216005   5.206   4.365   1.007
 5036SOL     OW16006   1.400   0.332   2.113
 5036SOL    HW116007   1.382   0.429   2.097
 5036SOL    HW216008   1.486   0.323   2.163
 5037SOL     OW16009   4.310   2.325   3.720
 5037SOL    HW116010   4.308   2.335   3.819
 5037SOL    HW216011   4.362   2.401   3.680
 5038SOL     OW16012   2.217   6.388   5.835
 5038SOL    HW116013   2.263   6.361   5.750
 5038SOL    HW216014   2.284   6.394   5.909
 5039SOL     OW16015   2.094   1.848   4.989
 5039SOL    HW116016   2.185   1.856   5.029
 5039SOL    HW216017   2.037   1.925   5.017
 5040SOL     OW16018   2.920   3.670   5.734
 5040SOL    HW116019   2.974   3.644   5.654
 5040SOL    HW216020   2.836   3.715   5.704
 5041SOL     OW16021   1.456   4.515   0.607
 5041SOL    HW116022   1.532   4.451   0.594
 5041SOL    HW216023   1.417   4.503   0.698
 5042SOL     OW16024   5.421   2.354   6.484
 5042SOL    HW116025   5.324   2.361   6.460
 5042SOL    HW216026   5.446   2.257   6.490
 5043SOL     OW16027   4.143   0.564   3.904
 5043SOL    HW116028   4.131   0.568   3.805
 5043SOL    HW216029   4.172   0.653   3.938
 5044SOL     OW16030   6.846   4.815   3.254
 5044SOL    HW116031   6.806   4.895   3.299
 5044SOL    HW216032   6.834   4.735   3.313
 5045SOL     OW16033   5.760   2.637   6.470
 5045SOL    HW116034   5.853   2.666   6.447
 5045SOL    HW216035   5.704   2.634   6.388
 5046SOL     OW16036   3.188   3.041   5.076
 5046SOL    HW116037   3.286   3.023   5.069
 5046SOL    HW216038   3.150   2.986   5.150
 5047SOL     OW16039   0.970   0.862   2.496
 5047SOL    HW116040   0.982   0.828   2.590
 5047SOL    HW216041   0.991   0.960   2.494
 5048SOL     OW16042   5.780   2.898   1.727
 5048SOL    HW116043   5.732   2.852   1.653
 5048SOL    HW216044   5.782   2.997   1.710
 5049SOL     OW16045   1.238   2.675   2.229
 5049SOL    HW116046   1.216   2.684   2.327
 5049SOL    HW216047   1.254   2.578   2.208
 5050SOL     OW16048   0.925   3.009   1.660
 5050SOL    HW116049   0.921   2.976   1.566
 5050SOL    HW216050   0.836   2.995   1.704
 5051SOL     OW16051   2.429   5.480   0.694
 5051SOL    HW116052   2.404   5.552   0.630
 5051SOL    HW216053   2.368   5.402   0.681
 5052SOL     OW16054   5.633   5.097   0.978
 5052SOL    HW116055   5.666   5.045   1.057
 5052SOL    HW216056   5.625   5.037   0.899
 5053SOL     OW16057   2.335   4.670   0.644
 5053SOL    HW116058   2.379   4.612   0.712
 5053SOL    HW216059   2.258   4.620   0.602
 5054SOL     OW16060   3.707   6.048   4.638
 5054SOL    HW116061   3.796   6.012   4.663
 5054SOL    HW216062   3.697   6.045   4.539
 5055SOL     OW16063   0.963   1.988   4.936
 5055SOL    HW116064   1.044   1.940   4.971
 5055SOL    HW216065   0.904   1.924   4.888
 5056SOL     OW16066   1.247   2.797   5.353
 5056SOL    HW116067   1.195   2.764   5.275
 5056SOL    HW216068   1.339   2.824   5.323
 5057SOL     OW16069   0.329   5.243   2.494
 5057SOL    HW116070   0.279   5.176   2.438
 5057SOL    HW216071   0.326   5.214   2.590
 5058SOL     OW16072   3.773   4.515   6.343
 5058SOL    HW116073   3.804   4.601   6.384
 5058SOL    HW216074   3.717   4.535   6.263
 5059SOL     OW16075   3.574   1.759   3.758
 5059SOL    HW116076   3.579   1.859   3.767
 5059SOL    HW216077   3.479   1.730   3.762
 5060SOL     OW16078   0.565   3.424   5.705
 5060SOL    HW116079   0.596   3.499   5.763
 5060SOL    HW216080   0.599   3.337   5.742
 5061SOL     OW16081   3.692   2.949   5.632
 5061SOL    HW116082   3.690   3.045   5.660
 5061SOL    HW216083   3.777   2.907   5.664
 5062SOL     OW16084   5.011   1.596   2.886
 5062SOL    HW116085   4.967   1.574   2.974
 5062SOL    HW216086   4.952   1.658   2.834
 5063SOL     OW16087   0.932   0.519   2.642
 5063SOL    HW116088   0.961   0.614   2.656
 5063SOL    HW216089   0.837   0.509   2.672
 5064SOL     OW16090   4.654   5.713   1.206
 5064SOL    HW116091   4.590   5.640   1.231
 5064SOL    HW216092   4.617   5.763   1.128
 5065SOL     OW16093   2.349   0.174   2.547
 5065SOL    HW116094   2.286   0.097   2.556
 5065SOL    HW216095   2.343   0.232   2.628
 5066SOL     OW16096   2.524   4.638   1.970
 5066SOL    HW116097   2.465   4.660   2.047
 5066SOL    HW216098   2.620   4.643   1.998
 5067SOL     OW16099   4.349   2.890   0.856
 5067SOL    HW116100   4.281   2.960   0.877
 5067SOL    HW216101   4.319   2.802   0.891
 5068SOL     OW16102   3.027   6.047   0.364
 5068SOL    HW116103   2.944   6.080   0.408
 5068SOL    HW216104   3.097   6.120   0.367
 5069SOL     OW16105   3.374   5.062   5.618
 5069SOL    HW116106   3.446   4.996   5.641
 5069SOL    HW216107   3.297   5.013   5.577
 5070SOL     OW16108   6.174   3.376   3.596
 5070SOL    HW116109   6.179   3.403   3.500
 5070SOL    HW216110   6.140   3.452   3.651
 5071SOL     OW16111   2.739   0.353   4.544
 5071SOL    HW116112   2.723   0.284   4.474
 5071SOL    HW216113   2.753   0.442   4.501
 5072SOL     OW16114   0.995   1.538   0.311
 5072SOL    HW116115   0.989   1.592   0.395
 5072SOL    HW216116   1.014   1.598   0.234
 5073SOL     OW16117   2.293   0.548   2.513
 5073SOL    HW116118   2.233   0.616   2.471
 5073SOL    HW216119   2.300   0.469   2.452
 5074SOL     OW16120   3.610   2.132   1.704
 5074SOL    HW116121   3.705   2.103   1.703
 5074SOL    HW216122   3.600   2.212   1.764
 5075SOL     OW16123   0.955   3.197   0.391
 5075SOL    HW116124   0.976   3.111   0.344
 5075SOL    HW216125   1.038   3.252   0.396
 5076SOL     OW16126   5.632   6.696   6.569
 5076SOL    HW116127   5.718   6.650   6.546
 5076SOL    HW216128   5.599   6.746   6.488
 5077SOL     OW16129   0.798   4.561   3.985
 5077SOL    HW116130   0.714   4.558   3.931
 5077SOL    HW216131   0.808   4.474   4.034
 5078SOL     OW16132   1.044   1.386   3.651
 5078SOL    HW116133   0.971   1.423   3.593
 5078SOL    HW216134   1.035   1.286   3.656
 5079SOL     OW16135   1.557   3.072   5.983
 5079SOL    HW116136   1.515   3.149   6.031
 5079SOL    HW216137   1.561   2.993   6.044
 5080SOL     OW16138   5.692   5.505   6.525
 5080SOL    HW116139   5.626   5.557   6.470
 5080SOL    HW216140   5.785   5.534   6.502
 5081SOL     OW16141   3.488   5.239   5.437
 5081SOL    HW116142   3.466   5.174   5.510
 5081SOL    HW216143   3.416   5.238   5.368
 5082SOL     OW16144   5.483   6.178   1.863
 5082SOL    HW116145   5.448   6.090   1.895
 5082SOL    HW216146   5.583   6.178   1.867
 5083SOL     OW16147   2.028   0.038   3.197
 5083SOL    HW116148   2.078   6.978   3.233
 5083SOL    HW216149   1.957   0.005   3.133
 5084SOL     OW16150   1.658   4.956   5.286
 5084SOL    HW116151   1.641   4.888   5.215
 5084SOL    HW216152   1.595   5.033   5.273
 5085SOL     OW16153   0.139   4.023   6.178
 5085SOL    HW116154   0.079   4.074   6.117
 5085SOL    HW216155   0.223   3.998   6.130
 5086SOL     OW16156   2.548   5.320   2.525
 5086SOL    HW116157   2.449   5.313   2.513
 5086SOL    HW216158   2.587   5.375   2.452
 5087SOL     OW16159   6.895   4.866   2.076
 5087SOL    HW116160   6.963   4.854   2.003
 5087SOL    HW216161   6.896   4.786   2.136
 5088SOL     OW16162   5.195   6.370   2.217
 5088SOL    HW116163   5.288   6.376   2.182
 5088SOL    HW216164   5.130   6.381   2.142
 5089SOL     OW16165   5.570   4.871   5.391
 5089SOL    HW116166   5.492   4.931   5.373
 5089SOL    HW216167   5.644   4.891   5.327
 5090SOL     OW16168   3.230   0.280   5.093
 5090SOL    HW116169   3.308   0.219   5.079
 5090SOL    HW216170   3.253   0.371   5.061
 5091SOL     OW16171   6.260   6.851   6.966
 5091SOL    HW116172   6.243   6.850   0.046
 5091SOL    HW216173   6.288   6.760   6.937
 5092SOL     OW16174   2.887   3.432   3.924
 5092SOL    HW116175   2.816   3.380   3.971
 5092SOL    HW216176   2.894   3.523   3.964
 5093SOL     OW16177   1.777   1.725   2.657
 5093SOL    HW116178   1.794   1.652   2.591
 5093SOL    HW216179   1.762   1.811   2.608
 5094SOL     OW16180   2.536   5.897   6.027
 5094SOL    HW116181   2.480   5.960   5.973
 5094SOL    HW216182   2.502   5.895   6.121
 5095SOL     OW16183   6.634   1.067   3.057
 5095SOL    HW116184   6.575   1.147   3.058
 5095SOL    HW216185   6.641   1.031   2.964
 5096SOL     OW16186   5.527   2.957   5.514
 5096SOL    HW116187   5.513   2.931   5.418
 5096SOL    HW216188   5.439   2.979   5.556
 5097SOL     OW16189   1.077   0.028   6.520
 5097SOL    HW116190   1.003   0.052   6.583
 5097SOL    HW216191   1.108   0.110   6.472
 5098SOL     OW16192   4.093   2.265   1.413
 5098SOL    HW116193   4.116   2.351   1.368
 5098SOL    HW216194   4.064   2.283   1.507
 5099SOL     OW16195   0.986   0.543   1.821
 5099SOL    HW116196   1.070   0.593   1.840
 5099SOL    HW216197   0.908   0.594   1.857
 5100SOL     OW16198   5.547   4.417   2.618
 5100SOL    HW116199   5.574   4.472   2.540
 5100SOL    HW216200   5.596   4.448   2.700
 5101SOL     OW16201   3.822   0.017   6.342
 5101SOL    HW116202   3.783   0.106   6.369
 5101SOL    HW216203   3.750   6.979   6.302
 5102SOL     OW16204   5.095   4.453   4.595
 5102SOL    HW116205   5.169   4.514   4.622
 5102SOL    HW216206   5.020   4.459   4.661
 5103SOL     OW16207   1.031   0.850   6.339
 5103SOL    HW116208   0.976   0.801   6.406
 5103SOL    HW216209   1.016   0.811   6.248
 5104SOL     OW16210   3.538   3.894   1.600
 5104SOL    HW116211   3.610   3.885   1.531
 5104SOL    HW216212   3.541   3.985   1.640
 5105SOL     OW16213   4.065   3.558   6.363
 5105SOL    HW116214   4.083   3.653   6.336
 5105SOL    HW216215   4.151   3.509   6.374
 5106SOL     OW16216   4.574   2.720   0.746
 5106SOL    HW116217   4.653   2.781   0.743
 5106SOL    HW216218   4.492   2.773   0.771
 5107SOL     OW16219   5.010   3.495   0.611
 5107SOL    HW116220   5.077   3.561   0.578
 5107SOL    HW216221   4.987   3.516   0.706
 5108SOL     OW16222   4.290   4.759   6.899
 5108SOL    HW116223   4.295   4.686   6.968
 5108SOL    HW216224   4.325   4.844   6.938
 5109SOL     OW16225   1.308   3.074   1.087
 5109SOL    HW116226   1.325   3.134   1.166
 5109SOL    HW216227   1.377   3.002   1.084
 5110SOL     OW16228   4.788   0.242   6.160
 5110SOL    HW116229   4.789   0.244   6.260
 5110SOL    HW216230   4.723   0.310   6.126
 5111SOL     OW16231   0.837   6.529   5.083
 5111SOL    HW116232   0.881   6.522   4.994
 5111SOL    HW216233   0.783   6.447   5.101
 5112SOL     OW16234   0.303   0.128   2.880
 5112SOL    HW116235   0.397   0.101   2.863
 5112SOL    HW216236   0.285   0.217   2.839
 5113SOL     OW16237   2.255   4.208   0.071
 5113SOL    HW116238   2.290   4.175   7.002
 5113SOL    HW216239   2.289   4.300   0.087
 5114SOL     OW16240   4.317   5.621   0.923
 5114SOL    HW116241   4.311   5.620   0.824
 5114SOL    HW216242   4.318   5.716   0.955
 5115SOL     OW16243   2.106   3.728   0.898
 5115SOL    HW116244   2.099   3.637   0.856
 5115SOL    HW216245   2.027   3.783   0.872
 5116SOL     OW16246   1.947   0.008   6.635
 5116SOL    HW116247   1.940   6.989   6.543
 5116SOL    HW216248   2.017   6.976   6.686
 5117SOL     OW16249   1.394   2.160   3.939
 5117SOL    HW116250   1.320   2.154   3.872
 5117SOL    HW216251   1.360   2.202   4.023
 5118SOL     OW16252   5.188   6.070   6.310
 5118SOL    HW116253   5.253   6.088   6.236
 5118SOL    HW216254   5.237   6.063   6.397
 5119SOL     OW16255   4.963   1.750   0.327
 5119SOL    HW116256   5.020   1.772   0.248
 5119SOL    HW216257   4.984   1.811   0.403
 5120SOL     OW16258   5.190   0.009   5.601
 5120SOL    HW116259   5.148   6.963   5.538
 5120SOL    HW216260   5.118   0.058   5.651
 5121SOL     OW16261   1.566   3.819   6.849
 5121SOL    HW116262   1.587   3.853   6.758
 5121SOL    HW216263   1.498   3.878   6.892
 5122SOL     OW16264   5.112   5.190   3.912
 5122SOL    HW116265   5.026   5.236   3.936
 5122SOL    HW216266   5.104   5.152   3.819
 5123SOL     OW16267   5.319   2.657   2.090
 5123SOL    HW116268   5.227   2.619   2.081
 5123SOL    HW216269   5.323   2.746   2.046
 5124SOL     OW16270   1.755   6.222   3.491
 5124SOL    HW116271   1.759   6.197   3.588
 5124SOL    HW216272   1.831   6.179   3.442
 5125SOL     OW16273   0.153   1.435   4.063
 5125SOL    HW116274   0.243   1.428   4.105
 5125SOL    HW216275   0.090   1.370   4.106
 5126SOL     OW16276   2.032   0.278   0.450
 5126SOL    HW116277   2.040   0.179   0.436
 5126SOL    HW216278   1.947   0.311   0.410
 5127SOL     OW16279   1.788   5.260   6.864
 5127SOL    HW116280   1.881   5.292   6.845
 5127SOL    HW216281   1.727   5.338   6.872
 5128SOL     OW16282   6.654   6.059   1.730
 5128SOL    HW116283   6.729   6.125   1.727
 5128SOL    HW216284   6.635   6.035   1.825
 5129SOL     OW16285   5.739   6.836   1.365
 5129SOL    HW116286   5.764   6.743   1.392
 5129SOL    HW216287   5.655   6.834   1.311
 5130SOL     OW16288   6.756   5.052   3.359
 5130SOL    HW116289   6.666   5.094   3.349
 5130SOL    HW216290   6.827   5.123   3.362
 5131SOL     OW16291   2.444   2.536   3.156
 5131SOL    HW116292   2.406   2.568   3.243
 5131SOL    HW216293   2.544   2.546   3.158
 5132SOL     OW16294   2.813   5.519   5.290
 5132SOL    HW116295   2.887   5.585   5.276
 5132SOL    HW216296   2.802   5.500   5.387
 5133SOL     OW16297   3.733   6.293   6.342
 5133SOL    HW116298   3.647   6.331   6.308
 5133SOL    HW216299   3.806   6.361   6.332
 5134SOL     OW16300   0.633   3.932   0.558
 5134SOL    HW116301   0.594   3.991   0.628
 5134SOL    HW216302   0.608   3.968   0.467
 5135SOL     OW16303   6.316   1.581   5.036
 5135SOL    HW116304   6.324   1.579   4.936
 5135SOL    HW216305   6.406   1.571   5.078
 5136SOL     OW16306   4.277   1.459   3.845
 5136SOL    HW116307   4.203   1.460   3.778
 5136SOL    HW216308   4.353   1.515   3.812
 5137SOL     OW16309   3.622   4.701   6.221
 5137SOL    HW116310   3.525   4.679   6.211
 5137SOL    HW216311   3.666   4.702   6.131
 5138SOL     OW16312   2.616   3.763   5.685
 5138SOL    HW116313   2.602   3.803   5.594
 5138SOL    HW216314   2.564   3.678   5.691
 5139SOL     OW16315   0.967   6.782   4.051
 5139SOL    HW116316   0.884   6.817   4.007
 5139SOL    HW216317   0.960   6.683   4.061
 5140SOL     OW16318   3.544   2.859   1.364
 5140SOL    HW116319   3.636   2.820   1.370
 5140SOL    HW216320   3.481   2.804   1.419
 5141SOL     OW16321   5.954   3.347   6.755
 5141SOL    HW116322   6.034   3.407   6.751
 5141SOL    HW216323   5.891   3.380   6.826
 5142SOL     OW16324   5.334   3.687   4.446
 5142SOL    HW116325   5.361   3.698   4.542
 5142SOL    HW216326   5.414   3.701   4.387
 5143SOL     OW16327   6.600   5.249   3.837
 5143SOL    HW116328   6.560   5.222   3.925
 5143SOL    HW216329   6.563   5.190   3.765
 5144SOL     OW16330   1.501   1.311   5.596
 5144SOL    HW116331   1.594   1.347   5.586
 5144SOL    HW216332   1.466   1.284   5.506
 5145SOL     OW16333   2.771   5.476   5.810
 5145SOL    HW116334   2.807   5.407   5.872
 5145SOL    HW216335   2.684   5.510   5.845
 5146SOL     OW16336   2.857   4.933   0.056
 5146SOL    HW116337   2.890   4.956   0.148
 5146SOL    HW216338   2.902   4.849   0.025
 5147SOL     OW16339   6.351   4.754   6.240
 5147SOL    HW116340   6.424   4.758   6.172
 5147SOL    HW216341   6.390   4.742   6.331
 5148SOL     OW16342   0.454   5.854   1.333
 5148SOL    HW116343   0.377   5.861   1.269
 5148SOL    HW216344   0.507   5.772   1.312
 5149SOL     OW16345   6.823   1.145   4.429
 5149SOL    HW116346   6.766   1.088   4.369
 5149SOL    HW216347   6.821   1.240   4.397
 5150SOL     OW16348   1.753   4.881   4.385
 5150SOL    HW116349   1.820   4.953   4.402
 5150SOL    HW216350   1.774   4.802   4.443
 5151SOL     OW16351   4.116   1.161   6.669
 5151SOL    HW116352   4.195   1.194   6.616
 5151SOL    HW216353   4.060   1.101   6.612
 5152SOL     OW16354   0.951   4.889   6.829
 5152SOL    HW116355   0.936   4.850   6.920
 5152SOL    HW216356   1.004   4.826   6.773
 5153SOL     OW16357   1.509   1.988   0.809
 5153SOL    HW116358   1.576   1.950   0.745
 5153SOL    HW216359   1.556   2.048   0.874
 5154SOL     OW16360   1.651   2.689   5.188
 5154SOL    HW116361   1.571   2.746   5.203
 5154SOL    HW216362   1.706   2.727   5.114
 5155SOL     OW16363   2.917   0.059   2.246
 5155SOL    HW116364   3.009   0.020   2.254
 5155SOL    HW216365   2.900   0.084   2.151
 5156SOL     OW16366   5.755   2.658   5.430
 5156SOL    HW116367   5.793   2.743   5.466
 5156SOL    HW216368   5.761   2.587   5.500
 5157SOL     OW16369   5.448   2.631   3.536
 5157SOL    HW116370   5.469   2.695   3.462
 5157SOL    HW216371   5.349   2.629   3.552
 5158SOL     OW16372   3.739   1.503   1.338
 5158SOL    HW116373   3.765   1.556   1.257
 5158SOL    HW216374   3.647   1.529   1.366
 5159SOL     OW16375   1.727   2.907   4.180
 5159SOL    HW116376   1.692   2.819   4.212
 5159SOL    HW216377   1.753   2.963   4.258
 5160SOL     OW16378   2.141   3.255   4.492
 5160SOL    HW116379   2.131   3.272   4.394
 5160SOL    HW216380   2.136   3.341   4.542
 5161SOL     OW16381   0.775   3.010   5.255
 5161SOL    HW116382   0.866   3.029   5.290
 5161SOL    HW216383   0.711   3.079   5.288
 5162SOL     OW16384   6.646   6.269   4.023
 5162SOL    HW116385   6.702   6.187   4.023
 5162SOL    HW216386   6.554   6.247   3.988
 5163SOL     OW16387   5.139   4.194   1.202
 5163SOL    HW116388   5.091   4.109   1.180
 5163SOL    HW216389   5.138   4.207   1.302
 5164SOL     OW16390   5.918   4.044   5.935
 5164SOL    HW116391   5.936   3.966   5.995
 5164SOL    HW216392   6.000   4.062   5.880
 5165SOL     OW16393   6.348   4.203   3.674
 5165SOL    HW116394   6.392   4.183   3.587
 5165SOL    HW216395   6.346   4.302   3.687
 5166SOL     OW16396   1.699   6.304   2.209
 5166SOL    HW116397   1.725   6.249   2.289
 5166SOL    HW216398   1.633   6.252   2.154
 5167SOL     OW16399   0.376   6.050   5.816
 5167SOL    HW116400   0.443   6.109   5.860
 5167SOL    HW216401   0.297   6.039   5.877
 5168SOL     OW16402   4.159   2.277   2.955
 5168SOL    HW116403   4.174   2.374   2.939
 5168SOL    HW216404   4.243   2.227   2.934
 5169SOL     OW16405   3.896   3.903   6.161
 5169SOL    HW116406   3.974   3.841   6.168
 5169SOL    HW216407   3.926   3.997   6.177
 5170SOL     OW16408   5.310   4.261   5.027
 5170SOL    HW116409   5.341   4.196   5.096
 5170SOL    HW216410   5.219   4.235   4.994
 5171SOL     OW16411   2.435   5.025   4.676
 5171SOL    HW116412   2.461   5.117   4.648
 5171SOL    HW216413   2.508   4.961   4.654
 5172SOL     OW16414   1.356   5.232   2.070
 5172SOL    HW116415   1.413   5.211   1.990
 5172SOL    HW216416   1.289   5.160   2.085
 5173SOL     OW16417   5.217   3.245   6.210
 5173SOL    HW116418   5.226   3.150   6.240
 5173SOL    HW216419   5.300   3.295   6.233
 5174SOL     OW16420   1.084   4.655   6.079
 5174SOL    HW116421   1.135   4.569   6.084
 5174SOL    HW216422   1.033   4.658   5.993
 5175SOL     OW16423   0.673   4.694   6.793
 5175SOL    HW116424   0.729   4.752   6.733
 5175SOL    HW216425   0.586   4.674   6.748
 5176SOL     OW16426   5.162   3.693   0.539
 5176SOL    HW116427   5.256   3.729   0.533
 5176SOL    HW216428   5.097   3.768   0.524
 5177SOL     OW16429   5.136   6.959   6.471
 5177SOL    HW116430   5.213   6.965   6.535
 5177SOL    HW216431   5.067   6.898   6.508
 5178SOL     OW16432   2.456   2.534   1.951
 5178SOL    HW116433   2.426   2.447   1.991
 5178SOL    HW216434   2.377   2.583   1.914
 5179SOL     OW16435   3.195   6.236   6.107
 5179SOL    HW116436   3.227   6.160   6.051
 5179SOL    HW216437   3.133   6.293   6.053
 5180SOL     OW16438   2.758   2.063   1.570
 5180SOL    HW116439   2.675   2.104   1.534
 5180SOL    HW216440   2.812   2.133   1.618
 5181SOL     OW16441   4.396   6.523   2.704
 5181SOL    HW116442   4.395   6.572   2.791
 5181SOL    HW216443   4.308   6.476   2.691
 5182SOL     OW16444   5.238   4.240   1.495
 5182SOL    HW116445   5.254   4.281   1.584
 5182SOL    HW216446   5.285   4.151   1.490
 5183SOL     OW16447   4.527   0.385   1.892
 5183SOL    HW116448   4.486   0.307   1.846
 5183SOL    HW216449   4.458   0.456   1.907
 5184SOL     OW16450   0.904   1.017   2.979
 5184SOL    HW116451   0.842   1.095   2.990
 5184SOL    HW216452   0.995   1.043   3.012
 5185SOL     OW16453   3.674   0.106   2.289
 5185SOL    HW116454   3.656   0.183   2.228
 5185SOL    HW216455   3.763   0.119   2.334
 5186SOL     OW16456   6.492   4.436   0.666
 5186SOL    HW116457   6.413   4.383   0.697
 5186SOL    HW216458   6.461   4.516   0.614
 5187SOL     OW16459   5.456   1.812   3.917
 5187SOL    HW116460   5.556   1.802   3.916
 5187SOL    HW216461   5.428   1.858   4.001
 5188SOL     OW16462   1.020   3.916   5.711
 5188SOL    HW116463   1.010   3.852   5.634
 5188SOL    HW216464   0.993   3.871   5.796
 5189SOL     OW16465   4.592   5.442   6.611
 5189SOL    HW116466   4.538   5.388   6.675
 5189SOL    HW216467   4.661   5.384   6.568
 5190SOL     OW16468   1.453   2.358   3.763
 5190SOL    HW116469   1.466   2.274   3.816
 5190SOL    HW216470   1.541   2.386   3.724
 5191SOL     OW16471   3.781   0.022   1.559
 5191SOL    HW116472   3.806   0.114   1.588
 5191SOL    HW216473   3.842   7.010   1.487
 5192SOL     OW16474   6.363   5.706   2.858
 5192SOL    HW116475   6.382   5.642   2.933
 5192SOL    HW216476   6.446   5.758   2.837
 5193SOL     OW16477   4.892   3.920   3.085
 5193SOL    HW116478   4.955   3.976   3.031
 5193SOL    HW216479   4.827   3.875   3.024
 5194SOL     OW16480   5.926   0.607   5.778
 5194SOL    HW116481   5.893   0.580   5.868
 5194SOL    HW216482   6.023   0.632   5.784
 5195SOL     OW16483   6.069   6.205   5.481
 5195SOL    HW116484   6.015   6.207   5.565
 5195SOL    HW216485   6.010   6.224   5.403
 5196SOL     OW16486   0.078   4.016   1.953
 5196SOL    HW116487   0.044   3.921   1.951
 5196SOL    HW216488   0.114   4.040   1.863
 5197SOL     OW16489   2.953   5.782   4.979
 5197SOL    HW116490   2.910   5.708   4.926
 5197SOL    HW216491   2.894   5.805   5.056
 5198SOL     OW16492   4.226   6.882   5.207
 5198SOL    HW116493   4.247   6.806   5.269
 5198SOL    HW216494   4.229   6.849   5.113
 5199SOL     OW16495   1.293   4.961   1.456
 5199SOL    HW116496   1.219   4.955   1.389
 5199SOL    HW216497   1.368   4.901   1.428
 5200SOL     OW16498   6.740   1.184   5.442
 5200SOL    HW116499   6.807   1.195   5.516
 5200SOL    HW216500   6.738   1.267   5.386
 5201SOL     OW16501   6.242   5.154   4.110
 5201SOL    HW116502   6.144   5.142   4.126
 5201SOL    HW216503   6.277   5.225   4.171
 5202SOL     OW16504   3.801   2.696   6.250
 5202SOL    HW116505   3.818   2.676   6.346
 5202SOL    HW216506   3.884   2.680   6.197
 5203SOL     OW16507   1.577   0.100   0.189
 5203SOL    HW116508   1.615   0.183   0.148
 5203SOL    HW216509   1.478   0.101   0.179
 5204SOL     OW16510   3.124   0.816   0.231
 5204SOL    HW116511   3.076   0.851   0.150
 5204SOL    HW216512   3.144   0.892   0.293
 5205SOL     OW16513   0.485   5.747   0.881
 5205SOL    HW116514   0.471   5.670   0.818
 5205SOL    HW216515   0.431   5.825   0.850
 5206SOL     OW16516   1.147   4.200   4.412
 5206SOL    HW116517   1.175   4.133   4.343
 5206SOL    HW216518   1.084   4.266   4.371
 5207SOL     OW16519   0.114   0.237   3.834
 5207SOL    HW116520   0.084   0.237   3.739
 5207SOL    HW216521   0.050   0.291   3.889
 5208SOL     OW16522   5.115   1.819   0.138
 5208SOL    HW116523   5.211   1.798   0.117
 5208SOL    HW216524   5.088   1.902   0.090
 5209SOL     OW16525   5.438   5.710   2.715
 5209SOL    HW116526   5.477   5.800   2.696
 5209SOL    HW216527   5.455   5.686   2.810
 5210SOL     OW16528   5.497   4.271   0.450
 5210SOL    HW116529   5.402   4.272   0.480
 5210SOL    HW216530   5.515   4.349   0.391
 5211SOL     OW16531   4.847   3.162   4.464
 5211SOL    HW116532   4.859   3.250   4.511
 5211SOL    HW216533   4.836   3.089   4.532
 5212SOL     OW16534   1.319   3.485   0.448
 5212SOL    HW116535   1.251   3.465   0.519
 5212SOL    HW216536   1.411   3.481   0.487
 5213SOL     OW16537   4.011   3.318   2.835
 5213SOL    HW116538   3.914   3.299   2.821
 5213SOL    HW216539   4.059   3.310   2.748
 5214SOL     OW16540   5.205   3.792   5.756
 5214SOL    HW116541   5.245   3.884   5.755
 5214SOL    HW216542   5.266   3.730   5.805
 5215SOL     OW16543   0.098   3.767   4.805
 5215SOL    HW116544   0.066   3.855   4.841
 5215SOL    HW216545   0.078   3.695   4.872
 5216SOL     OW16546   5.068   5.464   1.376
 5216SOL    HW116547   5.101   5.548   1.419
 5216SOL    HW216548   5.010   5.487   1.298
 5217SOL     OW16549   4.234   6.072   3.802
 5217SOL    HW116550   4.334   6.081   3.803
 5217SOL    HW216551   4.199   6.089   3.894
 5218SOL     OW16552   0.271   0.030   1.133
 5218SOL    HW116553   0.240   6.987   1.062
 5218SOL    HW216554   0.260   7.007   1.223
 5219SOL     OW16555   3.356   1.716   4.936
 5219SOL    HW116556   3.292   1.656   4.984
 5219SOL    HW216557   3.305   1.781   4.880
 5220SOL     OW16558   2.393   4.303   4.297
 5220SOL    HW116559   2.298   4.300   4.330
 5220SOL    HW216560   2.400   4.371   4.224
 5221SOL     OW16561   6.329   5.675   0.948
 5221SOL    HW116562   6.404   5.638   0.894
 5221SOL    HW216563   6.256   5.706   0.887
 5222SOL     OW16564   5.412   4.045   1.116
 5222SOL    HW116565   5.320   4.022   1.082
 5222SOL    HW216566   5.473   3.967   1.101
 5223SOL     OW16567   0.501   3.055   1.082
 5223SOL    HW116568   0.534   3.138   1.126
 5223SOL    HW216569   0.432   3.079   1.014
 5224SOL     OW16570   0.476   2.402   4.973
 5224SOL    HW116571   0.492   2.448   4.886
 5224SOL    HW216572   0.537   2.324   4.982
 5225SOL     OW16573   7.010   1.675   4.999
 5225SOL    HW116574   6.910   1.671   5.001
 5225SOL    HW216575   0.021   1.716   4.913
 5226SOL     OW16576   0.875   6.432   3.915
 5226SOL    HW116577   0.881   6.332   3.915
 5226SOL    HW216578   0.924   6.468   3.835
 5227SOL     OW16579   0.099   2.561   5.536
 5227SOL    HW116580   0.113   2.651   5.577
 5227SOL    HW216581   0.181   2.505   5.547
 5228SOL     OW16582   1.367   2.260   5.692
 5228SOL    HW116583   1.458   2.257   5.651
 5228SOL    HW216584   1.330   2.167   5.698
 5229SOL     OW16585   3.352   1.240   5.850
 5229SOL    HW116586   3.445   1.271   5.834
 5229SOL    HW216587   3.354   1.147   5.887
 5230SOL     OW16588   6.591   6.409   1.938
 5230SOL    HW116589   6.629   6.495   1.972
 5230SOL    HW216590   6.640   6.381   1.855
 5231SOL     OW16591   6.938   2.026   1.804
 5231SOL    HW116592   0.012   2.060   1.796
 5231SOL    HW216593   6.886   2.085   1.867
 5232SOL     OW16594   1.679   3.105   5.739
 5232SOL    HW116595   1.625   3.094   5.822
 5232SOL    HW216596   1.776   3.107   5.762
 5233SOL     OW16597   2.880   6.978   2.774
 5233SOL    HW116598   2.826   0.020   2.716
 5233SOL    HW216599   2.895   6.892   2.727
 5234SOL     OW16600   2.091   2.139   0.143
 5234SOL    HW116601   2.153   2.218   0.145
 5234SOL    HW216602   2.130   2.065   0.198
 5235SOL     OW16603   2.041   2.506   1.149
 5235SOL    HW116604   2.064   2.453   1.067
 5235SOL    HW216605   2.107   2.486   1.222
 5236SOL     OW16606   3.595   5.777   1.966
 5236SOL    HW116607   3.509   5.729   1.978
 5236SOL    HW216608   3.671   5.712   1.976
 5237SOL     OW16609   2.053   2.043   2.798
 5237SOL    HW116610   2.146   2.072   2.775
 5237SOL    HW216611   1.999   2.122   2.826
 5238SOL     OW16612   0.585   6.893   3.029
 5238SOL    HW116613   0.601   6.795   3.021
 5238SOL    HW216614   0.577   6.932   2.937
 5239SOL     OW16615   2.567   3.856   1.213
 5239SOL    HW116616   2.664   3.879   1.225
 5239SOL    HW216617   2.559   3.760   1.189
 5240SOL     OW16618   1.998   3.473   5.941
 5240SOL    HW116619   2.069   3.459   5.873
 5240SOL    HW216620   1.933   3.397   5.938
 5241SOL     OW16621   1.114   5.740   2.329
 5241SOL    HW116622   1.137   5.810   2.397
 5241SOL    HW216623   1.018   5.715   2.338
 5242SOL     OW16624   4.943   0.148   6.572
 5242SOL    HW116625   4.939   0.064   6.625
 5242SOL    HW216626   4.881   0.140   6.494
 5243SOL     OW16627   2.370   6.770   2.511
 5243SOL    HW116628   2.382   6.679   2.473
 5243SOL    HW216629   2.344   6.834   2.438
 5244SOL     OW16630   4.539   2.636   0.469
 5244SOL    HW116631   4.513   2.726   0.434
 5244SOL    HW216632   4.565   2.643   0.565
 5245SOL     OW16633   3.845   3.555   1.782
 5245SOL    HW116634   3.835   3.647   1.818
 5245SOL    HW216635   3.941   3.527   1.787
 5246SOL     OW16636   6.073   3.390   0.693
 5246SOL    HW116637   6.047   3.307   0.744
 5246SOL    HW216638   6.036   3.384   0.600
 5247SOL     OW16639   3.772   2.126   6.511
 5247SOL    HW116640   3.757   2.116   6.413
 5247SOL    HW216641   3.731   2.047   6.559
 5248SOL     OW16642   6.877   1.020   3.630
 5248SOL    HW116643   6.883   1.112   3.669
 5248SOL    HW216644   6.845   1.026   3.536
 5249SOL     OW16645   0.312   4.888   6.434
 5249SOL    HW116646   0.308   4.791   6.457
 5249SOL    HW216647   0.398   4.927   6.467
 5250SOL     OW16648   2.118   5.644   1.169
 5250SOL    HW116649   2.112   5.555   1.124
 5250SOL    HW216650   2.032   5.694   1.154
 5251SOL     OW16651   0.738   4.755   0.393
 5251SOL    HW116652   0.672   4.826   0.370
 5251SOL    HW216653   0.709   4.707   0.476
 5252SOL     OW16654   3.715   6.861   2.226
 5252SOL    HW116655   3.657   6.800   2.172
 5252SOL    HW216656   3.679   6.954   2.222
 5253SOL     OW16657   6.957   6.010   4.260
 5253SOL    HW116658   6.886   6.030   4.327
 5253SOL    HW216659   6.920   6.020   4.168
 5254SOL     OW16660   5.998   0.421   3.666
 5254SOL    HW116661   5.914   0.373   3.641
 5254SOL    HW216662   6.041   0.458   3.583
 5255SOL     OW16663   6.058   1.667   5.379
 5255SOL    HW116664   6.034   1.758   5.346
 5255SOL    HW216665   6.095   1.674   5.472
 5256SOL     OW16666   6.786   1.440   2.539
 5256SOL    HW116667   6.708   1.378   2.547
 5256SOL    HW216668   6.847   1.428   2.618
 5257SOL     OW16669   3.854   0.979   6.073
 5257SOL    HW116670   3.945   0.979   6.032
 5257SOL    HW216671   3.798   0.909   6.028
 5258SOL     OW16672   4.372   1.401   2.776
 5258SOL    HW116673   4.467   1.399   2.744
 5258SOL    HW216674   4.353   1.319   2.830
 5259SOL     OW16675   6.559   5.240   3.169
 5259SOL    HW116676   6.616   5.300   3.225
 5259SOL    HW216677   6.615   5.196   3.099
 5260SOL     OW16678   2.256   0.907   0.645
 5260SOL    HW116679   2.303   0.932   0.730
 5260SOL    HW216680   2.244   0.988   0.588
 5261SOL     OW16681   5.984   4.576   0.156
 5261SOL    HW116682   5.937   4.488   0.149
 5261SOL    HW216683   5.919   4.647   0.182
 5262SOL     OW16684   1.940   0.736   3.127
 5262SOL    HW116685   1.911   0.775   3.214
 5262SOL    HW216686   1.987   0.806   3.073
 5263SOL     OW16687   1.484   6.762   2.458
 5263SOL    HW116688   1.454   6.766   2.362
 5263SOL    HW216689   1.547   6.685   2.470
 5264SOL     OW16690   6.347   1.606   1.834
 5264SOL    HW116691   6.392   1.549   1.765
 5264SOL    HW216692   6.248   1.595   1.827
 5265SOL     OW16693   6.391   4.845   4.437
 5265SOL    HW116694   6.455   4.902   4.385
 5265SOL    HW216695   6.300   4.885   4.432
 5266SOL     OW16696   2.112   0.546   0.253
 5266SOL    HW116697   2.060   0.462   0.236
 5266SOL    HW216698   2.100   0.572   0.349
 5267SOL     OW16699   5.353   2.924   4.371
 5267SOL    HW116700   5.315   3.005   4.327
 5267SOL    HW216701   5.350   2.847   4.308
 5268SOL     OW16702   5.296   0.501   6.034
 5268SOL    HW116703   5.381   0.448   6.037
 5268SOL    HW216704   5.218   0.439   6.039
 5269SOL     OW16705   0.452   6.340   3.819
 5269SOL    HW116706   0.499   6.284   3.888
 5269SOL    HW216707   0.373   6.384   3.861
 5270SOL     OW16708   0.492   2.442   5.917
 5270SOL    HW116709   0.527   2.401   6.001
 5270SOL    HW216710   0.562   2.437   5.846
 5271SOL     OW16711   0.290   4.592   3.401
 5271SOL    HW116712   0.215   4.602   3.335
 5271SOL    HW216713   0.357   4.527   3.365
 5272SOL     OW16714   4.593   0.809   6.958
 5272SOL    HW116715   4.657   0.747   7.003
 5272SOL    HW216716   4.630   0.902   6.960
 5273SOL     OW16717   1.064   2.365   3.089
 5273SOL    HW116718   0.966   2.346   3.079
 5273SOL    HW216719   1.111   2.340   3.005
 5274SOL     OW16720   4.937   5.259   1.677
 5274SOL    HW116721   5.016   5.259   1.615
 5274SOL    HW216722   4.958   5.313   1.758
 5275SOL     OW16723   4.181   1.945   6.370
 5275SOL    HW116724   4.146   1.852   6.359
 5275SOL    HW216725   4.281   1.945   6.357
 5276SOL     OW16726   4.554   6.326   2.617
 5276SOL    HW116727   4.652   6.345   2.625
 5276SOL    HW216728   4.502   6.399   2.660
 5277SOL     OW16729   2.166   2.532   1.746
 5277SOL    HW116730   2.176   2.629   1.771
 5277SOL    HW216731   2.117   2.525   1.659
 5278SOL     OW16732   4.395   4.289   1.478
 5278SOL    HW116733   4.327   4.354   1.510
 5278SOL    HW216734   4.387   4.204   1.529
 5279SOL     OW16735   2.668   5.427   2.311
 5279SOL    HW116736   2.666   5.526   2.329
 5279SOL    HW216737   2.761   5.393   2.325
 5280SOL     OW16738   5.083   6.199   4.115
 5280SOL    HW116739   5.152   6.202   4.187
 5280SOL    HW216740   5.046   6.106   4.109
 5281SOL     OW16741   6.889   1.898   1.281
 5281SOL    HW116742   6.877   1.912   1.380
 5281SOL    HW216743   6.887   1.800   1.262
 5282SOL     OW16744   4.676   1.981   2.553
 5282SOL    HW116745   4.615   2.043   2.503
 5282SOL    HW216746   4.761   1.971   2.502
 5283SOL     OW16747   5.076   4.472   6.340
 5283SOL    HW116748   5.030   4.545   6.390
 5283SOL    HW216749   5.175   4.486   6.343
 5284SOL     OW16750   5.470   3.043   3.677
 5284SOL    HW116751   5.432   2.980   3.744
 5284SOL    HW216752   5.453   3.137   3.706
 5285SOL     OW16753   3.255   5.343   3.293
 5285SOL    HW116754   3.228   5.359   3.388
 5285SOL    HW216755   3.200   5.399   3.232
 5286SOL     OW16756   2.156   4.708   2.027
 5286SOL    HW116757   2.104   4.696   2.111
 5286SOL    HW216758   2.200   4.798   2.028
 5287SOL     OW16759   1.266   1.751   1.307
 5287SOL    HW116760   1.226   1.827   1.255
 5287SOL    HW216761   1.208   1.670   1.298
 5288SOL     OW16762   4.338   0.614   0.872
 5288SOL    HW116763   4.289   0.532   0.842
 5288SOL    HW216764   4.435   0.592   0.886
 5289SOL     OW16765   2.286   5.449   0.974
 5289SOL    HW116766   2.259   5.361   1.013
 5289SOL    HW216767   2.321   5.434   0.881
 5290SOL     OW16768   4.967   5.753   0.427
 5290SOL    HW116769   4.876   5.757   0.468
 5290SOL    HW216770   4.958   5.765   0.328
 5291SOL     OW16771   1.660   5.270   6.042
 5291SOL    HW116772   1.760   5.268   6.046
 5291SOL    HW216773   1.630   5.294   5.950
 5292SOL     OW16774   4.935   2.765   5.697
 5292SOL    HW116775   4.918   2.736   5.791
 5292SOL    HW216776   4.852   2.757   5.643
 5293SOL     OW16777   0.451   0.359   4.413
 5293SOL    HW116778   0.356   0.391   4.417
 5293SOL    HW216779   0.454   0.260   4.427
 5294SOL     OW16780   5.027   2.143   5.469
 5294SOL    HW116781   4.977   2.072   5.420
 5294SOL    HW216782   5.096   2.101   5.528
 5295SOL     OW16783   6.333   1.181   2.036
 5295SOL    HW116784   6.323   1.082   2.045
 5295SOL    HW216785   6.244   1.225   2.049
 5296SOL     OW16786   1.267   4.272   0.378
 5296SOL    HW116787   1.204   4.197   0.355
 5296SOL    HW216788   1.217   4.359   0.376
 5297SOL     OW16789   1.852   3.130   1.702
 5297SOL    HW116790   1.878   3.154   1.796
 5297SOL    HW216791   1.779   3.063   1.703
 5298SOL     OW16792   0.974   5.122   1.532
 5298SOL    HW116793   1.022   5.180   1.466
 5298SOL    HW216794   0.914   5.178   1.588
 5299SOL     OW16795   2.917   0.563   1.764
 5299SOL    HW116796   2.997   0.620   1.749
 5299SOL    HW216797   2.842   0.619   1.798
 5300SOL     OW16798   0.118   5.073   3.079
 5300SOL    HW116799   0.213   5.104   3.081
 5300SOL    HW216800   0.109   4.987   3.129
 5301SOL     OW16801   4.154   1.599   0.017
 5301SOL    HW116802   4.069   1.566   0.059
 5301SOL    HW216803   4.149   1.697   0.004
 5302SOL     OW16804   6.768   4.806   2.939
 5302SOL    HW116805   6.814   4.844   3.019
 5302SOL    HW216806   6.679   4.768   2.967
 5303SOL     OW16807   0.764   4.877   3.740
 5303SOL    HW116808   0.821   4.832   3.809
 5303SOL    HW216809   0.782   4.836   3.651
 5304SOL     OW16810   5.356   2.282   5.666
 5304SOL    HW116811   5.391   2.278   5.572
 5304SOL    HW216812   5.272   2.338   5.667
 5305SOL     OW16813   2.725   1.143   2.968
 5305SOL    HW116814   2.682   1.147   3.058
 5305SOL    HW216815   2.737   1.236   2.934
 5306SOL     OW16816   2.866   0.034   5.348
 5306SOL    HW116817   2.766   0.033   5.345
 5306SOL    HW216818   2.900   0.115   5.301
 5307SOL     OW16819   4.715   6.721   6.814
 5307SOL    HW116820   4.766   6.740   6.898
 5307SOL    HW216821   4.676   6.805   6.779
 5308SOL     OW16822   6.913   0.737   3.189
 5308SOL    HW116823   6.854   0.657   3.193
 5308SOL    HW216824   7.005   0.710   3.162
 5309SOL     OW16825   3.489   3.692   3.922
 5309SOL    HW116826   3.519   3.783   3.950
 5309SOL    HW216827   3.538   3.623   3.975
 5310SOL     OW16828   5.238   1.933   0.670
 5310SOL    HW116829   5.266   1.979   0.754
 5310SOL    HW216830   5.243   1.997   0.594
 5311SOL     OW16831   1.432   6.115   0.071
 5311SOL    HW116832   1.467   6.204   0.100
 5311SOL    HW216833   1.502   6.066   0.019
 5312SOL     OW16834   0.388   2.946   2.072
 5312SOL    HW116835   0.315   2.944   2.140
 5312SOL    HW216836   0.445   3.027   2.086
 5313SOL     OW16837   1.466   5.716   0.358
 5313SOL    HW116838   1.393   5.784   0.353
 5313SOL    HW216839   1.462   5.669   0.446
 5314SOL     OW16840   3.349   4.910   0.538
 5314SOL    HW116841   3.367   4.981   0.470
 5314SOL    HW216842   3.260   4.868   0.519
 5315SOL     OW16843   5.129   2.824   2.385
 5315SOL    HW116844   5.188   2.876   2.323
 5315SOL    HW216845   5.161   2.836   2.479
 5316SOL     OW16846   6.289   5.093   4.653
 5316SOL    HW116847   6.382   5.057   4.647
 5316SOL    HW216848   6.237   5.065   4.573
 5317SOL     OW16849   5.621   6.103   2.763
 5317SOL    HW116850   5.531   6.116   2.804
 5317SOL    HW216851   5.659   6.015   2.794
 5318SOL     OW16852   0.063   2.684   5.060
 5318SOL    HW116853   0.155   2.683   5.100
 5318SOL    HW216854   0.000   2.633   5.119
 5319SOL     OW16855   4.318   6.795   1.391
 5319SOL    HW116856   4.281   6.838   1.308
 5319SOL    HW216857   4.298   6.853   1.470
 5320SOL     OW16858   5.499   3.714   5.828
 5320SOL    HW116859   5.536   3.792   5.779
 5320SOL    HW216860   5.457   3.650   5.762
 5321SOL     OW16861   1.363   5.278   6.121
 5321SOL    HW116862   1.418   5.284   6.205
 5321SOL    HW216863   1.421   5.252   6.044
 5322SOL     OW16864   3.432   6.137   0.566
 5322SOL    HW116865   3.516   6.121   0.513
 5322SOL    HW216866   3.359   6.079   0.532
 5323SOL     OW16867   6.087   3.227   0.268
 5323SOL    HW116868   6.090   3.182   0.179
 5323SOL    HW216869   6.176   3.266   0.289
 5324SOL     OW16870   3.795   3.285   1.715
 5324SOL    HW116871   3.847   3.220   1.771
 5324SOL    HW216872   3.788   3.372   1.764
 5325SOL     OW16873   5.073   5.777   3.289
 5325SOL    HW116874   5.027   5.689   3.285
 5325SOL    HW216875   5.021   5.844   3.236
 5326SOL     OW16876   6.636   0.165   2.488
 5326SOL    HW116877   6.578   0.214   2.422
 5326SOL    HW216878   6.706   0.114   2.439
 5327SOL     OW16879   6.757   0.409   4.720
 5327SOL    HW116880   6.677   0.351   4.735
 5327SOL    HW216881   6.840   0.356   4.737
 5328SOL     OW16882   3.714   5.002   0.952
 5328SOL    HW116883   3.627   5.008   0.903
 5328SOL    HW216884   3.767   4.926   0.915
 5329SOL     OW16885   6.530   4.955   0.298
 5329SOL    HW116886   6.477   5.030   0.261
 5329SOL    HW216887   6.627   4.969   0.278
 5330SOL     OW16888   4.442   4.940   0.008
 5330SOL    HW116889   4.537   4.939   6.995
 5330SOL    HW216890   4.411   5.035   0.016
 5331SOL     OW16891   4.780   2.778   6.585
 5331SOL    HW116892   4.715   2.704   6.604
 5331SOL    HW216893   4.753   2.826   6.501
 5332SOL     OW16894   6.151   2.887   0.126
 5332SOL    HW116895   6.085   2.955   0.159
 5332SOL    HW216896   6.146   2.806   0.183
 5333SOL     OW16897   1.710   1.764   4.268
 5333SOL    HW116898   1.788   1.701   4.264
 5333SOL    HW216899   1.669   1.771   4.177
 5334SOL     OW16900   3.287   5.500   1.984
 5334SOL    HW116901   3.188   5.497   1.999
 5334SOL    HW216902   3.326   5.409   1.999
 5335SOL     OW16903   0.065   4.473   1.293
 5335SOL    HW116904   0.037   4.508   1.382
 5335SOL    HW216905   0.111   4.385   1.305
 5336SOL     OW16906   1.946   2.784   4.706
 5336SOL    HW116907   1.982   2.874   4.729
 5336SOL    HW216908   2.015   2.731   4.658
 5337SOL     OW16909   5.787   5.487   0.496
 5337SOL    HW116910   5.841   5.442   0.424
 5337SOL    HW216911   5.843   5.499   0.577
 5338SOL     OW16912   6.326   3.365   0.796
 5338SOL    HW116913   6.346   3.387   0.891
 5338SOL    HW216914   6.228   3.378   0.779
 5339SOL     OW16915   5.528   3.901   2.987
 5339SOL    HW116916   5.501   3.995   2.964
 5339SOL    HW216917   5.521   3.844   2.906
 5340SOL     OW16918   5.195   3.378   2.950
 5340SOL    HW116919   5.205   3.368   3.049
 5340SOL    HW216920   5.174   3.474   2.928
 5341SOL     OW16921   3.967   4.883   3.860
 5341SOL    HW116922   3.950   4.838   3.773
 5341SOL    HW216923   3.913   4.967   3.866
 5342SOL     OW16924   6.589   6.307   5.081
 5342SOL    HW116925   6.529   6.267   5.012
 5342SOL    HW216926   6.640   6.234   5.128
 5343SOL     OW16927   3.135   2.831   6.886
 5343SOL    HW116928   3.047   2.874   6.865
 5343SOL    HW216929   3.183   2.812   6.801
 5344SOL     OW16930   1.281   1.662   6.182
 5344SOL    HW116931   1.221   1.651   6.261
 5344SOL    HW216932   1.354   1.727   6.204
 5345SOL     OW16933   4.335   1.265   6.569
 5345SOL    HW116934   4.375   1.188   6.619
 5345SOL    HW216935   4.382   1.349   6.596
 5346SOL     OW16936   3.070   6.371   3.622
 5346SOL    HW116937   3.141   6.314   3.580
 5346SOL    HW216938   3.055   6.341   3.716
 5347SOL     OW16939   5.920   2.012   4.204
 5347SOL    HW116940   5.924   1.930   4.261
 5347SOL    HW216941   6.000   2.015   4.144
 5348SOL     OW16942   4.991   2.641   3.921
 5348SOL    HW116943   5.043   2.599   3.847
 5348SOL    HW216944   4.894   2.643   3.897
 5349SOL     OW16945   0.799   3.544   1.712
 5349SOL    HW116946   0.768   3.631   1.751
 5349SOL    HW216947   0.846   3.562   1.626
 5350SOL     OW16948   1.035   6.465   0.167
 5350SOL    HW116949   1.033   6.493   0.071
 5350SOL    HW216950   1.072   6.373   0.174
 5351SOL     OW16951   6.198   6.215   3.250
 5351SOL    HW116952   6.225   6.303   3.212
 5351SOL    HW216953   6.099   6.213   3.263
 5352SOL     OW16954   1.374   3.219   5.477
 5352SOL    HW116955   1.326   3.236   5.391
 5352SOL    HW216956   1.429   3.135   5.468
 5353SOL     OW16957   3.902   5.239   3.499
 5353SOL    HW116958   3.851   5.319   3.531
 5353SOL    HW216959   3.852   5.156   3.520
 5354SOL     OW16960   4.368   6.186   0.560
 5354SOL    HW116961   4.329   6.250   0.627
 5354SOL    HW216962   4.466   6.202   0.552
 5355SOL     OW16963   5.284   4.552   5.041
 5355SOL    HW116964   5.285   4.453   5.030
 5355SOL    HW216965   5.249   4.575   5.132
 5356SOL     OW16966   0.167   5.675   1.014
 5356SOL    HW116967   0.160   5.724   0.928
 5356SOL    HW216968   0.165   5.740   1.090
 5357SOL     OW16969   5.900   3.708   2.946
 5357SOL    HW116970   5.952   3.737   2.866
 5357SOL    HW216971   5.963   3.675   3.016
 5358SOL     OW16972   4.329   1.655   6.819
 5358SOL    HW116973   4.291   1.619   6.904
 5358SOL    HW216974   4.273   1.732   6.788
 5359SOL     OW16975   3.628   2.184   0.058
 5359SOL    HW116976   3.727   2.186   0.067
 5359SOL    HW216977   3.591   2.101   0.100
 5360SOL     OW16978   5.545   4.949   4.190
 5360SOL    HW116979   5.460   4.897   4.198
 5360SOL    HW216980   5.526   5.039   4.151
 5361SOL     OW16981   1.882   5.733   2.841
 5361SOL    HW116982   1.901   5.679   2.759
 5361SOL    HW216983   1.924   5.823   2.832
 5362SOL     OW16984   5.569   1.183   2.466
 5362SOL    HW116985   5.494   1.124   2.496
 5362SOL    HW216986   5.541   1.235   2.385
 5363SOL     OW16987   6.068   5.530   3.400
 5363SOL    HW116988   5.979   5.494   3.371
 5363SOL    HW216989   6.133   5.522   3.325
 5364SOL     OW16990   4.613   1.438   2.638
 5364SOL    HW116991   4.688   1.372   2.623
 5364SOL    HW216992   4.652   1.526   2.664
 5365SOL     OW16993   3.070   3.127   4.096
 5365SOL    HW116994   3.061   3.118   3.997
 5365SOL    HW216995   3.142   3.066   4.129
 5366SOL     OW16996   6.553   5.979   2.929
 5366SOL    HW116997   6.475   6.000   2.988
 5366SOL    HW216998   6.635   6.023   2.966
 5367SOL     OW16999   6.280   5.799   1.744
 5367SOL    HW117000   6.223   5.807   1.662
 5367SOL    HW217001   6.237   5.849   1.819
 5368SOL     OW17002   6.689   5.795   3.850
 5368SOL    HW117003   6.601   5.837   3.874
 5368SOL    HW217004   6.680   5.696   3.852
 5369SOL     OW17005   3.376   5.129   3.076
 5369SOL    HW117006   3.391   5.184   2.994
 5369SOL    HW217007   3.379   5.188   3.157
 5370SOL     OW17008   1.817   3.227   0.541
 5370SOL    HW117009   1.843   3.316   0.502
 5370SOL    HW217010   1.723   3.205   0.515
 5371SOL     OW17011   6.005   4.731   4.585
 5371SOL    HW117012   6.068   4.780   4.646
 5371SOL    HW217013   5.946   4.796   4.538
 5372SOL     OW17014   1.520   6.941   2.951
 5372SOL    HW117015   1.421   6.951   2.939
 5372SOL    HW217016   1.554   6.869   2.890
 5373SOL     OW17017   3.108   1.660   6.871
 5373SOL    HW117018   3.022   1.709   6.857
 5373SOL    HW217019   3.181   1.725   6.890
 5374SOL     OW17020   1.836   4.683   2.492
 5374SOL    HW117021   1.796   4.597   2.524
 5374SOL    HW217022   1.771   4.731   2.434
 5375SOL     OW17023   2.212   4.555   4.825
 5375SOL    HW117024   2.311   4.566   4.835
 5375SOL    HW217025   2.166   4.598   4.903
 5376SOL     OW17026   0.456   0.124   6.146
 5376SOL    HW117027   0.506   0.098   6.064
 5376SOL    HW217028   0.357   0.120   6.127
 5377SOL     OW17029   1.919   0.848   3.366
 5377SOL    HW117030   2.013   0.880   3.368
 5377SOL    HW217031   1.863   0.905   3.428
 5378SOL     OW17032   4.733   0.587   2.140
 5378SOL    HW117033   4.664   0.552   2.202
 5378SOL    HW217034   4.716   0.684   2.122
 5379SOL     OW17035   1.769   2.307   5.416
 5379SOL    HW117036   1.746   2.226   5.361
 5379SOL    HW217037   1.802   2.379   5.355
 5380SOL     OW17038   4.191   6.504   1.695
 5380SOL    HW117039   4.235   6.511   1.605
 5380SOL    HW217040   4.243   6.558   1.762
 5381SOL     OW17041   3.627   0.171   3.873
 5381SOL    HW117042   3.659   0.246   3.931
 5381SOL    HW217043   3.582   0.208   3.791
 5382SOL     OW17044   4.636   1.125   1.632
 5382SOL    HW117045   4.706   1.058   1.654
 5382SOL    HW217046   4.652   1.209   1.685
 5383SOL     OW17047   2.541   2.541   4.640
 5383SOL    HW117048   2.631   2.573   4.609
 5383SOL    HW217049   2.475   2.615   4.634
 5384SOL     OW17050   5.595   4.922   4.864
 5384SOL    HW117051   5.530   4.923   4.789
 5384SOL    HW217052   5.610   4.828   4.895
 5385SOL     OW17053   3.940   3.331   6.073
 5385SOL    HW117054   4.038   3.340   6.092
 5385SOL    HW217055   3.887   3.360   6.153
 5386SOL     OW17056   4.929   4.414   4.386
 5386SOL    HW117057   4.897   4.321   4.369
 5386SOL    HW217058   4.999   4.414   4.457
 5387SOL     OW17059   0.885   1.870   3.772
 5387SOL    HW117060   0.828   1.892   3.850
 5387SOL    HW217061   0.981   1.869   3.800
 5388SOL     OW17062   0.550   6.691   2.199
 5388SOL    HW117063   0.627   6.742   2.238
 5388SOL    HW217064   0.481   6.756   2.167
 5389SOL     OW17065   4.508   1.385   3.603
 5389SOL    HW117066   4.503   1.473   3.555
 5389SOL    HW217067   4.549   1.398   3.693
 5390SOL     OW17068   0.161   2.693   3.273
 5390SOL    HW117069   0.231   2.725   3.210
 5390SOL    HW217070   0.118   2.771   3.318
 5391SOL     OW17071   2.771   2.949   0.530
 5391SOL    HW117072   2.830   2.916   0.604
 5391SOL    HW217073   2.731   3.037   0.556
 5392SOL     OW17074   5.932   0.914   3.892
 5392SOL    HW117075   5.978   0.966   3.820
 5392SOL    HW217076   5.890   0.978   3.957
 5393SOL     OW17077   4.964   2.395   4.779
 5393SOL    HW117078   4.951   2.301   4.747
 5393SOL    HW217079   4.923   2.458   4.713
 5394SOL     OW17080   0.864   1.985   1.461
 5394SOL    HW117081   0.798   2.029   1.400
 5394SOL    HW217082   0.842   1.887   1.468
 5395SOL     OW17083   6.396   1.339   0.726
 5395SOL    HW117084   6.487   1.318   0.691
 5395SOL    HW217085   6.339   1.375   0.652
 5396SOL     OW17086   4.637   3.959   0.653
 5396SOL    HW117087   4.658   4.024   0.725
 5396SOL    HW217088   4.587   3.881   0.691
 5397SOL     OW17089   0.437   0.987   2.607
 5397SOL    HW117090   0.382   1.069   2.624
 5397SOL    HW217091   0.489   0.965   2.689
 5398SOL     OW17092   6.157   2.293   2.545
 5398SOL    HW117093   6.257   2.290   2.557
 5398SOL    HW217094   6.123   2.200   2.527
 5399SOL     OW17095   1.705   2.173   0.054
 5399SOL    HW117096   1.777   2.175   7.004
 5399SOL    HW217097   1.735   2.224   0.135
 5400SOL     OW17098   4.718   3.142   1.651
 5400SOL    HW117099   4.808   3.113   1.618
 5400SOL    HW217100   4.691   3.086   1.729
 5401SOL     OW17101   6.009   2.771   1.530
 5401SOL    HW117102   6.053   2.776   1.620
 5401SOL    HW217103   6.057   2.832   1.466
 5402SOL     OW17104   1.679   6.562   2.512
 5402SOL    HW117105   1.631   6.487   2.558
 5402SOL    HW217106   1.764   6.581   2.560
 5403SOL     OW17107   4.990   3.105   0.271
 5403SOL    HW117108   4.983   3.024   0.212
 5403SOL    HW217109   5.075   3.101   0.324
 5404SOL     OW17110   5.711   0.347   6.898
 5404SOL    HW117111   5.801   0.359   6.854
 5404SOL    HW217112   5.670   0.437   6.913
 5405SOL     OW17113   0.668   4.772   0.014
 5405SOL    HW117114   0.679   4.719   6.949
 5405SOL    HW217115   0.574   4.762   0.048
 5406SOL     OW17116   2.757   0.823   6.091
 5406SOL    HW117117   2.727   0.808   5.997
 5406SOL    HW217118   2.679   0.819   6.153
 5407SOL     OW17119   1.721   0.001   3.127
 5407SOL    HW117120   1.730   6.962   3.208
 5407SOL    HW217121   1.644   6.988   3.072
 5408SOL     OW17122   2.549   1.693   4.078
 5408SOL    HW117123   2.507   1.660   3.993
 5408SOL    HW217124   2.490   1.671   4.155
 5409SOL     OW17125   0.631   3.002   1.675
 5409SOL    HW117126   0.632   2.936   1.751
 5409SOL    HW217127   0.610   2.955   1.590
 5410SOL     OW17128   0.243   2.525   1.056
 5410SOL    HW117129   0.196   2.547   0.971
 5410SOL    HW217130   0.342   2.522   1.040
 5411SOL     OW17131   3.237   5.416   0.271
 5411SOL    HW117132   3.272   5.505   0.240
 5411SOL    HW217133   3.281   5.343   0.219
 5412SOL     OW17134   0.026   1.947   6.153
 5412SOL    HW117135   0.009   1.875   6.086
 5412SOL    HW217136   0.028   2.036   6.108
 5413SOL     OW17137   0.723   5.898   4.643
 5413SOL    HW117138   0.755   5.818   4.592
 5413SOL    HW217139   0.708   5.974   4.579
 5414SOL     OW17140   5.167   4.368   5.534
 5414SOL    HW117141   5.261   4.400   5.549
 5414SOL    HW217142   5.104   4.426   5.585
 5415SOL     OW17143   3.943   0.502   6.972
 5415SOL    HW117144   3.882   0.461   0.021
 5415SOL    HW217145   4.030   0.454   6.972
 5416SOL     OW17146   3.524   5.764   6.884
 5416SOL    HW117147   3.458   5.839   6.879
 5416SOL    HW217148   3.532   5.721   6.794
 5417SOL     OW17149   4.247   6.812   4.190
 5417SOL    HW117150   4.283   6.844   4.278
 5417SOL    HW217151   4.159   6.857   4.173
 5418SOL     OW17152   6.742   2.954   5.242
 5418SOL    HW117153   6.836   2.990   5.240
 5418SOL    HW217154   6.686   3.008   5.179
 5419SOL     OW17155   4.530   1.083   5.594
 5419SOL    HW117156   4.608   1.129   5.550
 5419SOL    HW217157   4.480   1.030   5.526
 5420SOL     OW17158   0.847   1.887   2.182
 5420SOL    HW117159   0.944   1.895   2.205
 5420SOL    HW217160   0.809   1.978   2.168
 5421SOL     OW17161   3.706   4.943   2.236
 5421SOL    HW117162   3.698   4.880   2.159
 5421SOL    HW217163   3.619   4.989   2.250
 5422SOL     OW17164   2.540   5.229   3.578
 5422SOL    HW117165   2.448   5.257   3.549
 5422SOL    HW217166   2.538   5.134   3.608
 5423SOL     OW17167   4.415   6.207   2.256
 5423SOL    HW117168   4.391   6.304   2.243
 5423SOL    HW217169   4.336   6.150   2.233
 5424SOL     OW17170   4.275   3.917   5.544
 5424SOL    HW117171   4.335   3.855   5.494
 5424SOL    HW217172   4.275   4.007   5.501
 5425SOL     OW17173   1.429   4.288   5.336
 5425SOL    HW117174   1.366   4.363   5.357
 5425SOL    HW217175   1.391   4.202   5.370
 5426SOL     OW17176   6.548   5.327   1.267
 5426SOL    HW117177   6.508   5.374   1.346
 5426SOL    HW217178   6.550   5.228   1.285
 5427SOL     OW17179   4.183   3.149   6.713
 5427SOL    HW117180   4.261   3.145   6.775
 5427SOL    HW217181   4.175   3.062   6.664
 5428SOL     OW17182   5.725   5.522   2.633
 5428SOL    HW117183   5.682   5.435   2.612
 5428SOL    HW217184   5.747   5.526   2.730
 5429SOL     OW17185   3.506   0.691   4.799
 5429SOL    HW117186   3.407   0.695   4.783
 5429SOL    HW217187   3.554   0.730   4.721
 5430SOL     OW17188   2.844   3.966   5.183
 5430SOL    HW117189   2.753   3.986   5.219
 5430SOL    HW217190   2.903   4.046   5.193
 5431SOL     OW17191   4.450   4.386   0.285
 5431SOL    HW117192   4.545   4.409   0.309
 5431SOL    HW217193   4.394   4.388   0.367
 5432SOL     OW17194   0.187   5.138   6.304
 5432SOL    HW117195   0.224   5.052   6.338
 5432SOL    HW217196   0.211   5.149   6.207
 5433SOL     OW17197   2.774   0.941   1.523
 5433SOL    HW117198   2.684   0.985   1.517
 5433SOL    HW217199   2.766   0.846   1.490
 5434SOL     OW17200   4.839   0.802   4.498
 5434SOL    HW117201   4.888   0.846   4.423
 5434SOL    HW217202   4.805   0.872   4.561
 5435SOL     OW17203   6.521   4.668   1.095
 5435SOL    HW117204   6.491   4.689   1.002
 5435SOL    HW217205   6.546   4.572   1.101
 5436SOL     OW17206   1.348   4.279   2.815
 5436SOL    HW117207   1.402   4.266   2.898
 5436SOL    HW217208   1.252   4.292   2.840
 5437SOL     OW17209   3.484   5.522   1.389
 5437SOL    HW117210   3.499   5.507   1.292
 5437SOL    HW217211   3.404   5.581   1.402
 5438SOL     OW17212   4.773   5.663   2.251
 5438SOL    HW117213   4.832   5.666   2.332
 5438SOL    HW217214   4.682   5.631   2.276
 5439SOL     OW17215   0.856   4.469   1.578
 5439SOL    HW117216   0.893   4.525   1.504
 5439SOL    HW217217   0.923   4.400   1.604
 5440SOL     OW17218   5.947   6.913   4.035
 5440SOL    HW117219   5.936   6.908   4.135
 5440SOL    HW217220   6.042   6.895   4.011
 5441SOL     OW17221   5.718   3.123   4.540
 5441SOL    HW117222   5.683   3.047   4.486
 5441SOL    HW217223   5.805   3.154   4.503
 5442SOL     OW17224   3.426   0.101   6.479
 5442SOL    HW117225   3.371   0.046   6.542
 5442SOL    HW217226   3.448   0.045   6.398
 5443SOL     OW17227   4.608   0.958   3.285
 5443SOL    HW117228   4.526   1.008   3.312
 5443SOL    HW217229   4.665   1.016   3.227
 5444SOL     OW17230   6.105   1.050   5.866
 5444SOL    HW117231   6.165   1.111   5.815
 5444SOL    HW217232   6.106   1.075   5.963
 5445SOL     OW17233   5.707   5.824   5.092
 5445SOL    HW117234   5.732   5.837   5.188
 5445SOL    HW217235   5.702   5.727   5.072
 5446SOL     OW17236   6.997   3.987   6.435
 5446SOL    HW117237   0.033   4.041   6.499
 5446SOL    HW217238   0.025   3.985   6.346
 5447SOL     OW17239   0.139   1.879   1.237
 5447SOL    HW117240   0.166   1.794   1.192
 5447SOL    HW217241   0.040   1.881   1.249
 5448SOL     OW17242   4.551   4.824   3.193
 5448SOL    HW117243   4.463   4.796   3.233
 5448SOL    HW217244   4.540   4.912   3.148
 5449SOL     OW17245   2.850   1.309   1.972
 5449SOL    HW117246   2.823   1.246   1.899
 5449SOL    HW217247   2.856   1.259   2.058
 5450SOL     OW17248   4.142   5.404   1.887
 5450SOL    HW117249   4.136   5.380   1.790
 5450SOL    HW217250   4.234   5.383   1.921
 5451SOL     OW17251   6.756   7.002   2.776
 5451SOL    HW117252   6.778   0.009   2.682
 5451SOL    HW217253   6.832   6.949   2.814
 5452SOL     OW17254   2.155   4.124   2.276
 5452SOL    HW117255   2.220   4.079   2.215
 5452SOL    HW217256   2.113   4.202   2.230
 5453SOL     OW17257   5.791   4.279   3.554
 5453SOL    HW117258   5.774   4.181   3.548
 5453SOL    HW217259   5.862   4.297   3.623
 5454SOL     OW17260   6.149   4.530   2.662
 5454SOL    HW117261   6.107   4.477   2.736
 5454SOL    HW217262   6.234   4.485   2.634
 5455SOL     OW17263   2.171   1.791   3.526
 5455SOL    HW117264   2.222   1.744   3.598
 5455SOL    HW217265   2.082   1.820   3.562
 5456SOL     OW17266   5.422   1.888   1.210
 5456SOL    HW117267   5.331   1.890   1.253
 5456SOL    HW217268   5.456   1.794   1.207
 5457SOL     OW17269   5.664   1.158   6.738
 5457SOL    HW117270   5.609   1.175   6.819
 5457SOL    HW217271   5.609   1.174   6.656
 5458SOL     OW17272   5.924   3.355   0.456
 5458SOL    HW117273   5.984   3.303   0.396
 5458SOL    HW217274   5.909   3.446   0.419
 5459SOL     OW17275   1.720   3.238   5.200
 5459SOL    HW117276   1.764   3.221   5.289
 5459SOL    HW217277   1.657   3.315   5.209
 5460SOL     OW17278   0.712   0.915   1.608
 5460SOL    HW117279   0.809   0.920   1.632
 5460SOL    HW217280   0.659   0.974   1.669
 5461SOL     OW17281   6.496   1.195   5.320
 5461SOL    HW117282   6.466   1.285   5.351
 5461SOL    HW217283   6.557   1.155   5.389
 5462SOL     OW17284   4.887   4.559   6.552
 5462SOL    HW117285   4.884   4.474   6.604
 5462SOL    HW217286   4.794   4.595   6.542
 5463SOL     OW17287   0.814   2.600   6.213
 5463SOL    HW117288   0.776   2.508   6.206
 5463SOL    HW217289   0.769   2.649   6.288
 5464SOL     OW17290   1.697   6.129   5.467
 5464SOL    HW117291   1.694   6.199   5.395
 5464SOL    HW217292   1.669   6.170   5.554
 5465SOL     OW17293   0.421   6.838   4.669
 5465SOL    HW117294   0.451   6.934   4.672
 5465SOL    HW217295   0.497   6.780   4.641
 5466SOL     OW17296   6.083   2.475   5.061
 5466SOL    HW117297   6.158   2.538   5.043
 5466SOL    HW217298   6.033   2.504   5.142
 5467SOL     OW17299   4.759   2.838   4.546
 5467SOL    HW117300   4.697   2.851   4.623
 5467SOL    HW217301   4.705   2.828   4.462
 5468SOL     OW17302   0.003   1.411   1.157
 5468SOL    HW117303   0.072   1.338   1.164
 5468SOL    HW217304   6.939   1.374   1.115
 5469SOL     OW17305   3.553   0.037   4.428
 5469SOL    HW117306   3.511   6.975   4.388
 5469SOL    HW217307   3.485   0.087   4.483
 5470SOL     OW17308   3.651   5.358   3.784
 5470SOL    HW117309   3.670   5.386   3.689
 5470SOL    HW217310   3.704   5.415   3.847
 5471SOL     OW17311   4.561   0.834   3.727
 5471SOL    HW117312   4.492   0.761   3.725
 5471SOL    HW217313   4.517   0.920   3.752
 5472SOL     OW17314   2.710   3.071   6.921
 5472SOL    HW117315   2.649   3.113   6.854
 5472SOL    HW217316   2.655   3.030   6.994
 5473SOL     OW17317   2.597   4.494   1.764
 5473SOL    HW117318   2.697   4.498   1.758
 5473SOL    HW217319   2.565   4.556   1.835
 5474SOL     OW17320   0.770   4.961   2.847
 5474SOL    HW117321   0.859   4.974   2.892
 5474SOL    HW217322   0.777   4.989   2.751
 5475SOL     OW17323   0.350   1.045   5.194
 5475SOL    HW117324   0.430   1.098   5.166
 5475SOL    HW217325   0.267   1.099   5.178
 5476SOL     OW17326   2.625   6.959   5.276
 5476SOL    HW117327   2.626   6.978   5.178
 5476SOL    HW217328   2.550   6.897   5.298
 5477SOL     OW17329   1.628   4.216   4.275
 5477SOL    HW117330   1.633   4.266   4.189
 5477SOL    HW217331   1.716   4.223   4.322
 5478SOL     OW17332   5.356   4.617   5.771
 5478SOL    HW117333   5.420   4.657   5.838
 5478SOL    HW217334   5.303   4.689   5.728
 5479SOL     OW17335   4.362   1.826   5.030
 5479SOL    HW117336   4.321   1.800   5.117
 5479SOL    HW217337   4.314   1.906   4.993
 5480SOL     OW17338   0.337   3.310   3.802
 5480SOL    HW117339   0.351   3.236   3.736
 5480SOL    HW217340   0.246   3.349   3.790
 5481SOL     OW17341   4.117   0.986   6.269
 5481SOL    HW117342   4.046   1.056   6.279
 5481SOL    HW217343   4.182   1.014   6.199
 5482SOL     OW17344   4.540   2.813   1.525
 5482SOL    HW117345   4.503   2.764   1.447
 5482SOL    HW217346   4.496   2.903   1.533
 5483SOL     OW17347   6.822   2.562   5.947
 5483SOL    HW117348   6.900   2.565   6.010
 5483SOL    HW217349   6.808   2.652   5.906
 5484SOL     OW17350   6.636   6.788   4.597
 5484SOL    HW117351   6.593   6.787   4.688
 5484SOL    HW217352   6.735   6.787   4.607
 5485SOL     OW17353   3.171   0.065   5.421
 5485SOL    HW117354   3.151   0.067   5.519
 5485SOL    HW217355   3.104   0.121   5.372
 5486SOL     OW17356   0.708   0.937   3.696
 5486SOL    HW117357   0.758   1.014   3.656
 5486SOL    HW217358   0.715   0.858   3.635
 5487SOL     OW17359   4.756   5.405   1.198
 5487SOL    HW117360   4.676   5.443   1.244
 5487SOL    HW217361   4.825   5.475   1.186
 5488SOL     OW17362   5.290   1.069   6.774
 5488SOL    HW117363   5.260   0.994   6.716
 5488SOL    HW217364   5.211   1.110   6.821
 5489SOL     OW17365   1.424   3.463   2.778
 5489SOL    HW117366   1.385   3.543   2.822
 5489SOL    HW217367   1.468   3.489   2.692
 5490SOL     OW17368   2.100   1.896   0.316
 5490SOL    HW117369   2.139   1.899   0.408
 5490SOL    HW217370   2.109   1.803   0.280
 5491SOL     OW17371   0.714   5.218   0.852
 5491SOL    HW117372   0.751   5.125   0.854
 5491SOL    HW217373   0.762   5.274   0.920
 5492SOL     OW17374   1.074   0.896   5.872
 5492SOL    HW117375   1.148   0.947   5.827
 5492SOL    HW217376   1.114   0.824   5.928
 5493SOL     OW17377   3.229   3.029   0.071
 5493SOL    HW117378   3.191   2.990   7.007
 5493SOL    HW217379   3.267   3.120   0.051
 5494SOL     OW17380   5.796   3.468   1.829
 5494SOL    HW117381   5.884   3.425   1.852
 5494SOL    HW217382   5.741   3.477   1.912
 5495SOL     OW17383   3.276   3.218   2.384
 5495SOL    HW117384   3.201   3.177   2.436
 5495SOL    HW217385   3.323   3.147   2.332
 5496SOL     OW17386   3.672   5.863   1.715
 5496SOL    HW117387   3.736   5.937   1.734
 5496SOL    HW217388   3.619   5.842   1.798
 5497SOL     OW17389   6.696   6.658   1.975
 5497SOL    HW117390   6.751   6.720   2.031
 5497SOL    HW217391   6.622   6.709   1.931
 5498SOL     OW17392   3.943   0.989   5.068
 5498SOL    HW117393   3.904   0.982   5.160
 5498SOL    HW217394   4.009   0.915   5.055
 5499SOL     OW17395   0.207   1.339   3.259
 5499SOL    HW117396   0.298   1.298   3.265
 5499SOL    HW217397   0.152   1.309   3.337
 5500SOL     OW17398   1.953   5.909   1.933
 5500SOL    HW117399   1.854   5.909   1.918
 5500SOL    HW217400   2.000   5.923   1.846
 5501SOL     OW17401   2.304   6.380   2.546
 5501SOL    HW117402   2.297   6.282   2.561
 5501SOL    HW217403   2.392   6.401   2.502
 5502SOL     OW17404   5.015   3.929   6.272
 5502SOL    HW117405   4.931   3.881   6.245
 5502SOL    HW217406   4.997   4.027   6.280
 5503SOL     OW17407   1.203   5.510   3.580
 5503SOL    HW117408   1.207   5.410   3.581
 5503SOL    HW217409   1.259   5.547   3.654
 5504SOL     OW17410   3.392   2.136   5.056
 5504SOL    HW117411   3.361   2.042   5.042
 5504SOL    HW217412   3.315   2.191   5.089
 5505SOL     OW17413   2.581   5.196   5.937
 5505SOL    HW117414   2.589   5.185   5.838
 5505SOL    HW217415   2.668   5.175   5.981
 5506SOL     OW17416   6.425   0.406   5.734
 5506SOL    HW117417   6.514   0.369   5.708
 5506SOL    HW217418   6.354   0.341   5.709
 5507SOL     OW17419   2.478   6.261   3.980
 5507SOL    HW117420   2.561   6.273   4.036
 5507SOL    HW217421   2.424   6.345   3.984
 5508SOL     OW17422   2.982   0.973   6.488
 5508SOL    HW117423   3.019   1.018   6.570
 5508SOL    HW217424   2.930   0.892   6.516
 5509SOL     OW17425   5.929   6.401   6.747
 5509SOL    HW117426   5.990   6.423   6.822
 5509SOL    HW217427   5.906   6.304   6.750
 5510SOL     OW17428   5.301   1.039   5.629
 5510SOL    HW117429   5.250   1.122   5.652
 5510SOL    HW217430   5.388   1.064   5.588
 5511SOL     OW17431   0.015   1.116   2.312
 5511SOL    HW117432   0.063   1.111   2.225
 5511SOL    HW217433   7.015   1.211   2.335
 5512SOL     OW17434   1.244   0.286   0.971
 5512SOL    HW117435   1.281   0.364   0.921
 5512SOL    HW217436   1.264   0.202   0.920
 5513SOL     OW17437   4.183   4.722   4.651
 5513SOL    HW117438   4.248   4.665   4.601
 5513SOL    HW217439   4.096   4.726   4.602
 5514SOL     OW17440   5.571   5.221   3.222
 5514SOL    HW117441   5.484   5.182   3.189
 5514SOL    HW217442   5.614   5.156   3.284
 5515SOL     OW17443   6.800   2.946   1.234
 5515SOL    HW117444   6.724   3.002   1.267
 5515SOL    HW217445   6.800   2.859   1.283
 5516SOL     OW17446   1.333   2.992   6.430
 5516SOL    HW117447   1.312   3.031   6.341
 5516SOL    HW217448   1.312   3.059   6.502
 5517SOL     OW17449   2.665   1.855   2.563
 5517SOL    HW117450   2.748   1.844   2.509
 5517SOL    HW217451   2.683   1.916   2.640
 5518SOL     OW17452   5.967   4.717   5.016
 5518SOL    HW117453   6.004   4.667   4.937
 5518SOL    HW217454   6.042   4.765   5.062
 5519SOL     OW17455   5.279   3.841   4.198
 5519SOL    HW117456   5.257   3.778   4.273
 5519SOL    HW217457   5.378   3.853   4.192
 5520SOL     OW17458   1.831   3.645   1.817
 5520SOL    HW117459   1.745   3.606   1.785
 5520SOL    HW217460   1.889   3.573   1.855
 5521SOL     OW17461   5.652   5.267   1.723
 5521SOL    HW117462   5.707   5.210   1.662
 5521SOL    HW217463   5.676   5.364   1.709
 5522SOL     OW17464   2.173   3.684   1.759
 5522SOL    HW117465   2.204   3.627   1.835
 5522SOL    HW217466   2.233   3.669   1.680
 5523SOL     OW17467   2.541   0.122   2.318
 5523SOL    HW117468   2.596   0.206   2.325
 5523SOL    HW217469   2.470   0.124   2.388
 5524SOL     OW17470   0.032   5.363   6.405
 5524SOL    HW117471   0.082   5.435   6.358
 5524SOL    HW217472   0.077   5.275   6.390
 5525SOL     OW17473   6.665   5.638   4.959
 5525SOL    HW117474   6.647   5.736   4.950
 5525SOL    HW217475   6.624   5.589   4.881
 5526SOL     OW17476   6.767   3.112   4.371
 5526SOL    HW117477   6.732   3.019   4.378
 5526SOL    HW217478   6.696   3.172   4.334
 5527SOL     OW17479   1.720   3.841   1.570
 5527SOL    HW117480   1.707   3.870   1.476
 5527SOL    HW217481   1.635   3.803   1.606
 5528SOL     OW17482   0.386   3.585   2.986
 5528SOL    HW117483   0.429   3.605   2.898
 5528SOL    HW217484   0.310   3.522   2.972
 5529SOL     OW17485   2.510   1.446   4.811
 5529SOL    HW117486   2.549   1.376   4.871
 5529SOL    HW217487   2.517   1.536   4.855
 5530SOL     OW17488   0.845   2.490   0.406
 5530SOL    HW117489   0.838   2.519   0.501
 5530SOL    HW217490   0.757   2.505   0.360
 5531SOL     OW17491   3.660   3.097   5.963
 5531SOL    HW117492   3.594   3.127   5.894
 5531SOL    HW217493   3.676   3.172   6.028
 5532SOL     OW17494   2.585   1.732   1.298
 5532SOL    HW117495   2.486   1.730   1.312
 5532SOL    HW217496   2.604   1.755   1.202
 5533SOL     OW17497   4.007   0.907   1.387
 5533SOL    HW117498   3.939   0.871   1.324
 5533SOL    HW217499   4.072   0.964   1.337
 5534SOL     OW17500   0.039   3.963   6.827
 5534SOL    HW117501   6.998   3.998   6.899
 5534SOL    HW217502   7.012   3.887   6.779
 5535SOL     OW17503   6.146   3.231   2.989
 5535SOL    HW117504   6.141   3.312   3.048
 5535SOL    HW217505   6.183   3.257   2.900
 5536SOL     OW17506   2.339   0.298   3.825
 5536SOL    HW117507   2.260   0.299   3.765
 5536SOL    HW217508   2.310   0.273   3.918
 5537SOL     OW17509   4.409   0.532   4.611
 5537SOL    HW117510   4.376   0.488   4.695
 5537SOL    HW217511   4.479   0.475   4.569
 5538SOL     OW17512   4.888   1.572   6.937
 5538SOL    HW117513   4.836   1.552   0.001
 5538SOL    HW217514   4.856   1.657   6.896
 5539SOL     OW17515   3.411   6.970   0.668
 5539SOL    HW117516   3.372   7.001   0.755
 5539SOL    HW217517   3.338   6.935   0.609
 5540SOL     OW17518   5.595   0.841   6.684
 5540SOL    HW117519   5.577   0.937   6.707
 5540SOL    HW217520   5.672   0.808   6.738
 5541SOL     OW17521   4.751   3.896   6.496
 5541SOL    HW117522   4.754   3.995   6.485
 5541SOL    HW217523   4.733   3.853   6.407
 5542SOL     OW17524   4.691   4.954   6.915
 5542SOL    HW117525   4.759   4.923   6.982
 5542SOL    HW217526   4.734   4.962   6.825
 5543SOL     OW17527   1.471   0.806   0.955
 5543SOL    HW117528   1.450   0.879   1.020
 5543SOL    HW217529   1.473   0.718   1.003
 5544SOL     OW17530   4.288   5.591   6.029
 5544SOL    HW117531   4.338   5.566   6.112
 5544SOL    HW217532   4.212   5.528   6.016
 5545SOL     OW17533   4.041   0.660   3.144
 5545SOL    HW117534   4.122   0.718   3.135
 5545SOL    HW217535   4.020   0.618   3.056
 5546SOL     OW17536   0.430   5.760   5.443
 5546SOL    HW117537   0.417   5.852   5.407
 5546SOL    HW217538   0.469   5.765   5.535
 5547SOL     OW17539   5.728   1.995   4.932
 5547SOL    HW117540   5.778   1.912   4.907
 5547SOL    HW217541   5.790   2.059   4.977
 5548SOL     OW17542   0.188   4.585   5.102
 5548SOL    HW117543   0.277   4.555   5.135
 5548SOL    HW217544   0.158   4.665   5.155
 5549SOL     OW17545   4.309   3.461   1.383
 5549SOL    HW117546   4.267   3.512   1.308
 5549SOL    HW217547   4.273   3.367   1.385
 5550SOL     OW17548   1.282   3.265   2.674
 5550SOL    HW117549   1.201   3.306   2.632
 5550SOL    HW217550   1.331   3.334   2.727
 5551SOL     OW17551   2.201   4.989   3.868
 5551SOL    HW117552   2.271   5.016   3.935
 5551SOL    HW217553   2.158   5.071   3.831
 5552SOL     OW17554   0.571   6.664   6.507
 5552SOL    HW117555   0.510   6.584   6.503
 5552SOL    HW217556   0.518   6.747   6.492
 5553SOL     OW17557   4.845   0.319   6.793
 5553SOL    HW117558   4.883   0.340   6.884
 5553SOL    HW217559   4.875   0.228   6.765
 5554SOL     OW17560   5.607   2.777   1.523
 5554SOL    HW117561   5.583   2.687   1.559
 5554SOL    HW217562   5.605   2.775   1.423
 5555SOL     OW17563   1.587   4.052   2.392
 5555SOL    HW117564   1.575   4.098   2.480
 5555SOL    HW217565   1.613   4.120   2.322
 5556SOL     OW17566   6.439   0.579   4.649
 5556SOL    HW117567   6.421   0.656   4.710
 5556SOL    HW217568   6.461   0.498   4.703
 5557SOL     OW17569   3.239   5.734   2.129
 5557SOL    HW117570   3.198   5.728   2.220
 5557SOL    HW217571   3.259   5.642   2.096
 5558SOL     OW17572   3.526   4.393   0.114
 5558SOL    HW117573   3.533   4.301   0.152
 5558SOL    HW217574   3.617   4.433   0.106
 5559SOL     OW17575   1.808   6.655   3.014
 5559SOL    HW117576   1.754   6.675   2.932
 5559SOL    HW217577   1.756   6.594   3.074
 5560SOL     OW17578   0.486   5.918   2.862
 5560SOL    HW117579   0.391   5.918   2.830
 5560SOL    HW217580   0.487   5.913   2.962
 5561SOL     OW17581   3.284   0.891   3.914
 5561SOL    HW117582   3.209   0.911   3.851
 5561SOL    HW217583   3.352   0.965   3.909
 5562SOL     OW17584   4.319   3.719   0.953
 5562SOL    HW117585   4.415   3.713   0.980
 5562SOL    HW217586   4.264   3.656   1.008
 5563SOL     OW17587   2.941   4.777   2.819
 5563SOL    HW117588   2.910   4.714   2.890
 5563SOL    HW217589   2.947   4.728   2.732
 5564SOL     OW17590   5.414   0.522   5.704
 5564SOL    HW117591   5.470   0.569   5.774
 5564SOL    HW217592   5.375   0.591   5.642
 5565SOL     OW17593   3.595   2.585   0.120
 5565SOL    HW117594   3.687   2.564   0.087
 5565SOL    HW217595   3.590   2.567   0.219
 5566SOL     OW17596   1.112   3.475   6.741
 5566SOL    HW117597   1.068   3.414   6.675
 5566SOL    HW217598   1.118   3.429   6.830
 5567SOL     OW17599   6.779   3.732   1.284
 5567SOL    HW117600   6.789   3.825   1.249
 5567SOL    HW217601   6.808   3.728   1.379
 5568SOL     OW17602   4.048   6.472   2.304
 5568SOL    HW117603   4.118   6.537   2.333
 5568SOL    HW217604   4.069   6.440   2.211
 5569SOL     OW17605   2.516   2.224   4.221
 5569SOL    HW117606   2.562   2.312   4.227
 5569SOL    HW217607   2.569   2.155   4.271
 5570SOL     OW17608   6.641   3.226   2.723
 5570SOL    HW117609   6.626   3.211   2.821
 5570SOL    HW217610   6.587   3.304   2.693
 5571SOL     OW17611   0.273   5.348   2.108
 5571SOL    HW117612   0.236   5.335   2.200
 5571SOL    HW217613   0.294   5.444   2.094
 5572SOL     OW17614   0.596   3.154   4.733
 5572SOL    HW117615   0.570   3.186   4.825
 5572SOL    HW217616   0.679   3.201   4.703
 5573SOL     OW17617   2.111   5.159   4.704
 5573SOL    HW117618   2.081   5.254   4.690
 5573SOL    HW217619   2.185   5.157   4.771
 5574SOL     OW17620   7.004   2.904   6.092
 5574SOL    HW117621   0.015   2.809   6.103
 5574SOL    HW217622   6.997   2.947   6.183
 5575SOL     OW17623   0.627   0.712   1.465
 5575SOL    HW117624   0.548   0.736   1.410
 5575SOL    HW217625   0.659   0.793   1.515
 5576SOL     OW17626   1.779   3.916   3.502
 5576SOL    HW117627   1.873   3.883   3.492
 5576SOL    HW217628   1.715   3.841   3.486
 5577SOL     OW17629   1.503   3.421   6.452
 5577SOL    HW117630   1.447   3.433   6.534
 5577SOL    HW217631   1.523   3.511   6.412
 5578SOL     OW17632   3.297   3.109   2.903
 5578SOL    HW117633   3.218   3.155   2.862
 5578SOL    HW217634   3.369   3.098   2.834
 5579SOL     OW17635   6.926   3.017   1.463
 5579SOL    HW117636   6.870   2.996   1.382
 5579SOL    HW217637   6.922   3.115   1.481
 5580SOL     OW17638   4.639   1.818   5.768
 5580SOL    HW117639   4.643   1.847   5.672
 5580SOL    HW217640   4.614   1.722   5.773
 5581SOL     OW17641   0.587   1.764   0.885
 5581SOL    HW117642   0.640   1.699   0.830
 5581SOL    HW217643   0.590   1.855   0.841
 5582SOL     OW17644   2.290   3.619   6.216
 5582SOL    HW117645   2.208   3.650   6.167
 5582SOL    HW217646   2.265   3.592   6.309
 5583SOL     OW17647   5.222   1.185   2.499
 5583SOL    HW117648   5.295   1.254   2.504
 5583SOL    HW217649   5.163   1.194   2.580
 5584SOL     OW17650   6.894   4.635   4.560
 5584SOL    HW117651   6.821   4.579   4.521
 5584SOL    HW217652   6.946   4.679   4.486
 5585SOL     OW17653   4.711   5.306   2.356
 5585SOL    HW117654   4.767   5.292   2.274
 5585SOL    HW217655   4.754   5.376   2.414
 5586SOL     OW17656   6.917   3.231   6.073
 5586SOL    HW117657   7.017   3.230   6.067
 5586SOL    HW217658   6.882   3.318   6.039
 5587SOL     OW17659   4.416   0.885   6.605
 5587SOL    HW117660   4.454   0.961   6.657
 5587SOL    HW217661   4.463   0.879   6.517
 5588SOL     OW17662   3.046   6.311   2.093
 5588SOL    HW117663   3.079   6.382   2.030
 5588SOL    HW217664   2.951   6.290   2.073
 5589SOL     OW17665   6.029   4.501   6.697
 5589SOL    HW117666   6.046   4.479   6.601
 5589SOL    HW217667   6.089   4.446   6.755
 5590SOL     OW17668   5.915   5.923   3.914
 5590SOL    HW117669   5.822   5.956   3.930
 5590SOL    HW217670   5.972   5.943   3.994
 5591SOL     OW17671   6.613   1.520   2.081
 5591SOL    HW117672   6.554   1.514   2.162
 5591SOL    HW217673   6.601   1.610   2.039
 5592SOL     OW17674   0.993   4.238   3.702
 5592SOL    HW117675   0.931   4.178   3.752
 5592SOL    HW217676   1.032   4.305   3.764
 5593SOL     OW17677   6.388   2.025   0.089
 5593SOL    HW117678   6.304   2.022   0.035
 5593SOL    HW217679   6.390   1.947   0.152
 5594SOL     OW17680   5.186   2.037   5.741
 5594SOL    HW117681   5.143   2.113   5.791
 5594SOL    HW217682   5.180   1.954   5.796
 5595SOL     OW17683   0.680   2.131   5.377
 5595SOL    HW117684   0.734   2.138   5.293
 5595SOL    HW217685   0.665   2.222   5.414
 5596SOL     OW17686   3.844   6.701   2.891
 5596SOL    HW117687   3.910   6.652   2.948
 5596SOL    HW217688   3.853   6.671   2.796
 5597SOL     OW17689   5.148   2.758   3.568
 5597SOL    HW117690   5.071   2.731   3.626
 5597SOL    HW217691   5.224   2.788   3.626
 5598SOL     OW17692   5.351   2.709   4.068
 5598SOL    HW117693   5.316   2.628   4.021
 5598SOL    HW217694   5.414   2.680   4.141
 5599SOL     OW17695   0.855   1.771   4.740
 5599SOL    HW117696   0.804   1.726   4.813
 5599SOL    HW217697   0.891   1.702   4.677
 5600SOL     OW17698   1.340   2.298   4.205
 5600SOL    HW117699   1.341   2.355   4.288
 5600SOL    HW217700   1.350   2.357   4.125
 5601SOL     OW17701   2.538   0.611   5.977
 5601SOL    HW117702   2.550   0.526   6.029
 5601SOL    HW217703   2.441   0.635   5.974
 5602SOL     OW17704   0.442   1.046   1.042
 5602SOL    HW117705   0.395   1.010   0.962
 5602SOL    HW217706   0.421   1.144   1.052
 5603SOL     OW17707   5.437   1.845   6.822
 5603SOL    HW117708   5.479   1.936   6.822
 5603SOL    HW217709   5.408   1.822   6.915
 5604SOL     OW17710   6.175   2.353   5.863
 5604SOL    HW117711   6.206   2.287   5.795
 5604SOL    HW217712   6.187   2.445   5.827
 5605SOL     OW17713   0.572   1.630   4.879
 5605SOL    HW117714   0.476   1.656   4.885
 5605SOL    HW217715   0.598   1.576   4.959
 5606SOL     OW17716   5.073   6.202   1.123
 5606SOL    HW117717   5.035   6.171   1.036
 5606SOL    HW217718   5.115   6.292   1.112
 5607SOL     OW17719   5.437   1.522   1.882
 5607SOL    HW117720   5.498   1.576   1.824
 5607SOL    HW217721   5.491   1.468   1.947
 5608SOL     OW17722   4.448   0.212   5.153
 5608SOL    HW117723   4.492   0.127   5.125
 5608SOL    HW217724   4.375   0.191   5.218
 5609SOL     OW17725   2.558   5.880   6.773
 5609SOL    HW117726   2.549   5.870   6.872
 5609SOL    HW217727   2.653   5.863   6.747
 5610SOL     OW17728   4.867   0.781   0.261
 5610SOL    HW117729   4.798   0.797   0.332
 5610SOL    HW217730   4.902   0.868   0.228
 5611SOL     OW17731   1.622   4.929   2.986
 5611SOL    HW117732   1.700   4.912   3.047
 5611SOL    HW217733   1.628   4.868   2.907
 5612SOL     OW17734   3.447   1.278   6.180
 5612SOL    HW117735   3.347   1.276   6.191
 5612SOL    HW217736   3.486   1.192   6.214
 5613SOL     OW17737   4.460   4.552   2.630
 5613SOL    HW117738   4.418   4.642   2.617
 5613SOL    HW217739   4.449   4.498   2.547
 5614SOL     OW17740   4.673   2.771   3.443
 5614SOL    HW117741   4.582   2.729   3.436
 5614SOL    HW217742   4.691   2.795   3.538
 5615SOL     OW17743   1.034   0.446   6.981
 5615SOL    HW117744   1.063   0.352   7.001
 5615SOL    HW217745   0.949   0.466   0.010
 5616SOL     OW17746   2.436   0.603   4.820
 5616SOL    HW117747   2.472   0.511   4.804
 5616SOL    HW217748   2.434   0.622   4.918
 5617SOL     OW17749   2.243   0.375   5.523
 5617SOL    HW117750   2.234   0.453   5.586
 5617SOL    HW217751   2.166   0.374   5.460
 5618SOL     OW17752   6.233   4.034   3.831
 5618SOL    HW117753   6.267   3.983   3.910
 5618SOL    HW217754   6.310   4.081   3.787
 5619SOL     OW17755   2.660   3.844   5.945
 5619SOL    HW117756   2.593   3.915   5.968
 5619SOL    HW217757   2.664   3.833   5.845
 5620SOL     OW17758   3.973   2.467   0.207
 5620SOL    HW117759   4.038   2.418   0.148
 5620SOL    HW217760   3.997   2.451   0.303
 5621SOL     OW17761   1.783   1.397   5.693
 5621SOL    HW117762   1.725   1.435   5.765
 5621SOL    HW217763   1.835   1.320   5.729
 5622SOL     OW17764   4.817   0.394   5.790
 5622SOL    HW117765   4.831   0.472   5.728
 5622SOL    HW217766   4.889   0.326   5.776
 5623SOL     OW17767   1.859   6.054   6.619
 5623SOL    HW117768   1.845   6.106   6.535
 5623SOL    HW217769   1.814   6.100   6.695
 5624SOL     OW17770   1.094   4.482   3.448
 5624SOL    HW117771   1.139   4.552   3.392
 5624SOL    HW217772   1.089   4.513   3.543
 5625SOL     OW17773   6.618   2.859   4.388
 5625SOL    HW117774   6.633   2.764   4.361
 5625SOL    HW217775   6.560   2.863   4.469
 5626SOL     OW17776   3.493   6.762   4.819
 5626SOL    HW117777   3.589   6.787   4.808
 5626SOL    HW217778   3.442   6.841   4.854
 5627SOL     OW17779   1.671   6.166   1.761
 5627SOL    HW117780   1.760   6.135   1.727
 5627SOL    HW217781   1.636   6.239   1.702
 5628SOL     OW17782   1.625   2.157   5.577
 5628SOL    HW117783   1.651   2.062   5.561
 5628SOL    HW217784   1.670   2.215   5.510
 5629SOL     OW17785   3.292   3.727   2.262
 5629SOL    HW117786   3.388   3.700   2.258
 5629SOL    HW217787   3.284   3.820   2.298
 5630SOL     OW17788   0.903   4.938   0.749
 5630SOL    HW117789   0.868   4.958   0.841
 5630SOL    HW217790   0.859   4.998   0.683
 5631SOL     OW17791   4.147   1.870   0.020
 5631SOL    HW117792   4.178   1.965   0.016
 5631SOL    HW217793   4.072   1.862   0.086
 5632SOL     OW17794   4.238   4.271   6.312
 5632SOL    HW117795   4.332   4.305   6.307
 5632SOL    HW217796   4.190   4.314   6.389
 5633SOL     OW17797   6.933   2.783   3.764
 5633SOL    HW117798   6.853   2.798   3.823
 5633SOL    HW217799   6.904   2.738   3.680
 5634SOL     OW17800   3.537   4.914   4.528
 5634SOL    HW117801   3.499   4.879   4.443
 5634SOL    HW217802   3.463   4.931   4.593
 5635SOL     OW17803   2.532   2.436   5.119
 5635SOL    HW117804   2.487   2.512   5.165
 5635SOL    HW217805   2.626   2.428   5.153
 5636SOL     OW17806   4.234   5.628   3.300
 5636SOL    HW117807   4.278   5.540   3.314
 5636SOL    HW217808   4.154   5.635   3.360
 5637SOL     OW17809   6.175   0.108   4.224
 5637SOL    HW117810   6.086   0.082   4.261
 5637SOL    HW217811   6.213   0.183   4.279
 5638SOL     OW17812   5.798   2.928   0.443
 5638SOL    HW117813   5.892   2.944   0.472
 5638SOL    HW217814   5.796   2.902   0.347
 5639SOL     OW17815   0.043   1.397   6.629
 5639SOL    HW117816   0.046   1.335   6.707
 5639SOL    HW217817   6.990   1.466   6.644
 5640SOL     OW17818   2.604   0.092   3.698
 5640SOL    HW117819   2.531   0.083   3.631
 5640SOL    HW217820   2.564   0.115   3.787
 5641SOL     OW17821   6.331   4.841   5.538
 5641SOL    HW117822   6.367   4.819   5.629
 5641SOL    HW217823   6.388   4.798   5.468
 5642SOL     OW17824   2.067   1.341   0.045
 5642SOL    HW117825   2.157   1.328   0.005
 5642SOL    HW217826   1.997   1.307   7.001
 5643SOL     OW17827   6.336   2.977   4.375
 5643SOL    HW117828   6.252   2.941   4.416
 5643SOL    HW217829   6.413   2.918   4.399
 5644SOL     OW17830   3.173   6.956   6.150
 5644SOL    HW117831   3.173   0.035   6.171
 5644SOL    HW217832   3.082   6.929   6.119
 5645SOL     OW17833   5.762   3.316   3.629
 5645SOL    HW117834   5.794   3.326   3.724
 5645SOL    HW217835   5.775   3.221   3.600
 5646SOL     OW17836   1.786   4.195   2.994
 5646SOL    HW117837   1.852   4.254   2.947
 5646SOL    HW217838   1.828   4.156   3.076
 5647SOL     OW17839   5.934   5.958   2.426
 5647SOL    HW117840   5.993   5.930   2.502
 5647SOL    HW217841   5.874   6.031   2.455
 5648SOL     OW17842   3.594   5.983   3.150
 5648SOL    HW117843   3.685   6.020   3.171
 5648SOL    HW217844   3.602   5.919   3.074
 5649SOL     OW17845   1.024   5.409   4.007
 5649SOL    HW117846   1.051   5.457   4.090
 5649SOL    HW217847   1.101   5.407   3.943
 5650SOL     OW17848   0.374   4.569   0.832
 5650SOL    HW117849   0.342   4.601   0.922
 5650SOL    HW217850   0.312   4.603   0.761
 5651SOL     OW17851   1.608   0.771   0.683
 5651SOL    HW117852   1.583   0.765   0.779
 5651SOL    HW217853   1.648   0.860   0.664
 5652SOL     OW17854   0.747   4.849   1.817
 5652SOL    HW117855   0.682   4.877   1.746
 5652SOL    HW217856   0.698   4.842   1.905
 5653SOL     OW17857   0.165   6.131   1.571
 5653SOL    HW117858   0.073   6.129   1.611
 5653SOL    HW217859   0.170   6.202   1.501
 5654SOL     OW17860   2.117   6.483   4.830
 5654SOL    HW117861   2.110   6.481   4.730
 5654SOL    HW217862   2.086   6.571   4.864
 5655SOL     OW17863   6.642   2.921   4.125
 5655SOL    HW117864   6.728   2.872   4.137
 5655SOL    HW217865   6.598   2.934   4.214
 5656SOL     OW17866   0.353   3.062   6.359
 5656SOL    HW117867   0.261   3.094   6.339
 5656SOL    HW217868   0.394   3.025   6.276
 5657SOL     OW17869   4.351   5.131   4.728
 5657SOL    HW117870   4.407   5.049   4.742
 5657SOL    HW217871   4.260   5.104   4.698
 5658SOL     OW17872   1.923   2.409   5.645
 5658SOL    HW117873   1.878   2.379   5.560
 5658SOL    HW217874   1.858   2.405   5.720
 5659SOL     OW17875   3.175   4.056   6.133
 5659SOL    HW117876   3.138   3.965   6.153
 5659SOL    HW217877   3.115   4.126   6.172
 5660SOL     OW17878   4.439   0.178   6.714
 5660SOL    HW117879   4.365   0.182   6.647
 5660SOL    HW217880   4.486   0.266   6.718
 5661SOL     OW17881   0.996   5.909   5.764
 5661SOL    HW117882   1.079   5.855   5.758
 5661SOL    HW217883   0.921   5.852   5.798
 5662SOL     OW17884   2.988   6.173   2.837
 5662SOL    HW117885   3.085   6.164   2.862
 5662SOL    HW217886   2.965   6.105   2.767
 5663SOL     OW17887   1.284   3.034   0.666
 5663SOL    HW117888   1.236   2.974   0.729
 5663SOL    HW217889   1.241   3.124   0.665
 5664SOL     OW17890   5.050   4.056   4.501
 5664SOL    HW117891   5.014   3.978   4.451
 5664SOL    HW217892   5.070   4.130   4.437
 5665SOL     OW17893   2.178   0.703   1.217
 5665SOL    HW117894   2.189   0.684   1.119
 5665SOL    HW217895   2.114   0.779   1.229
 5666SOL     OW17896   6.363   0.887   4.978
 5666SOL    HW117897   6.437   0.926   4.924
 5666SOL    HW217898   6.316   0.960   5.028
 5667SOL     OW17899   2.279   5.633   4.726
 5667SOL    HW117900   2.250   5.694   4.653
 5667SOL    HW217901   2.369   5.661   4.759
 5668SOL     OW17902   5.766   3.021   3.596
 5668SOL    HW117903   5.795   2.959   3.523
 5668SOL    HW217904   5.666   3.026   3.597
 5669SOL     OW17905   6.227   4.352   6.827
 5669SOL    HW117906   6.251   4.265   6.782
 5669SOL    HW217907   6.272   4.357   6.915
 5670SOL     OW17908   1.072   2.432   2.239
 5670SOL    HW117909   1.015   2.476   2.309
 5670SOL    HW217910   1.014   2.388   2.171
 5671SOL     OW17911   0.807   6.998   3.897
 5671SOL    HW117912   0.788   6.938   3.820
 5671SOL    HW217913   0.727   7.001   3.958
 5672SOL     OW17914   5.084   4.164   4.961
 5672SOL    HW117915   5.075   4.086   5.023
 5672SOL    HW217916   5.088   4.132   4.867
 5673SOL     OW17917   0.984   0.566   1.110
 5673SOL    HW117918   0.904   0.611   1.151
 5673SOL    HW217919   1.065   0.587   1.163
 5674SOL     OW17920   1.191   5.741   5.310
 5674SOL    HW117921   1.141   5.826   5.296
 5674SOL    HW217922   1.258   5.753   5.382
 5675SOL     OW17923   2.355   1.677   0.150
 5675SOL    HW117924   2.402   1.731   0.220
 5675SOL    HW217925   2.408   1.678   0.065
 5676SOL     OW17926   2.678   2.221   1.853
 5676SOL    HW117927   2.738   2.284   1.902
 5676SOL    HW217928   2.729   2.179   1.778
 5677SOL     OW17929   0.019   6.909   1.270
 5677SOL    HW117930   0.036   6.820   1.228
 5677SOL    HW217931   0.083   6.922   1.346
 5678SOL     OW17932   3.501   1.747   1.683
 5678SOL    HW117933   3.499   1.814   1.608
 5678SOL    HW217934   3.412   1.704   1.692
 5679SOL     OW17935   5.932   3.326   5.045
 5679SOL    HW117936   5.893   3.328   5.137
 5679SOL    HW217937   5.944   3.419   5.012
 5680SOL     OW17938   1.356   5.563   6.033
 5680SOL    HW117939   1.358   5.476   6.082
 5680SOL    HW217940   1.395   5.635   6.090
 5681SOL     OW17941   0.352   4.225   3.072
 5681SOL    HW117942   0.327   4.255   2.981
 5681SOL    HW217943   0.275   4.239   3.135
 5682SOL     OW17944   2.019   4.329   2.172
 5682SOL    HW117945   1.984   4.419   2.196
 5682SOL    HW217946   2.016   4.318   2.072
 5683SOL     OW17947   4.510   1.869   6.791
 5683SOL    HW117948   4.452   1.806   6.739
 5683SOL    HW217949   4.472   1.961   6.785
 5684SOL     OW17950   2.424   2.624   5.315
 5684SOL    HW117951   2.382   2.714   5.313
 5684SOL    HW217952   2.404   2.580   5.403
 5685SOL     OW17953   2.475   2.113   3.543
 5685SOL    HW117954   2.474   2.083   3.448
 5685SOL    HW217955   2.384   2.100   3.583
 5686SOL     OW17956   3.290   6.731   6.256
 5686SOL    HW117957   3.258   6.821   6.226
 5686SOL    HW217958   3.316   6.677   6.176
 5687SOL     OW17959   2.009   6.336   6.065
 5687SOL    HW117960   2.066   6.261   6.100
 5687SOL    HW217961   2.066   6.396   6.009
 5688SOL     OW17962   2.046   3.309   3.206
 5688SOL    HW117963   2.088   3.336   3.119
 5688SOL    HW217964   1.981   3.380   3.234
 5689SOL     OW17965   1.327   1.619   1.720
 5689SOL    HW117966   1.329   1.602   1.819
 5689SOL    HW217967   1.387   1.553   1.674
 5690SOL     OW17968   1.101   5.761   0.240
 5690SOL    HW117969   1.031   5.823   0.207
 5690SOL    HW217970   1.191   5.804   0.234
 5691SOL     OW17971   3.802   0.977   2.735
 5691SOL    HW117972   3.776   1.034   2.813
 5691SOL    HW217973   3.764   1.017   2.651
 5692SOL     OW17974   5.011   4.790   1.015
 5692SOL    HW117975   5.104   4.815   1.042
 5692SOL    HW217976   4.947   4.825   1.083
 5693SOL     OW17977   3.439   0.901   1.361
 5693SOL    HW117978   3.352   0.912   1.409
 5693SOL    HW217979   3.464   0.987   1.317
 5694SOL     OW17980   0.460   6.974   2.431
 5694SOL    HW117981   0.458   6.939   2.338
 5694SOL    HW217982   0.554   6.996   2.457
 5695SOL     OW17983   1.080   0.687   0.885
 5695SOL    HW117984   1.025   0.648   0.958
 5695SOL    HW217985   1.161   0.630   0.869
 5696SOL     OW17986   1.499   6.995   4.212
 5696SOL    HW117987   1.549   0.062   4.225
 5696SOL    HW217988   1.414   6.997   4.264
 5697SOL     OW17989   6.378   2.716   0.818
 5697SOL    HW117990   6.414   2.622   0.823
 5697SOL    HW217991   6.420   2.770   0.891
 5698SOL     OW17992   2.290   2.948   3.748
 5698SOL    HW117993   2.289   2.978   3.653
 5698SOL    HW217994   2.282   3.027   3.808
 5699SOL     OW17995   2.365   2.667   2.892
 5699SOL    HW117996   2.420   2.615   2.826
 5699SOL    HW217997   2.382   2.633   2.984
 5700SOL     OW17998   6.123   0.331   3.027
 5700SOL    HW117999   6.023   0.326   3.029
 5700SOL    HW218000   6.158   0.274   2.952
 5701SOL     OW18001   6.683   0.608   0.938
 5701SOL    HW118002   6.632   0.639   0.858
 5701SOL    HW218003   6.764   0.557   0.909
 5702SOL     OW18004   2.437   6.693   4.689
 5702SOL    HW118005   2.422   6.597   4.713
 5702SOL    HW218006   2.528   6.722   4.718
 5703SOL     OW18007   6.515   2.878   6.249
 5703SOL    HW118008   6.544   2.962   6.294
 5703SOL    HW218009   6.588   2.810   6.252
 5704SOL     OW18010   5.738   4.619   3.816
 5704SOL    HW118011   5.653   4.598   3.768
 5704SOL    HW218012   5.723   4.695   3.879
 5705SOL     OW18013   5.755   6.495   6.292
 5705SOL    HW118014   5.817   6.533   6.362
 5705SOL    HW218015   5.794   6.410   6.258
 5706SOL     OW18016   5.431   2.088   0.232
 5706SOL    HW118017   5.524   2.113   0.259
 5706SOL    HW218018   5.432   1.999   0.187
 5707SOL     OW18019   5.561   6.389   2.516
 5707SOL    HW118020   5.481   6.337   2.545
 5707SOL    HW218021   5.572   6.469   2.575
 5708SOL     OW18022   4.384   5.837   3.737
 5708SOL    HW118023   4.315   5.909   3.744
 5708SOL    HW218024   4.471   5.876   3.706
 5709SOL     OW18025   0.467   0.998   2.142
 5709SOL    HW118026   0.547   0.951   2.104
 5709SOL    HW218027   0.452   1.083   2.092
 5710SOL     OW18028   2.589   2.359   1.317
 5710SOL    HW118029   2.526   2.406   1.255
 5710SOL    HW218030   2.576   2.261   1.311
 5711SOL     OW18031   5.187   1.580   1.965
 5711SOL    HW118032   5.164   1.529   2.048
 5711SOL    HW218033   5.273   1.547   1.928
 5712SOL     OW18034   6.999   6.198   1.757
 5712SOL    HW118035   6.961   6.165   1.844
 5712SOL    HW218036   6.962   6.289   1.738
 5713SOL     OW18037   2.877   6.458   0.500
 5713SOL    HW118038   2.887   6.405   0.416
 5713SOL    HW218039   2.791   6.433   0.545
 5714SOL     OW18040   6.120   6.491   2.015
 5714SOL    HW118041   6.155   6.463   1.926
 5714SOL    HW218042   6.062   6.419   2.052
 5715SOL     OW18043   0.796   0.174   1.169
 5715SOL    HW118044   0.891   0.153   1.145
 5715SOL    HW218045   0.766   0.253   1.115
 5716SOL     OW18046   0.213   4.525   5.813
 5716SOL    HW118047   0.139   4.496   5.752
 5716SOL    HW218048   0.187   4.506   5.908
 5717SOL     OW18049   1.655   5.202   2.964
 5717SOL    HW118050   1.630   5.105   2.966
 5717SOL    HW218051   1.574   5.258   2.981
 5718SOL     OW18052   1.133   2.944   0.322
 5718SOL    HW118053   1.216   2.969   0.273
 5718SOL    HW218054   1.053   2.960   0.264
 5719SOL     OW18055   3.036   4.121   1.319
 5719SOL    HW118056   2.967   4.060   1.359
 5719SOL    HW218057   3.070   4.183   1.390
 5720SOL     OW18058   1.944   5.140   5.843
 5720SOL    HW118059   1.948   5.237   5.819
 5720SOL    HW218060   1.871   5.096   5.791
 5721SOL     OW18061   4.640   4.686   0.379
 5721SOL    HW118062   4.595   4.633   0.451
 5721SOL    HW218063   4.575   4.751   0.340
 5722SOL     OW18064   0.916   0.913   5.343
 5722SOL    HW118065   0.924   0.851   5.421
 5722SOL    HW218066   0.841   0.883   5.284
 5723SOL     OW18067   4.344   3.054   0.166
 5723SOL    HW118068   4.294   2.984   0.115
 5723SOL    HW218069   4.288   3.085   0.243
 5724SOL     OW18070   5.052   2.267   3.605
 5724SOL    HW118071   5.071   2.187   3.662
 5724SOL    HW218072   5.069   2.243   3.509
 5725SOL     OW18073   6.528   3.843   3.545
 5725SOL    HW118074   6.432   3.867   3.535
 5725SOL    HW218075   6.555   3.852   3.641
 5726SOL     OW18076   4.887   4.614   2.916
 5726SOL    HW118077   4.899   4.682   2.988
 5726SOL    HW218078   4.896   4.522   2.955
 5727SOL     OW18079   0.785   2.371   4.496
 5727SOL    HW118080   0.790   2.289   4.552
 5727SOL    HW218081   0.859   2.434   4.521
 5728SOL     OW18082   5.130   6.143   4.723
 5728SOL    HW118083   5.072   6.092   4.660
 5728SOL    HW218084   5.075   6.208   4.775
 5729SOL     OW18085   2.009   1.454   6.010
 5729SOL    HW118086   2.007   1.359   5.980
 5729SOL    HW218087   1.926   1.474   6.062
 5730SOL     OW18088   6.472   3.975   6.101
 5730SOL    HW118089   6.417   3.892   6.116
 5730SOL    HW218090   6.459   4.007   6.008
 5731SOL     OW18091   0.600   6.269   1.827
 5731SOL    HW118092   0.606   6.320   1.913
 5731SOL    HW218093   0.634   6.176   1.841
 5732SOL     OW18094   1.424   6.969   3.975
 5732SOL    HW118095   1.477   0.009   3.914
 5732SOL    HW218096   1.451   6.986   4.069
 5733SOL     OW18097   3.413   6.847   5.101
 5733SOL    HW118098   3.406   6.946   5.090
 5733SOL    HW218099   3.328   6.812   5.139
 5734SOL     OW18100   1.590   5.533   3.416
 5734SOL    HW118101   1.573   5.602   3.487
 5734SOL    HW218102   1.638   5.455   3.457
 5735SOL     OW18103   3.495   1.222   2.215
 5735SOL    HW118104   3.435   1.172   2.278
 5735SOL    HW218105   3.519   1.163   2.138
 5736SOL     OW18106   1.133   5.385   6.876
 5736SOL    HW118107   1.151   5.472   6.923
 5736SOL    HW218108   1.044   5.350   6.904
 5737SOL     OW18109   5.127   4.610   0.551
 5737SOL    HW118110   5.099   4.647   0.639
 5737SOL    HW218111   5.052   4.620   0.485
 5738SOL     OW18112   1.369   3.771   5.921
 5738SOL    HW118113   1.365   3.776   6.021
 5738SOL    HW218114   1.371   3.675   5.892
 5739SOL     OW18115   0.687   1.532   1.067
 5739SOL    HW118116   0.636   1.598   1.012
 5739SOL    HW218117   0.744   1.582   1.133
 5740SOL     OW18118   4.109   6.006   6.165
 5740SOL    HW118119   4.182   5.968   6.108
 5740SOL    HW218120   4.021   5.965   6.139
 5741SOL     OW18121   1.131   5.006   4.179
 5741SOL    HW118122   1.044   5.043   4.213
 5741SOL    HW218123   1.165   4.938   4.244
 5742SOL     OW18124   6.283   6.594   3.955
 5742SOL    HW118125   6.214   6.523   3.942
 5742SOL    HW218126   6.367   6.553   3.992
 5743SOL     OW18127   1.929   0.230   5.150
 5743SOL    HW118128   1.940   0.166   5.074
 5743SOL    HW218129   1.878   0.310   5.119
 5744SOL     OW18130   6.490   0.272   2.239
 5744SOL    HW118131   6.463   0.247   2.146
 5744SOL    HW218132   6.415   0.319   2.285
 5745SOL     OW18133   1.891   1.725   3.554
 5745SOL    HW118134   1.905   1.630   3.530
 5745SOL    HW218135   1.876   1.780   3.472
 5746SOL     OW18136   5.673   3.121   0.038
 5746SOL    HW118137   5.623   3.110   0.124
 5746SOL    HW218138   5.657   3.042   6.999
 5747SOL     OW18139   1.194   5.687   3.047
 5747SOL    HW118140   1.283   5.643   3.038
 5747SOL    HW218141   1.122   5.622   3.025
 5748SOL     OW18142   2.546   5.946   2.974
 5748SOL    HW118143   2.547   5.916   3.069
 5748SOL    HW218144   2.596   6.032   2.965
 5749SOL     OW18145   2.586   1.804   3.458
 5749SOL    HW118146   2.591   1.837   3.553
 5749SOL    HW218147   2.605   1.880   3.396
 5750SOL     OW18148   6.624   5.797   2.732
 5750SOL    HW118149   6.647   5.878   2.785
 5750SOL    HW218150   6.694   5.727   2.746
 5751SOL     OW18151   2.245   3.717   5.532
 5751SOL    HW118152   2.311   3.702   5.459
 5751SOL    HW218153   2.269   3.659   5.610
 5752SOL     OW18154   6.554   0.171   6.643
 5752SOL    HW118155   6.484   0.122   6.696
 5752SOL    HW218156   6.546   0.145   6.547
 5753SOL     OW18157   3.782   2.625   0.569
 5753SOL    HW118158   3.810   2.688   0.496
 5753SOL    HW218159   3.763   2.678   0.652
 5754SOL     OW18160   6.097   4.719   1.622
 5754SOL    HW118161   6.120   4.792   1.686
 5754SOL    HW218162   6.012   4.742   1.574
 5755SOL     OW18163   3.616   4.148   0.825
 5755SOL    HW118164   3.540   4.136   0.889
 5755SOL    HW218165   3.702   4.128   0.871
 5756SOL     OW18166   6.894   5.624   4.511
 5756SOL    HW118167   6.925   5.678   4.590
 5756SOL    HW218168   6.930   5.664   4.427
 5757SOL     OW18169   0.664   4.680   0.917
 5757SOL    HW118170   0.745   4.713   0.965
 5757SOL    HW218171   0.582   4.716   0.962
 5758SOL     OW18172   1.294   1.975   5.680
 5758SOL    HW118173   1.370   1.922   5.644
 5758SOL    HW218174   1.302   1.982   5.780
 5759SOL     OW18175   5.472   1.777   5.336
 5759SOL    HW118176   5.553   1.723   5.357
 5759SOL    HW218177   5.487   1.827   5.250
 5760SOL     OW18178   2.106   5.236   2.487
 5760SOL    HW118179   2.158   5.204   2.567
 5760SOL    HW218180   2.016   5.265   2.517
 5761SOL     OW18181   5.043   0.018   5.153
 5761SOL    HW118182   5.065   6.997   5.064
 5761SOL    HW218183   5.093   6.988   5.225
 5762SOL     OW18184   5.928   6.040   1.744
 5762SOL    HW118185   5.943   6.108   1.672
 5762SOL    HW218186   5.856   5.977   1.715
 5763SOL     OW18187   1.393   0.986   1.840
 5763SOL    HW118188   1.459   0.976   1.915
 5763SOL    HW218189   1.363   0.895   1.811
 5764SOL     OW18190   4.553   3.395   5.364
 5764SOL    HW118191   4.583   3.452   5.287
 5764SOL    HW218192   4.616   3.407   5.441
 5765SOL     OW18193   5.806   4.934   0.098
 5765SOL    HW118194   5.836   4.947   0.004
 5765SOL    HW218195   5.735   5.002   0.121
 5766SOL     OW18196   3.594   1.428   3.001
 5766SOL    HW118197   3.500   1.396   2.991
 5766SOL    HW218198   3.611   1.453   3.097
 5767SOL     OW18199   0.332   6.168   1.816
 5767SOL    HW118200   0.422   6.211   1.819
 5767SOL    HW218201   0.293   6.177   1.724
 5768SOL     OW18202   6.533   1.558   2.779
 5768SOL    HW118203   6.543   1.496   2.701
 5768SOL    HW218204   6.602   1.630   2.773
 5769SOL     OW18205   2.140   5.366   4.043
 5769SOL    HW118206   2.079   5.445   4.038
 5769SOL    HW218207   2.118   5.302   3.969
 5770SOL     OW18208   6.025   0.634   1.481
 5770SOL    HW118209   6.104   0.660   1.537
 5770SOL    HW218210   6.055   0.571   1.409
 5771SOL     OW18211   0.738   1.757   1.876
 5771SOL    HW118212   0.657   1.816   1.883
 5771SOL    HW218213   0.813   1.797   1.927
 5772SOL     OW18214   6.642   4.328   6.941
 5772SOL    HW118215   6.642   4.420   6.980
 5772SOL    HW218216   6.729   4.283   6.962
 5773SOL     OW18217   5.565   5.717   4.042
 5773SOL    HW118218   5.467   5.707   4.057
 5773SOL    HW218219   5.611   5.630   4.058
 5774SOL     OW18220   2.051   5.149   3.533
 5774SOL    HW118221   2.037   5.165   3.435
 5774SOL    HW218222   2.005   5.064   3.560
 5775SOL     OW18223   6.961   0.406   6.923
 5775SOL    HW118224   6.964   0.504   6.945
 5775SOL    HW218225   6.996   0.353   6.999
 5776SOL     OW18226   5.382   0.825   5.304
 5776SOL    HW118227   5.358   0.795   5.396
 5776SOL    HW218228   5.302   0.815   5.244
 5777SOL     OW18229   6.526   1.068   5.547
 5777SOL    HW118230   6.541   0.969   5.542
 5777SOL    HW218231   6.613   1.116   5.534
 5778SOL     OW18232   2.542   6.767   3.988
 5778SOL    HW118233   2.453   6.795   4.024
 5778SOL    HW218234   2.599   6.848   3.971
 5779SOL     OW18235   4.509   1.328   2.369
 5779SOL    HW118236   4.568   1.370   2.300
 5779SOL    HW218237   4.528   1.367   2.458
 5780SOL     OW18238   5.879   3.659   1.310
 5780SOL    HW118239   5.943   3.722   1.354
 5780SOL    HW218240   5.785   3.686   1.332
 5781SOL     OW18241   2.056   5.443   4.694
 5781SOL    HW118242   1.972   5.460   4.746
 5781SOL    HW218243   2.124   5.513   4.717
 5782SOL     OW18244   2.964   1.768   2.821
 5782SOL    HW118245   2.966   1.706   2.743
 5782SOL    HW218246   2.869   1.783   2.850
 5783SOL     OW18247   1.692   0.214   0.936
 5783SOL    HW118248   1.626   0.268   0.884
 5783SOL    HW218249   1.650   0.183   1.021
 5784SOL     OW18250   1.700   5.697   7.010
 5784SOL    HW118251   1.671   5.605   6.987
 5784SOL    HW218252   1.770   5.727   6.945
 5785SOL     OW18253   1.937   2.207   6.939
 5785SOL    HW118254   1.998   2.190   7.017
 5785SOL    HW218255   1.986   2.188   6.854
 5786SOL     OW18256   1.303   3.317   1.264
 5786SOL    HW118257   1.310   3.393   1.199
 5786SOL    HW218258   1.227   3.334   1.327
 5787SOL     OW18259   0.304   3.330   5.650
 5787SOL    HW118260   0.220   3.384   5.656
 5787SOL    HW218261   0.383   3.390   5.666
 5788SOL     OW18262   2.093   1.999   2.200
 5788SOL    HW118263   2.122   1.932   2.131
 5788SOL    HW218264   2.047   2.076   2.154
 5789SOL     OW18265   3.177   4.958   6.712
 5789SOL    HW118266   3.159   5.036   6.771
 5789SOL    HW218267   3.157   4.981   6.617
 5790SOL     OW18268   6.069   6.417   3.922
 5790SOL    HW118269   6.027   6.332   3.954
 5790SOL    HW218270   6.011   6.459   3.852
 5791SOL     OW18271   3.887   1.210   1.959
 5791SOL    HW118272   3.952   1.136   1.975
 5791SOL    HW218273   3.914   1.261   1.877
 5792SOL     OW18274   5.198   3.318   3.233
 5792SOL    HW118275   5.159   3.397   3.280
 5792SOL    HW218276   5.123   3.262   3.196
 5793SOL     OW18277   4.368   2.611   6.030
 5793SOL    HW118278   4.298   2.656   5.975
 5793SOL    HW218279   4.329   2.531   6.075
 5794SOL     OW18280   4.184   6.731   0.364
 5794SOL    HW118281   4.102   6.756   0.416
 5794SOL    HW218282   4.209   6.637   0.384
 5795SOL     OW18283   2.353   5.771   1.721
 5795SOL    HW118284   2.340   5.814   1.632
 5795SOL    HW218285   2.415   5.826   1.776
 5796SOL     OW18286   4.768   1.803   6.839
 5796SOL    HW118287   4.674   1.834   6.847
 5796SOL    HW218288   4.827   1.880   6.814
 5797SOL     OW18289   5.516   2.119   1.246
 5797SOL    HW118290   5.474   2.032   1.221
 5797SOL    HW218291   5.607   2.125   1.207
 5798SOL     OW18292   1.902   3.701   5.030
 5798SOL    HW118293   1.889   3.789   4.985
 5798SOL    HW218294   1.857   3.629   4.977
 5799SOL     OW18295   2.484   6.634   3.599
 5799SOL    HW118296   2.482   6.590   3.509
 5799SOL    HW218297   2.561   6.698   3.603
 5800SOL     OW18298   1.110   0.074   1.229
 5800SOL    HW118299   1.041   0.070   1.301
 5800SOL    HW218300   1.153   0.164   1.230
 5801SOL     OW18301   1.947   1.490   1.989
 5801SOL    HW118302   1.933   1.507   2.086
 5801SOL    HW218303   1.861   1.461   1.947
 5802SOL     OW18304   6.982   0.777   1.735
 5802SOL    HW118305   6.973   0.771   1.636
 5802SOL    HW218306   6.931   0.702   1.778
 5803SOL     OW18307   0.478   5.382   3.863
 5803SOL    HW118308   0.565   5.345   3.830
 5803SOL    HW218309   0.488   5.410   3.959
 5804SOL     OW18310   6.187   1.777   3.181
 5804SOL    HW118311   6.259   1.727   3.131
 5804SOL    HW218312   6.168   1.863   3.134
 5805SOL     OW18313   1.273   2.543   1.834
 5805SOL    HW118314   1.242   2.564   1.741
 5805SOL    HW218315   1.219   2.467   1.870
 5806SOL     OW18316   6.338   4.411   2.296
 5806SOL    HW118317   6.298   4.474   2.229
 5806SOL    HW218318   6.269   4.390   2.366
 5807SOL     OW18319   1.388   0.537   1.315
 5807SOL    HW118320   1.464   0.589   1.278
 5807SOL    HW218321   1.308   0.596   1.327
 5808SOL     OW18322   6.569   0.121   5.813
 5808SOL    HW118323   6.524   0.111   5.902
 5808SOL    HW218324   6.613   0.034   5.788
 5809SOL     OW18325   0.826   1.952   5.537
 5809SOL    HW118326   0.867   2.005   5.611
 5809SOL    HW218327   0.745   2.001   5.503
 5810SOL     OW18328   2.873   6.683   5.411
 5810SOL    HW118329   2.907   6.709   5.320
 5810SOL    HW218330   2.840   6.764   5.458
 5811SOL     OW18331   3.440   4.117   6.890
 5811SOL    HW118332   3.528   4.161   6.872
 5811SOL    HW218333   3.456   4.027   6.931
 5812SOL     OW18334   6.096   2.258   6.819
 5812SOL    HW118335   6.008   2.217   6.795
 5812SOL    HW218336   6.117   2.332   6.755
 5813SOL     OW18337   4.964   6.079   0.504
 5813SOL    HW118338   4.939   6.042   0.416
 5813SOL    HW218339   5.041   6.027   0.542
 5814SOL     OW18340   5.351   1.512   1.478
 5814SOL    HW118341   5.405   1.430   1.498
 5814SOL    HW218342   5.273   1.516   1.541
 5815SOL     OW18343   6.794   2.063   3.962
 5815SOL    HW118344   6.792   2.067   4.062
 5815SOL    HW218345   6.771   1.971   3.931
 5816SOL     OW18346   7.006   3.333   2.457
 5816SOL    HW118347   6.960   3.293   2.537
 5816SOL    HW218348   6.954   3.311   2.375
 5817SOL     OW18349   6.096   3.473   3.102
 5817SOL    HW118350   6.052   3.531   3.171
 5817SOL    HW218351   6.173   3.522   3.062
 5818SOL     OW18352   2.615   0.036   4.694
 5818SOL    HW118353   2.698   0.057   4.746
 5818SOL    HW218354   2.639   7.010   4.609
 5819SOL     OW18355   4.472   5.356   0.541
 5819SOL    HW118356   4.394   5.334   0.482
 5819SOL    HW218357   4.513   5.272   0.575
 5820SOL     OW18358   5.569   5.973   2.238
 5820SOL    HW118359   5.518   6.002   2.157
 5820SOL    HW218360   5.665   5.962   2.214
 5821SOL     OW18361   0.130   6.868   0.928
 5821SOL    HW118362   0.176   6.938   0.874
 5821SOL    HW218363   0.134   6.780   0.881
 5822SOL     OW18364   1.723   3.213   2.730
 5822SOL    HW118365   1.774   3.130   2.706
 5822SOL    HW218366   1.633   3.210   2.687
 5823SOL     OW18367   1.839   4.913   3.172
 5823SOL    HW118368   1.795   4.897   3.261
 5823SOL    HW218369   1.925   4.861   3.167
 5824SOL     OW18370   1.074   1.109   2.492
 5824SOL    HW118371   1.082   1.140   2.397
 5824SOL    HW218372   1.060   1.189   2.551
 5825SOL     OW18373   5.577   1.190   4.646
 5825SOL    HW118374   5.548   1.095   4.634
 5825SOL    HW218375   5.640   1.196   4.724
 5826SOL     OW18376   0.685   6.781   5.076
 5826SOL    HW118377   0.759   6.713   5.068
 5826SOL    HW218378   0.724   6.873   5.076
 5827SOL     OW18379   2.058   3.867   3.439
 5827SOL    HW118380   2.098   3.820   3.518
 5827SOL    HW218381   2.094   3.828   3.355
 5828SOL     OW18382   3.646   0.300   4.910
 5828SOL    HW118383   3.706   0.262   4.839
 5828SOL    HW218384   3.684   0.387   4.942
 5829SOL     OW18385   2.328   0.800   3.970
 5829SOL    HW118386   2.426   0.807   3.947
 5829SOL    HW218387   2.291   0.891   3.988
 5830SOL     OW18388   4.006   4.863   4.394
 5830SOL    HW118389   3.935   4.878   4.462
 5830SOL    HW218390   3.967   4.871   4.302
 5831SOL     OW18391   1.620   2.485   5.549
 5831SOL    HW118392   1.680   2.425   5.496
 5831SOL    HW218393   1.525   2.472   5.520
 5832SOL     OW18394   2.854   5.048   1.644
 5832SOL    HW118395   2.819   5.030   1.736
 5832SOL    HW218396   2.779   5.040   1.578
 5833SOL     OW18397   3.405   4.609   6.920
 5833SOL    HW118398   3.473   4.538   6.899
 5833SOL    HW218399   3.353   4.582   7.001
 5834SOL     OW18400   5.757   3.054   6.563
 5834SOL    HW118401   5.677   3.082   6.511
 5834SOL    HW218402   5.732   2.978   6.624
 5835SOL     OW18403   5.036   2.246   3.128
 5835SOL    HW118404   4.964   2.315   3.117
 5835SOL    HW218405   5.053   2.202   3.039
 5836SOL     OW18406   4.765   6.138   3.145
 5836SOL    HW118407   4.749   6.194   3.064
 5836SOL    HW218408   4.742   6.191   3.227
 5837SOL     OW18409   2.812   5.365   7.004
 5837SOL    HW118410   2.786   5.285   6.950
 5837SOL    HW218411   2.872   5.424   6.950
 5838SOL     OW18412   4.059   2.483   0.870
 5838SOL    HW118413   4.002   2.443   0.798
 5838SOL    HW218414   4.003   2.503   0.949
 5839SOL     OW18415   2.053   2.740   0.868
 5839SOL    HW118416   2.100   2.805   0.928
 5839SOL    HW218417   2.091   2.747   0.775
 5840SOL     OW18418   0.288   3.227   2.805
 5840SOL    HW118419   0.246   3.296   2.863
 5840SOL    HW218420   0.336   3.271   2.729
 5841SOL     OW18421   5.046   1.495   0.378
 5841SOL    HW118422   5.054   1.473   0.475
 5841SOL    HW218423   5.041   1.594   0.366
 5842SOL     OW18424   2.106   2.767   1.442
 5842SOL    HW118425   2.053   2.765   1.357
 5842SOL    HW218426   2.092   2.681   1.492
 5843SOL     OW18427   2.550   3.971   0.771
 5843SOL    HW118428   2.555   4.062   0.812
 5843SOL    HW218429   2.471   3.923   0.808
 5844SOL     OW18430   0.500   6.526   5.213
 5844SOL    HW118431   0.498   6.538   5.114
 5844SOL    HW218432   0.503   6.616   5.257
 5845SOL     OW18433   0.981   6.948   2.306
 5845SOL    HW118434   1.006   6.899   2.389
 5845SOL    HW218435   1.016   0.022   2.310
 5846SOL     OW18436   6.668   3.944   5.562
 5846SOL    HW118437   6.645   3.889   5.482
 5846SOL    HW218438   6.683   3.884   5.640
 5847SOL     OW18439   2.443   4.135   6.617
 5847SOL    HW118440   2.522   4.076   6.636
 5847SOL    HW218441   2.375   4.083   6.565
 5848SOL     OW18442   2.131   5.510   2.438
 5848SOL    HW118443   2.128   5.429   2.497
 5848SOL    HW218444   2.129   5.481   2.342
 5849SOL     OW18445   3.668   5.874   5.515
 5849SOL    HW118446   3.610   5.838   5.442
 5849SOL    HW218447   3.673   5.808   5.590
 5850SOL     OW18448   0.717   1.565   2.682
 5850SOL    HW118449   0.654   1.494   2.653
 5850SOL    HW218450   0.724   1.566   2.781
 5851SOL     OW18451   6.641   3.576   4.119
 5851SOL    HW118452   6.559   3.595   4.173
 5851SOL    HW218453   6.714   3.544   4.179
 5852SOL     OW18454   4.816   3.965   2.455
 5852SOL    HW118455   4.816   3.867   2.478
 5852SOL    HW218456   4.818   3.976   2.356
 5853SOL     OW18457   4.271   5.092   6.110
 5853SOL    HW118458   4.363   5.114   6.142
 5853SOL    HW218459   4.247   5.000   6.139
 5854SOL     OW18460   2.772   4.738   5.318
 5854SOL    HW118461   2.785   4.692   5.230
 5854SOL    HW218462   2.859   4.742   5.367
 5855SOL     OW18463   2.186   2.976   3.095
 5855SOL    HW118464   2.138   2.999   3.011
 5855SOL    HW218465   2.244   3.052   3.123
 5856SOL     OW18466   0.836   6.901   3.230
 5856SOL    HW118467   0.796   6.991   3.248
 5856SOL    HW218468   0.770   6.844   3.179
 5857SOL     OW18469   5.767   4.500   6.757
 5857SOL    HW118470   5.710   4.493   6.675
 5857SOL    HW218471   5.863   4.499   6.732
 5858SOL     OW18472   1.443   1.310   3.043
 5858SOL    HW118473   1.395   1.256   3.112
 5858SOL    HW218474   1.510   1.252   2.996
 5859SOL     OW18475   6.015   6.424   1.285
 5859SOL    HW118476   6.110   6.394   1.283
 5859SOL    HW218477   5.970   6.398   1.199
 5860SOL     OW18478   0.453   4.366   3.315
 5860SOL    HW118479   0.498   4.290   3.363
 5860SOL    HW218480   0.435   4.339   3.220
 5861SOL     OW18481   5.179   1.194   5.361
 5861SOL    HW118482   5.100   1.172   5.305
 5861SOL    HW218483   5.256   1.221   5.303
 5862SOL     OW18484   6.585   5.547   2.547
 5862SOL    HW118485   6.543   5.565   2.636
 5862SOL    HW218486   6.537   5.599   2.477
 5863SOL     OW18487   3.667   6.391   6.665
 5863SOL    HW118488   3.754   6.345   6.683
 5863SOL    HW218489   3.673   6.487   6.694
 5864SOL     OW18490   3.837   4.031   2.343
 5864SOL    HW118491   3.921   4.001   2.388
 5864SOL    HW218492   3.839   4.003   2.247
 5865SOL     OW18493   6.615   0.609   6.124
 5865SOL    HW118494   6.692   0.581   6.181
 5865SOL    HW218495   6.632   0.582   6.029
 5866SOL     OW18496   3.742   3.235   2.794
 5866SOL    HW118497   3.726   3.143   2.756
 5866SOL    HW218498   3.729   3.232   2.893
 5867SOL     OW18499   3.273   1.478   1.645
 5867SOL    HW118500   3.265   1.396   1.588
 5867SOL    HW218501   3.334   1.459   1.722
 5868SOL     OW18502   0.862   1.145   5.855
 5868SOL    HW118503   0.882   1.072   5.790
 5868SOL    HW218504   0.934   1.214   5.853
 5869SOL     OW18505   0.703   6.021   3.283
 5869SOL    HW118506   0.663   6.100   3.328
 5869SOL    HW218507   0.750   5.963   3.350
 5870SOL     OW18508   3.561   5.503   4.666
 5870SOL    HW118509   3.467   5.505   4.699
 5870SOL    HW218510   3.592   5.597   4.648
 5871SOL     OW18511   3.076   3.874   3.556
 5871SOL    HW118512   3.011   3.837   3.490
 5871SOL    HW218513   3.050   3.846   3.649
 5872SOL     OW18514   4.879   5.565   1.589
 5872SOL    HW118515   4.948   5.494   1.597
 5872SOL    HW218516   4.790   5.524   1.570
 5873SOL     OW18517   4.274   5.799   2.332
 5873SOL    HW118518   4.294   5.708   2.366
 5873SOL    HW218519   4.182   5.826   2.361
 5874SOL     OW18520   1.685   3.783   5.470
 5874SOL    HW118521   1.726   3.765   5.381
 5874SOL    HW218522   1.747   3.751   5.542
 5875SOL     OW18523   3.089   1.558   0.881
 5875SOL    HW118524   3.069   1.642   0.831
 5875SOL    HW218525   3.081   1.480   0.820
 5876SOL     OW18526   3.570   3.474   1.970
 5876SOL    HW118527   3.667   3.490   1.989
 5876SOL    HW218528   3.544   3.518   1.884
 5877SOL     OW18529   5.536   4.318   1.253
 5877SOL    HW118530   5.611   4.296   1.191
 5877SOL    HW218531   5.457   4.261   1.231
 5878SOL     OW18532   1.942   4.778   2.819
 5878SOL    HW118533   1.997   4.861   2.810
 5878SOL    HW218534   1.896   4.760   2.732
 5879SOL     OW18535   0.273   4.417   4.890
 5879SOL    HW118536   0.218   4.480   4.945
 5879SOL    HW218537   0.305   4.464   4.808
 5880SOL     OW18538   3.109   5.666   0.997
 5880SOL    HW118539   3.077   5.580   1.036
 5880SOL    HW218540   3.204   5.656   0.969
 5881SOL     OW18541   1.458   6.115   4.489
 5881SOL    HW118542   1.432   6.043   4.554
 5881SOL    HW218543   1.533   6.082   4.431
 5882SOL     OW18544   4.669   0.864   2.032
 5882SOL    HW118545   4.602   0.881   1.959
 5882SOL    HW218546   4.694   0.951   2.075
 5883SOL     OW18547   0.190   3.630   5.382
 5883SOL    HW118548   0.245   3.590   5.456
 5883SOL    HW218549   0.193   3.730   5.390
 5884SOL     OW18550   1.199   1.582   2.942
 5884SOL    HW118551   1.288   1.563   2.901
 5884SOL    HW218552   1.191   1.680   2.962
 5885SOL     OW18553   5.789   6.564   1.373
 5885SOL    HW118554   5.870   6.515   1.342
 5885SOL    HW218555   5.707   6.513   1.347
 5886SOL     OW18556   1.254   1.173   5.914
 5886SOL    HW118557   1.350   1.197   5.896
 5886SOL    HW218558   1.195   1.248   5.883
 5887SOL     OW18559   4.367   6.794   3.784
 5887SOL    HW118560   4.445   6.777   3.725
 5887SOL    HW218561   4.395   6.852   3.861
 5888SOL     OW18562   2.199   0.205   3.346
 5888SOL    HW118563   2.130   0.145   3.306
 5888SOL    HW218564   2.177   0.300   3.323
 5889SOL     OW18565   2.506   0.559   0.577
 5889SOL    HW118566   2.438   0.609   0.523
 5889SOL    HW218567   2.596   0.602   0.566
 5890SOL     OW18568   3.277   4.707   5.817
 5890SOL    HW118569   3.209   4.778   5.836
 5890SOL    HW218570   3.233   4.627   5.778
 5891SOL     OW18571   2.728   3.933   0.228
 5891SOL    HW118572   2.727   3.842   0.269
 5891SOL    HW218573   2.639   3.950   0.184
 5892SOL     OW18574   0.907   7.017   1.449
 5892SOL    HW118575   0.857   6.939   1.412
 5892SOL    HW218576   0.850   0.047   1.514
 5893SOL     OW18577   1.718   0.679   3.826
 5893SOL    HW118578   1.669   0.690   3.740
 5893SOL    HW218579   1.763   0.590   3.828
 5894SOL     OW18580   1.095   2.722   3.315
 5894SOL    HW118581   1.031   2.651   3.342
 5894SOL    HW218582   1.154   2.745   3.392
 5895SOL     OW18583   4.881   3.528   3.715
 5895SOL    HW118584   4.823   3.584   3.655
 5895SOL    HW218585   4.972   3.519   3.674
 5896SOL     OW18586   3.314   2.089   5.953
 5896SOL    HW118587   3.387   2.101   6.021
 5896SOL    HW218588   3.320   2.162   5.885
 5897SOL     OW18589   4.311   0.291   1.349
 5897SOL    HW118590   4.213   0.310   1.358
 5897SOL    HW218591   4.327   0.241   1.264
 5898SOL     OW18592   1.921   0.244   2.624
 5898SOL    HW118593   1.875   0.316   2.573
 5898SOL    HW218594   1.976   0.285   2.697
 5899SOL     OW18595   5.173   0.007   3.760
 5899SOL    HW118596   5.087   0.059   3.757
 5899SOL    HW218597   5.250   0.069   3.751
 5900SOL     OW18598   4.562   5.459   2.996
 5900SOL    HW118599   4.586   5.362   2.996
 5900SOL    HW218600   4.462   5.468   2.995
 5901SOL     OW18601   3.522   6.580   5.071
 5901SOL    HW118602   3.505   6.679   5.069
 5901SOL    HW218603   3.528   6.546   4.977
 5902SOL     OW18604   6.544   1.458   6.621
 5902SOL    HW118605   6.475   1.395   6.584
 5902SOL    HW218606   6.633   1.414   6.621
 5903SOL     OW18607   6.096   2.943   5.986
 5903SOL    HW118608   6.153   3.026   5.986
 5903SOL    HW218609   6.059   2.928   5.894
 5904SOL     OW18610   0.429   4.005   2.632
 5904SOL    HW118611   0.434   3.987   2.730
 5904SOL    HW218612   0.362   4.078   2.615
 5905SOL     OW18613   0.277   5.149   2.755
 5905SOL    HW118614   0.333   5.089   2.813
 5905SOL    HW218615   0.227   5.214   2.813
 5906SOL     OW18616   6.284   1.602   4.063
 5906SOL    HW118617   6.268   1.529   3.997
 5906SOL    HW218618   6.378   1.634   4.056
 5907SOL     OW18619   1.562   6.778   1.914
 5907SOL    HW118620   1.593   6.784   1.819
 5907SOL    HW218621   1.641   6.784   1.975
 5908SOL     OW18622   0.656   3.210   5.857
 5908SOL    HW118623   0.738   3.165   5.892
 5908SOL    HW218624   0.576   3.155   5.877
 5909SOL     OW18625   6.864   4.702   1.001
 5909SOL    HW118626   6.845   4.623   1.061
 5909SOL    HW218627   6.875   4.670   0.907
 5910SOL     OW18628   2.144   1.400   3.713
 5910SOL    HW118629   2.173   1.495   3.707
 5910SOL    HW218630   2.224   1.340   3.714
 5911SOL     OW18631   6.581   5.620   6.373
 5911SOL    HW118632   6.595   5.553   6.446
 5911SOL    HW218633   6.605   5.711   6.406
 5912SOL     OW18634   0.201   1.121   3.809
 5912SOL    HW118635   0.301   1.110   3.805
 5912SOL    HW218636   0.165   1.069   3.886
 5913SOL     OW18637   5.832   1.355   6.994
 5913SOL    HW118638   5.741   1.396   7.001
 5913SOL    HW218639   5.896   1.421   6.955
 5914SOL     OW18640   0.984   5.996   0.162
 5914SOL    HW118641   0.918   5.965   0.094
 5914SOL    HW218642   1.021   6.085   0.135
 5915SOL     OW18643   3.749   1.775   5.954
 5915SOL    HW118644   3.701   1.717   6.019
 5915SOL    HW218645   3.764   1.724   5.869
 5916SOL     OW18646   0.951   6.282   3.129
 5916SOL    HW118647   0.958   6.208   3.062
 5916SOL    HW218648   0.901   6.250   3.209
 5917SOL     OW18649   4.011   4.504   0.228
 5917SOL    HW118650   3.983   4.432   0.292
 5917SOL    HW218651   4.104   4.484   0.195
 5918SOL     OW18652   3.143   6.200   5.464
 5918SOL    HW118653   3.195   6.245   5.536
 5918SOL    HW218654   3.094   6.268   5.410
 5919SOL     OW18655   3.705   2.970   3.964
 5919SOL    HW118656   3.719   2.984   3.866
 5919SOL    HW218657   3.610   2.987   3.988
 5920SOL     OW18658   6.445   0.037   5.326
 5920SOL    HW118659   6.394   0.009   5.408
 5920SOL    HW218660   6.504   0.115   5.349
 5921SOL     OW18661   2.675   4.752   6.303
 5921SOL    HW118662   2.596   4.706   6.345
 5921SOL    HW218663   2.746   4.684   6.284
 5922SOL     OW18664   4.736   4.149   3.202
 5922SOL    HW118665   4.758   4.051   3.196
 5922SOL    HW218666   4.764   4.194   3.117
 5923SOL     OW18667   6.984   0.230   2.391
 5923SOL    HW118668   6.914   0.274   2.334
 5923SOL    HW218669   6.942   0.196   2.475
 5924SOL     OW18670   5.825   0.313   3.340
 5924SOL    HW118671   5.797   0.271   3.427
 5924SOL    HW218672   5.779   0.266   3.265
 5925SOL     OW18673   4.483   6.383   1.657
 5925SOL    HW118674   4.494   6.361   1.754
 5925SOL    HW218675   4.547   6.455   1.631
 5926SOL     OW18676   4.883   5.141   3.663
 5926SOL    HW118677   4.813   5.088   3.614
 5926SOL    HW218678   4.839   5.210   3.720
 5927SOL     OW18679   1.144   4.695   1.794
 5927SOL    HW118680   1.153   4.781   1.744
 5927SOL    HW218681   1.054   4.655   1.777
 5928SOL     OW18682   3.513   0.373   0.521
 5928SOL    HW118683   3.585   0.357   0.588
 5928SOL    HW218684   3.550   0.360   0.429
 5929SOL     OW18685   1.820   0.925   6.704
 5929SOL    HW118686   1.880   1.000   6.732
 5929SOL    HW218687   1.762   0.955   6.629
 5930SOL     OW18688   1.223   3.201   2.309
 5930SOL    HW118689   1.247   3.122   2.366
 5930SOL    HW218690   1.126   3.198   2.287
 5931SOL     OW18691   4.785   6.140   3.481
 5931SOL    HW118692   4.877   6.119   3.516
 5931SOL    HW218693   4.735   6.055   3.468
 5932SOL     OW18694   2.890   1.462   6.901
 5932SOL    HW118695   2.837   1.500   6.977
 5932SOL    HW218696   2.975   1.514   6.890
 5933SOL     OW18697   6.070   6.174   4.095
 5933SOL    HW118698   6.086   6.078   4.117
 5933SOL    HW218699   6.157   6.218   4.076
 5934SOL     OW18700   3.342   3.619   5.851
 5934SOL    HW118701   3.261   3.563   5.873
 5934SOL    HW218702   3.313   3.702   5.805
 5935SOL     OW18703   6.944   5.690   5.816
 5935SOL    HW118704   7.003   5.747   5.873
 5935SOL    HW218705   6.934   5.600   5.860
 5936SOL     OW18706   3.860   3.281   1.448
 5936SOL    HW118707   3.823   3.273   1.541
 5936SOL    HW218708   3.830   3.203   1.393
 5937SOL     OW18709   6.711   3.491   1.614
 5937SOL    HW118710   6.619   3.525   1.636
 5937SOL    HW218711   6.776   3.566   1.617
 5938SOL     OW18712   0.207   5.002   4.982
 5938SOL    HW118713   0.202   4.963   4.890
 5938SOL    HW218714   0.117   5.035   5.010
 5939SOL     OW18715   3.770   0.724   5.163
 5939SOL    HW118716   3.777   0.645   5.223
 5939SOL    HW218717   3.785   0.808   5.216
 5940SOL     OW18718   5.068   6.123   2.702
 5940SOL    HW118719   4.977   6.100   2.669
 5940SOL    HW218720   5.128   6.044   2.691
 5941SOL     OW18721   6.380   1.932   2.002
 5941SOL    HW118722   6.326   1.848   2.009
 5941SOL    HW218723   6.361   1.991   2.080
 5942SOL     OW18724   5.062   3.265   5.991
 5942SOL    HW118725   4.980   3.211   6.006
 5942SOL    HW218726   5.124   3.254   6.069
 5943SOL     OW18727   3.190   4.246   1.697
 5943SOL    HW118728   3.252   4.235   1.619
 5943SOL    HW218729   3.137   4.329   1.686
 5944SOL     OW18730   0.603   3.483   6.809
 5944SOL    HW118731   0.612   3.532   6.721
 5944SOL    HW218732   0.579   3.549   6.880
 5945SOL     OW18733   6.737   5.843   5.699
 5945SOL    HW118734   6.826   5.815   5.734
 5945SOL    HW218735   6.738   5.941   5.676
 5946SOL     OW18736   3.211   4.250   1.153
 5946SOL    HW118737   3.298   4.201   1.144
 5946SOL    HW218738   3.152   4.202   1.218
 5947SOL     OW18739   3.087   3.125   4.653
 5947SOL    HW118740   3.019   3.119   4.726
 5947SOL    HW218741   3.172   3.162   4.690
 5948SOL     OW18742   5.220   4.020   2.087
 5948SOL    HW118743   5.302   4.077   2.084
 5948SOL    HW218744   5.189   4.000   1.994
 5949SOL     OW18745   6.350   4.452   1.683
 5949SOL    HW118746   6.344   4.353   1.698
 5949SOL    HW218747   6.332   4.472   1.587
 5950SOL     OW18748   4.982   1.130   5.200
 5950SOL    HW118749   4.997   1.052   5.139
 5950SOL    HW218750   4.935   1.203   5.150
 5951SOL     OW18751   1.142   3.866   6.543
 5951SOL    HW118752   1.112   3.916   6.624
 5951SOL    HW218753   1.237   3.836   6.556
 5952SOL     OW18754   3.824   4.869   1.207
 5952SOL    HW118755   3.770   4.785   1.198
 5952SOL    HW218756   3.913   4.856   1.165
 5953SOL     OW18757   6.299   2.548   4.719
 5953SOL    HW118758   6.257   2.632   4.755
 5953SOL    HW218759   6.360   2.509   4.787
 5954SOL     OW18760   1.795   6.151   4.164
 5954SOL    HW118761   1.840   6.204   4.092
 5954SOL    HW218762   1.851   6.153   4.247
 5955SOL     OW18763   6.384   3.786   0.789
 5955SOL    HW118764   6.400   3.764   0.885
 5955SOL    HW218765   6.406   3.707   0.732
 5956SOL     OW18766   5.329   2.918   4.646
 5956SOL    HW118767   5.376   2.930   4.559
 5956SOL    HW218768   5.396   2.915   4.721
 5957SOL     OW18769   0.728   1.237   2.625
 5957SOL    HW118770   0.663   1.255   2.551
 5957SOL    HW218771   0.820   1.234   2.587
 5958SOL     OW18772   3.861   6.878   2.447
 5958SOL    HW118773   3.917   6.961   2.451
 5958SOL    HW218774   3.828   6.865   2.354
 5959SOL     OW18775   5.663   2.771   4.481
 5959SOL    HW118776   5.641   2.843   4.415
 5959SOL    HW218777   5.625   2.684   4.449
 5960SOL     OW18778   4.369   0.276   6.195
 5960SOL    HW118779   4.337   0.307   6.105
 5960SOL    HW218780   4.396   0.355   6.250
 5961SOL     OW18781   2.508   1.600   3.333
 5961SOL    HW118782   2.550   1.673   3.386
 5961SOL    HW218783   2.410   1.619   3.321
 5962SOL     OW18784   4.809   6.638   0.223
 5962SOL    HW118785   4.801   6.706   0.296
 5962SOL    HW218786   4.780   6.548   0.258
 5963SOL     OW18787   3.558   4.142   0.197
 5963SOL    HW118788   3.555   4.051   0.156
 5963SOL    HW218789   3.535   4.135   0.294
 5964SOL     OW18790   2.281   6.516   3.115
 5964SOL    HW118791   2.252   6.597   3.063
 5964SOL    HW218792   2.285   6.437   3.054
 5965SOL     OW18793   1.710   0.624   0.445
 5965SOL    HW118794   1.677   0.667   0.529
 5965SOL    HW218795   1.678   0.677   0.366
 5966SOL     OW18796   2.561   0.833   5.367
 5966SOL    HW118797   2.524   0.754   5.319
 5966SOL    HW218798   2.642   0.866   5.318
 5967SOL     OW18799   3.126   1.859   3.803
 5967SOL    HW118800   3.219   1.851   3.838
 5967SOL    HW218801   3.063   1.873   3.879
 5968SOL     OW18802   5.268   2.139   1.531
 5968SOL    HW118803   5.271   2.046   1.493
 5968SOL    HW218804   5.188   2.147   1.591
 5969SOL     OW18805   5.075   0.644   6.855
 5969SOL    HW118806   5.092   0.557   6.902
 5969SOL    HW218807   5.061   0.716   6.922
 5970SOL     OW18808   0.337   3.530   0.688
 5970SOL    HW118809   0.331   3.430   0.688
 5970SOL    HW218810   0.275   3.567   0.757
 5971SOL     OW18811   0.710   6.671   3.932
 5971SOL    HW118812   0.645   6.676   3.857
 5971SOL    HW218813   0.758   6.583   3.929
 5972SOL     OW18814   4.859   4.877   1.231
 5972SOL    HW118815   4.781   4.934   1.203
 5972SOL    HW218816   4.855   4.863   1.330
 5973SOL     OW18817   1.855   2.307   2.553
 5973SOL    HW118818   1.925   2.334   2.487
 5973SOL    HW218819   1.796   2.386   2.572
 5974SOL     OW18820   4.882   1.937   5.844
 5974SOL    HW118821   4.822   2.017   5.833
 5974SOL    HW218822   4.838   1.857   5.805
 5975SOL     OW18823   4.703   4.843   0.646
 5975SOL    HW118824   4.664   4.858   0.737
 5975SOL    HW218825   4.704   4.745   0.626
 5976SOL     OW18826   2.452   3.542   5.750
 5976SOL    HW118827   2.449   3.462   5.690
 5976SOL    HW218828   2.449   3.512   5.845
 5977SOL     OW18829   0.067   4.840   0.219
 5977SOL    HW118830   0.133   4.773   0.255
 5977SOL    HW218831   6.995   4.798   0.215
 5978SOL     OW18832   3.076   5.392   0.492
 5978SOL    HW118833   3.035   5.301   0.486
 5978SOL    HW218834   3.131   5.410   0.411
 5979SOL     OW18835   5.912   0.277   1.321
 5979SOL    HW118836   5.998   0.285   1.372
 5979SOL    HW218837   5.863   0.364   1.324
 5980SOL     OW18838   3.193   3.354   1.720
 5980SOL    HW118839   3.228   3.300   1.796
 5980SOL    HW218840   3.127   3.301   1.668
 5981SOL     OW18841   2.631   2.927   0.299
 5981SOL    HW118842   2.709   2.932   0.362
 5981SOL    HW218843   2.563   2.995   0.326
 5982SOL     OW18844   6.469   2.575   1.621
 5982SOL    HW118845   6.429   2.597   1.710
 5982SOL    HW218846   6.427   2.491   1.586
 5983SOL     OW18847   0.122   0.870   3.671
 5983SOL    HW118848   0.028   0.896   3.651
 5983SOL    HW218849   0.153   0.916   3.755
 5984SOL     OW18850   6.236   6.455   3.138
 5984SOL    HW118851   6.196   6.540   3.172
 5984SOL    HW218852   6.292   6.475   3.057
 5985SOL     OW18853   5.587   2.458   2.822
 5985SOL    HW118854   5.625   2.366   2.829
 5985SOL    HW218855   5.487   2.454   2.836
 5986SOL     OW18856   4.057   3.839   5.112
 5986SOL    HW118857   4.137   3.780   5.120
 5986SOL    HW218858   3.989   3.812   5.180
 5987SOL     OW18859   6.674   6.915   5.691
 5987SOL    HW118860   6.633   6.960   5.612
 5987SOL    HW218861   6.693   6.819   5.670
 5988SOL     OW18862   1.725   2.424   6.234
 5988SOL    HW118863   1.728   2.524   6.236
 5988SOL    HW218864   1.818   2.387   6.230
 5989SOL     OW18865   0.471   5.549   6.470
 5989SOL    HW118866   0.466   5.500   6.383
 5989SOL    HW218867   0.547   5.515   6.524
 5990SOL     OW18868   3.756   5.043   1.905
 5990SOL    HW118869   3.747   4.997   1.993
 5990SOL    HW218870   3.832   5.108   1.910
 5991SOL     OW18871   5.494   6.742   1.260
 5991SOL    HW118872   5.478   6.750   1.161
 5991SOL    HW218873   5.477   6.648   1.289
 5992SOL     OW18874   3.421   0.285   1.615
 5992SOL    HW118875   3.335   0.269   1.567
 5992SOL    HW218876   3.434   0.383   1.630
 5993SOL     OW18877   6.231   1.745   0.508
 5993SOL    HW118878   6.272   1.820   0.560
 5993SOL    HW218879   6.131   1.755   0.510
 5994SOL     OW18880   0.717   3.083   0.500
 5994SOL    HW118881   0.759   2.995   0.480
 5994SOL    HW218882   0.772   3.156   0.458
 5995SOL     OW18883   4.604   3.824   1.583
 5995SOL    HW118884   4.653   3.890   1.526
 5995SOL    HW218885   4.520   3.865   1.617
 5996SOL     OW18886   3.105   5.312   1.438
 5996SOL    HW118887   3.179   5.285   1.499
 5996SOL    HW218888   3.046   5.233   1.420
 5997SOL     OW18889   0.051   0.335   3.588
 5997SOL    HW118890   0.068   0.327   3.490
 5997SOL    HW218891   0.068   0.429   3.618
 5998SOL     OW18892   6.757   6.853   1.677
 5998SOL    HW118893   6.827   6.812   1.735
 5998SOL    HW218894   6.766   6.818   1.584
 5999SOL     OW18895   4.589   3.012   0.922
 5999SOL    HW118896   4.658   3.018   0.850
 5999SOL    HW218897   4.507   2.967   0.887
 6000SOL     OW18898   6.844   4.485   1.165
 6000SOL    HW118899   6.939   4.482   1.196
 6000SOL    HW218900   6.824   4.404   1.110
 6001SOL     OW18901   5.938   5.284   5.565
 6001SOL    HW118902   5.915   5.347   5.492
 6001SOL    HW218903   5.965   5.196   5.526
 6002SOL     OW18904   5.960   5.781   4.388
 6002SOL    HW118905   6.025   5.708   4.366
 6002SOL    HW218906   5.875   5.741   4.421
 6003SOL     OW18907   0.212   3.275   4.856
 6003SOL    HW118908   0.252   3.337   4.789
 6003SOL    HW218909   0.286   3.225   4.902
 6004SOL     OW18910   5.176   2.943   4.079
 6004SOL    HW118911   5.245   2.871   4.089
 6004SOL    HW218912   5.098   2.922   4.138
 6005SOL     OW18913   3.625   5.390   5.995
 6005SOL    HW118914   3.717   5.428   6.009
 6005SOL    HW218915   3.583   5.371   6.083
 6006SOL     OW18916   3.560   6.064   5.904
 6006SOL    HW118917   3.568   6.104   5.813
 6006SOL    HW218918   3.580   5.966   5.899
 6007SOL     OW18919   2.054   5.683   6.251
 6007SOL    HW118920   2.046   5.737   6.334
 6007SOL    HW218921   2.148   5.652   6.239
 6008SOL     OW18922   3.008   4.731   5.469
 6008SOL    HW118923   3.086   4.793   5.460
 6008SOL    HW218924   3.040   4.637   5.464
 6009SOL     OW18925   3.824   5.183   3.118
 6009SOL    HW118926   3.905   5.198   3.174
 6009SOL    HW218927   3.751   5.245   3.147
 6010SOL     OW18928   0.324   5.836   5.047
 6010SOL    HW118929   0.265   5.917   5.038
 6010SOL    HW218930   0.419   5.865   5.054
 6011SOL     OW18931   6.081   2.299   1.780
 6011SOL    HW118932   6.007   2.304   1.713
 6011SOL    HW218933   6.114   2.205   1.787
 6012SOL     OW18934   0.247   0.016   6.408
 6012SOL    HW118935   0.277   0.038   6.501
 6012SOL    HW218936   0.223   6.938   6.403
 6013SOL     OW18937   6.303   1.739   2.380
 6013SOL    HW118938   6.282   1.698   2.291
 6013SOL    HW218939   6.269   1.833   2.381
 6014SOL     OW18940   3.676   3.097   4.402
 6014SOL    HW118941   3.742   3.059   4.338
 6014SOL    HW218942   3.584   3.085   4.365
 6015SOL     OW18943   6.024   1.345   4.547
 6015SOL    HW118944   5.941   1.328   4.494
 6015SOL    HW218945   6.104   1.335   4.488
 6016SOL     OW18946   4.750   1.889   4.358
 6016SOL    HW118947   4.737   1.791   4.375
 6016SOL    HW218948   4.803   1.901   4.274
 6017SOL     OW18949   6.870   2.426   5.478
 6017SOL    HW118950   6.953   2.482   5.486
 6017SOL    HW218951   6.800   2.478   5.430
 6018SOL     OW18952   2.922   1.419   5.493
 6018SOL    HW118953   2.971   1.433   5.407
 6018SOL    HW218954   2.849   1.353   5.480
 6019SOL     OW18955   6.774   3.484   6.762
 6019SOL    HW118956   6.691   3.504   6.813
 6019SOL    HW218957   6.852   3.529   6.806
 6020SOL     OW18958   0.768   4.394   6.755
 6020SOL    HW118959   0.703   4.334   6.707
 6020SOL    HW218960   0.746   4.489   6.734
 6021SOL     OW18961   4.370   0.022   3.233
 6021SOL    HW118962   4.437   6.975   3.269
 6021SOL    HW218963   4.340   0.083   3.306
 6022SOL     OW18964   6.031   1.741   1.652
 6022SOL    HW118965   6.012   1.780   1.743
 6022SOL    HW218966   6.078   1.809   1.596
 6023SOL     OW18967   4.823   0.925   1.647
 6023SOL    HW118968   4.859   0.855   1.709
 6023SOL    HW218969   4.898   0.978   1.608
 6024SOL     OW18970   0.339   5.615   6.910
 6024SOL    HW118971   0.359   5.526   6.949
 6024SOL    HW218972   0.316   5.605   6.813
 6025SOL     OW18973   2.396   0.845   4.452
 6025SOL    HW118974   2.342   0.775   4.406
 6025SOL    HW218975   2.395   0.827   4.551
 6026SOL     OW18976   6.412   4.221   4.326
 6026SOL    HW118977   6.391   4.225   4.228
 6026SOL    HW218978   6.483   4.288   4.348
 6027SOL     OW18979   5.614   4.154   6.493
 6027SOL    HW118980   5.531   4.099   6.496
 6027SOL    HW218981   5.694   4.094   6.505
 6028SOL     OW18982   5.633   5.160   6.235
 6028SOL    HW118983   5.646   5.101   6.156
 6028SOL    HW218984   5.710   5.149   6.298
 6029SOL     OW18985   2.375   0.572   3.038
 6029SOL    HW118986   2.450   0.530   2.988
 6029SOL    HW218987   2.364   0.667   3.010
 6030SOL     OW18988   5.154   3.835   4.990
 6030SOL    HW118989   5.055   3.851   4.998
 6030SOL    HW218990   5.186   3.871   4.903
 6031SOL     OW18991   0.668   6.176   5.586
 6031SOL    HW118992   0.685   6.120   5.505
 6031SOL    HW218993   0.637   6.267   5.558
 6032SOL     OW18994   3.141   5.932   3.759
 6032SOL    HW118995   3.138   5.877   3.843
 6032SOL    HW218996   3.049   5.941   3.722
 6033SOL     OW18997   2.139   1.516   2.436
 6033SOL    HW118998   2.141   1.610   2.469
 6033SOL    HW218999   2.157   1.454   2.512
 6034SOL     OW19000   1.310   1.151   0.101
 6034SOL    HW119001   1.281   1.132   0.194
 6034SOL    HW219002   1.287   1.246   0.077
 6035SOL     OW19003   1.462   0.748   3.058
 6035SOL    HW119004   1.520   0.679   3.102
 6035SOL    HW219005   1.375   0.754   3.106
 6036SOL     OW19006   6.339   1.956   0.726
 6036SOL    HW119007   6.275   1.922   0.794
 6036SOL    HW219008   6.412   2.007   0.772
 6037SOL     OW19009   4.683   2.412   0.312
 6037SOL    HW119010   4.621   2.466   0.369
 6037SOL    HW219011   4.758   2.377   0.368
 6038SOL     OW19012   0.594   2.144   5.937
 6038SOL    HW119013   0.667   2.094   5.891
 6038SOL    HW219014   0.507   2.126   5.891
 6039SOL     OW19015   3.575   3.773   3.488
 6039SOL    HW119016   3.479   3.801   3.484
 6039SOL    HW219017   3.616   3.807   3.574
 6040SOL     OW19018   0.581   1.922   0.140
 6040SOL    HW119019   0.660   1.880   0.184
 6040SOL    HW219020   0.552   1.866   0.063
 6041SOL     OW19021   2.473   2.944   5.585
 6041SOL    HW119022   2.438   2.967   5.494
 6041SOL    HW219023   2.571   2.924   5.579
 6042SOL     OW19024   3.635   5.482   2.973
 6042SOL    HW119025   3.666   5.420   2.900
 6042SOL    HW219026   3.644   5.437   3.061
 6043SOL     OW19027   2.595   0.678   3.786
 6043SOL    HW119028   2.626   0.751   3.848
 6043SOL    HW219029   2.646   0.684   3.700
 6044SOL     OW19030   0.573   2.559   1.378
 6044SOL    HW119031   0.584   2.587   1.282
 6044SOL    HW219032   0.488   2.509   1.388
 6045SOL     OW19033   5.308   1.918   3.393
 6045SOL    HW119034   5.235   1.981   3.369
 6045SOL    HW219035   5.272   1.845   3.450
 6046SOL     OW19036   3.059   3.061   2.459
 6046SOL    HW119037   3.000   3.063   2.378
 6046SOL    HW219038   3.005   3.079   2.541
 6047SOL     OW19039   5.844   1.183   0.667
 6047SOL    HW119040   5.839   1.280   0.646
 6047SOL    HW219041   5.811   1.130   0.589
 6048SOL     OW19042   5.746   5.629   4.445
 6048SOL    HW119043   5.659   5.677   4.449
 6048SOL    HW219044   5.740   5.544   4.498
 6049SOL     OW19045   4.252   4.628   5.384
 6049SOL    HW119046   4.271   4.588   5.474
 6049SOL    HW219047   4.156   4.657   5.380
 6050SOL     OW19048   3.773   5.922   1.331
 6050SOL    HW119049   3.785   5.912   1.232
 6050SOL    HW219050   3.678   5.948   1.351
 6051SOL     OW19051   1.744   1.101   3.378
 6051SOL    HW119052   1.795   1.112   3.463
 6051SOL    HW219053   1.807   1.095   3.301
 6052SOL     OW19054   5.393   6.680   0.655
 6052SOL    HW119055   5.487   6.658   0.677
 6052SOL    HW219056   5.391   6.755   0.588
 6053SOL     OW19057   4.071   2.629   6.198
 6053SOL    HW119058   4.121   2.623   6.112
 6053SOL    HW219059   4.102   2.708   6.250
 6054SOL     OW19060   4.264   4.469   0.570
 6054SOL    HW119061   4.188   4.533   0.558
 6054SOL    HW219062   4.242   4.382   0.526
 6055SOL     OW19063   3.588   4.718   0.317
 6055SOL    HW119064   3.593   4.805   0.267
 6055SOL    HW219065   3.495   4.704   0.350
 6056SOL     OW19066   5.836   4.923   5.158
 6056SOL    HW119067   5.918   4.979   5.145
 6056SOL    HW219068   5.840   4.844   5.097
 6057SOL     OW19069   5.117   0.534   3.545
 6057SOL    HW119070   5.192   0.596   3.520
 6057SOL    HW219071   5.151   0.441   3.552
 6058SOL     OW19072   5.469   2.074   6.067
 6058SOL    HW119073   5.468   1.993   6.126
 6058SOL    HW219074   5.505   2.049   5.977
 6059SOL     OW19075   4.328   4.569   0.088
 6059SOL    HW119076   4.371   4.487   0.126
 6059SOL    HW219077   4.343   4.646   0.150
 6060SOL     OW19078   2.523   3.381   0.026
 6060SOL    HW119079   2.596   3.397   0.093
 6060SOL    HW219080   2.496   3.285   0.027
 6061SOL     OW19081   3.465   5.066   6.967
 6061SOL    HW119082   3.466   5.002   6.891
 6061SOL    HW219083   3.371   5.095   6.986
 6062SOL     OW19084   1.965   2.555   0.504
 6062SOL    HW119085   2.025   2.481   0.475
 6062SOL    HW219086   1.892   2.568   0.437
 6063SOL     OW19087   3.604   4.961   5.722
 6063SOL    HW119088   3.681   4.935   5.664
 6063SOL    HW219089   3.637   5.016   5.799
 6064SOL     OW19090   6.900   5.866   0.892
 6064SOL    HW119091   6.887   5.818   0.979
 6064SOL    HW219092   6.991   5.845   0.856
 6065SOL     OW19093   1.186   5.926   2.148
 6065SOL    HW119094   1.168   5.841   2.197
 6065SOL    HW219095   1.100   5.977   2.137
 6066SOL     OW19096   4.508   6.532   3.021
 6066SOL    HW119097   4.443   6.606   3.005
 6066SOL    HW219098   4.596   6.555   2.979
 6067SOL     OW19099   5.694   0.593   6.198
 6067SOL    HW119100   5.682   0.584   6.297
 6067SOL    HW219101   5.708   0.690   6.176
 6068SOL     OW19102   4.533   1.560   5.743
 6068SOL    HW119103   4.533   1.510   5.830
 6068SOL    HW219104   4.457   1.528   5.686
 6069SOL     OW19105   0.065   3.402   6.533
 6069SOL    HW119106   0.036   3.497   6.526
 6069SOL    HW219107   0.163   3.398   6.552
 6070SOL     OW19108   2.857   1.723   1.325
 6070SOL    HW119109   2.900   1.812   1.341
 6070SOL    HW219110   2.759   1.735   1.312
 6071SOL     OW19111   6.126   0.013   5.375
 6071SOL    HW119112   6.115   0.113   5.370
 6071SOL    HW219113   6.146   6.997   5.284
 6072SOL     OW19114   0.209   2.815   0.633
 6072SOL    HW119115   0.138   2.848   0.571
 6072SOL    HW219116   0.259   2.893   0.672
 6073SOL     OW19117   4.825   2.796   0.699
 6073SOL    HW119118   4.918   2.797   0.662
 6073SOL    HW219119   4.781   2.883   0.679
 6074SOL     OW19120   0.778   6.267   2.611
 6074SOL    HW119121   0.863   6.254   2.661
 6074SOL    HW219122   0.702   6.230   2.665
 6075SOL     OW19123   4.912   6.641   6.375
 6075SOL    HW119124   4.931   6.685   6.463
 6075SOL    HW219125   4.876   6.708   6.310
 6076SOL     OW19126   1.483   4.897   3.843
 6076SOL    HW119127   1.431   4.888   3.928
 6076SOL    HW219128   1.447   4.834   3.775
 6077SOL     OW19129   5.949   6.281   2.071
 6077SOL    HW119130   5.879   6.230   2.021
 6077SOL    HW219131   5.905   6.353   2.125
 6078SOL     OW19132   4.364   3.289   0.029
 6078SOL    HW119133   4.343   3.197   0.061
 6078SOL    HW219134   4.293   3.352   0.058
 6079SOL     OW19135   3.556   4.146   6.284
 6079SOL    HW119136   3.466   4.112   6.256
 6079SOL    HW219137   3.545   4.230   6.336
 6080SOL     OW19138   0.449   4.606   6.641
 6080SOL    HW119139   0.389   4.591   6.561
 6080SOL    HW219140   0.400   4.661   6.709
 6081SOL     OW19141   1.501   3.220   4.479
 6081SOL    HW119142   1.555   3.284   4.533
 6081SOL    HW219143   1.543   3.129   4.483
 6082SOL     OW19144   4.507   1.353   0.247
 6082SOL    HW119145   4.470   1.352   0.154
 6082SOL    HW219146   4.541   1.444   0.269
 6083SOL     OW19147   4.829   6.887   6.232
 6083SOL    HW119148   4.914   6.938   6.219
 6083SOL    HW219149   4.769   6.902   6.154
 6084SOL     OW19150   0.186   6.604   3.095
 6084SOL    HW119151   0.282   6.614   3.123
 6084SOL    HW219152   0.167   6.508   3.078
 6085SOL     OW19153   0.553   6.171   0.758
 6085SOL    HW119154   0.606   6.113   0.695
 6085SOL    HW219155   0.610   6.195   0.836
 6086SOL     OW19156   3.062   3.796   6.205
 6086SOL    HW119157   3.126   3.720   6.211
 6086SOL    HW219158   3.005   3.786   6.124
 6087SOL     OW19159   5.187   6.441   1.107
 6087SOL    HW119160   5.247   6.493   1.046
 6087SOL    HW219161   5.112   6.499   1.138
 6088SOL     OW19162   5.249   6.627   3.358
 6088SOL    HW119163   5.284   6.582   3.440
 6088SOL    HW219164   5.216   6.719   3.381
 6089SOL     OW19165   6.266   3.421   3.350
 6089SOL    HW119166   6.352   3.432   3.399
 6089SOL    HW219167   6.262   3.488   3.275
 6090SOL     OW19168   4.222   6.634   3.947
 6090SOL    HW119169   4.211   6.705   4.018
 6090SOL    HW219170   4.265   6.675   3.866
 6091SOL     OW19171   2.522   1.059   1.541
 6091SOL    HW119172   2.497   0.982   1.483
 6091SOL    HW219173   2.465   1.138   1.517
 6092SOL     OW19174   4.443   6.149   1.533
 6092SOL    HW119175   4.456   6.243   1.564
 6092SOL    HW219176   4.532   6.108   1.514
 6093SOL     OW19177   2.530   1.498   2.455
 6093SOL    HW119178   2.444   1.450   2.439
 6093SOL    HW219179   2.528   1.587   2.409
 6094SOL     OW19180   0.855   6.277   4.810
 6094SOL    HW119181   0.788   6.313   4.745
 6094SOL    HW219182   0.917   6.350   4.837
 6095SOL     OW19183   4.511   5.788   0.495
 6095SOL    HW119184   4.564   5.854   0.549
 6095SOL    HW219185   4.498   5.823   0.403
 6096SOL     OW19186   6.013   6.384   2.523
 6096SOL    HW119187   5.990   6.453   2.592
 6096SOL    HW219188   6.075   6.423   2.456
 6097SOL     OW19189   1.852   6.238   2.756
 6097SOL    HW119190   1.899   6.221   2.669
 6097SOL    HW219191   1.890   6.319   2.800
 6098SOL     OW19192   6.519   1.103   4.832
 6098SOL    HW119193   6.581   1.177   4.859
 6098SOL    HW219194   6.533   1.081   4.736
 6099SOL     OW19195   4.421   0.016   6.280
 6099SOL    HW119196   4.406   0.112   6.258
 6099SOL    HW219197   4.445   6.984   6.197
 6100SOL     OW19198   0.010   5.754   4.279
 6100SOL    HW119199   7.004   5.851   4.282
 6100SOL    HW219200   0.038   5.729   4.187
 6101SOL     OW19201   5.998   2.623   1.199
 6101SOL    HW119202   5.912   2.575   1.219
 6101SOL    HW219203   6.016   2.690   1.272
 6102SOL     OW19204   4.370   0.127   2.508
 6102SOL    HW119205   4.351   0.118   2.410
 6102SOL    HW219206   4.283   0.132   2.558
 6103SOL     OW19207   0.048   1.146   1.564
 6103SOL    HW119208   0.023   1.130   1.469
 6103SOL    HW219209   0.147   1.140   1.574
 6104SOL     OW19210   6.488   0.902   4.367
 6104SOL    HW119211   6.508   0.927   4.462
 6104SOL    HW219212   6.390   0.909   4.351
 6105SOL     OW19213   2.816   5.429   5.551
 6105SOL    HW119214   2.786   5.464   5.639
 6105SOL    HW219215   2.897   5.371   5.564
 6106SOL     OW19216   6.483   4.715   0.184
 6106SOL    HW119217   6.418   4.648   0.221
 6106SOL    HW219218   6.468   4.804   0.226
 6107SOL     OW19219   4.801   4.856   5.294
 6107SOL    HW119220   4.741   4.919   5.344
 6107SOL    HW219221   4.783   4.864   5.196
 6108SOL     OW19222   2.029   1.782   1.109
 6108SOL    HW119223   1.934   1.756   1.095
 6108SOL    HW219224   2.054   1.768   1.205
 6109SOL     OW19225   6.081   6.675   3.203
 6109SOL    HW119226   5.987   6.649   3.225
 6109SOL    HW219227   6.083   6.727   3.118
 6110SOL     OW19228   1.928   1.650   5.102
 6110SOL    HW119229   1.987   1.595   5.162
 6110SOL    HW219230   1.968   1.740   5.090
 6111SOL     OW19231   1.974   4.332   1.203
 6111SOL    HW119232   2.016   4.325   1.113
 6111SOL    HW219233   2.022   4.400   1.258
 6112SOL     OW19234   4.431   0.397   2.609
 6112SOL    HW119235   4.429   0.306   2.569
 6112SOL    HW219236   4.408   0.466   2.540
 6113SOL     OW19237   2.283   5.742   0.069
 6113SOL    HW119238   2.294   5.643   0.079
 6113SOL    HW219239   2.327   5.788   0.146
 6114SOL     OW19240   5.361   1.539   0.074
 6114SOL    HW119241   5.265   1.513   0.086
 6114SOL    HW219242   5.419   1.471   0.117
 6115SOL     OW19243   0.802   0.696   5.178
 6115SOL    HW119244   0.839   0.694   5.085
 6115SOL    HW219245   0.707   0.728   5.175
 6116SOL     OW19246   4.758   1.995   4.943
 6116SOL    HW119247   4.748   1.993   4.844
 6116SOL    HW219248   4.790   1.905   4.975
 6117SOL     OW19249   1.477   1.752   2.087
 6117SOL    HW119250   1.496   1.766   2.184
 6117SOL    HW219251   1.557   1.777   2.033
 6118SOL     OW19252   6.055   0.671   0.011
 6118SOL    HW119253   6.147   0.712   0.011
 6118SOL    HW219254   6.026   0.655   0.105
 6119SOL     OW19255   6.679   1.928   1.070
 6119SOL    HW119256   6.761   1.924   1.128
 6119SOL    HW219257   6.626   1.844   1.082
 6120SOL     OW19258   1.940   0.932   5.588
 6120SOL    HW119259   1.934   0.899   5.493
 6120SOL    HW219260   1.931   0.855   5.651
 6121SOL     OW19261   0.439   3.169   4.970
 6121SOL    HW119262   0.455   3.071   4.964
 6121SOL    HW219263   0.474   3.203   5.057
 6122SOL     OW19264   4.994   5.627   5.514
 6122SOL    HW119265   5.076   5.679   5.536
 6122SOL    HW219266   4.915   5.688   5.513
 6123SOL     OW19267   5.797   1.782   5.620
 6123SOL    HW119268   5.787   1.757   5.524
 6123SOL    HW219269   5.893   1.782   5.645
 6124SOL     OW19270   2.275   6.819   4.060
 6124SOL    HW119271   2.203   6.786   3.999
 6124SOL    HW219272   2.239   6.825   4.154
 6125SOL     OW19273   1.654   2.329   6.470
 6125SOL    HW119274   1.570   2.276   6.460
 6125SOL    HW219275   1.664   2.391   6.391
 6126SOL     OW19276   6.362   3.137   5.265
 6126SOL    HW119277   6.338   3.144   5.168
 6126SOL    HW219278   6.455   3.171   5.279
 6127SOL     OW19279   3.871   2.043   1.655
 6127SOL    HW119280   3.875   2.008   1.561
 6127SOL    HW219281   3.907   1.974   1.718
 6128SOL     OW19282   5.681   6.222   0.603
 6128SOL    HW119283   5.680   6.257   0.509
 6128SOL    HW219284   5.772   6.186   0.623
 6129SOL     OW19285   1.886   5.284   2.867
 6129SOL    HW119286   1.952   5.218   2.831
 6129SOL    HW219287   1.822   5.238   2.928
 6130SOL     OW19288   4.686   2.827   1.123
 6130SOL    HW119289   4.662   2.916   1.083
 6130SOL    HW219290   4.745   2.777   1.060
 6131SOL     OW19291   0.120   1.909   2.328
 6131SOL    HW119292   0.046   1.847   2.303
 6131SOL    HW219293   0.086   1.979   2.391
 6132SOL     OW19294   3.485   1.414   6.430
 6132SOL    HW119295   3.503   1.369   6.342
 6132SOL    HW219296   3.411   1.481   6.418
 6133SOL     OW19297   1.778   2.127   3.614
 6133SOL    HW119298   1.851   2.120   3.545
 6133SOL    HW219299   1.735   2.217   3.608
 6134SOL     OW19300   4.802   6.426   5.687
 6134SOL    HW119301   4.788   6.459   5.781
 6134SOL    HW219302   4.889   6.462   5.652
 6135SOL     OW19303   6.055   0.324   6.939
 6135SOL    HW119304   6.039   0.412   6.894
 6135SOL    HW219305   6.144   0.288   6.911
 6136SOL     OW19306   1.416   2.743   2.009
 6136SOL    HW119307   1.361   2.715   2.088
 6136SOL    HW219308   1.358   2.743   1.927
 6137SOL     OW19309   6.636   4.166   2.401
 6137SOL    HW119310   6.588   4.171   2.313
 6137SOL    HW219311   6.721   4.113   2.388
 6138SOL     OW19312   2.729   0.281   1.961
 6138SOL    HW119313   2.713   0.354   1.894
 6138SOL    HW219314   2.669   0.295   2.040
 6139SOL     OW19315   1.835   0.085   5.934
 6139SOL    HW119316   1.919   0.031   5.933
 6139SOL    HW219317   1.756   0.025   5.932
 6140SOL     OW19318   1.847   0.437   3.912
 6140SOL    HW119319   1.872   0.348   3.873
 6140SOL    HW219320   1.842   0.431   4.011
 6141SOL     OW19321   0.382   0.198   5.580
 6141SOL    HW119322   0.302   0.172   5.635
 6141SOL    HW219323   0.431   0.272   5.627
 6142SOL     OW19324   0.568   0.421   0.571
 6142SOL    HW119325   0.523   0.451   0.487
 6142SOL    HW219326   0.605   0.329   0.558
 6143SOL     OW19327   6.264   3.785   6.351
 6143SOL    HW119328   6.176   3.737   6.352
 6143SOL    HW219329   6.265   3.855   6.423
 6144SOL     OW19330   4.654   4.926   2.556
 6144SOL    HW119331   4.630   5.023   2.561
 6144SOL    HW219332   4.590   4.872   2.612
 6145SOL     OW19333   4.885   3.379   4.617
 6145SOL    HW119334   4.822   3.452   4.645
 6145SOL    HW219335   4.977   3.417   4.607
 6146SOL     OW19336   5.004   0.507   4.950
 6146SOL    HW119337   5.061   0.482   5.028
 6146SOL    HW219338   4.975   0.424   4.902
 6147SOL     OW19339   2.121   2.338   4.016
 6147SOL    HW119340   2.146   2.248   3.981
 6147SOL    HW219341   2.068   2.387   3.947
 6148SOL     OW19342   3.264   5.677   0.132
 6148SOL    HW119343   3.169   5.690   0.161
 6148SOL    HW219344   3.272   5.692   0.034
 6149SOL     OW19345   2.750   6.856   1.892
 6149SOL    HW119346   2.667   6.814   1.855
 6149SOL    HW219347   2.798   6.790   1.950
 6150SOL     OW19348   6.445   4.448   6.533
 6150SOL    HW119349   6.414   4.409   6.447
 6150SOL    HW219350   6.373   4.507   6.571
 6151SOL     OW19351   4.486   4.603   4.401
 6151SOL    HW119352   4.509   4.507   4.383
 6151SOL    HW219353   4.408   4.630   4.344
 6152SOL     OW19354   0.570   4.341   4.159
 6152SOL    HW119355   0.630   4.397   4.216
 6152SOL    HW219356   0.597   4.350   4.063
 6153SOL     OW19357   4.763   5.072   1.002
 6153SOL    HW119358   4.832   5.114   1.062
 6153SOL    HW219359   4.793   5.078   0.907
 6154SOL     OW19360   5.967   3.153   2.293
 6154SOL    HW119361   5.948   3.069   2.243
 6154SOL    HW219362   5.919   3.152   2.381
 6155SOL     OW19363   2.475   1.280   2.758
 6155SOL    HW119364   2.558   1.284   2.703
 6155SOL    HW219365   2.477   1.354   2.826
 6156SOL     OW19366   4.961   4.438   1.630
 6156SOL    HW119367   4.891   4.487   1.579
 6156SOL    HW219368   5.014   4.502   1.685
 6157SOL     OW19369   1.353   2.438   2.636
 6157SOL    HW119370   1.312   2.386   2.561
 6157SOL    HW219371   1.447   2.407   2.650
 6158SOL     OW19372   2.786   2.618   5.448
 6158SOL    HW119373   2.728   2.671   5.387
 6158SOL    HW219374   2.882   2.634   5.426
 6159SOL     OW19375   5.736   2.209   7.017
 6159SOL    HW119376   5.788   2.124   0.009
 6159SOL    HW219377   5.786   2.272   6.958
 6160SOL     OW19378   0.920   6.996   6.961
 6160SOL    HW119379   0.906   6.991   6.862
 6160SOL    HW219380   1.012   6.966   6.984
 6161SOL     OW19381   4.751   2.375   6.614
 6161SOL    HW119382   4.802   2.411   6.536
 6161SOL    HW219383   4.796   2.400   6.699
 6162SOL     OW19384   6.256   5.299   2.378
 6162SOL    HW119385   6.279   5.395   2.360
 6162SOL    HW219386   6.189   5.294   2.452
 6163SOL     OW19387   5.443   6.456   3.139
 6163SOL    HW119388   5.398   6.450   3.227
 6163SOL    HW219389   5.476   6.365   3.113
 6164SOL     OW19390   4.125   3.354   4.228
 6164SOL    HW119391   4.090   3.327   4.318
 6164SOL    HW219392   4.204   3.414   4.241
 6165SOL     OW19393   4.063   2.070   0.659
 6165SOL    HW119394   4.028   2.016   0.583
 6165SOL    HW219395   4.017   2.159   0.661
 6166SOL     OW19396   0.579   2.353   0.186
 6166SOL    HW119397   0.654   2.289   0.170
 6166SOL    HW219398   0.607   2.446   0.161
 6167SOL     OW19399   1.405   3.312   3.266
 6167SOL    HW119400   1.351   3.289   3.347
 6167SOL    HW219401   1.386   3.247   3.194
 6168SOL     OW19402   0.704   3.128   4.273
 6168SOL    HW119403   0.630   3.125   4.205
 6168SOL    HW219404   0.693   3.208   4.331
 6169SOL     OW19405   2.263   6.920   0.457
 6169SOL    HW119406   2.206   6.955   0.532
 6169SOL    HW219407   2.207   6.865   0.395
 6170SOL     OW19408   3.819   4.271   0.144
 6170SOL    HW119409   3.808   4.368   0.165
 6170SOL    HW219410   3.744   4.220   0.187
 6171SOL     OW19411   1.397   4.811   2.518
 6171SOL    HW119412   1.331   4.838   2.589
 6171SOL    HW219413   1.461   4.886   2.502
 6172SOL     OW19414   1.015   6.770   3.047
 6172SOL    HW119415   0.959   6.832   3.101
 6172SOL    HW219416   0.964   6.686   3.028
 6173SOL     OW19417   0.975   4.781   3.231
 6173SOL    HW119418   1.050   4.813   3.174
 6173SOL    HW219419   0.901   4.848   3.229
 6174SOL     OW19420   5.735   5.281   3.007
 6174SOL    HW119421   5.661   5.267   3.073
 6174SOL    HW219422   5.817   5.233   3.039
 6175SOL     OW19423   4.722   0.648   3.009
 6175SOL    HW119424   4.792   0.687   3.069
 6175SOL    HW219425   4.665   0.721   2.972
 6176SOL     OW19426   5.937   2.975   6.271
 6176SOL    HW119427   5.840   2.993   6.256
 6176SOL    HW219428   5.973   2.920   6.196
 6177SOL     OW19429   5.417   2.339   1.393
 6177SOL    HW119430   5.348   2.307   1.458
 6177SOL    HW219431   5.473   2.262   1.363
 6178SOL     OW19432   5.403   3.907   0.776
 6178SOL    HW119433   5.345   3.848   0.832
 6178SOL    HW219434   5.499   3.894   0.802
 6179SOL     OW19435   0.519   2.645   5.336
 6179SOL    HW119436   0.543   2.652   5.433
 6179SOL    HW219437   0.590   2.688   5.281
 6180SOL     OW19438   3.927   6.941   1.347
 6180SOL    HW119439   3.935   6.855   1.397
 6180SOL    HW219440   4.015   6.962   1.303
 6181SOL     OW19441   4.967   6.166   6.431
 6181SOL    HW119442   4.933   6.086   6.481
 6181SOL    HW219443   5.054   6.144   6.388
 6182SOL     OW19444   4.944   5.610   5.833
 6182SOL    HW119445   4.859   5.580   5.791
 6182SOL    HW219446   4.925   5.684   5.897
 6183SOL     OW19447   2.609   6.814   3.070
 6183SOL    HW119448   2.698   6.858   3.085
 6183SOL    HW219449   2.612   6.719   3.101
 6184SOL     OW19450   1.225   0.407   6.553
 6184SOL    HW119451   1.202   0.382   6.459
 6184SOL    HW219452   1.280   0.491   6.552
 6185SOL     OW19453   6.869   3.647   6.238
 6185SOL    HW119454   6.790   3.702   6.267
 6185SOL    HW219455   6.854   3.552   6.264
 6186SOL     OW19456   5.606   0.252   3.807
 6186SOL    HW119457   5.672   0.185   3.841
 6186SOL    HW219458   5.621   0.340   3.854
 6187SOL     OW19459   4.327   4.877   4.137
 6187SOL    HW119460   4.294   4.871   4.042
 6187SOL    HW219461   4.424   4.901   4.137
 6188SOL     OW19462   2.892   6.752   1.525
 6188SOL    HW119463   2.971   6.738   1.465
 6188SOL    HW219464   2.897   6.689   1.602
 6189SOL     OW19465   5.316   5.138   3.151
 6189SOL    HW119466   5.311   5.209   3.081
 6189SOL    HW219467   5.294   5.178   3.241
 6190SOL     OW19468   5.151   2.306   6.498
 6190SOL    HW119469   5.088   2.374   6.461
 6190SOL    HW219470   5.154   2.227   6.437
 6191SOL     OW19471   5.725   1.694   6.824
 6191SOL    HW119472   5.635   1.733   6.807
 6191SOL    HW219473   5.718   1.594   6.828
 6192SOL     OW19474   2.443   3.115   0.377
 6192SOL    HW119475   2.440   3.214   0.393
 6192SOL    HW219476   2.352   3.077   0.388
 6193SOL     OW19477   5.702   0.282   1.828
 6193SOL    HW119478   5.700   0.340   1.747
 6193SOL    HW219479   5.796   0.257   1.850
 6194SOL     OW19480   2.643   0.535   0.800
 6194SOL    HW119481   2.572   0.509   0.735
 6194SOL    HW219482   2.690   0.617   0.766
 6195SOL     OW19483   3.631   6.669   6.363
 6195SOL    HW119484   3.539   6.637   6.388
 6195SOL    HW219485   3.686   6.678   6.446
 6196SOL     OW19486   1.143   2.293   6.069
 6196SOL    HW119487   1.171   2.306   5.974
 6196SOL    HW219488   1.183   2.209   6.104
 6197SOL     OW19489   2.977   3.930   1.080
 6197SOL    HW119490   2.977   3.998   1.153
 6197SOL    HW219491   2.903   3.865   1.097
 6198SOL     OW19492   3.687   4.979   2.503
 6198SOL    HW119493   3.600   4.929   2.503
 6198SOL    HW219494   3.738   4.956   2.421
 6199SOL     OW19495   1.847   0.179   0.648
 6199SOL    HW119496   1.847   0.233   0.732
 6199SOL    HW219497   1.878   0.236   0.572
 6200SOL     OW19498   3.285   0.804   6.477
 6200SOL    HW119499   3.264   0.828   6.382
 6200SOL    HW219500   3.384   0.800   6.490
 6201SOL     OW19501   1.999   3.503   5.395
 6201SOL    HW119502   2.095   3.522   5.375
 6201SOL    HW219503   1.943   3.579   5.363
 6202SOL     OW19504   3.010   1.951   1.347
 6202SOL    HW119505   3.091   1.897   1.323
 6202SOL    HW219506   3.026   2.047   1.324
 6203SOL     OW19507   4.972   1.181   4.629
 6203SOL    HW119508   4.940   1.258   4.685
 6203SOL    HW219509   4.895   1.140   4.581
 6204SOL     OW19510   1.670   5.732   5.170
 6204SOL    HW119511   1.698   5.826   5.149
 6204SOL    HW219512   1.571   5.723   5.155
 6205SOL     OW19513   4.848   5.609   6.546
 6205SOL    HW119514   4.934   5.661   6.549
 6205SOL    HW219515   4.804   5.614   6.635
 6206SOL     OW19516   6.078   0.517   2.479
 6206SOL    HW119517   6.014   0.442   2.496
 6206SOL    HW219518   6.034   0.604   2.503
 6207SOL     OW19519   0.977   4.035   4.870
 6207SOL    HW119520   1.055   3.973   4.866
 6207SOL    HW219521   0.994   4.114   4.811
 6208SOL     OW19522   6.218   0.207   6.133
 6208SOL    HW119523   6.140   0.187   6.191
 6208SOL    HW219524   6.209   0.157   6.047
 6209SOL     OW19525   4.506   6.448   0.396
 6209SOL    HW119526   4.493   6.355   0.363
 6209SOL    HW219527   4.602   6.475   0.384
 6210SOL     OW19528   5.454   4.241   3.359
 6210SOL    HW119529   5.547   4.217   3.331
 6210SOL    HW219530   5.431   4.332   3.325
 6211SOL     OW19531   2.707   0.278   5.255
 6211SOL    HW119532   2.686   0.305   5.350
 6211SOL    HW219533   2.628   0.231   5.216
 6212SOL     OW19534   6.281   6.001   3.733
 6212SOL    HW119535   6.304   5.981   3.638
 6212SOL    HW219536   6.184   6.025   3.740
 6213SOL     OW19537   6.083   0.546   6.768
 6213SOL    HW119538   6.166   0.523   6.718
 6213SOL    HW219539   6.106   0.590   6.854
 6214SOL     OW19540   6.046   4.780   2.554
 6214SOL    HW119541   6.074   4.711   2.622
 6214SOL    HW219542   6.120   4.846   2.542
 6215SOL     OW19543   3.105   2.696   1.066
 6215SOL    HW119544   3.187   2.749   1.045
 6215SOL    HW219545   3.066   2.728   1.153
 6216SOL     OW19546   5.824   1.769   2.428
 6216SOL    HW119547   5.831   1.684   2.481
 6216SOL    HW219548   5.824   1.847   2.490
 6217SOL     OW19549   4.584   2.319   1.080
 6217SOL    HW119550   4.668   2.273   1.108
 6217SOL    HW219551   4.604   2.414   1.055
 6218SOL     OW19552   2.256   4.856   4.825
 6218SOL    HW119553   2.307   4.926   4.774
 6218SOL    HW219554   2.223   4.786   4.762
 6219SOL     OW19555   1.184   2.209   5.085
 6219SOL    HW119556   1.121   2.262   5.141
 6219SOL    HW219557   1.273   2.205   5.130
 6220SOL     OW19558   2.111   4.812   5.260
 6220SOL    HW119559   2.187   4.765   5.306
 6220SOL    HW219560   2.025   4.766   5.281
 6221SOL     OW19561   3.886   5.452   4.611
 6221SOL    HW119562   3.902   5.358   4.581
 6221SOL    HW219563   3.827   5.451   4.691
 6222SOL     OW19564   6.817   6.872   2.095
 6222SOL    HW119565   6.862   6.959   2.077
 6222SOL    HW219566   6.859   6.827   2.173
 6223SOL     OW19567   5.410   3.907   4.745
 6223SOL    HW119568   5.418   3.808   4.734
 6223SOL    HW219569   5.486   3.942   4.799
 6224SOL     OW19570   2.069   1.133   5.299
 6224SOL    HW119571   2.036   1.176   5.384
 6224SOL    HW219572   2.162   1.099   5.313
 6225SOL     OW19573   3.668   3.436   0.587
 6225SOL    HW119574   3.583   3.469   0.627
 6225SOL    HW219575   3.718   3.382   0.655
 6226SOL     OW19576   5.517   0.942   4.588
 6226SOL    HW119577   5.595   0.887   4.560
 6226SOL    HW219578   5.473   0.981   4.506
 6227SOL     OW19579   3.546   4.262   5.896
 6227SOL    HW119580   3.487   4.182   5.904
 6227SOL    HW219581   3.608   4.267   5.974
 6228SOL     OW19582   0.044   1.245   3.059
 6228SOL    HW119583   6.973   1.288   3.060
 6228SOL    HW219584   0.111   1.304   3.105
 6229SOL     OW19585   2.521   2.187   2.969
 6229SOL    HW119586   2.475   2.228   3.047
 6229SOL    HW219587   2.617   2.215   2.968
 6230SOL     OW19588   2.305   1.971   4.066
 6230SOL    HW119589   2.223   1.982   4.009
 6230SOL    HW219590   2.286   2.007   4.158
 6231SOL     OW19591   0.418   5.148   1.319
 6231SOL    HW119592   0.459   5.226   1.271
 6231SOL    HW219593   0.323   5.170   1.341
 6232SOL     OW19594   0.176   0.308   0.538
 6232SOL    HW119595   0.153   0.269   0.627
 6232SOL    HW219596   0.226   0.241   0.484
 6233SOL     OW19597   4.911   1.762   6.296
 6233SOL    HW119598   4.944   1.780   6.203
 6233SOL    HW219599   4.943   1.673   6.326
 6234SOL     OW19600   1.832   2.298   4.822
 6234SOL    HW119601   1.746   2.320   4.775
 6234SOL    HW219602   1.892   2.378   4.818
 6235SOL     OW19603   2.112   0.323   2.816
 6235SOL    HW119604   2.047   0.384   2.861
 6235SOL    HW219605   2.145   0.255   2.882
 6236SOL     OW19606   0.389   5.210   0.952
 6236SOL    HW119607   0.326   5.262   1.010
 6236SOL    HW219608   0.483   5.235   0.974
 6237SOL     OW19609   4.815   6.574   0.814
 6237SOL    HW119610   4.732   6.562   0.759
 6237SOL    HW219611   4.790   6.599   0.907
 6238SOL     OW19612   5.143   5.520   2.102
 6238SOL    HW119613   5.237   5.525   2.135
 6238SOL    HW219614   5.080   5.517   2.180
 6239SOL     OW19615   2.655   6.690   2.618
 6239SOL    HW119616   2.591   6.754   2.576
 6239SOL    HW219617   2.744   6.699   2.574
 6240SOL     OW19618   1.877   3.467   0.392
 6240SOL    HW119619   1.835   3.537   0.450
 6240SOL    HW219620   1.976   3.468   0.406
 6241SOL     OW19621   2.730   0.691   1.404
 6241SOL    HW119622   2.827   0.673   1.391
 6241SOL    HW219623   2.690   0.622   1.464
 6242SOL     OW19624   5.013   1.561   3.615
 6242SOL    HW119625   5.061   1.503   3.550
 6242SOL    HW219626   5.078   1.623   3.659
 6243SOL     OW19627   5.549   0.038   4.536
 6243SOL    HW119628   5.500   0.026   4.450
 6243SOL    HW219629   5.497   7.016   4.610
 6244SOL     OW19630   2.759   2.353   2.644
 6244SOL    HW119631   2.683   2.340   2.580
 6244SOL    HW219632   2.843   2.316   2.604
 6245SOL     OW19633   3.001   4.865   1.239
 6245SOL    HW119634   2.983   4.819   1.326
 6245SOL    HW219635   3.096   4.850   1.212
 6246SOL     OW19636   2.407   1.970   5.926
 6246SOL    HW119637   2.402   2.037   5.851
 6246SOL    HW219638   2.478   1.903   5.906
 6247SOL     OW19639   0.544   6.818   3.657
 6247SOL    HW119640   0.455   6.856   3.683
 6247SOL    HW219641   0.544   6.720   3.677
 6248SOL     OW19642   0.667   4.610   1.372
 6248SOL    HW119643   0.664   4.549   1.450
 6248SOL    HW219644   0.709   4.697   1.399
 6249SOL     OW19645   7.001   4.274   0.277
 6249SOL    HW119646   6.935   4.317   0.340
 6249SOL    HW219647   6.988   4.175   0.279
 6250SOL     OW19648   6.393   6.326   0.239
 6250SOL    HW119649   6.438   6.256   0.185
 6250SOL    HW219650   6.407   6.416   0.197
 6251SOL     OW19651   4.646   1.271   0.885
 6251SOL    HW119652   4.644   1.303   0.980
 6251SOL    HW219653   4.646   1.349   0.823
 6252SOL     OW19654   3.019   5.011   5.156
 6252SOL    HW119655   3.080   4.936   5.183
 6252SOL    HW219656   3.068   5.098   5.165
 6253SOL     OW19657   2.452   4.239   1.807
 6253SOL    HW119658   2.371   4.296   1.792
 6253SOL    HW219659   2.534   4.288   1.778
 6254SOL     OW19660   5.893   0.388   0.498
 6254SOL    HW119661   5.800   0.353   0.514
 6254SOL    HW219662   5.948   0.375   0.580
 6255SOL     OW19663   0.621   1.118   1.772
 6255SOL    HW119664   0.668   1.149   1.855
 6255SOL    HW219665   0.595   1.197   1.717
 6256SOL     OW19666   4.187   5.172   2.772
 6256SOL    HW119667   4.150   5.263   2.753
 6256SOL    HW219668   4.211   5.127   2.686
 6257SOL     OW19669   5.357   2.654   0.839
 6257SOL    HW119670   5.282   2.709   0.802
 6257SOL    HW219671   5.390   2.590   0.770
 6258SOL     OW19672   4.503   1.286   2.070
 6258SOL    HW119673   4.517   1.385   2.080
 6258SOL    HW219674   4.414   1.261   2.106
 6259SOL     OW19675   3.266   2.369   1.725
 6259SOL    HW119676   3.284   2.276   1.693
 6259SOL    HW219677   3.174   2.373   1.764
 6260SOL     OW19678   4.048   4.144   0.272
 6260SOL    HW119679   4.020   4.055   0.307
 6260SOL    HW219680   3.968   4.197   0.245
 6261SOL     OW19681   3.732   0.525   0.389
 6261SOL    HW119682   3.784   0.606   0.416
 6261SOL    HW219683   3.714   0.528   0.290
 6262SOL     OW19684   1.358   4.719   0.277
 6262SOL    HW119685   1.415   4.668   0.212
 6262SOL    HW219686   1.415   4.760   0.347
 6263SOL     OW19687   6.970   6.798   0.617
 6263SOL    HW119688   0.019   6.728   0.640
 6263SOL    HW219689   7.017   6.882   0.592
 6264SOL     OW19690   2.949   1.916   0.986
 6264SOL    HW119691   2.953   1.830   1.037
 6264SOL    HW219692   2.908   1.987   1.043
 6265SOL     OW19693   4.039   4.415   1.111
 6265SOL    HW119694   3.952   4.431   1.063
 6265SOL    HW219695   4.047   4.318   1.132
 6266SOL     OW19696   3.285   0.914   3.337
 6266SOL    HW119697   3.302   0.823   3.374
 6266SOL    HW219698   3.243   0.906   3.246
 6267SOL     OW19699   2.937   0.212   0.111
 6267SOL    HW119700   2.948   0.191   0.208
 6267SOL    HW219701   2.922   0.310   0.099
 6268SOL     OW19702   3.220   4.870   2.858
 6268SOL    HW119703   3.217   4.930   2.939
 6268SOL    HW219704   3.126   4.846   2.832
 6269SOL     OW19705   5.750   6.117   1.936
 6269SOL    HW119706   5.751   6.039   1.999
 6269SOL    HW219707   5.824   6.107   1.869
 6270SOL     OW19708   1.437   1.383   4.715
 6270SOL    HW119709   1.484   1.343   4.793
 6270SOL    HW219710   1.399   1.310   4.658
 6271SOL     OW19711   0.183   2.149   6.854
 6271SOL    HW119712   0.252   2.173   6.923
 6271SOL    HW219713   0.138   2.064   6.880
 6272SOL     OW19714   2.583   2.537   4.160
 6272SOL    HW119715   2.549   2.615   4.214
 6272SOL    HW219716   2.540   2.539   4.069
 6273SOL     OW19717   2.260   1.709   1.313
 6273SOL    HW119718   2.238   1.660   1.228
 6273SOL    HW219719   2.179   1.760   1.343
 6274SOL     OW19720   3.311   5.553   6.567
 6274SOL    HW119721   3.287   5.500   6.649
 6274SOL    HW219722   3.249   5.631   6.558
 6275SOL     OW19723   2.395   7.000   4.823
 6275SOL    HW119724   2.318   6.987   4.761
 6275SOL    HW219725   2.478   7.015   4.771
 6276SOL     OW19726   0.933   5.596   3.496
 6276SOL    HW119727   0.921   5.501   3.525
 6276SOL    HW219728   1.020   5.631   3.529
 6277SOL     OW19729   5.461   2.505   2.380
 6277SOL    HW119730   5.362   2.509   2.369
 6277SOL    HW219731   5.494   2.591   2.419
 6278SOL     OW19732   4.806   0.304   4.132
 6278SOL    HW119733   4.758   0.243   4.194
 6278SOL    HW219734   4.902   0.311   4.158
 6279SOL     OW19735   3.821   1.582   1.062
 6279SOL    HW119736   3.723   1.605   1.068
 6279SOL    HW219737   3.875   1.660   1.094
 6280SOL     OW19738   0.045   3.971   5.795
 6280SOL    HW119739   0.130   3.972   5.743
 6280SOL    HW219740   0.052   4.034   5.873
 6281SOL     OW19741   2.058   0.428   5.312
 6281SOL    HW119742   1.993   0.400   5.243
 6281SOL    HW219743   2.023   0.508   5.361
 6282SOL     OW19744   1.701   0.213   4.212
 6282SOL    HW119745   1.761   0.293   4.204
 6282SOL    HW219746   1.736   0.140   4.153
 6283SOL     OW19747   0.087   2.427   5.280
 6283SOL    HW119748   0.123   2.482   5.355
 6283SOL    HW219749   0.159   2.370   5.242
 6284SOL     OW19750   1.448   4.648   5.589
 6284SOL    HW119751   1.398   4.572   5.549
 6284SOL    HW219752   1.514   4.613   5.657
 6285SOL     OW19753   1.325   3.025   3.870
 6285SOL    HW119754   1.226   3.015   3.876
 6285SOL    HW219755   1.369   2.961   3.934
 6286SOL     OW19756   5.076   1.561   3.320
 6286SOL    HW119757   5.152   1.618   3.352
 6286SOL    HW219758   5.109   1.497   3.251
 6287SOL     OW19759   4.874   3.752   2.015
 6287SOL    HW119760   4.844   3.662   1.983
 6287SOL    HW219761   4.884   3.813   1.937
 6288SOL     OW19762   5.299   3.874   0.129
 6288SOL    HW119763   5.209   3.916   0.116
 6288SOL    HW219764   5.295   3.778   0.102
 6289SOL     OW19765   1.819   1.882   3.776
 6289SOL    HW119766   1.797   1.971   3.736
 6289SOL    HW219767   1.848   1.819   3.705
 6290SOL     OW19768   5.134   4.343   4.005
 6290SOL    HW119769   5.091   4.359   3.916
 6290SOL    HW219770   5.132   4.245   4.026
 6291SOL     OW19771   3.643   3.700   3.205
 6291SOL    HW119772   3.618   3.718   3.300
 6291SOL    HW219773   3.699   3.776   3.171
 6292SOL     OW19774   0.784   1.843   2.662
 6292SOL    HW119775   0.741   1.754   2.677
 6292SOL    HW219776   0.822   1.878   2.748
 6293SOL     OW19777   5.504   0.185   0.005
 6293SOL    HW119778   5.595   0.219   7.000
 6293SOL    HW219779   5.452   0.258   0.049
 6294SOL     OW19780   3.457   5.226   2.852
 6294SOL    HW119781   3.438   5.137   2.810
 6294SOL    HW219782   3.546   5.259   2.821
 6295SOL     OW19783   5.540   5.642   5.775
 6295SOL    HW119784   5.552   5.733   5.734
 6295SOL    HW219785   5.480   5.650   5.854
 6296SOL     OW19786   6.944   0.547   3.446
 6296SOL    HW119787   6.858   0.515   3.486
 6296SOL    HW219788   6.928   0.578   3.352
 6297SOL     OW19789   5.273   5.776   5.639
 6297SOL    HW119790   5.269   5.707   5.711
 6297SOL    HW219791   5.188   5.830   5.640
 6298SOL     OW19792   0.457   3.299   5.219
 6298SOL    HW119793   0.394   3.250   5.279
 6298SOL    HW219794   0.410   3.376   5.176
 6299SOL     OW19795   6.257   2.897   6.362
 6299SOL    HW119796   6.354   2.920   6.357
 6299SOL    HW219797   6.245   2.798   6.367
 6300SOL     OW19798   4.707   1.133   4.344
 6300SOL    HW119799   4.619   1.117   4.299
 6300SOL    HW219800   4.733   1.051   4.395
 6301SOL     OW19801   2.904   6.854   1.067
 6301SOL    HW119802   2.839   6.909   1.119
 6301SOL    HW219803   2.911   6.763   1.108
 6302SOL     OW19804   1.993   0.786   3.751
 6302SOL    HW119805   1.997   0.702   3.696
 6302SOL    HW219806   1.912   0.783   3.810
 6303SOL     OW19807   2.198   6.773   4.854
 6303SOL    HW119808   2.152   6.845   4.803
 6303SOL    HW219809   2.286   6.751   4.811
 6304SOL     OW19810   2.442   1.207   0.348
 6304SOL    HW119811   2.513   1.251   0.293
 6304SOL    HW219812   2.417   1.120   0.306
 6305SOL     OW19813   6.751   0.002   1.339
 6305SOL    HW119814   6.707   6.938   1.305
 6305SOL    HW219815   6.850   7.006   1.346
 6306SOL     OW19816   6.682   2.845   3.865
 6306SOL    HW119817   6.647   2.875   3.954
 6306SOL    HW219818   6.629   2.766   3.833
 6307SOL     OW19819   2.405   5.248   6.604
 6307SOL    HW119820   2.428   5.232   6.700
 6307SOL    HW219821   2.486   5.234   6.547
 6308SOL     OW19822   2.972   1.819   4.909
 6308SOL    HW119823   2.896   1.875   4.943
 6308SOL    HW219824   2.941   1.725   4.895
 6309SOL     OW19825   5.379   2.480   3.853
 6309SOL    HW119826   5.427   2.536   3.786
 6309SOL    HW219827   5.419   2.388   3.855
 6310SOL     OW19828   1.237   4.768   5.010
 6310SOL    HW119829   1.281   4.694   4.959
 6310SOL    HW219830   1.143   4.743   5.030
 6311SOL     OW19831   6.093   0.107   4.918
 6311SOL    HW119832   6.090   0.088   4.820
 6311SOL    HW219833   6.187   0.100   4.951
 6312SOL     OW19834   4.403   5.480   6.257
 6312SOL    HW119835   4.473   5.409   6.251
 6312SOL    HW219836   4.423   5.541   6.333
 6313SOL     OW19837   1.899   5.626   3.401
 6313SOL    HW119838   1.904   5.707   3.460
 6313SOL    HW219839   1.979   5.623   3.341
 6314SOL     OW19840   2.725   5.751   2.915
 6314SOL    HW119841   2.655   5.822   2.917
 6314SOL    HW219842   2.807   5.783   2.962
 6315SOL     OW19843   3.404   3.554   0.174
 6315SOL    HW119844   3.447   3.616   0.109
 6315SOL    HW219845   3.311   3.586   0.195
 6316SOL     OW19846   4.654   2.160   5.704
 6316SOL    HW119847   4.607   2.116   5.781
 6316SOL    HW219848   4.628   2.256   5.699
 6317SOL     OW19849   5.067   0.237   2.894
 6317SOL    HW119850   4.994   0.179   2.857
 6317SOL    HW219851   5.116   0.280   2.818
 6318SOL     OW19852   1.971   2.006   5.298
 6318SOL    HW119853   2.041   2.064   5.255
 6318SOL    HW219854   1.975   2.018   5.397
 6319SOL     OW19855   0.912   2.277   3.484
 6319SOL    HW119856   0.873   2.201   3.536
 6319SOL    HW219857   1.012   2.269   3.484
 6320SOL     OW19858   5.657   3.551   2.905
 6320SOL    HW119859   5.665   3.502   2.818
 6320SOL    HW219860   5.738   3.607   2.919
 6321SOL     OW19861   2.985   5.367   0.892
 6321SOL    HW119862   2.904   5.338   0.942
 6321SOL    HW219863   2.961   5.390   0.798
 6322SOL     OW19864   1.449   1.407   6.884
 6322SOL    HW119865   1.479   1.320   6.923
 6322SOL    HW219866   1.491   1.419   6.794
 6323SOL     OW19867   3.775   2.738   1.291
 6323SOL    HW119868   3.866   2.763   1.259
 6323SOL    HW219869   3.782   2.677   1.370
 6324SOL     OW19870   4.227   1.034   5.536
 6324SOL    HW119871   4.216   1.121   5.489
 6324SOL    HW219872   4.162   1.028   5.612
 6325SOL     OW19873   0.599   2.813   1.967
 6325SOL    HW119874   0.668   2.873   2.007
 6325SOL    HW219875   0.508   2.843   1.998
 6326SOL     OW19876   5.139   5.825   1.682
 6326SOL    HW119877   5.054   5.840   1.733
 6326SOL    HW219878   5.199   5.904   1.692
 6327SOL     OW19879   5.443   5.732   5.410
 6327SOL    HW119880   5.390   5.725   5.495
 6327SOL    HW219881   5.420   5.656   5.350
 6328SOL     OW19882   2.093   3.830   0.012
 6328SOL    HW119883   2.011   3.811   6.976
 6328SOL    HW219884   2.175   3.811   6.977
 6329SOL     OW19885   1.719   1.423   3.408
 6329SOL    HW119886   1.716   1.335   3.361
 6329SOL    HW219887   1.813   1.445   3.433
 6330SOL     OW19888   4.319   0.625   0.233
 6330SOL    HW119889   4.411   0.597   0.205
 6330SOL    HW219890   4.288   0.700   0.175
 6331SOL     OW19891   6.575   1.664   1.418
 6331SOL    HW119892   6.602   1.582   1.367
 6331SOL    HW219893   6.640   1.680   1.493
 6332SOL     OW19894   5.965   5.890   1.162
 6332SOL    HW119895   5.894   5.821   1.171
 6332SOL    HW219896   6.047   5.848   1.122
 6333SOL     OW19897   3.451   5.018   3.433
 6333SOL    HW119898   3.510   4.976   3.501
 6333SOL    HW219899   3.476   4.985   3.342
 6334SOL     OW19900   2.329   0.325   2.288
 6334SOL    HW119901   2.338   0.252   2.356
 6334SOL    HW219902   2.295   0.286   2.202
 6335SOL     OW19903   6.588   0.989   6.652
 6335SOL    HW119904   6.498   0.995   6.695
 6335SOL    HW219905   6.659   0.993   6.723
 6336SOL     OW19906   0.295   2.735   4.704
 6336SOL    HW119907   0.344   2.800   4.646
 6336SOL    HW219908   0.252   2.785   4.780
 6337SOL     OW19909   5.374   3.670   6.096
 6337SOL    HW119910   5.414   3.685   6.006
 6337SOL    HW219911   5.274   3.677   6.090
 6338SOL     OW19912   3.504   1.919   2.939
 6338SOL    HW119913   3.416   1.871   2.930
 6338SOL    HW219914   3.574   1.870   2.888
 6339SOL     OW19915   0.589   2.054   3.446
 6339SOL    HW119916   0.563   1.999   3.366
 6339SOL    HW219917   0.516   2.119   3.466
 6340SOL     OW19918   2.856   5.889   3.834
 6340SOL    HW119919   2.838   5.851   3.925
 6340SOL    HW219920   2.770   5.902   3.785
 6341SOL     OW19921   6.894   4.122   3.176
 6341SOL    HW119922   6.961   4.152   3.108
 6341SOL    HW219923   6.815   4.081   3.130
 6342SOL     OW19924   1.941   2.219   2.080
 6342SOL    HW119925   1.989   2.291   2.031
 6342SOL    HW219926   1.854   2.200   2.036
 6343SOL     OW19927   3.975   1.883   6.566
 6343SOL    HW119928   3.906   1.947   6.602
 6343SOL    HW219929   4.025   1.927   6.492
 6344SOL     OW19930   0.190   4.071   4.710
 6344SOL    HW119931   0.129   4.059   4.788
 6344SOL    HW219932   0.283   4.088   4.742
 6345SOL     OW19933   3.146   1.739   1.890
 6345SOL    HW119934   3.066   1.716   1.835
 6345SOL    HW219935   3.178   1.657   1.938
 6346SOL     OW19936   0.181   3.818   2.985
 6346SOL    HW119937   0.199   3.796   3.081
 6346SOL    HW219938   0.164   3.734   2.933
 6347SOL     OW19939   3.102   0.248   0.764
 6347SOL    HW119940   3.183   0.225   0.710
 6347SOL    HW219941   3.039   0.301   0.708
 6348SOL     OW19942   1.094   2.956   4.279
 6348SOL    HW119943   1.163   2.909   4.223
 6348SOL    HW219944   1.023   2.891   4.304
 6349SOL     OW19945   3.043   0.837   1.107
 6349SOL    HW119946   2.960   0.804   1.153
 6349SOL    HW219947   3.065   0.775   1.032
 6350SOL     OW19948   1.514   6.300   2.450
 6350SOL    HW119949   1.531   6.339   2.360
 6350SOL    HW219950   1.415   6.291   2.464
 6351SOL     OW19951   0.218   1.360   2.080
 6351SOL    HW119952   0.159   1.280   2.087
 6351SOL    HW219953   0.209   1.400   1.989
 6352SOL     OW19954   1.837   5.315   2.534
 6352SOL    HW119955   1.795   5.229   2.506
 6352SOL    HW219956   1.798   5.344   2.621
 6353SOL     OW19957   0.694   7.007   0.233
 6353SOL    HW119958   0.749   7.015   0.150
 6353SOL    HW219959   0.624   6.937   0.221
 6354SOL     OW19960   0.935   0.121   2.649
 6354SOL    HW119961   0.985   0.189   2.596
 6354SOL    HW219962   0.996   0.079   2.716
 6355SOL     OW19963   1.462   2.890   3.035
 6355SOL    HW119964   1.557   2.916   3.019
 6355SOL    HW219965   1.459   2.797   3.073
 6356SOL     OW19966   3.730   4.695   0.955
 6356SOL    HW119967   3.742   4.618   1.017
 6356SOL    HW219968   3.818   4.717   0.912
 6357SOL     OW19969   4.358   2.477   0.335
 6357SOL    HW119970   4.434   2.542   0.333
 6357SOL    HW219971   4.337   2.448   0.241
 6358SOL     OW19972   0.003   2.084   3.823
 6358SOL    HW119973   0.080   2.065   3.883
 6358SOL    HW219974   6.936   2.076   3.874
 6359SOL     OW19975   0.286   0.639   5.506
 6359SOL    HW119976   0.277   0.657   5.604
 6359SOL    HW219977   0.249   0.548   5.486
 6360SOL     OW19978   2.397   5.038   4.070
 6360SOL    HW119979   2.478   5.032   4.012
 6360SOL    HW219980   2.408   4.978   4.149
 6361SOL     OW19981   4.108   6.127   5.887
 6361SOL    HW119982   4.152   6.148   5.974
 6361SOL    HW219983   4.087   6.212   5.839
 6362SOL     OW19984   6.059   5.131   6.982
 6362SOL    HW119985   6.114   5.213   6.995
 6362SOL    HW219986   6.114   5.050   7.003
 6363SOL     OW19987   1.743   5.579   4.474
 6363SOL    HW119988   1.821   5.567   4.413
 6363SOL    HW219989   1.733   5.499   4.533
 6364SOL     OW19990   2.447   2.614   5.945
 6364SOL    HW119991   2.433   2.539   6.010
 6364SOL    HW219992   2.543   2.641   5.945
 6365SOL     OW19993   4.497   6.847   3.365
 6365SOL    HW119994   4.444   6.773   3.406
 6365SOL    HW219995   4.585   6.811   3.334
 6366SOL     OW19996   0.507   5.605   4.932
 6366SOL    HW119997   0.560   5.523   4.952
 6366SOL    HW219998   0.442   5.622   5.006
 6367SOL     OW19999   5.402   0.518   3.205
 6367SOL    HW120000   5.419   0.565   3.291
 6367SOL    HW220001   5.304   0.520   3.184
 6368SOL     OW20002   2.999   6.984   4.007
 6368SOL    HW120003   3.071   7.014   3.944
 6368SOL    HW220004   3.035   6.983   4.100
 6369SOL     OW20005   2.250   4.811   3.677
 6369SOL    HW120006   2.199   4.872   3.738
 6369SOL    HW220007   2.328   4.860   3.639
 6370SOL     OW20008   6.402   1.858   1.320
 6370SOL    HW120009   6.457   1.780   1.348
 6370SOL    HW220010   6.400   1.863   1.220
 6371SOL     OW20011   4.807   3.108   2.550
 6371SOL    HW120012   4.709   3.101   2.565
 6371SOL    HW220013   4.830   3.067   2.461
 6372SOL     OW20014   3.607   6.304   2.304
 6372SOL    HW120015   3.629   6.394   2.340
 6372SOL    HW220016   3.673   6.279   2.233
 6373SOL     OW20017   4.340   4.043   5.815
 6373SOL    HW120018   4.311   4.043   5.719
 6373SOL    HW220019   4.263   4.069   5.873
 6374SOL     OW20020   2.991   3.205   3.057
 6374SOL    HW120021   3.068   3.251   3.013
 6374SOL    HW220022   2.939   3.272   3.111
 6375SOL     OW20023   1.473   0.361   2.960
 6375SOL    HW120024   1.416   0.388   3.038
 6375SOL    HW220025   1.567   0.345   2.990
 6376SOL     OW20026   6.406   2.102   4.545
 6376SOL    HW120027   6.463   2.022   4.525
 6376SOL    HW220028   6.426   2.175   4.480
 6377SOL     OW20029   0.039   0.963   4.897
 6377SOL    HW120030   0.104   0.906   4.846
 6377SOL    HW220031   0.023   1.048   4.847
 6378SOL     OW20032   4.834   4.179   4.296
 6378SOL    HW120033   4.838   4.088   4.336
 6378SOL    HW220034   4.837   4.172   4.196
 6379SOL     OW20035   2.306   4.298   3.951
 6379SOL    HW120036   2.370   4.332   4.020
 6379SOL    HW220037   2.241   4.370   3.928
 6380SOL     OW20038   0.526   1.132   6.066
 6380SOL    HW120039   0.459   1.200   6.094
 6380SOL    HW220040   0.515   1.050   6.122
 6381SOL     OW20041   3.267   3.673   2.667
 6381SOL    HW120042   3.284   3.767   2.639
 6381SOL    HW220043   3.214   3.672   2.752
 6382SOL     OW20044   0.951   3.013   5.703
 6382SOL    HW120045   1.044   3.027   5.738
 6382SOL    HW220046   0.888   3.002   5.779
 6383SOL     OW20047   2.754   2.088   4.214
 6383SOL    HW120048   2.698   2.051   4.141
 6383SOL    HW220049   2.750   2.188   4.213
 6384SOL     OW20050   6.365   5.165   2.846
 6384SOL    HW120051   6.429   5.236   2.818
 6384SOL    HW220052   6.409   5.104   2.912
 6385SOL     OW20053   0.223   5.507   4.390
 6385SOL    HW120054   0.237   5.445   4.313
 6385SOL    HW220055   0.157   5.577   4.364
 6386SOL     OW20056   2.620   5.321   0.823
 6386SOL    HW120057   2.570   5.407   0.811
 6386SOL    HW220058   2.582   5.252   0.763
 6387SOL     OW20059   0.099   1.690   5.238
 6387SOL    HW120060   0.073   1.687   5.142
 6387SOL    HW220061   0.018   1.706   5.295
 6388SOL     OW20062   3.387   4.929   1.902
 6388SOL    HW120063   3.328   4.850   1.922
 6388SOL    HW220064   3.469   4.898   1.855
 6389SOL     OW20065   1.401   5.925   3.171
 6389SOL    HW120066   1.436   5.832   3.156
 6389SOL    HW220067   1.454   5.969   3.243
 6390SOL     OW20068   0.722   2.683   3.584
 6390SOL    HW120069   0.662   2.639   3.517
 6390SOL    HW220070   0.692   2.660   3.676
 6391SOL     OW20071   2.659   2.324   0.452
 6391SOL    HW120072   2.720   2.259   0.407
 6391SOL    HW220073   2.713   2.394   0.499
 6392SOL     OW20074   1.467   6.657   3.602
 6392SOL    HW120075   1.376   6.688   3.576
 6392SOL    HW220076   1.459   6.580   3.665
 6393SOL     OW20077   5.969   6.564   0.652
 6393SOL    HW120078   6.060   6.524   0.640
 6393SOL    HW220079   5.933   6.592   0.563
 6394SOL     OW20080   2.037   4.780   0.514
 6394SOL    HW120081   2.024   4.876   0.539
 6394SOL    HW220082   2.070   4.774   0.420
 6395SOL     OW20083   6.333   1.089   1.121
 6395SOL    HW120084   6.334   1.086   1.021
 6395SOL    HW220085   6.293   1.176   1.151
 6396SOL     OW20086   5.046   3.591   5.663
 6396SOL    HW120087   5.102   3.660   5.709
 6396SOL    HW220088   5.098   3.506   5.656
 6397SOL     OW20089   0.210   1.855   0.089
 6397SOL    HW120090   0.126   1.843   0.037
 6397SOL    HW220091   0.188   1.868   0.185
 6398SOL     OW20092   3.016   1.866   1.666
 6398SOL    HW120093   2.976   1.913   1.587
 6398SOL    HW220094   2.994   1.916   1.750
 6399SOL     OW20095   2.042   6.023   6.864
 6399SOL    HW120096   2.019   6.039   6.768
 6399SOL    HW220097   1.993   5.942   6.896
 6400SOL     OW20098   2.993   5.960   3.461
 6400SOL    HW120099   3.034   5.869   3.453
 6400SOL    HW220100   2.893   5.951   3.468
 6401SOL     OW20101   0.336   4.299   3.596
 6401SOL    HW120102   0.389   4.217   3.619
 6401SOL    HW220103   0.368   4.336   3.509
 6402SOL     OW20104   2.482   0.886   3.004
 6402SOL    HW120105   2.572   0.884   2.959
 6402SOL    HW220106   2.495   0.890   3.103
 6403SOL     OW20107   1.077   4.679   6.687
 6403SOL    HW120108   1.127   4.632   6.759
 6403SOL    HW220109   1.142   4.707   6.615
 6404SOL     OW20110   4.497   1.691   3.222
 6404SOL    HW120111   4.507   1.701   3.321
 6404SOL    HW220112   4.401   1.708   3.197
 6405SOL     OW20113   2.529   1.651   2.667
 6405SOL    HW120114   2.532   1.573   2.604
 6405SOL    HW220115   2.568   1.732   2.623
 6406SOL     OW20116   2.331   1.432   4.034
 6406SOL    HW120117   2.397   1.444   3.960
 6406SOL    HW220118   2.286   1.519   4.053
 6407SOL     OW20119   3.476   5.772   5.364
 6407SOL    HW120120   3.459   5.705   5.436
 6407SOL    HW220121   3.419   5.853   5.380
 6408SOL     OW20122   5.514   1.137   6.509
 6408SOL    HW120123   5.421   1.125   6.544
 6408SOL    HW220124   5.552   1.049   6.483
 6409SOL     OW20125   6.918   3.363   3.069
 6409SOL    HW120126   6.821   3.346   3.088
 6409SOL    HW220127   6.966   3.276   3.061
 6410SOL     OW20128   1.560   1.845   0.433
 6410SOL    HW120129   1.561   1.916   0.363
 6410SOL    HW220130   1.591   1.758   0.393
 6411SOL     OW20131   0.883   1.117   3.532
 6411SOL    HW120132   0.857   1.204   3.490
 6411SOL    HW220133   0.890   1.047   3.461
 6412SOL     OW20134   6.729   2.791   5.493
 6412SOL    HW120135   6.748   2.849   5.573
 6412SOL    HW220136   6.744   2.844   5.410
 6413SOL     OW20137   6.807   4.622   1.412
 6413SOL    HW120138   6.836   4.591   1.322
 6413SOL    HW220139   6.874   4.595   1.480
 6414SOL     OW20140   6.439   0.170   1.787
 6414SOL    HW120141   6.442   0.262   1.746
 6414SOL    HW220142   6.399   0.106   1.721
 6415SOL     OW20143   1.419   1.993   1.832
 6415SOL    HW120144   1.414   2.077   1.779
 6415SOL    HW220145   1.328   1.953   1.840
 6416SOL     OW20146   1.475   0.319   6.668
 6416SOL    HW120147   1.377   0.330   6.654
 6416SOL    HW220148   1.525   0.359   6.591
 6417SOL     OW20149   0.773   0.298   3.849
 6417SOL    HW120150   0.704   0.237   3.888
 6417SOL    HW220151   0.864   0.264   3.870
 6418SOL     OW20152   0.478   5.714   2.458
 6418SOL    HW120153   0.564   5.701   2.408
 6418SOL    HW220154   0.434   5.797   2.426
 6419SOL     OW20155   3.987   4.907   1.676
 6419SOL    HW120156   4.006   4.963   1.596
 6419SOL    HW220157   4.070   4.902   1.733
 6420SOL     OW20158   2.667   4.051   6.295
 6420SOL    HW120159   2.582   4.067   6.345
 6420SOL    HW220160   2.722   3.983   6.344
 6421SOL     OW20161   5.171   0.705   1.251
 6421SOL    HW120162   5.206   0.691   1.343
 6421SOL    HW220163   5.245   0.737   1.192
 6422SOL     OW20164   6.855   1.172   3.408
 6422SOL    HW120165   6.857   1.153   3.310
 6422SOL    HW220166   6.948   1.175   3.445
 6423SOL     OW20167   5.240   3.292   1.120
 6423SOL    HW120168   5.172   3.360   1.092
 6423SOL    HW220169   5.314   3.289   1.052
 6424SOL     OW20170   6.659   3.819   6.302
 6424SOL    HW120171   6.661   3.901   6.359
 6424SOL    HW220172   6.568   3.810   6.261
 6425SOL     OW20173   0.509   4.396   2.459
 6425SOL    HW120174   0.495   4.495   2.456
 6425SOL    HW220175   0.562   4.367   2.379
 6426SOL     OW20176   1.632   2.369   3.293
 6426SOL    HW120177   1.698   2.334   3.226
 6426SOL    HW220178   1.654   2.464   3.315
 6427SOL     OW20179   1.553   3.423   5.502
 6427SOL    HW120180   1.499   3.338   5.497
 6427SOL    HW220181   1.492   3.499   5.525
 6428SOL     OW20182   6.652   3.404   2.025
 6428SOL    HW120183   6.714   3.380   1.951
 6428SOL    HW220184   6.620   3.321   2.071
 6429SOL     OW20185   1.517   0.775   4.405
 6429SOL    HW120186   1.551   0.699   4.350
 6429SOL    HW220187   1.565   0.859   4.379
 6430SOL     OW20188   5.519   1.673   1.671
 6430SOL    HW120189   5.425   1.686   1.638
 6430SOL    HW220190   5.576   1.640   1.596
 6431SOL     OW20191   5.087   6.770   2.834
 6431SOL    HW120192   5.132   6.695   2.883
 6431SOL    HW220193   5.144   6.852   2.840
 6432SOL     OW20194   4.935   3.245   0.812
 6432SOL    HW120195   4.926   3.341   0.841
 6432SOL    HW220196   4.956   3.242   0.714
 6433SOL     OW20197   2.539   4.500   1.463
 6433SOL    HW120198   2.565   4.494   1.559
 6433SOL    HW220199   2.620   4.483   1.406
 6434SOL     OW20200   0.991   3.797   0.686
 6434SOL    HW120201   1.059   3.799   0.758
 6434SOL    HW220202   1.025   3.743   0.609
 6435SOL     OW20203   4.387   5.097   6.449
 6435SOL    HW120204   4.485   5.106   6.436
 6435SOL    HW220205   4.367   5.014   6.501
 6436SOL     OW20206   1.782   2.948   3.661
 6436SOL    HW120207   1.806   3.016   3.592
 6436SOL    HW220208   1.866   2.911   3.702
 6437SOL     OW20209   1.219   0.026   6.857
 6437SOL    HW120210   1.216   0.051   6.760
 6437SOL    HW220211   1.284   6.971   6.870
 6438SOL     OW20212   1.346   3.894   3.652
 6438SOL    HW120213   1.288   3.848   3.720
 6438SOL    HW220214   1.316   3.869   3.560
 6439SOL     OW20215   1.310   6.953   1.068
 6439SOL    HW120216   1.363   0.015   1.043
 6439SOL    HW220217   1.254   6.973   1.148
 6440SOL     OW20218   1.334   1.444   2.440
 6440SOL    HW120219   1.347   1.395   2.526
 6440SOL    HW220220   1.338   1.378   2.364
 6441SOL     OW20221   2.186   0.896   3.374
 6441SOL    HW120222   2.259   0.834   3.401
 6441SOL    HW220223   2.184   0.974   3.437
 6442SOL     OW20224   2.146   2.312   4.507
 6442SOL    HW120225   2.109   2.297   4.599
 6442SOL    HW220226   2.245   2.309   4.510
 6443SOL     OW20227   3.161   3.060   0.648
 6443SOL    HW120228   3.237   3.050   0.584
 6443SOL    HW220229   3.140   2.970   0.688
 6444SOL     OW20230   0.730   1.217   3.067
 6444SOL    HW120231   0.690   1.197   2.978
 6444SOL    HW220232   0.667   1.188   3.139
 6445SOL     OW20233   3.864   2.791   5.206
 6445SOL    HW120234   3.949   2.739   5.199
 6445SOL    HW220235   3.797   2.737   5.256
 6446SOL     OW20236   6.641   1.238   6.967
 6446SOL    HW120237   6.672   1.251   6.872
 6446SOL    HW220238   6.558   1.292   6.982
 6447SOL     OW20239   1.793   6.798   2.082
 6447SOL    HW120240   1.889   6.819   2.063
 6447SOL    HW220241   1.787   6.729   2.154
 6448SOL     OW20242   6.416   3.121   3.204
 6448SOL    HW120243   6.326   3.164   3.199
 6448SOL    HW220244   6.430   3.064   3.123
 6449SOL     OW20245   3.388   3.241   1.430
 6449SOL    HW120246   3.299   3.286   1.437
 6449SOL    HW220247   3.439   3.253   1.515
 6450SOL     OW20248   6.080   3.789   1.428
 6450SOL    HW120249   6.078   3.739   1.515
 6450SOL    HW220250   6.175   3.812   1.405
 6451SOL     OW20251   2.429   6.057   5.822
 6451SOL    HW120252   2.403   5.990   5.752
 6451SOL    HW220253   2.527   6.074   5.816
 6452SOL     OW20254   3.217   6.895   4.564
 6452SOL    HW120255   3.141   6.958   4.548
 6452SOL    HW220256   3.214   6.821   4.497
 6453SOL     OW20257   1.318   6.419   6.818
 6453SOL    HW120258   1.410   6.441   6.787
 6453SOL    HW220259   1.264   6.385   6.741
 6454SOL     OW20260   3.041   1.812   4.507
 6454SOL    HW120261   2.947   1.811   4.543
 6454SOL    HW220262   3.105   1.822   4.583
 6455SOL     OW20263   6.707   2.725   5.094
 6455SOL    HW120264   6.686   2.788   5.169
 6455SOL    HW220265   6.714   2.776   5.008
 6456SOL     OW20266   0.773   0.792   2.910
 6456SOL    HW120267   0.833   0.713   2.921
 6456SOL    HW220268   0.824   0.876   2.931
 6457SOL     OW20269   6.646   2.155   1.789
 6457SOL    HW120270   6.701   2.093   1.733
 6457SOL    HW220271   6.669   2.249   1.768
 6458SOL     OW20272   1.528   5.635   3.186
 6458SOL    HW120273   1.556   5.608   3.279
 6458SOL    HW220274   1.603   5.684   3.142
 6459SOL     OW20275   6.345   4.614   0.507
 6459SOL    HW120276   6.378   4.706   0.530
 6459SOL    HW220277   6.314   4.613   0.412
 6460SOL     OW20278   3.598   4.722   6.562
 6460SOL    HW120279   3.628   4.652   6.628
 6460SOL    HW220280   3.677   4.757   6.512
 6461SOL     OW20281   3.465   4.937   5.175
 6461SOL    HW120282   3.429   4.844   5.182
 6461SOL    HW220283   3.559   4.938   5.209
 6462SOL     OW20284   1.892   3.256   4.995
 6462SOL    HW120285   1.847   3.239   5.082
 6462SOL    HW220286   1.848   3.333   4.949
 6463SOL     OW20287   2.450   4.511   6.139
 6463SOL    HW120288   2.536   4.477   6.101
 6463SOL    HW220289   2.424   4.454   6.217
 6464SOL     OW20290   0.207   5.367   3.511
 6464SOL    HW120291   0.206   5.331   3.605
 6464SOL    HW220292   0.161   5.456   3.510
 6465SOL     OW20293   6.099   1.735   3.424
 6465SOL    HW120294   6.007   1.775   3.423
 6465SOL    HW220295   6.143   1.750   3.336
 6466SOL     OW20296   0.307   2.620   5.148
 6466SOL    HW120297   0.333   2.531   5.111
 6466SOL    HW220298   0.373   2.648   5.217
 6467SOL     OW20299   2.682   1.354   6.725
 6467SOL    HW120300   2.663   1.288   6.798
 6467SOL    HW220301   2.755   1.415   6.755
 6468SOL     OW20302   4.886   5.996   1.217
 6468SOL    HW120303   4.854   5.939   1.292
 6468SOL    HW220304   4.969   6.044   1.246
 6469SOL     OW20305   6.929   0.194   5.859
 6469SOL    HW120306   6.830   0.201   5.863
 6469SOL    HW220307   6.970   0.251   5.930
 6470SOL     OW20308   5.991   6.610   5.898
 6470SOL    HW120309   5.927   6.639   5.827
 6470SOL    HW220310   5.973   6.660   5.983
 6471SOL     OW20311   6.590   4.797   6.940
 6471SOL    HW120312   6.598   4.730   6.866
 6471SOL    HW220313   6.564   4.750   0.006
 6472SOL     OW20314   1.156   6.703   1.896
 6472SOL    HW120315   1.111   6.730   1.811
 6472SOL    HW220316   1.143   6.775   1.965
 6473SOL     OW20317   1.916   1.263   6.483
 6473SOL    HW120318   1.820   1.241   6.464
 6473SOL    HW220319   1.970   1.244   6.401
 6474SOL     OW20320   1.444   3.516   5.801
 6474SOL    HW120321   1.522   3.481   5.853
 6474SOL    HW220322   1.477   3.565   5.720
 6475SOL     OW20323   5.162   6.618   3.984
 6475SOL    HW120324   5.227   6.583   4.051
 6475SOL    HW220325   5.154   6.717   3.993
 6476SOL     OW20326   4.569   4.470   2.867
 6476SOL    HW120327   4.550   4.495   2.772
 6476SOL    HW220328   4.563   4.552   2.924
 6477SOL     OW20329   6.725   5.552   0.105
 6477SOL    HW120330   6.673   5.624   0.060
 6477SOL    HW220331   6.682   5.463   0.089
 6478SOL     OW20332   4.504   6.266   1.950
 6478SOL    HW120333   4.588   6.228   1.912
 6478SOL    HW220334   4.504   6.254   2.050
 6479SOL     OW20335   4.393   5.372   2.012
 6479SOL    HW120336   4.369   5.453   2.065
 6479SOL    HW220337   4.470   5.325   2.057
 6480SOL     OW20338   2.897   2.933   6.783
 6480SOL    HW120339   2.833   2.987   6.837
 6480SOL    HW220340   2.848   2.888   6.708
 6481SOL     OW20341   3.828   0.734   1.265
 6481SOL    HW120342   3.871   0.656   1.309
 6481SOL    HW220343   3.774   0.704   1.187
 6482SOL     OW20344   6.853   0.460   6.670
 6482SOL    HW120345   6.876   0.438   6.764
 6482SOL    HW220346   6.924   0.425   6.609
 6483SOL     OW20347   1.426   6.799   2.191
 6483SOL    HW120348   1.331   6.808   2.161
 6483SOL    HW220349   1.486   6.801   2.112
 6484SOL     OW20350   4.910   0.612   2.794
 6484SOL    HW120351   4.967   0.529   2.793
 6484SOL    HW220352   4.860   0.618   2.880
 6485SOL     OW20353   1.684   2.388   3.616
 6485SOL    HW120354   1.658   2.462   3.553
 6485SOL    HW220355   1.771   2.411   3.660
 6486SOL     OW20356   1.538   3.504   3.632
 6486SOL    HW120357   1.548   3.518   3.731
 6486SOL    HW220358   1.595   3.428   3.602
 6487SOL     OW20359   6.283   6.817   4.316
 6487SOL    HW120360   6.339   6.877   4.259
 6487SOL    HW220361   6.250   6.868   4.396
 6488SOL     OW20362   2.887   5.343   6.017
 6488SOL    HW120363   2.903   5.293   6.102
 6488SOL    HW220364   2.911   5.440   6.030
 6489SOL     OW20365   1.636   2.047   5.851
 6489SOL    HW120366   1.624   2.052   5.752
 6489SOL    HW220367   1.700   2.117   5.881
 6490SOL     OW20368   3.473   1.763   0.495
 6490SOL    HW120369   3.478   1.862   0.510
 6490SOL    HW220370   3.448   1.717   0.580
 6491SOL     OW20371   4.638   1.217   6.373
 6491SOL    HW120372   4.561   1.153   6.374
 6491SOL    HW220373   4.695   1.199   6.292
 6492SOL     OW20374   6.246   6.468   0.603
 6492SOL    HW120375   6.319   6.532   0.625
 6492SOL    HW220376   6.284   6.386   0.561
 6493SOL     OW20377   2.095   6.684   6.440
 6493SOL    HW120378   2.044   6.770   6.440
 6493SOL    HW220379   2.039   6.611   6.480
 6494SOL     OW20380   1.181   0.494   3.584
 6494SOL    HW120381   1.147   0.538   3.667
 6494SOL    HW220382   1.168   0.395   3.591
 6495SOL     OW20383   5.235   4.645   2.773
 6495SOL    HW120384   5.156   4.707   2.766
 6495SOL    HW220385   5.217   4.563   2.719
 6496SOL     OW20386   0.842   6.658   2.033
 6496SOL    HW120387   0.878   6.575   2.075
 6496SOL    HW220388   0.805   6.719   2.104
 6497SOL     OW20389   1.740   4.013   0.189
 6497SOL    HW120390   1.719   4.043   0.095
 6497SOL    HW220391   1.774   4.091   0.241
 6498SOL     OW20392   2.167   3.797   4.314
 6498SOL    HW120393   2.178   3.896   4.302
 6498SOL    HW220394   2.204   3.770   4.403
 6499SOL     OW20395   4.762   1.378   4.520
 6499SOL    HW120396   4.736   1.464   4.477
 6499SOL    HW220397   4.739   1.301   4.460
 6500SOL     OW20398   5.187   4.490   3.540
 6500SOL    HW120399   5.185   4.452   3.448
 6500SOL    HW220400   5.110   4.453   3.593
 6501SOL     OW20401   6.073   3.868   0.991
 6501SOL    HW120402   6.095   3.906   0.901
 6501SOL    HW220403   6.044   3.773   0.981
 6502SOL     OW20404   1.042   4.918   3.522
 6502SOL    HW120405   1.095   4.963   3.450
 6502SOL    HW220406   0.963   4.872   3.481
 6503SOL     OW20407   5.529   6.918   4.825
 6503SOL    HW120408   5.508   7.014   4.844
 6503SOL    HW220409   5.444   6.866   4.824
 6504SOL     OW20410   3.489   0.997   0.663
 6504SOL    HW120411   3.492   0.899   0.640
 6504SOL    HW220412   3.402   1.035   0.633
 6505SOL     OW20413   5.642   4.539   0.974
 6505SOL    HW120414   5.688   4.619   1.014
 6505SOL    HW220415   5.545   4.558   0.963
 6506SOL     OW20416   1.617   3.522   0.803
 6506SOL    HW120417   1.627   3.469   0.888
 6506SOL    HW220418   1.659   3.612   0.816
 6507SOL     OW20419   2.274   6.117   1.453
 6507SOL    HW120420   2.183   6.076   1.464
 6507SOL    HW220421   2.279   6.164   1.365
 6508SOL     OW20422   2.291   1.973   3.376
 6508SOL    HW120423   2.244   1.903   3.430
 6508SOL    HW220424   2.333   1.930   3.296
 6509SOL     OW20425   1.338   2.425   4.442
 6509SOL    HW120426   1.257   2.388   4.486
 6509SOL    HW220427   1.330   2.525   4.435
 6510SOL     OW20428   6.307   5.087   6.774
 6510SOL    HW120429   6.399   5.123   6.760
 6510SOL    HW220430   6.312   4.990   6.797
 6511SOL     OW20431   6.569   6.260   6.023
 6511SOL    HW120432   6.614   6.310   6.097
 6511SOL    HW220433   6.470   6.263   6.036
 6512SOL     OW20434   4.826   6.895   2.842
 6512SOL    HW120435   4.834   6.980   2.790
 6512SOL    HW220436   4.914   6.847   2.839
 6513SOL     OW20437   4.119   6.200   3.518
 6513SOL    HW120438   4.210   6.157   3.512
 6513SOL    HW220439   4.121   6.288   3.472
 6514SOL     OW20440   3.978   0.431   4.080
 6514SOL    HW120441   4.045   0.454   4.010
 6514SOL    HW220442   3.992   0.489   4.160
 6515SOL     OW20443   0.171   6.488   4.964
 6515SOL    HW120444   0.207   6.507   4.873
 6515SOL    HW220445   0.087   6.433   4.956
 6516SOL     OW20446   1.071   1.883   5.969
 6516SOL    HW120447   1.133   1.807   5.952
 6516SOL    HW220448   1.117   1.951   6.027
 6517SOL     OW20449   0.824   1.333   0.215
 6517SOL    HW120450   0.881   1.406   0.252
 6517SOL    HW220451   0.746   1.317   0.276
 6518SOL     OW20452   0.071   6.245   1.138
 6518SOL    HW120453   7.009   6.187   1.130
 6518SOL    HW220454   0.152   6.194   1.110
 6519SOL     OW20455   2.395   1.690   4.299
 6519SOL    HW120456   2.303   1.722   4.322
 6519SOL    HW220457   2.412   1.603   4.346
 6520SOL     OW20458   6.128   5.941   1.944
 6520SOL    HW120459   6.198   5.968   2.010
 6520SOL    HW220460   6.076   6.021   1.916
 6521SOL     OW20461   0.661   1.993   4.789
 6521SOL    HW120462   0.705   1.912   4.748
 6521SOL    HW220463   0.562   1.986   4.779
 6522SOL     OW20464   2.372   5.524   6.517
 6522SOL    HW120465   2.357   5.432   6.554
 6522SOL    HW220466   2.445   5.569   6.569
 6523SOL     OW20467   2.179   1.493   6.477
 6523SOL    HW120468   2.090   1.521   6.515
 6523SOL    HW220469   2.177   1.500   6.378
 6524SOL     OW20470   3.709   3.430   3.279
 6524SOL    HW120471   3.662   3.442   3.366
 6524SOL    HW220472   3.700   3.513   3.224
 6525SOL     OW20473   0.642   2.717   3.193
 6525SOL    HW120474   0.685   2.794   3.240
 6525SOL    HW220475   0.616   2.647   3.259
 6526SOL     OW20476   1.417   5.713   5.112
 6526SOL    HW120477   1.366   5.734   5.195
 6526SOL    HW220478   1.356   5.719   5.033
 6527SOL     OW20479   1.278   6.747   4.601
 6527SOL    HW120480   1.354   6.689   4.569
 6527SOL    HW220481   1.279   6.751   4.701
 6528SOL     OW20482   0.238   1.547   4.650
 6528SOL    HW120483   0.243   1.636   4.695
 6528SOL    HW220484   0.219   1.476   4.718
 6529SOL     OW20485   6.543   1.299   1.926
 6529SOL    HW120486   6.565   1.386   1.970
 6529SOL    HW220487   6.460   1.262   1.967
 6530SOL     OW20488   6.543   2.056   0.528
 6530SOL    HW120489   6.508   2.050   0.622
 6530SOL    HW220490   6.641   2.073   0.531
 6531SOL     OW20491   5.373   3.274   3.816
 6531SOL    HW120492   5.395   3.366   3.850
 6531SOL    HW220493   5.281   3.249   3.845
 6532SOL     OW20494   6.805   1.425   6.499
 6532SOL    HW120495   6.825   1.375   6.414
 6532SOL    HW220496   6.822   1.523   6.485
 6533SOL     OW20497   4.938   6.986   0.908
 6533SOL    HW120498   4.968   0.053   0.867
 6533SOL    HW220499   4.966   6.983   1.004
 6534SOL     OW20500   2.327   3.856   1.398
 6534SOL    HW120501   2.263   3.931   1.416
 6534SOL    HW220502   2.396   3.886   1.333
 6535SOL     OW20503   0.743   3.719   5.710
 6535SOL    HW120504   0.808   3.730   5.634
 6535SOL    HW220505   0.789   3.736   5.796
 6536SOL     OW20506   5.704   1.834   0.141
 6536SOL    HW120507   5.785   1.783   0.111
 6536SOL    HW220508   5.729   1.896   0.216
 6537SOL     OW20509   0.656   6.599   0.257
 6537SOL    HW120510   0.603   6.681   0.236
 6537SOL    HW220511   0.616   6.520   0.209
 6538SOL     OW20512   3.092   3.559   0.135
 6538SOL    HW120513   3.036   3.610   0.070
 6538SOL    HW220514   3.043   3.479   0.168
 6539SOL     OW20515   2.753   1.883   6.917
 6539SOL    HW120516   2.665   1.858   6.958
 6539SOL    HW220517   2.805   1.939   6.981
 6540SOL     OW20518   3.051   0.984   4.540
 6540SOL    HW120519   3.103   1.057   4.495
 6540SOL    HW220520   3.036   0.910   4.475
 6541SOL     OW20521   2.551   2.291   5.901
 6541SOL    HW120522   2.591   2.283   5.993
 6541SOL    HW220523   2.604   2.235   5.837
 6542SOL     OW20524   6.738   4.582   3.415
 6542SOL    HW120525   6.734   4.521   3.337
 6542SOL    HW220526   6.820   4.562   3.470
 6543SOL     OW20527   5.901   6.137   6.767
 6543SOL    HW120528   5.889   6.040   6.750
 6543SOL    HW220529   5.922   6.151   6.864
 6544SOL     OW20530   6.937   6.334   4.121
 6544SOL    HW120531   6.856   6.314   4.065
 6544SOL    HW220532   7.011   6.273   4.095
 6545SOL     OW20533   5.222   1.644   5.817
 6545SOL    HW120534   5.316   1.619   5.793
 6545SOL    HW220535   5.174   1.674   5.735
 6546SOL     OW20536   3.052   4.915   5.882
 6546SOL    HW120537   3.084   5.010   5.883
 6546SOL    HW220538   3.047   4.880   5.976
 6547SOL     OW20539   5.266   2.559   6.857
 6547SOL    HW120540   5.217   2.482   6.898
 6547SOL    HW220541   5.331   2.596   6.923
 6548SOL     OW20542   6.496   4.145   5.593
 6548SOL    HW120543   6.446   4.139   5.507
 6548SOL    HW220544   6.581   4.094   5.587
 6549SOL     OW20545   3.870   2.400   0.691
 6549SOL    HW120546   3.801   2.333   0.719
 6549SOL    HW220547   3.824   2.481   0.654
 6550SOL     OW20548   0.654   5.630   3.514
 6550SOL    HW120549   0.749   5.597   3.517
 6550SOL    HW220550   0.593   5.554   3.492
 6551SOL     OW20551   1.797   4.489   1.865
 6551SOL    HW120552   1.827   4.521   1.955
 6551SOL    HW220553   1.698   4.477   1.865
 6552SOL     OW20554   2.628   4.805   5.662
 6552SOL    HW120555   2.584   4.742   5.726
 6552SOL    HW220556   2.727   4.805   5.678
 6553SOL     OW20557   0.098   2.829   2.541
 6553SOL    HW120558   0.116   2.896   2.612
 6553SOL    HW220559   0.056   2.748   2.582
 6554SOL     OW20560   6.259   1.896   5.804
 6554SOL    HW120561   6.233   1.982   5.759
 6554SOL    HW220562   6.328   1.915   5.874
 6555SOL     OW20563   1.602   1.111   1.690
 6555SOL    HW120564   1.667   1.106   1.765
 6555SOL    HW220565   1.511   1.085   1.722
 6556SOL     OW20566   3.603   5.789   4.625
 6556SOL    HW120567   3.672   5.853   4.592
 6556SOL    HW220568   3.524   5.840   4.660
 6557SOL     OW20569   5.892   5.609   1.186
 6557SOL    HW120570   5.833   5.529   1.200
 6557SOL    HW220571   5.988   5.582   1.195
 6558SOL     OW20572   5.937   5.863   6.697
 6558SOL    HW120573   5.935   5.828   6.791
 6558SOL    HW220574   6.032   5.865   6.665
 6559SOL     OW20575   4.740   4.097   1.211
 6559SOL    HW120576   4.753   4.190   1.245
 6559SOL    HW220577   4.823   4.067   1.164
 6560SOL     OW20578   3.843   2.762   0.345
 6560SOL    HW120579   3.923   2.819   0.324
 6560SOL    HW220580   3.759   2.816   0.332
 6561SOL     OW20581   3.970   3.501   3.278
 6561SOL    HW120582   3.876   3.473   3.255
 6561SOL    HW220583   3.971   3.595   3.309
 6562SOL     OW20584   6.623   4.814   5.900
 6562SOL    HW120585   6.550   4.870   5.938
 6562SOL    HW220586   6.594   4.776   5.812
 6563SOL     OW20587   0.783   5.748   1.504
 6563SOL    HW120588   0.876   5.763   1.473
 6563SOL    HW220589   0.725   5.723   1.426
 6564SOL     OW20590   1.454   4.571   1.792
 6564SOL    HW120591   1.491   4.479   1.797
 6564SOL    HW220592   1.359   4.568   1.760
 6565SOL     OW20593   7.006   3.078   5.164
 6565SOL    HW120594   6.987   3.077   5.066
 6565SOL    HW220595   0.077   3.039   5.181
 6566SOL     OW20596   3.231   6.653   0.988
 6566SOL    HW120597   3.326   6.683   0.999
 6566SOL    HW220598   3.227   6.553   0.990
 6567SOL     OW20599   5.067   2.598   0.711
 6567SOL    HW120600   4.985   2.631   0.758
 6567SOL    HW220601   5.065   2.628   0.616
 6568SOL     OW20602   4.701   4.438   1.852
 6568SOL    HW120603   4.645   4.397   1.924
 6568SOL    HW220604   4.718   4.371   1.780
 6569SOL     OW20605   1.766   4.422   0.022
 6569SOL    HW120606   1.811   4.362   6.976
 6569SOL    HW220607   1.715   4.493   6.992
 6570SOL     OW20608   5.412   1.650   2.248
 6570SOL    HW120609   5.432   1.699   2.333
 6570SOL    HW220610   5.357   1.708   2.188
 6571SOL     OW20611   2.737   6.294   3.870
 6571SOL    HW120612   2.737   6.372   3.933
 6571SOL    HW220613   2.653   6.296   3.816
 6572SOL     OW20614   6.814   4.191   5.644
 6572SOL    HW120615   6.813   4.097   5.611
 6572SOL    HW220616   6.765   4.250   5.579
 6573SOL     OW20617   2.632   1.182   2.312
 6573SOL    HW120618   2.723   1.178   2.272
 6573SOL    HW220619   2.639   1.207   2.409
 6574SOL     OW20620   2.687   4.696   3.032
 6574SOL    HW120621   2.618   4.760   3.068
 6574SOL    HW220622   2.654   4.655   2.947
 6575SOL     OW20623   1.120   1.657   2.269
 6575SOL    HW120624   1.052   1.648   2.342
 6575SOL    HW220625   1.204   1.698   2.306
 6576SOL     OW20626   1.111   5.921   6.527
 6576SOL    HW120627   1.155   5.945   6.614
 6576SOL    HW220628   1.013   5.910   6.541
 6577SOL     OW20629   0.359   1.741   3.957
 6577SOL    HW120630   0.395   1.649   3.970
 6577SOL    HW220631   0.304   1.744   3.874
 6578SOL     OW20632   6.311   5.681   3.584
 6578SOL    HW120633   6.317   5.603   3.521
 6578SOL    HW220634   6.333   5.651   3.677
 6579SOL     OW20635   6.591   4.094   3.292
 6579SOL    HW120636   6.638   4.101   3.204
 6579SOL    HW220637   6.635   4.023   3.348
 6580SOL     OW20638   5.634   1.335   1.981
 6580SOL    HW120639   5.694   1.396   1.928
 6580SOL    HW220640   5.607   1.258   1.924
 6581SOL     OW20641   3.863   2.142   6.850
 6581SOL    HW120642   3.895   2.184   6.765
 6581SOL    HW220643   3.795   2.072   6.828
 6582SOL     OW20644   6.666   6.765   2.533
 6582SOL    HW120645   6.627   6.776   2.442
 6582SOL    HW220646   6.745   6.824   2.544
 6583SOL     OW20647   5.173   0.987   5.892
 6583SOL    HW120648   5.190   0.986   5.794
 6583SOL    HW220649   5.217   0.908   5.935
 6584SOL     OW20650   5.951   1.985   0.051
 6584SOL    HW120651   5.924   1.888   0.047
 6584SOL    HW220652   6.036   1.998   0.001
 6585SOL     OW20653   0.925   1.752   6.612
 6585SOL    HW120654   0.861   1.705   6.551
 6585SOL    HW220655   1.012   1.702   6.614
 6586SOL     OW20656   6.221   1.915   6.133
 6586SOL    HW120657   6.179   1.967   6.058
 6586SOL    HW220658   6.269   1.836   6.096
 6587SOL     OW20659   2.188   5.887   3.508
 6587SOL    HW120660   2.245   5.969   3.509
 6587SOL    HW220661   2.093   5.912   3.527
 6588SOL     OW20662   1.577   3.027   6.705
 6588SOL    HW120663   1.589   3.027   6.605
 6588SOL    HW220664   1.528   3.110   6.732
 6589SOL     OW20665   4.809   1.393   6.008
 6589SOL    HW120666   4.833   1.417   5.914
 6589SOL    HW220667   4.884   1.421   6.069
 6590SOL     OW20668   7.004   0.911   5.167
 6590SOL    HW120669   0.017   0.950   5.081
 6590SOL    HW220670   6.932   0.969   5.205
 6591SOL     OW20671   6.269   0.085   3.149
 6591SOL    HW120672   6.283   0.140   3.066
 6591SOL    HW220673   6.180   0.108   3.190
 6592SOL     OW20674   4.836   6.334   4.087
 6592SOL    HW120675   4.918   6.277   4.084
 6592SOL    HW220676   4.756   6.278   4.104
 6593SOL     OW20677   3.579   1.732   3.187
 6593SOL    HW120678   3.489   1.710   3.147
 6593SOL    HW220679   3.567   1.761   3.282
 6594SOL     OW20680   4.959   0.403   0.013
 6594SOL    HW120681   5.057   0.416   7.017
 6594SOL    HW220682   4.943   0.374   0.107
 6595SOL     OW20683   1.727   3.785   0.811
 6595SOL    HW120684   1.746   3.821   0.902
 6595SOL    HW220685   1.652   3.837   0.770
 6596SOL     OW20686   4.505   6.977   5.032
 6596SOL    HW120687   4.413   6.947   5.007
 6596SOL    HW220688   4.565   6.972   4.952
 6597SOL     OW20689   0.181   6.179   4.808
 6597SOL    HW120690   0.155   6.159   4.713
 6597SOL    HW220691   0.111   6.234   4.852
 6598SOL     OW20692   1.725   5.989   5.079
 6598SOL    HW120693   1.804   6.023   5.129
 6598SOL    HW220694   1.745   5.988   4.981
 6599SOL     OW20695   4.278   5.469   5.719
 6599SOL    HW120696   4.349   5.399   5.720
 6599SOL    HW220697   4.193   5.430   5.755
 6600SOL     OW20698   4.609   5.697   3.917
 6600SOL    HW120699   4.672   5.701   3.994
 6600SOL    HW220700   4.579   5.602   3.903
 6601SOL     OW20701   0.499   0.461   0.298
 6601SOL    HW120702   0.405   0.430   0.290
 6601SOL    HW220703   0.530   0.497   0.210
 6602SOL     OW20704   6.594   1.332   1.572
 6602SOL    HW120705   6.613   1.243   1.612
 6602SOL    HW220706   6.633   1.404   1.630
 6603SOL     OW20707   2.134   3.810   2.995
 6603SOL    HW120708   2.201   3.879   3.025
 6603SOL    HW220709   2.082   3.846   2.917
 6604SOL     OW20710   3.060   5.281   2.556
 6604SOL    HW120711   3.121   5.335   2.613
 6604SOL    HW220712   2.967   5.284   2.593
 6605SOL     OW20713   5.612   5.618   6.989
 6605SOL    HW120714   5.700   5.654   6.958
 6605SOL    HW220715   5.572   5.561   6.917
 6606SOL     OW20716   5.577   0.821   2.339
 6606SOL    HW120717   5.564   0.811   2.437
 6606SOL    HW220718   5.509   0.885   2.303
 6607SOL     OW20719   2.179   1.222   1.927
 6607SOL    HW120720   2.110   1.281   1.968
 6607SOL    HW220721   2.258   1.277   1.898
 6608SOL     OW20722   5.642   3.947   3.829
 6608SOL    HW120723   5.571   4.017   3.831
 6608SOL    HW220724   5.656   3.911   3.922
 6609SOL     OW20725   5.211   0.806   6.425
 6609SOL    HW120726   5.162   0.743   6.365
 6609SOL    HW220727   5.164   0.813   6.513
 6610SOL     OW20728   2.299   0.703   0.456
 6610SOL    HW120729   2.303   0.743   0.547
 6610SOL    HW220730   2.207   0.669   0.438
 6611SOL     OW20731   6.024   2.068   3.281
 6611SOL    HW120732   6.008   2.030   3.372
 6611SOL    HW220733   6.081   2.150   3.288
 6612SOL     OW20734   1.446   6.638   0.120
 6612SOL    HW120735   1.492   6.723   0.148
 6612SOL    HW220736   1.347   6.651   0.126
 6613SOL     OW20737   4.963   5.002   2.188
 6613SOL    HW120738   4.961   4.989   2.287
 6613SOL    HW220739   4.943   5.097   2.166
 6614SOL     OW20740   5.023   5.862   6.204
 6614SOL    HW120741   5.011   5.763   6.217
 6614SOL    HW220742   5.087   5.897   6.272
 6615SOL     OW20743   0.548   3.922   5.386
 6615SOL    HW120744   0.522   3.947   5.292
 6615SOL    HW220745   0.621   3.854   5.383
 6616SOL     OW20746   5.142   1.541   5.066
 6616SOL    HW120747   5.125   1.453   5.021
 6616SOL    HW220748   5.240   1.562   5.062
 6617SOL     OW20749   3.057   7.004   4.947
 6617SOL    HW120750   2.969   7.017   4.901
 6617SOL    HW220751   3.044   6.950   5.030
 6618SOL     OW20752   1.242   4.577   2.076
 6618SOL    HW120753   1.237   4.653   2.011
 6618SOL    HW220754   1.152   4.532   2.081
 6619SOL     OW20755   4.561   5.954   3.144
 6619SOL    HW120756   4.508   5.970   3.061
 6619SOL    HW220757   4.637   6.019   3.148
 6620SOL     OW20758   1.078   2.751   5.826
 6620SOL    HW120759   1.051   2.834   5.777
 6620SOL    HW220760   1.164   2.716   5.788
 6621SOL     OW20761   2.788   4.475   6.821
 6621SOL    HW120762   2.739   4.523   6.748
 6621SOL    HW220763   2.731   4.401   6.857
 6622SOL     OW20764   6.188   5.759   0.266
 6622SOL    HW120765   6.261   5.691   0.263
 6622SOL    HW220766   6.213   5.832   0.329
 6623SOL     OW20767   3.482   3.040   2.259
 6623SOL    HW120768   3.508   3.037   2.163
 6623SOL    HW220769   3.557   3.006   2.315
 6624SOL     OW20770   4.192   5.594   4.395
 6624SOL    HW120771   4.113   5.596   4.457
 6624SOL    HW220772   4.265   5.651   4.433
 6625SOL     OW20773   6.568   0.389   6.783
 6625SOL    HW120774   6.563   0.311   6.721
 6625SOL    HW220775   6.654   0.438   6.769
 6626SOL     OW20776   3.110   5.490   3.116
 6626SOL    HW120777   3.117   5.449   3.025
 6626SOL    HW220778   3.014   5.505   3.139
 6627SOL     OW20779   1.912   0.722   6.858
 6627SOL    HW120780   1.950   0.770   6.937
 6627SOL    HW220781   1.887   0.789   6.788
 6628SOL     OW20782   4.273   5.843   2.907
 6628SOL    HW120783   4.292   5.916   2.841
 6628SOL    HW220784   4.300   5.755   2.869
 6629SOL     OW20785   3.813   5.540   1.094
 6629SOL    HW120786   3.799   5.520   0.997
 6629SOL    HW220787   3.910   5.538   1.115
 6630SOL     OW20788   2.841   2.148   0.559
 6630SOL    HW120789   2.747   2.115   0.551
 6630SOL    HW220790   2.901   2.073   0.586
 6631SOL     OW20791   5.028   0.718   2.553
 6631SOL    HW120792   5.086   0.791   2.590
 6631SOL    HW220793   5.021   0.644   2.620
 6632SOL     OW20794   0.171   0.678   0.168
 6632SOL    HW120795   0.219   0.721   0.244
 6632SOL    HW220796   0.223   0.693   0.083
 6633SOL     OW20797   1.758   6.375   0.699
 6633SOL    HW120798   1.789   6.353   0.792
 6633SOL    HW220799   1.663   6.346   0.689
 6634SOL     OW20800   6.381   2.698   5.851
 6634SOL    HW120801   6.479   2.691   5.837
 6634SOL    HW220802   6.361   2.710   5.948
 6635SOL     OW20803   4.455   5.166   3.945
 6635SOL    HW120804   4.430   5.164   3.849
 6635SOL    HW220805   4.517   5.090   3.965
 6636SOL     OW20806   1.626   2.648   4.281
 6636SOL    HW120807   1.533   2.676   4.305
 6636SOL    HW220808   1.623   2.572   4.216
 6637SOL     OW20809   0.550   6.927   0.855
 6637SOL    HW120810   0.514   6.839   0.824
 6637SOL    HW220811   0.648   6.920   0.871
 6638SOL     OW20812   2.134   6.103   6.056
 6638SOL    HW120813   2.070   6.112   5.979
 6638SOL    HW220814   2.227   6.120   6.024
 6639SOL     OW20815   6.031   4.925   6.767
 6639SOL    HW120816   6.027   5.014   6.814
 6639SOL    HW220817   5.992   4.854   6.827
 6640SOL     OW20818   6.651   2.218   3.619
 6640SOL    HW120819   6.714   2.144   3.596
 6640SOL    HW220820   6.641   2.278   3.540
 6641SOL     OW20821   2.026   3.955   6.360
 6641SOL    HW120822   2.089   3.949   6.283
 6641SOL    HW220823   2.077   3.977   6.443
 6642SOL     OW20824   0.991   5.909   6.063
 6642SOL    HW120825   1.005   5.813   6.042
 6642SOL    HW220826   1.008   5.964   5.981
 6643SOL     OW20827   5.510   4.292   6.270
 6643SOL    HW120828   5.558   4.298   6.358
 6643SOL    HW220829   5.443   4.218   6.273
 6644SOL     OW20830   3.007   4.821   1.963
 6644SOL    HW120831   2.952   4.739   1.981
 6644SOL    HW220832   3.047   4.854   2.048
 6645SOL     OW20833   0.144   4.812   5.822
 6645SOL    HW120834   0.194   4.729   5.848
 6645SOL    HW220835   0.128   4.812   5.724
 6646SOL     OW20836   2.791   5.800   4.100
 6646SOL    HW120837   2.751   5.891   4.113
 6646SOL    HW220838   2.717   5.733   4.087
 6647SOL     OW20839   3.167   1.136   2.112
 6647SOL    HW120840   3.214   1.059   2.156
 6647SOL    HW220841   3.204   1.149   2.020
 6648SOL     OW20842   4.800   6.116   2.617
 6648SOL    HW120843   4.796   6.040   2.681
 6648SOL    HW220844   4.722   6.112   2.554
 6649SOL     OW20845   4.644   1.761   6.340
 6649SOL    HW120846   4.737   1.760   6.305
 6649SOL    HW220847   4.580   1.741   6.266
 6650SOL     OW20848   4.088   1.287   4.201
 6650SOL    HW120849   4.051   1.194   4.201
 6650SOL    HW220850   4.020   1.351   4.165
 6651SOL     OW20851   0.561   2.616   7.004
 6651SOL    HW120852   0.527   2.591   6.914
 6651SOL    HW220853   0.634   2.684   6.994
 6652SOL     OW20854   0.577   5.866   1.885
 6652SOL    HW120855   0.478   5.877   1.894
 6652SOL    HW220856   0.597   5.799   1.814
 6653SOL     OW20857   3.836   3.770   4.130
 6653SOL    HW120858   3.812   3.696   4.193
 6653SOL    HW220859   3.907   3.737   4.067
 6654SOL     OW20860   2.190   3.344   1.659
 6654SOL    HW120861   2.193   3.245   1.675
 6654SOL    HW220862   2.257   3.390   1.717
 6655SOL     OW20863   2.726   6.501   2.070
 6655SOL    HW120864   2.696   6.585   2.116
 6655SOL    HW220865   2.751   6.433   2.139
 6656SOL     OW20866   6.342   1.450   1.535
 6656SOL    HW120867   6.414   1.382   1.536
 6656SOL    HW220868   6.361   1.519   1.465
 6657SOL     OW20869   3.413   6.470   6.577
 6657SOL    HW120870   3.348   6.417   6.522
 6657SOL    HW220871   3.493   6.413   6.598
 6658SOL     OW20872   6.138   1.422   4.795
 6658SOL    HW120873   6.107   1.380   4.710
 6658SOL    HW220874   6.209   1.489   4.774
 6659SOL     OW20875   2.259   3.630   0.379
 6659SOL    HW120876   2.348   3.627   0.425
 6659SOL    HW220877   2.248   3.548   0.322
 6660SOL     OW20878   6.970   6.757   2.636
 6660SOL    HW120879   6.961   6.856   2.621
 6660SOL    HW220880   7.019   6.741   2.722
 6661SOL     OW20881   6.923   5.633   3.996
 6661SOL    HW120882   6.873   5.616   3.912
 6661SOL    HW220883   6.998   5.697   3.977
 6662SOL     OW20884   2.088   1.662   0.113
 6662SOL    HW120885   2.043   1.576   0.090
 6662SOL    HW220886   2.187   1.650   0.110
 6663SOL     OW20887   0.553   5.991   2.195
 6663SOL    HW120888   0.550   5.935   2.113
 6663SOL    HW220889   0.469   5.979   2.247
 6664SOL     OW20890   1.630   0.580   2.346
 6664SOL    HW120891   1.662   0.559   2.438
 6664SOL    HW220892   1.709   0.599   2.287
 6665SOL     OW20893   1.659   6.226   3.044
 6665SOL    HW120894   1.663   6.200   2.947
 6665SOL    HW220895   1.737   6.285   3.065
 6666SOL     OW20896   6.352   0.716   6.148
 6666SOL    HW120897   6.448   0.698   6.126
 6666SOL    HW220898   6.323   0.801   6.106
 6667SOL     OW20899   0.157   5.118   5.437
 6667SOL    HW120900   0.132   5.176   5.360
 6667SOL    HW220901   0.257   5.119   5.448
 6668SOL     OW20902   0.971   4.477   2.004
 6668SOL    HW120903   0.946   4.552   1.943
 6668SOL    HW220904   0.997   4.397   1.949
 6669SOL     OW20905   1.897   6.099   3.270
 6669SOL    HW120906   1.865   6.182   3.225
 6669SOL    HW220907   1.947   6.042   3.204
 6670SOL     OW20908   3.158   5.278   6.610
 6670SOL    HW120909   3.129   5.361   6.562
 6670SOL    HW220910   3.092   5.258   6.682
 6671SOL     OW20911   6.519   3.427   6.068
 6671SOL    HW120912   6.462   3.347   6.046
 6671SOL    HW220913   6.601   3.426   6.010
 6672SOL     OW20914   0.937   0.551   5.625
 6672SOL    HW120915   0.945   0.514   5.532
 6672SOL    HW220916   0.907   0.479   5.687
 6673SOL     OW20917   4.757   5.080   1.978
 6673SOL    HW120918   4.683   5.146   1.988
 6673SOL    HW220919   4.778   5.038   2.066
 6674SOL     OW20920   1.179   6.541   5.202
 6674SOL    HW120921   1.095   6.541   5.257
 6674SOL    HW220922   1.187   6.629   5.154
 6675SOL     OW20923   5.817   4.664   0.464
 6675SOL    HW120924   5.778   4.690   0.376
 6675SOL    HW220925   5.744   4.658   0.532
 6676SOL     OW20926   0.565   2.757   5.767
 6676SOL    HW120927   0.558   2.661   5.738
 6676SOL    HW220928   0.568   2.761   5.867
 6677SOL     OW20929   0.511   2.936   0.382
 6677SOL    HW120930   0.512   2.859   0.445
 6677SOL    HW220931   0.567   3.010   0.418
 6678SOL     OW20932   1.009   2.795   6.090
 6678SOL    HW120933   1.021   2.783   5.992
 6678SOL    HW220934   0.958   2.717   6.127
 6679SOL     OW20935   1.445   2.799   4.819
 6679SOL    HW120936   1.523   2.777   4.761
 6679SOL    HW220937   1.388   2.718   4.831
 6680SOL     OW20938   3.838   6.630   6.539
 6680SOL    HW120939   3.909   6.691   6.574
 6680SOL    HW220940   3.878   6.567   6.473
 6681SOL     OW20941   5.176   5.374   0.514
 6681SOL    HW120942   5.211   5.313   0.585
 6681SOL    HW220943   5.077   5.383   0.524
 6682SOL     OW20944   0.558   5.417   2.481
 6682SOL    HW120945   0.598   5.435   2.392
 6682SOL    HW220946   0.481   5.353   2.471
 6683SOL     OW20947   4.896   1.729   4.975
 6683SOL    HW120948   4.991   1.699   4.972
 6683SOL    HW220949   4.838   1.652   5.001
 6684SOL     OW20950   1.129   0.169   2.331
 6684SOL    HW120951   1.225   0.172   2.301
 6684SOL    HW220952   1.118   0.226   2.412
 6685SOL     OW20953   5.443   3.411   6.243
 6685SOL    HW120954   5.421   3.505   6.219
 6685SOL    HW220955   5.480   3.364   6.163
 6686SOL     OW20956   5.948   3.943   3.365
 6686SOL    HW120957   5.911   3.981   3.450
 6686SOL    HW220958   6.007   4.011   3.321
 6687SOL     OW20959   1.495   1.689   1.112
 6687SOL    HW120960   1.421   1.753   1.134
 6687SOL    HW220961   1.543   1.663   1.196
 6688SOL     OW20962   0.597   4.391   2.734
 6688SOL    HW120963   0.545   4.358   2.655
 6688SOL    HW220964   0.671   4.327   2.754
 6689SOL     OW20965   5.128   4.460   0.078
 6689SOL    HW120966   5.066   4.523   0.034
 6689SOL    HW220967   5.077   4.397   0.137
 6690SOL     OW20968   2.263   3.463   1.078
 6690SOL    HW120969   2.172   3.478   1.039
 6690SOL    HW220970   2.282   3.365   1.080
 6691SOL     OW20971   2.555   5.330   1.965
 6691SOL    HW120972   2.602   5.418   1.977
 6691SOL    HW220973   2.545   5.311   1.868
 6692SOL     OW20974   2.999   4.192   5.243
 6692SOL    HW120975   3.062   4.191   5.320
 6692SOL    HW220976   2.983   4.286   5.214
 6693SOL     OW20977   4.330   3.654   5.425
 6693SOL    HW120978   4.344   3.587   5.497
 6693SOL    HW220979   4.279   3.612   5.350
 6694SOL     OW20980   4.674   6.147   0.584
 6694SOL    HW120981   4.715   6.119   0.497
 6694SOL    HW220982   4.744   6.190   0.642
 6695SOL     OW20983   1.149   1.634   6.680
 6695SOL    HW120984   1.192   1.718   6.712
 6695SOL    HW220985   1.138   1.571   6.758
 6696SOL     OW20986   2.005   3.443   1.881
 6696SOL    HW120987   2.080   3.481   1.934
 6696SOL    HW220988   2.040   3.373   1.818
 6697SOL     OW20989   4.440   1.776   2.831
 6697SOL    HW120990   4.343   1.755   2.842
 6697SOL    HW220991   4.473   1.740   2.744
 6698SOL     OW20992   4.030   3.618   6.818
 6698SOL    HW120993   3.975   3.600   6.736
 6698SOL    HW220994   4.049   3.532   6.865
 6699SOL     OW20995   2.168   4.833   0.133
 6699SOL    HW120996   2.149   4.739   0.158
 6699SOL    HW220997   2.109   4.895   0.185
 6700SOL     OW20998   0.173   6.276   0.829
 6700SOL    HW120999   0.253   6.337   0.827
 6700SOL    HW221000   0.165   6.235   0.920
 6701SOL     OW21001   0.486   1.805   0.453
 6701SOL    HW121002   0.511   1.810   0.356
 6701SOL    HW221003   0.551   1.857   0.507
 6702SOL     OW21004   2.458   1.414   1.189
 6702SOL    HW121005   2.394   1.448   1.120
 6702SOL    HW221006   2.513   1.490   1.225
 6703SOL     OW21007   6.792   1.524   6.788
 6703SOL    HW121008   6.779   1.485   6.880
 6703SOL    HW221009   6.704   1.557   6.754
 6704SOL     OW21010   4.650   2.736   2.516
 6704SOL    HW121011   4.730   2.739   2.457
 6704SOL    HW221012   4.677   2.753   2.611
 6705SOL     OW21013   6.021   2.184   0.969
 6705SOL    HW121014   6.014   2.119   0.893
 6705SOL    HW221015   6.107   2.234   0.963
 6706SOL     OW21016   0.819   4.067   6.636
 6706SOL    HW121017   0.736   4.031   6.593
 6706SOL    HW221018   0.861   3.995   6.692
 6707SOL     OW21019   0.888   5.349   3.582
 6707SOL    HW121020   0.983   5.319   3.591
 6707SOL    HW221021   0.830   5.292   3.639
 6708SOL     OW21022   2.401   6.048   2.145
 6708SOL    HW121023   2.302   6.054   2.130
 6708SOL    HW221024   2.419   5.991   2.225
 6709SOL     OW21025   4.057   0.997   2.052
 6709SOL    HW121026   4.112   0.939   1.992
 6709SOL    HW221027   3.990   0.941   2.100
 6710SOL     OW21028   3.151   2.597   0.166
 6710SOL    HW121029   3.235   2.632   0.208
 6710SOL    HW221030   3.090   2.673   0.143
 6711SOL     OW21031   4.064   3.813   0.292
 6711SOL    HW121032   3.995   3.753   0.334
 6711SOL    HW221033   4.083   3.781   0.199
 6712SOL     OW21034   3.634   6.138   0.393
 6712SOL    HW121035   3.636   6.221   0.337
 6712SOL    HW221036   3.700   6.072   0.356
 6713SOL     OW21037   1.445   2.466   1.545
 6713SOL    HW121038   1.463   2.556   1.584
 6713SOL    HW221039   1.522   2.439   1.486
 6714SOL     OW21040   5.683   0.600   4.262
 6714SOL    HW121041   5.697   0.554   4.350
 6714SOL    HW221042   5.587   0.594   4.236
 6715SOL     OW21043   0.324   1.175   0.540
 6715SOL    HW121044   0.235   1.133   0.523
 6715SOL    HW221045   0.390   1.141   0.473
 6716SOL     OW21046   2.200   5.532   1.421
 6716SOL    HW121047   2.290   5.566   1.447
 6716SOL    HW221048   2.169   5.581   1.339
 6717SOL     OW21049   4.354   2.115   0.260
 6717SOL    HW121050   4.369   2.074   0.350
 6717SOL    HW221051   4.436   2.166   0.233
 6718SOL     OW21052   2.934   0.417   0.641
 6718SOL    HW121053   2.975   0.500   0.603
 6718SOL    HW221054   2.860   0.385   0.582
 6719SOL     OW21055   6.738   6.127   5.630
 6719SOL    HW121056   6.639   6.116   5.622
 6719SOL    HW221057   6.767   6.211   5.584
 6720SOL     OW21058   1.861   5.411   1.284
 6720SOL    HW121059   1.864   5.325   1.336
 6720SOL    HW221060   1.921   5.403   1.204
 6721SOL     OW21061   5.467   6.518   3.847
 6721SOL    HW121062   5.421   6.503   3.759
 6721SOL    HW221063   5.467   6.434   3.900
 6722SOL     OW21064   4.610   3.397   6.527
 6722SOL    HW121065   4.632   3.382   6.624
 6722SOL    HW221066   4.542   3.329   6.499
 6723SOL     OW21067   3.741   6.475   3.451
 6723SOL    HW121068   3.724   6.402   3.385
 6723SOL    HW221069   3.774   6.436   3.537
 6724SOL     OW21070   3.137   4.470   5.378
 6724SOL    HW121071   3.178   4.380   5.393
 6724SOL    HW221072   3.069   4.465   5.306
 6725SOL     OW21073   0.772   5.305   2.661
 6725SOL    HW121074   0.720   5.354   2.591
 6725SOL    HW221075   0.778   5.209   2.636
 6726SOL     OW21076   2.697   2.280   3.775
 6726SOL    HW121077   2.638   2.291   3.854
 6726SOL    HW221078   2.649   2.311   3.693
 6727SOL     OW21079   4.223   3.290   6.065
 6727SOL    HW121080   4.235   3.382   6.028
 6727SOL    HW221081   4.301   3.268   6.124
 6728SOL     OW21082   4.049   1.525   3.640
 6728SOL    HW121083   4.024   1.454   3.574
 6728SOL    HW221084   3.972   1.543   3.701
 6729SOL     OW21085   5.530   1.261   3.205
 6729SOL    HW121086   5.586   1.323   3.151
 6729SOL    HW221087   5.564   1.258   3.299
 6730SOL     OW21088   2.624   1.156   6.916
 6730SOL    HW121089   2.688   1.121   6.985
 6730SOL    HW221090   2.532   1.124   6.937
 6731SOL     OW21091   2.557   5.024   1.681
 6731SOL    HW121092   2.555   5.124   1.681
 6731SOL    HW221093   2.487   4.990   1.744
 6732SOL     OW21094   2.799   5.959   0.602
 6732SOL    HW121095   2.799   5.924   0.508
 6732SOL    HW221096   2.820   5.885   0.665
 6733SOL     OW21097   5.419   5.879   5.040
 6733SOL    HW121098   5.518   5.886   5.051
 6733SOL    HW221099   5.388   5.950   4.976
 6734SOL     OW21100   2.459   3.292   5.591
 6734SOL    HW121101   2.417   3.267   5.504
 6734SOL    HW221102   2.447   3.218   5.657
 6735SOL     OW21103   6.611   5.459   5.732
 6735SOL    HW121104   6.530   5.401   5.729
 6735SOL    HW221105   6.603   5.524   5.808
 6736SOL     OW21106   2.057   3.332   2.167
 6736SOL    HW121107   2.113   3.250   2.155
 6736SOL    HW221108   2.106   3.412   2.132
 6737SOL     OW21109   2.070   0.805   1.870
 6737SOL    HW121110   2.132   0.772   1.798
 6737SOL    HW221111   2.122   0.861   1.934
 6738SOL     OW21112   3.258   0.899   2.195
 6738SOL    HW121113   3.255   0.889   2.294
 6738SOL    HW221114   3.200   0.829   2.152
 6739SOL     OW21115   3.578   6.461   4.833
 6739SOL    HW121116   3.527   6.375   4.834
 6739SOL    HW221117   3.592   6.490   4.738
 6740SOL     OW21118   1.209   1.731   4.362
 6740SOL    HW121119   1.212   1.804   4.293
 6740SOL    HW221120   1.222   1.643   4.317
 6741SOL     OW21121   6.574   0.046   6.345
 6741SOL    HW121122   6.535   0.035   6.253
 6741SOL    HW221123   6.652   0.108   6.341
 6742SOL     OW21124   6.175   5.531   5.597
 6742SOL    HW121125   6.090   5.517   5.546
 6742SOL    HW221126   6.199   5.447   5.646
 6743SOL     OW21127   4.511   3.480   1.022
 6743SOL    HW121128   4.539   3.469   0.927
 6743SOL    HW221129   4.506   3.391   1.066
 6744SOL     OW21130   4.686   4.388   5.712
 6744SOL    HW121131   4.660   4.451   5.785
 6744SOL    HW221132   4.754   4.431   5.653
 6745SOL     OW21133   1.149   4.537   4.173
 6745SOL    HW121134   1.235   4.567   4.213
 6745SOL    HW221135   1.160   4.526   4.074
 6746SOL     OW21136   0.087   1.848   0.875
 6746SOL    HW121137   0.136   1.791   0.940
 6746SOL    HW221138   7.010   1.820   0.871
 6747SOL     OW21139   5.350   6.073   5.228
 6747SOL    HW121140   5.366   5.975   5.218
 6747SOL    HW221141   5.287   6.104   5.157
 6748SOL     OW21142   0.740   0.193   2.210
 6748SOL    HW121143   0.726   0.223   2.304
 6748SOL    HW221144   0.780   0.267   2.156
 6749SOL     OW21145   4.456   6.565   0.106
 6749SOL    HW121146   4.412   6.653   0.124
 6749SOL    HW221147   4.520   6.543   0.181
 6750SOL     OW21148   2.777   3.127   5.319
 6750SOL    HW121149   2.765   3.101   5.415
 6750SOL    HW221150   2.689   3.121   5.272
 6751SOL     OW21151   2.730   1.833   5.027
 6751SOL    HW121152   2.691   1.915   5.067
 6751SOL    HW221153   2.657   1.773   4.993
 6752SOL     OW21154   6.051   2.213   0.482
 6752SOL    HW121155   6.143   2.205   0.444
 6752SOL    HW221156   5.984   2.226   0.409
 6753SOL     OW21157   4.386   2.298   6.398
 6753SOL    HW121158   4.474   2.345   6.395
 6753SOL    HW221159   4.401   2.200   6.412
 6754SOL     OW21160   6.278   0.731   6.891
 6754SOL    HW121161   6.283   0.734   6.791
 6754SOL    HW221162   6.371   0.739   6.929
 6755SOL     OW21163   5.055   1.999   3.755
 6755SOL    HW121164   5.043   1.968   3.661
 6755SOL    HW221165   4.989   1.952   3.814
 6756SOL     OW21166   5.210   4.889   4.493
 6756SOL    HW121167   5.163   4.978   4.488
 6756SOL    HW221168   5.145   4.817   4.469
 6757SOL     OW21169   5.955   5.719   1.965
 6757SOL    HW121170   5.892   5.708   1.888
 6757SOL    HW221171   5.992   5.812   1.966
 6758SOL     OW21172   4.776   2.349   2.281
 6758SOL    HW121173   4.873   2.360   2.301
 6758SOL    HW221174   4.741   2.433   2.241
 6759SOL     OW21175   0.231   4.567   3.122
 6759SOL    HW121176   0.204   4.471   3.126
 6759SOL    HW221177   0.255   4.591   3.028
 6760SOL     OW21178   6.328   3.925   4.365
 6760SOL    HW121179   6.328   3.888   4.458
 6760SOL    HW221180   6.360   4.020   4.367
 6761SOL     OW21181   4.959   3.234   6.418
 6761SOL    HW121182   5.048   3.250   6.376
 6761SOL    HW221183   4.911   3.321   6.429
 6762SOL     OW21184   6.210   4.512   4.061
 6762SOL    HW121185   6.304   4.544   4.073
 6762SOL    HW221186   6.168   4.562   3.985
 6763SOL     OW21187   5.869   6.369   5.930
 6763SOL    HW121188   5.941   6.432   5.899
 6763SOL    HW221189   5.793   6.371   5.865
 6764SOL     OW21190   2.136   4.096   6.568
 6764SOL    HW121191   2.103   4.161   6.500
 6764SOL    HW221192   2.130   4.137   6.659
 6765SOL     OW21193   5.592   5.043   2.750
 6765SOL    HW121194   5.655   4.971   2.779
 6765SOL    HW221195   5.512   5.001   2.707
 6766SOL     OW21196   1.960   0.702   5.738
 6766SOL    HW121197   2.016   0.620   5.751
 6766SOL    HW221198   1.979   0.767   5.812
 6767SOL     OW21199   6.835   2.718   6.721
 6767SOL    HW121200   6.839   2.817   6.704
 6767SOL    HW221201   6.762   2.678   6.666
 6768SOL     OW21202   0.157   0.050   4.935
 6768SOL    HW121203   0.220   0.119   4.971
 6768SOL    HW221204   0.190   6.978   4.957
 6769SOL     OW21205   1.963   3.095   6.092
 6769SOL    HW121206   1.946   3.096   5.993
 6769SOL    HW221207   1.986   3.187   6.123
 6770SOL     OW21208   0.933   1.262   3.257
 6770SOL    HW121209   0.864   1.266   3.184
 6770SOL    HW221210   0.936   1.350   3.305
 6771SOL     OW21211   4.241   1.959   2.945
 6771SOL    HW121212   4.267   1.918   3.033
 6771SOL    HW221213   4.315   2.019   2.914
 6772SOL     OW21214   6.940   1.043   1.329
 6772SOL    HW121215   6.860   1.103   1.340
 6772SOL    HW221216   6.968   1.044   1.233
 6773SOL     OW21217   1.606   6.375   1.593
 6773SOL    HW121218   1.532   6.442   1.599
 6773SOL    HW221219   1.628   6.357   1.497
 6774SOL     OW21220   2.621   2.446   5.640
 6774SOL    HW121221   2.695   2.503   5.603
 6774SOL    HW221222   2.640   2.425   5.736
 6775SOL     OW21223   0.442   2.156   4.561
 6775SOL    HW121224   0.448   2.181   4.464
 6775SOL    HW221225   0.502   2.215   4.615
 6776SOL     OW21226   3.914   3.760   3.029
 6776SOL    HW121227   3.959   3.672   3.009
 6776SOL    HW221228   3.940   3.790   3.121
 6777SOL     OW21229   5.863   5.704   6.925
 6777SOL    HW121230   5.938   5.728   6.986
 6777SOL    HW221231   5.890   5.627   6.867
 6778SOL     OW21232   5.945   5.550   2.170
 6778SOL    HW121233   5.937   5.622   2.101
 6778SOL    HW221234   5.949   5.461   2.125
 6779SOL     OW21235   5.089   3.525   6.087
 6779SOL    HW121236   5.086   3.431   6.053
 6779SOL    HW221237   5.014   3.539   6.151
 6780SOL     OW21238   3.517   2.070   3.153
 6780SOL    HW121239   3.517   2.005   3.077
 6780SOL    HW221240   3.596   2.131   3.144
 6781SOL     OW21241   6.681   1.760   3.373
 6781SOL    HW121242   6.634   1.711   3.447
 6781SOL    HW221243   6.772   1.787   3.403
 6782SOL     OW21244   6.781   1.367   3.087
 6782SOL    HW121245   6.773   1.463   3.113
 6782SOL    HW221246   6.691   1.323   3.092
 6783SOL     OW21247   1.180   4.666   5.698
 6783SOL    HW121248   1.193   4.762   5.722
 6783SOL    HW221249   1.269   4.623   5.682
 6784SOL     OW21250   2.360   4.018   1.676
 6784SOL    HW121251   2.396   4.085   1.743
 6784SOL    HW221252   2.329   3.937   1.725
 6785SOL     OW21253   5.494   5.303   4.355
 6785SOL    HW121254   5.592   5.323   4.365
 6785SOL    HW221255   5.464   5.246   4.432
 6786SOL     OW21256   5.870   1.594   6.188
 6786SOL    HW121257   5.915   1.663   6.246
 6786SOL    HW221258   5.873   1.624   6.093
 6787SOL     OW21259   3.208   1.970   7.001
 6787SOL    HW121260   3.261   2.039   6.952
 6787SOL    HW221261   3.261   1.885   7.006
 6788SOL     OW21262   0.236   4.125   2.164
 6788SOL    HW121263   0.175   4.093   2.091
 6788SOL    HW221264   0.235   4.059   2.239
 6789SOL     OW21265   4.936   4.500   3.261
 6789SOL    HW121266   5.032   4.525   3.272
 6789SOL    HW221267   4.927   4.431   3.189
 6790SOL     OW21268   1.013   5.006   6.276
 6790SOL    HW121269   1.042   5.096   6.242
 6790SOL    HW221270   1.091   4.943   6.273
 6791SOL     OW21271   2.714   0.229   2.926
 6791SOL    HW121272   2.805   0.249   2.889
 6791SOL    HW221273   2.666   0.166   2.864
 6792SOL     OW21274   3.809   0.075   5.330
 6792SOL    HW121275   3.795   6.999   5.301
 6792SOL    HW221276   3.827   0.077   5.428
 6793SOL     OW21277   2.061   3.351   6.183
 6793SOL    HW121278   2.074   3.410   6.262
 6793SOL    HW221279   2.056   3.406   6.100
 6794SOL     OW21280   5.643   2.092   5.311
 6794SOL    HW121281   5.733   2.089   5.268
 6794SOL    HW221282   5.576   2.044   5.253
 6795SOL     OW21283   1.326   0.451   1.565
 6795SOL    HW121284   1.315   0.352   1.565
 6795SOL    HW221285   1.353   0.482   1.474
 6796SOL     OW21286   6.168   1.887   2.751
 6796SOL    HW121287   6.093   1.918   2.810
 6796SOL    HW221288   6.159   1.930   2.662
 6797SOL     OW21289   0.844   2.867   1.448
 6797SOL    HW121290   0.760   2.920   1.441
 6797SOL    HW221291   0.879   2.847   1.357
 6798SOL     OW21292   5.566   0.051   2.035
 6798SOL    HW121293   5.664   0.068   2.043
 6798SOL    HW221294   5.550   7.011   1.956
 6799SOL     OW21295   6.705   0.431   3.588
 6799SOL    HW121296   6.644   0.483   3.528
 6799SOL    HW221297   6.684   0.453   3.683
 6800SOL     OW21298   6.324   2.742   1.458
 6800SOL    HW121299   6.246   2.748   1.521
 6800SOL    HW221300   6.408   2.732   1.511
 6801SOL     OW21301   0.825   6.882   6.376
 6801SOL    HW121302   0.787   6.835   6.295
 6801SOL    HW221303   0.903   6.831   6.411
 6802SOL     OW21304   3.429   4.998   2.204
 6802SOL    HW121305   3.399   5.089   2.176
 6802SOL    HW221306   3.433   4.939   2.123
 6803SOL     OW21307   5.368   5.070   6.196
 6803SOL    HW121308   5.467   5.061   6.206
 6803SOL    HW221309   5.327   4.978   6.192
 6804SOL     OW21310   3.878   4.833   2.712
 6804SOL    HW121311   3.885   4.896   2.789
 6804SOL    HW221312   3.789   4.844   2.668
 6805SOL     OW21313   7.018   4.896   4.644
 6805SOL    HW121314   6.980   4.961   4.710
 6805SOL    HW221315   6.976   4.807   4.656
 6806SOL     OW21316   6.626   2.781   1.649
 6806SOL    HW121317   6.574   2.696   1.648
 6806SOL    HW221318   6.685   2.785   1.568
 6807SOL     OW21319   3.248   4.107   1.933
 6807SOL    HW121320   3.345   4.130   1.922
 6807SOL    HW221321   3.194   4.159   1.868
 6808SOL     OW21322   3.037   1.391   4.325
 6808SOL    HW121323   2.978   1.415   4.248
 6808SOL    HW221324   3.096   1.469   4.348
 6809SOL     OW21325   5.900   3.625   0.078
 6809SOL    HW121326   5.858   3.549   0.028
 6809SOL    HW221327   5.831   3.696   0.093
 6810SOL     OW21328   2.595   0.365   4.788
 6810SOL    HW121329   2.668   0.346   4.855
 6810SOL    HW221330   2.633   0.361   4.696
 6811SOL     OW21331   6.132   1.315   0.447
 6811SOL    HW121332   6.199   1.242   0.432
 6811SOL    HW221333   6.106   1.355   0.359
 6812SOL     OW21334   3.920   4.030   4.999
 6812SOL    HW121335   3.986   3.964   5.036
 6812SOL    HW221336   3.955   4.123   5.012
 6813SOL     OW21337   6.437   3.399   2.350
 6813SOL    HW121338   6.484   3.479   2.313
 6813SOL    HW221339   6.368   3.368   2.286
 6814SOL     OW21340   5.827   0.667   6.752
 6814SOL    HW121341   5.917   0.622   6.754
 6814SOL    HW221342   5.830   0.749   6.810
 6815SOL     OW21343   1.248   4.975   5.898
 6815SOL    HW121344   1.310   4.910   5.942
 6815SOL    HW221345   1.300   5.054   5.867
 6816SOL     OW21346   0.111   0.603   3.665
 6816SOL    HW121347   0.124   0.699   3.691
 6816SOL    HW221348   0.050   0.598   3.586
 6817SOL     OW21349   4.174   2.012   1.399
 6817SOL    HW121350   4.184   1.965   1.312
 6817SOL    HW221351   4.151   2.108   1.383
 6818SOL     OW21352   1.407   6.821   5.661
 6818SOL    HW121353   1.417   6.898   5.599
 6818SOL    HW221354   1.360   6.746   5.614
 6819SOL     OW21355   4.730   4.290   2.157
 6819SOL    HW121356   4.789   4.223   2.111
 6819SOL    HW221357   4.637   4.283   2.120
 6820SOL     OW21358   3.049   5.225   1.769
 6820SOL    HW121359   2.986   5.166   1.717
 6820SOL    HW221360   3.141   5.215   1.732
 6821SOL     OW21361   3.916   2.584   5.468
 6821SOL    HW121362   3.822   2.604   5.440
 6821SOL    HW221363   3.974   2.578   5.387
 6822SOL     OW21364   6.395   3.069   5.887
 6822SOL    HW121365   6.487   3.067   5.926
 6822SOL    HW221366   6.398   3.041   5.791
 6823SOL     OW21367   6.583   2.156   5.057
 6823SOL    HW121368   6.638   2.220   5.004
 6823SOL    HW221369   6.519   2.109   4.997
 6824SOL     OW21370   1.134   0.205   5.633
 6824SOL    HW121371   1.229   0.184   5.656
 6824SOL    HW221372   1.082   0.220   5.717
 6825SOL     OW21373   4.459   4.611   0.881
 6825SOL    HW121374   4.518   4.576   0.954
 6825SOL    HW221375   4.393   4.542   0.855
 6826SOL     OW21376   6.398   6.240   3.869
 6826SOL    HW121377   6.373   6.168   3.804
 6826SOL    HW221378   6.437   6.318   3.820
 6827SOL     OW21379   4.846   5.905   4.936
 6827SOL    HW121380   4.880   5.829   4.880
 6827SOL    HW221381   4.893   5.989   4.909
 6828SOL     OW21382   3.020   2.130   2.357
 6828SOL    HW121383   3.041   2.148   2.453
 6828SOL    HW221384   3.101   2.147   2.302
 6829SOL     OW21385   3.911   6.903   3.057
 6829SOL    HW121386   3.904   6.823   2.997
 6829SOL    HW221387   4.006   6.913   3.087
 6830SOL     OW21388   4.927   4.835   3.143
 6830SOL    HW121389   5.022   4.826   3.175
 6830SOL    HW221390   4.913   4.927   3.107
 6831SOL     OW21391   1.802   2.247   5.945
 6831SOL    HW121392   1.893   2.285   5.960
 6831SOL    HW221393   1.740   2.320   5.916
 6832SOL     OW21394   3.304   2.418   6.443
 6832SOL    HW121395   3.254   2.346   6.395
 6832SOL    HW221396   3.293   2.406   6.541
 6833SOL     OW21397   4.021   5.371   5.779
 6833SOL    HW121398   3.976   5.297   5.829
 6833SOL    HW221399   4.003   5.360   5.681
 6834SOL     OW21400   6.424   6.092   0.005
 6834SOL    HW121401   6.460   6.185   0.001
 6834SOL    HW221402   6.466   6.037   6.953
 6835SOL     OW21403   2.868   1.166   5.018
 6835SOL    HW121404   2.857   1.096   5.089
 6835SOL    HW221405   2.888   1.122   4.931
 6836SOL     OW21406   2.152   4.377   6.530
 6836SOL    HW121407   2.214   4.429   6.471
 6836SOL    HW221408   2.060   4.414   6.522
 6837SOL     OW21409   0.111   1.107   2.044
 6837SOL    HW121410   0.104   1.008   2.048
 6837SOL    HW221411   0.117   1.136   1.948
 6838SOL     OW21412   3.011   4.004   4.820
 6838SOL    HW121413   3.026   3.967   4.729
 6838SOL    HW221414   2.922   3.972   4.855
 6839SOL     OW21415   6.545   3.444   4.529
 6839SOL    HW121416   6.631   3.423   4.575
 6839SOL    HW221417   6.561   3.511   4.457
 6840SOL     OW21418   2.652   6.721   4.887
 6840SOL    HW121419   2.740   6.724   4.934
 6840SOL    HW221420   2.593   6.652   4.929
 6841SOL     OW21421   4.919   5.623   1.177
 6841SOL    HW121422   4.968   5.694   1.127
 6841SOL    HW221423   4.821   5.643   1.176
 6842SOL     OW21424   0.443   3.566   5.005
 6842SOL    HW121425   0.417   3.580   4.909
 6842SOL    HW221426   0.360   3.561   5.061
 6843SOL     OW21427   3.907   2.303   1.692
 6843SOL    HW121428   3.911   2.203   1.694
 6843SOL    HW221429   3.813   2.333   1.711
 6844SOL     OW21430   4.250   5.643   3.993
 6844SOL    HW121431   4.298   5.723   4.028
 6844SOL    HW221432   4.274   5.563   4.049
 6845SOL     OW21433   4.214   4.626   1.105
 6845SOL    HW121434   4.293   4.607   1.046
 6845SOL    HW221435   4.138   4.567   1.077
 6846SOL     OW21436   3.238   3.308   2.687
 6846SOL    HW121437   3.226   3.373   2.612
 6846SOL    HW221438   3.329   3.267   2.681
 6847SOL     OW21439   5.706   3.406   2.348
 6847SOL    HW121440   5.747   3.453   2.426
 6847SOL    HW221441   5.614   3.443   2.331
 6848SOL     OW21442   6.869   6.791   3.414
 6848SOL    HW121443   6.780   6.779   3.457
 6848SOL    HW221444   6.912   6.873   3.450
 6849SOL     OW21445   3.614   6.543   3.870
 6849SOL    HW121446   3.527   6.527   3.825
 6849SOL    HW221447   3.621   6.640   3.896
 6850SOL     OW21448   5.420   2.977   1.803
 6850SOL    HW121449   5.487   2.902   1.806
 6850SOL    HW221450   5.438   3.034   1.723
 6851SOL     OW21451   1.425   5.728   5.503
 6851SOL    HW121452   1.394   5.674   5.581
 6851SOL    HW221453   1.525   5.724   5.497
 6852SOL     OW21454   0.414   4.616   2.346
 6852SOL    HW121455   0.475   4.695   2.351
 6852SOL    HW221456   0.319   4.647   2.351
 6853SOL     OW21457   6.697   3.558   5.486
 6853SOL    HW121458   6.792   3.560   5.457
 6853SOL    HW221459   6.689   3.597   5.578
 6854SOL     OW21460   6.902   1.473   6.098
 6854SOL    HW121461   6.946   1.558   6.126
 6854SOL    HW221462   6.855   1.432   6.176
 6855SOL     OW21463   3.277   6.162   1.246
 6855SOL    HW121464   3.268   6.131   1.151
 6855SOL    HW221465   3.213   6.113   1.304
 6856SOL     OW21466   0.158   3.914   5.411
 6856SOL    HW121467   0.248   3.941   5.446
 6856SOL    HW221468   0.087   3.965   5.458
 6857SOL     OW21469   4.352   2.119   5.533
 6857SOL    HW121470   4.361   2.181   5.612
 6857SOL    HW221471   4.277   2.054   5.550
 6858SOL     OW21472   3.487   2.870   4.930
 6858SOL    HW121473   3.448   2.859   5.021
 6858SOL    HW221474   3.587   2.875   4.937
 6859SOL     OW21475   3.882   6.730   1.539
 6859SOL    HW121476   3.799   6.708   1.590
 6859SOL    HW221477   3.941   6.788   1.594
 6860SOL     OW21478   4.692   4.581   0.080
 6860SOL    HW121479   4.764   4.531   0.129
 6860SOL    HW221480   4.704   4.680   0.096
 6861SOL     OW21481   6.555   4.803   0.566
 6861SOL    HW121482   6.519   4.847   0.484
 6861SOL    HW221483   6.621   4.732   0.539
 6862SOL     OW21484   3.465   5.907   4.268
 6862SOL    HW121485   3.442   5.899   4.171
 6862SOL    HW221486   3.474   5.816   4.308
 6863SOL     OW21487   0.144   3.075   4.531
 6863SOL    HW121488   0.084   3.153   4.512
 6863SOL    HW221489   0.091   3.000   4.569
 6864SOL     OW21490   4.313   6.160   4.295
 6864SOL    HW121491   4.272   6.133   4.383
 6864SOL    HW221492   4.285   6.095   4.224
 6865SOL     OW21493   6.650   4.173   3.986
 6865SOL    HW121494   6.750   4.173   3.988
 6865SOL    HW221495   6.617   4.261   3.952
 6866SOL     OW21496   6.982   3.492   2.136
 6866SOL    HW121497   6.992   3.395   2.158
 6866SOL    HW221498   6.886   3.519   2.145
 6867SOL     OW21499   2.313   4.196   2.543
 6867SOL    HW121500   2.306   4.106   2.585
 6867SOL    HW221501   2.272   4.194   2.453
 6868SOL     OW21502   1.820   5.504   5.569
 6868SOL    HW121503   1.786   5.538   5.657
 6868SOL    HW221504   1.915   5.475   5.579
 6869SOL     OW21505   5.853   3.339   5.331
 6869SOL    HW121506   5.753   3.337   5.333
 6869SOL    HW221507   5.886   3.407   5.396
 6870SOL     OW21508   5.236   3.603   3.251
 6870SOL    HW121509   5.255   3.591   3.348
 6870SOL    HW221510   5.316   3.575   3.198
 6871SOL     OW21511   5.034   6.397   1.691
 6871SOL    HW121512   5.080   6.412   1.604
 6871SOL    HW221513   5.060   6.469   1.756
 6872SOL     OW21514   2.892   3.030   6.305
 6872SOL    HW121515   2.987   3.020   6.336
 6872SOL    HW221516   2.840   3.081   6.374
 6873SOL     OW21517   5.224   4.345   6.037
 6873SOL    HW121518   5.299   4.410   6.043
 6873SOL    HW221519   5.261   4.253   6.019
 6874SOL     OW21520   0.909   1.999   5.797
 6874SOL    HW121521   0.910   2.097   5.820
 6874SOL    HW221522   0.962   1.948   5.864
 6875SOL     OW21523   3.222   2.133   3.892
 6875SOL    HW121524   3.273   2.209   3.933
 6875SOL    HW221525   3.131   2.165   3.864
 6876SOL     OW21526   3.499   6.189   6.630
 6876SOL    HW121527   3.518   6.114   6.567
 6876SOL    HW221528   3.577   6.253   6.629
 6877SOL     OW21529   2.668   3.991   6.655
 6877SOL    HW121530   2.698   3.940   6.736
 6877SOL    HW221531   2.728   4.070   6.642
 6878SOL     OW21532   1.762   1.468   4.955
 6878SOL    HW121533   1.674   1.514   4.969
 6878SOL    HW221534   1.836   1.531   4.978
 6879SOL     OW21535   1.377   2.722   5.823
 6879SOL    HW121536   1.467   2.762   5.840
 6879SOL    HW221537   1.380   2.623   5.838
 6880SOL     OW21538   1.816   4.232   5.113
 6880SOL    HW121539   1.746   4.278   5.058
 6880SOL    HW221540   1.900   4.287   5.114
 6881SOL     OW21541   6.914   4.220   1.051
 6881SOL    HW121542   6.993   4.159   1.047
 6881SOL    HW221543   6.830   4.166   1.055
 6882SOL     OW21544   1.753   6.904   5.326
 6882SOL    HW121545   1.707   6.889   5.413
 6882SOL    HW221546   1.833   6.961   5.340
 6883SOL     OW21547   3.499   6.482   1.941
 6883SOL    HW121548   3.580   6.438   1.980
 6883SOL    HW221549   3.485   6.449   1.848
 6884SOL     OW21550   2.494   4.748   3.513
 6884SOL    HW121551   2.583   4.710   3.536
 6884SOL    HW221552   2.437   4.678   3.470
 6885SOL     OW21553   2.543   5.235   4.511
 6885SOL    HW121554   2.614   5.303   4.495
 6885SOL    HW221555   2.456   5.267   4.473
 6886SOL     OW21556   5.663   1.596   2.856
 6886SOL    HW121557   5.645   1.685   2.898
 6886SOL    HW221558   5.576   1.552   2.833
 6887SOL     OW21559   5.932   0.597   4.749
 6887SOL    HW121560   6.018   0.616   4.701
 6887SOL    HW221561   5.947   0.606   4.848
 6888SOL     OW21562   5.632   6.442   4.163
 6888SOL    HW121563   5.669   6.527   4.125
 6888SOL    HW221564   5.669   6.428   4.255
 6889SOL     OW21565   1.150   4.272   5.857
 6889SOL    HW121566   1.051   4.258   5.859
 6889SOL    HW221567   1.193   4.194   5.812
 6890SOL     OW21568   2.006   0.655   0.478
 6890SOL    HW121569   2.010   0.678   0.575
 6890SOL    HW221570   1.910   0.650   0.449
 6891SOL     OW21571   2.811   4.804   4.308
 6891SOL    HW121572   2.888   4.832   4.250
 6891SOL    HW221573   2.737   4.871   4.300
 6892SOL     OW21574   4.055   0.571   4.312
 6892SOL    HW121575   4.049   0.613   4.402
 6892SOL    HW221576   4.150   0.573   4.280
 6893SOL     OW21577   5.098   5.912   2.280
 6893SOL    HW121578   5.167   5.955   2.338
 6893SOL    HW221579   5.039   5.982   2.241
 6894SOL     OW21580   6.590   4.635   6.162
 6894SOL    HW121581   6.614   4.539   6.167
 6894SOL    HW221582   6.610   4.671   6.071
 6895SOL     OW21583   3.865   6.257   6.839
 6895SOL    HW121584   3.861   6.222   6.933
 6895SOL    HW221585   3.926   6.199   6.785
 6896SOL     OW21586   4.144   0.231   2.662
 6896SOL    HW121587   4.045   0.233   2.647
 6896SOL    HW221588   4.163   0.242   2.759
 6897SOL     OW21589   3.179   2.753   0.705
 6897SOL    HW121590   3.246   2.733   0.633
 6897SOL    HW221591   3.225   2.756   0.793
 6898SOL     OW21592   4.146   2.249   2.461
 6898SOL    HW121593   4.140   2.190   2.380
 6898SOL    HW221594   4.055   2.262   2.500
 6899SOL     OW21595   4.898   6.025   6.932
 6899SOL    HW121596   4.798   6.027   6.944
 6899SOL    HW221597   4.920   5.994   6.840
 6900SOL     OW21598   4.380   0.833   5.398
 6900SOL    HW121599   4.315   0.778   5.347
 6900SOL    HW221600   4.344   0.852   5.489
 6901SOL     OW21601   1.269   1.068   6.657
 6901SOL    HW121602   1.305   1.160   6.644
 6901SOL    HW221603   1.175   1.064   6.623
 6902SOL     OW21604   6.817   5.633   0.767
 6902SOL    HW121605   6.838   5.712   0.825
 6902SOL    HW221606   6.841   5.654   0.672
 6903SOL     OW21607   4.917   3.502   0.867
 6903SOL    HW121608   4.962   3.565   0.930
 6903SOL    HW221609   4.823   3.532   0.852
 6904SOL     OW21610   0.361   1.342   3.528
 6904SOL    HW121611   0.385   1.381   3.617
 6904SOL    HW221612   0.410   1.255   3.516
 6905SOL     OW21613   5.889   6.267   1.020
 6905SOL    HW121614   5.950   6.200   0.980
 6905SOL    HW221615   5.797   6.229   1.027
 6906SOL     OW21616   4.461   0.559   3.734
 6906SOL    HW121617   4.442   0.509   3.818
 6906SOL    HW221618   4.378   0.561   3.677
 6907SOL     OW21619   3.954   1.676   1.474
 6907SOL    HW121620   3.968   1.591   1.424
 6907SOL    HW221621   3.879   1.664   1.539
 6908SOL     OW21622   1.312   6.919   6.452
 6908SOL    HW121623   1.232   6.965   6.490
 6908SOL    HW221624   1.294   6.821   6.443
 6909SOL     OW21625   3.693   4.188   6.569
 6909SOL    HW121626   3.674   4.213   6.664
 6909SOL    HW221627   3.687   4.089   6.558
 6910SOL     OW21628   6.961   1.367   2.344
 6910SOL    HW121629   6.933   1.405   2.256
 6910SOL    HW221630   6.897   1.396   2.415
 6911SOL     OW21631   3.784   1.088   4.883
 6911SOL    HW121632   3.837   1.059   4.963
 6911SOL    HW221633   3.790   1.017   4.812
 6912SOL     OW21634   4.619   5.347   0.824
 6912SOL    HW121635   4.557   5.290   0.770
 6912SOL    HW221636   4.677   5.290   0.880
 6913SOL     OW21637   5.388   5.312   5.399
 6913SOL    HW121638   5.402   5.213   5.392
 6913SOL    HW221639   5.433   5.347   5.481
 6914SOL     OW21640   6.093   5.114   0.874
 6914SOL    HW121641   6.130   5.022   0.892
 6914SOL    HW221642   6.166   5.173   0.840
 6915SOL     OW21643   0.825   5.295   1.257
 6915SOL    HW121644   0.845   5.313   1.161
 6915SOL    HW221645   0.872   5.363   1.314
 6916SOL     OW21646   6.710   1.753   0.166
 6916SOL    HW121647   6.667   1.757   0.257
 6916SOL    HW221648   6.789   1.815   0.165
 6917SOL     OW21649   4.354   6.506   6.332
 6917SOL    HW121650   4.372   6.604   6.347
 6917SOL    HW221651   4.437   6.454   6.351
 6918SOL     OW21652   2.019   2.884   3.761
 6918SOL    HW121653   2.002   2.849   3.854
 6918SOL    HW221654   2.106   2.934   3.759
 6919SOL     OW21655   2.019   6.530   3.265
 6919SOL    HW121656   1.991   6.620   3.297
 6919SOL    HW221657   2.114   6.533   3.233
 6920SOL     OW21658   5.253   6.229   4.337
 6920SOL    HW121659   5.212   6.320   4.342
 6920SOL    HW221660   5.297   6.207   4.424
 6921SOL     OW21661   0.777   0.294   3.280
 6921SOL    HW121662   0.755   0.240   3.361
 6921SOL    HW221663   0.819   0.381   3.308
 6922SOL     OW21664   2.238   6.389   0.384
 6922SOL    HW121665   2.311   6.405   0.451
 6922SOL    HW221666   2.151   6.379   0.431
 6923SOL     OW21667   4.941   0.131   3.769
 6923SOL    HW121668   4.912   0.216   3.726
 6923SOL    HW221669   4.865   0.091   3.820
 6924SOL     OW21670   0.255   6.079   1.010
 6924SOL    HW121671   0.310   6.033   0.941
 6924SOL    HW221672   0.216   6.012   1.073
 6925SOL     OW21673   5.316   5.986   2.427
 6925SOL    HW121674   5.304   5.942   2.516
 6925SOL    HW221675   5.412   5.981   2.400
 6926SOL     OW21676   2.971   3.378   4.636
 6926SOL    HW121677   2.983   3.280   4.650
 6926SOL    HW221678   2.994   3.401   4.541
 6927SOL     OW21679   4.393   3.806   5.965
 6927SOL    HW121680   4.359   3.889   5.921
 6927SOL    HW221681   4.484   3.785   5.929
 6928SOL     OW21682   5.400   0.253   6.314
 6928SOL    HW121683   5.468   0.276   6.382
 6928SOL    HW221684   5.312   0.293   6.339
 6929SOL     OW21685   3.654   5.280   0.081
 6929SOL    HW121686   3.729   5.229   0.122
 6929SOL    HW221687   3.633   5.360   0.137
 6930SOL     OW21688   0.782   6.944   3.629
 6930SOL    HW121689   0.689   6.908   3.620
 6930SOL    HW221690   0.781   0.023   3.606
 6931SOL     OW21691   1.885   1.173   1.220
 6931SOL    HW121692   1.956   1.106   1.194
 6931SOL    HW221693   1.860   1.160   1.315
 6932SOL     OW21694   2.760   2.778   0.948
 6932SOL    HW121695   2.711   2.729   1.020
 6932SOL    HW221696   2.694   2.824   0.889
 6933SOL     OW21697   3.781   6.424   5.920
 6933SOL    HW121698   3.850   6.486   5.957
 6933SOL    HW221699   3.806   6.329   5.941
 6934SOL     OW21700   5.295   3.526   6.830
 6934SOL    HW121701   5.308   3.441   6.779
 6934SOL    HW221702   5.273   3.504   6.925
 6935SOL     OW21703   4.156   5.391   3.568
 6935SOL    HW121704   4.095   5.465   3.537
 6935SOL    HW221705   4.193   5.414   3.658
 6936SOL     OW21706   1.761   4.230   1.022
 6936SOL    HW121707   1.737   4.168   0.947
 6936SOL    HW221708   1.852   4.207   1.057
 6937SOL     OW21709   3.873   0.023   5.589
 6937SOL    HW121710   3.903   6.946   5.581
 6937SOL    HW221711   3.787   0.027   5.640
 6938SOL     OW21712   4.530   2.631   5.445
 6938SOL    HW121713   4.440   2.660   5.411
 6938SOL    HW221714   4.567   2.560   5.386
 6939SOL     OW21715   0.978   4.138   2.713
 6939SOL    HW121716   0.887   4.141   2.671
 6939SOL    HW221717   0.993   4.049   2.756
 6940SOL     OW21718   4.719   1.018   4.605
 6940SOL    HW121719   4.703   0.958   4.683
 6940SOL    HW221720   4.632   1.057   4.573
 6941SOL     OW21721   3.944   3.109   3.344
 6941SOL    HW121722   4.017   3.169   3.374
 6941SOL    HW221723   3.954   3.090   3.246
 6942SOL     OW21724   6.953   2.149   0.285
 6942SOL    HW121725   6.886   2.218   0.259
 6942SOL    HW221726   0.025   2.192   0.289
 6943SOL     OW21727   4.763   6.163   5.957
 6943SOL    HW121728   4.745   6.147   5.860
 6943SOL    HW221729   4.860   6.149   5.976
 6944SOL     OW21730   1.413   6.176   6.062
 6944SOL    HW121731   1.444   6.129   5.980
 6944SOL    HW221732   1.365   6.112   6.122
 6945SOL     OW21733   5.704   3.058   5.849
 6945SOL    HW121734   5.799   3.081   5.826
 6945SOL    HW221735   5.642   3.115   5.795
 6946SOL     OW21736   5.276   4.451   2.616
 6946SOL    HW121737   5.374   4.456   2.635
 6946SOL    HW221738   5.259   4.387   2.541
 6947SOL     OW21739   3.905   6.159   2.899
 6947SOL    HW121740   3.830   6.221   2.919
 6947SOL    HW221741   3.904   6.135   2.801
 6948SOL     OW21742   4.329   1.293   5.629
 6948SOL    HW121743   4.347   1.321   5.534
 6948SOL    HW221744   4.381   1.211   5.650
 6949SOL     OW21745   5.346   0.572   2.638
 6949SOL    HW121746   5.315   0.570   2.733
 6949SOL    HW221747   5.436   0.530   2.631
 6950SOL     OW21748   2.236   0.123   2.968
 6950SOL    HW121749   2.334   0.138   2.975
 6950SOL    HW221750   2.204   0.074   3.049
 6951SOL     OW21751   6.410   5.043   6.225
 6951SOL    HW121752   6.377   5.042   6.319
 6951SOL    HW221753   6.425   5.138   6.196
 6952SOL     OW21754   0.252   4.827   4.555
 6952SOL    HW121755   0.314   4.905   4.569
 6952SOL    HW221756   0.167   4.843   4.605
 6953SOL     OW21757   5.074   1.630   5.312
 6953SOL    HW121758   5.084   1.594   5.219
 6953SOL    HW221759   5.143   1.699   5.329
 6954SOL     OW21760   0.545   4.037   3.252
 6954SOL    HW121761   0.575   3.946   3.281
 6954SOL    HW221762   0.580   4.055   3.160
 6955SOL     OW21763   0.115   5.672   2.167
 6955SOL    HW121764   0.206   5.702   2.141
 6955SOL    HW221765   0.080   5.730   2.241
 6956SOL     OW21766   3.689   4.873   1.602
 6956SOL    HW121767   3.593   4.852   1.582
 6956SOL    HW221768   3.716   4.954   1.550
 6957SOL     OW21769   0.641   4.606   0.633
 6957SOL    HW121770   0.727   4.555   0.635
 6957SOL    HW221771   0.608   4.619   0.727
 6958SOL     OW21772   2.552   3.621   6.636
 6958SOL    HW121773   2.598   3.647   6.551
 6958SOL    HW221774   2.499   3.699   6.670
 6959SOL     OW21775   2.653   0.842   4.353
 6959SOL    HW121776   2.690   0.927   4.392
 6959SOL    HW221777   2.563   0.824   4.392
 6960SOL     OW21778   0.491   4.956   6.634
 6960SOL    HW121779   0.430   4.963   6.712
 6960SOL    HW221780   0.581   4.991   6.659
 6961SOL     OW21781   0.148   0.605   2.687
 6961SOL    HW121782   0.152   0.693   2.640
 6961SOL    HW221783   0.135   0.531   2.621
 6962SOL     OW21784   4.232   4.145   1.329
 6962SOL    HW121785   4.300   4.087   1.285
 6962SOL    HW221786   4.276   4.222   1.374
 6963SOL     OW21787   7.000   4.999   1.707
 6963SOL    HW121788   6.939   5.028   1.633
 6963SOL    HW221789   0.056   5.065   1.715
 6964SOL     OW21790   4.171   5.664   5.208
 6964SOL    HW121791   4.074   5.644   5.223
 6964SOL    HW221792   4.181   5.757   5.175
 6965SOL     OW21793   6.848   2.925   5.683
 6965SOL    HW121794   6.852   3.024   5.696
 6965SOL    HW221795   6.831   2.880   5.771
 6966SOL     OW21796   4.611   2.685   4.015
 6966SOL    HW121797   4.672   2.762   4.000
 6966SOL    HW221798   4.601   2.667   4.113
 6967SOL     OW21799   1.779   0.824   5.982
 6967SOL    HW121800   1.749   0.899   5.923
 6967SOL    HW221801   1.774   0.853   6.077
 6968SOL     OW21802   5.271   6.261   2.457
 6968SOL    HW121803   5.226   6.293   2.374
 6968SOL    HW221804   5.250   6.164   2.471
 6969SOL     OW21805   3.238   2.291   1.242
 6969SOL    HW121806   3.282   2.210   1.281
 6969SOL    HW221807   3.288   2.373   1.269
 6970SOL     OW21808   5.005   4.681   6.992
 6970SOL    HW121809   5.052   4.746   6.932
 6970SOL    HW221810   4.926   4.644   6.944
 6971SOL     OW21811   5.062   0.309   1.338
 6971SOL    HW121812   5.029   0.402   1.355
 6971SOL    HW221813   4.984   0.248   1.326
 6972SOL     OW21814   5.924   5.028   4.392
 6972SOL    HW121815   5.937   5.124   4.417
 6972SOL    HW221816   5.835   4.997   4.426
 6973SOL     OW21817   1.738   4.615   2.943
 6973SOL    HW121818   1.802   4.687   2.915
 6973SOL    HW221819   1.656   4.620   2.885
 6974SOL     OW21820   3.388   3.814   4.286
 6974SOL    HW121821   3.428   3.878   4.220
 6974SOL    HW221822   3.329   3.749   4.239
 6975SOL     OW21823   3.673   0.809   5.964
 6975SOL    HW121824   3.673   0.752   6.045
 6975SOL    HW221825   3.687   0.753   5.883
 6976SOL     OW21826   1.980   4.690   6.035
 6976SOL    HW121827   1.929   4.753   5.977
 6976SOL    HW221828   1.931   4.677   6.121
 6977SOL     OW21829   3.284   2.135   2.845
 6977SOL    HW121830   3.372   2.178   2.826
 6977SOL    HW221831   3.292   2.037   2.832
 6978SOL     OW21832   6.221   0.474   2.102
 6978SOL    HW121833   6.308   0.512   2.071
 6978SOL    HW221834   6.229   0.447   2.198
 6979SOL     OW21835   0.437   4.759   2.815
 6979SOL    HW121836   0.452   4.852   2.849
 6979SOL    HW221837   0.524   4.716   2.794
 6980SOL     OW21838   3.477   1.106   4.539
 6980SOL    HW121839   3.383   1.110   4.507
 6980SOL    HW221840   3.503   1.010   4.553
 6981SOL     OW21841   2.156   5.701   0.371
 6981SOL    HW121842   2.156   5.631   0.300
 6981SOL    HW221843   2.113   5.785   0.336
 6982SOL     OW21844   0.707   0.172   4.441
 6982SOL    HW121845   0.791   0.118   4.439
 6982SOL    HW221846   0.637   0.127   4.386
 6983SOL     OW21847   6.298   0.298   4.375
 6983SOL    HW121848   6.387   0.270   4.339
 6983SOL    HW221849   6.292   0.398   4.378
 6984SOL     OW21850   1.384   0.923   6.375
 6984SOL    HW121851   1.315   0.863   6.417
 6984SOL    HW221852   1.340   1.004   6.338
 6985SOL     OW21853   4.757   5.900   2.096
 6985SOL    HW121854   4.823   5.973   2.108
 6985SOL    HW221855   4.787   5.819   2.147
 6986SOL     OW21856   2.377   6.834   5.828
 6986SOL    HW121857   2.403   6.873   5.739
 6986SOL    HW221858   2.309   6.762   5.814
 6987SOL     OW21859   0.478   3.594   6.480
 6987SOL    HW121860   0.414   3.661   6.517
 6987SOL    HW221861   0.572   3.625   6.497
 6988SOL     OW21862   4.927   0.886   3.841
 6988SOL    HW121863   4.929   0.805   3.781
 6988SOL    HW221864   4.860   0.872   3.914
 6989SOL     OW21865   1.625   2.348   4.120
 6989SOL    HW121866   1.623   2.251   4.093
 6989SOL    HW221867   1.692   2.361   4.193
 6990SOL     OW21868   3.679   3.245   6.876
 6990SOL    HW121869   3.663   3.154   6.912
 6990SOL    HW221870   3.750   3.242   6.805
 6991SOL     OW21871   3.230   4.210   5.397
 6991SOL    HW121872   3.316   4.245   5.359
 6991SOL    HW221873   3.241   4.114   5.422
 6992SOL     OW21874   5.438   6.763   3.978
 6992SOL    HW121875   5.458   6.670   3.945
 6992SOL    HW221876   5.366   6.803   3.922
 6993SOL     OW21877   0.348   0.314   3.536
 6993SOL    HW121878   0.275   0.252   3.510
 6993SOL    HW221879   0.412   0.268   3.598
 6994SOL     OW21880   0.983   3.070   6.198
 6994SOL    HW121881   0.982   2.997   6.129
 6994SOL    HW221882   1.077   3.104   6.208
 6995SOL     OW21883   6.445   5.793   3.273
 6995SOL    HW121884   6.517   5.860   3.287
 6995SOL    HW221885   6.402   5.807   3.184
 6996SOL     OW21886   2.007   0.181   5.627
 6996SOL    HW121887   2.101   0.206   5.605
 6996SOL    HW221888   1.953   0.177   5.543
 6997SOL     OW21889   4.942   0.726   5.136
 6997SOL    HW121890   4.888   0.649   5.102
 6997SOL    HW221891   4.966   0.710   5.232
 6998SOL     OW21892   0.921   2.533   3.389
 6998SOL    HW121893   0.828   2.554   3.418
 6998SOL    HW221894   0.927   2.437   3.363
 6999SOL     OW21895   3.308   1.726   5.574
 6999SOL    HW121896   3.325   1.774   5.488
 6999SOL    HW221897   3.287   1.792   5.646
 7000SOL     OW21898   0.373   6.356   2.992
 7000SOL    HW121899   0.323   6.271   3.006
 7000SOL    HW221900   0.344   6.399   2.906
 7001SOL     OW21901   2.361   2.508   5.552
 7001SOL    HW121902   2.314   2.566   5.619
 7001SOL    HW221903   2.455   2.491   5.583
 7002SOL     OW21904   1.835   4.994   3.625
 7002SOL    HW121905   1.796   5.085   3.615
 7002SOL    HW221906   1.782   4.929   3.569
 7003SOL     OW21907   2.570   6.216   1.077
 7003SOL    HW121908   2.554   6.131   1.026
 7003SOL    HW221909   2.588   6.290   1.013
 7004SOL     OW21910   1.493   4.286   1.040
 7004SOL    HW121911   1.591   4.283   1.059
 7004SOL    HW221912   1.466   4.206   0.986
 7005SOL     OW21913   5.061   6.007   5.437
 7005SOL    HW121914   5.077   6.106   5.432
 7005SOL    HW221915   5.053   5.979   5.533
 7006SOL     OW21916   4.237   4.812   4.905
 7006SOL    HW121917   4.206   4.789   4.813
 7006SOL    HW221918   4.273   4.730   4.950
 7007SOL     OW21919   4.700   5.203   2.973
 7007SOL    HW121920   4.790   5.167   2.997
 7007SOL    HW221921   4.630   5.138   3.004
 7008SOL     OW21922   1.059   5.076   3.751
 7008SOL    HW121923   1.026   5.005   3.689
 7008SOL    HW221924   0.981   5.117   3.799
 7009SOL     OW21925   0.635   4.410   2.135
 7009SOL    HW121926   0.685   4.490   2.167
 7009SOL    HW221927   0.598   4.428   2.044
 7010SOL     OW21928   3.449   4.745   5.597
 7010SOL    HW121929   3.388   4.708   5.667
 7010SOL    HW221930   3.530   4.785   5.640
 7011SOL     OW21931   2.850   1.011   5.269
 7011SOL    HW121932   2.915   0.965   5.329
 7011SOL    HW221933   2.801   1.081   5.321
 7012SOL     OW21934   1.174   1.183   1.792
 7012SOL    HW121935   1.241   1.110   1.775
 7012SOL    HW221936   1.112   1.191   1.714
 7013SOL     OW21937   1.182   0.826   2.160
 7013SOL    HW121938   1.087   0.814   2.188
 7013SOL    HW221939   1.210   0.749   2.103
 7014SOL     OW21940   2.726   4.348   1.310
 7014SOL    HW121941   2.757   4.297   1.231
 7014SOL    HW221942   2.803   4.368   1.370
 7015SOL     OW21943   5.765   2.577   2.645
 7015SOL    HW121944   5.688   2.627   2.604
 7015SOL    HW221945   5.742   2.552   2.739
 7016SOL     OW21946   4.185   5.212   1.193
 7016SOL    HW121947   4.240   5.133   1.218
 7016SOL    HW221948   4.244   5.284   1.156
 7017SOL     OW21949   3.349   1.325   3.707
 7017SOL    HW121950   3.308   1.337   3.797
 7017SOL    HW221951   3.290   1.268   3.651
 7018SOL     OW21952   0.288   4.547   4.657
 7018SOL    HW121953   0.194   4.561   4.689
 7018SOL    HW221954   0.320   4.630   4.612
 7019SOL     OW21955   2.304   6.330   0.127
 7019SOL    HW121956   2.284   6.359   0.221
 7019SOL    HW221957   2.298   6.230   0.121
 7020SOL     OW21958   6.183   6.558   6.293
 7020SOL    HW121959   6.131   6.480   6.326
 7020SOL    HW221960   6.127   6.612   6.230
 7021SOL     OW21961   2.797   1.637   6.241
 7021SOL    HW121962   2.706   1.618   6.202
 7021SOL    HW221963   2.815   1.735   6.237
 7022SOL     OW21964   5.368   4.721   0.487
 7022SOL    HW121965   5.362   4.697   0.391
 7022SOL    HW221966   5.284   4.694   0.534
 7023SOL     OW21967   6.323   3.689   2.772
 7023SOL    HW121968   6.276   3.663   2.688
 7023SOL    HW221969   6.405   3.742   2.750
 7024SOL     OW21970   1.131   5.984   0.695
 7024SOL    HW121971   1.051   5.987   0.755
 7024SOL    HW221972   1.102   5.998   0.600
 7025SOL     OW21973   2.835   2.261   6.662
 7025SOL    HW121974   2.798   2.175   6.699
 7025SOL    HW221975   2.917   2.287   6.714
 7026SOL     OW21976   4.378   2.049   0.508
 7026SOL    HW121977   4.366   2.067   0.606
 7026SOL    HW221978   4.437   1.969   0.496
 7027SOL     OW21979   4.459   6.854   4.404
 7027SOL    HW121980   4.460   6.923   4.477
 7027SOL    HW221981   4.451   6.763   4.444
 7028SOL     OW21982   3.572   0.439   4.406
 7028SOL    HW121983   3.632   0.487   4.470
 7028SOL    HW221984   3.519   0.506   4.355
 7029SOL     OW21985   4.094   0.723   5.789
 7029SOL    HW121986   4.086   0.694   5.693
 7029SOL    HW221987   4.190   0.725   5.814
 7030SOL     OW21988   1.316   3.328   4.266
 7030SOL    HW121989   1.364   3.281   4.339
 7030SOL    HW221990   1.354   3.420   4.254
 7031SOL     OW21991   2.064   5.969   4.023
 7031SOL    HW121992   1.978   5.941   3.979
 7031SOL    HW221993   2.140   5.958   3.959
 7032SOL     OW21994   5.968   1.885   2.171
 7032SOL    HW121995   6.046   1.914   2.225
 7032SOL    HW221996   5.905   1.832   2.229
 7033SOL     OW21997   6.820   0.754   3.695
 7033SOL    HW121998   6.852   0.848   3.691
 7033SOL    HW221999   6.860   0.708   3.775
 7034SOL     OW22000   6.923   6.290   2.899
 7034SOL    HW122001   6.887   6.320   2.988
 7034SOL    HW222002   6.856   6.310   2.828
 7035SOL     OW22003   6.348   5.970   2.096
 7035SOL    HW122004   6.351   6.056   2.147
 7035SOL    HW222005   6.356   5.894   2.160
 7036SOL     OW22006   0.339   4.653   2.037
 7036SOL    HW122007   0.256   4.704   2.014
 7036SOL    HW222008   0.317   4.582   2.104
 7037SOL     OW22009   1.604   6.488   6.404
 7037SOL    HW122010   1.672   6.471   6.332
 7037SOL    HW222011   1.613   6.582   6.437
 7038SOL     OW22012   0.949   4.091   4.118
 7038SOL    HW122013   1.037   4.064   4.155
 7038SOL    HW222014   0.879   4.024   4.144
 7039SOL     OW22015   3.448   1.255   0.143
 7039SOL    HW122016   3.455   1.156   0.132
 7039SOL    HW222017   3.537   1.292   0.170
 7040SOL     OW22018   4.807   2.313   6.200
 7040SOL    HW122019   4.710   2.291   6.192
 7040SOL    HW222020   4.854   2.240   6.251
 7041SOL     OW22021   2.175   2.187   2.406
 7041SOL    HW122022   2.093   2.244   2.403
 7041SOL    HW222023   2.168   2.116   2.336
 7042SOL     OW22024   2.923   6.902   6.998
 7042SOL    HW122025   2.932   6.802   7.001
 7042SOL    HW222026   2.898   6.936   0.070
 7043SOL     OW22027   2.512   1.465   3.024
 7043SOL    HW122028   2.495   1.535   2.955
 7043SOL    HW222029   2.520   1.508   3.114
 7044SOL     OW22030   4.767   5.321   2.723
 7044SOL    HW122031   4.732   5.284   2.809
 7044SOL    HW222032   4.765   5.421   2.726
 7045SOL     OW22033   5.427   5.513   1.502
 7045SOL    HW122034   5.516   5.472   1.519
 7045SOL    HW222035   5.437   5.612   1.489
 7046SOL     OW22036   3.713   0.542   4.965
 7046SOL    HW122037   3.758   0.605   5.028
 7046SOL    HW222038   3.630   0.585   4.930
 7047SOL     OW22039   1.421   0.883   4.633
 7047SOL    HW122040   1.439   0.981   4.625
 7047SOL    HW222041   1.466   0.835   4.557
 7048SOL     OW22042   6.493   5.963   0.261
 7048SOL    HW122043   6.413   5.976   0.320
 7048SOL    HW222044   6.490   6.028   0.185
 7049SOL     OW22045   2.753   1.482   0.656
 7049SOL    HW122046   2.832   1.518   0.607
 7049SOL    HW222047   2.705   1.416   0.598
 7050SOL     OW22048   4.036   3.839   4.530
 7050SOL    HW122049   4.084   3.915   4.574
 7050SOL    HW222050   4.079   3.752   4.555
 7051SOL     OW22051   0.145   6.632   2.356
 7051SOL    HW122052   0.156   6.711   2.418
 7051SOL    HW222053   0.209   6.560   2.383
 7052SOL     OW22054   6.911   1.867   3.430
 7052SOL    HW122055   6.981   1.806   3.467
 7052SOL    HW222056   6.888   1.936   3.499
 7053SOL     OW22057   0.633   4.801   6.454
 7053SOL    HW122058   0.574   4.844   6.522
 7053SOL    HW222059   0.650   4.706   6.480
 7054SOL     OW22060   6.967   6.478   1.747
 7054SOL    HW122061   7.003   6.521   1.664
 7054SOL    HW222062   6.872   6.450   1.731
 7055SOL     OW22063   4.200   0.052   4.334
 7055SOL    HW122064   4.197   0.008   4.423
 7055SOL    HW222065   4.114   0.100   4.317
 7056SOL     OW22066   5.337   4.770   4.152
 7056SOL    HW122067   5.246   4.810   4.140
 7056SOL    HW222068   5.333   4.700   4.223
 7057SOL     OW22069   0.069   5.610   3.471
 7057SOL    HW122070   0.154   5.655   3.496
 7057SOL    HW222071   0.025   5.661   3.397
 7058SOL     OW22072   0.995   5.279   5.300
 7058SOL    HW122073   0.957   5.260   5.210
 7058SOL    HW222074   1.057   5.358   5.294
 7059SOL     OW22075   1.535   0.340   2.524
 7059SOL    HW122076   1.550   0.365   2.428
 7059SOL    HW222077   1.455   0.280   2.530
 7060SOL     OW22078   3.102   6.065   1.825
 7060SOL    HW122079   3.132   6.158   1.805
 7060SOL    HW222080   3.182   6.005   1.833
 7061SOL     OW22081   0.579   0.621   2.519
 7061SOL    HW122082   0.578   0.719   2.497
 7061SOL    HW222083   0.581   0.610   2.619
 7062SOL     OW22084   5.673   2.351   5.066
 7062SOL    HW122085   5.582   2.310   5.073
 7062SOL    HW222086   5.669   2.446   5.098
 7063SOL     OW22087   3.314   6.362   1.032
 7063SOL    HW122088   3.362   6.363   1.120
 7063SOL    HW222089   3.364   6.303   0.969
 7064SOL     OW22090   3.872   2.555   1.070
 7064SOL    HW122091   3.825   2.470   1.048
 7064SOL    HW222092   3.809   2.617   1.117
 7065SOL     OW22093   4.854   3.827   1.733
 7065SOL    HW122094   4.763   3.834   1.693
 7065SOL    HW222095   4.923   3.832   1.661
 7066SOL     OW22096   3.524   6.722   0.867
 7066SOL    HW122097   3.597   6.654   0.855
 7066SOL    HW222098   3.495   6.756   0.778
 7067SOL     OW22099   0.401   3.741   5.651
 7067SOL    HW122100   0.379   3.829   5.609
 7067SOL    HW222101   0.477   3.698   5.601
 7068SOL     OW22102   2.043   1.066   4.084
 7068SOL    HW122103   1.964   1.093   4.137
 7068SOL    HW222104   2.118   1.042   4.145
 7069SOL     OW22105   0.765   4.790   4.750
 7069SOL    HW122106   0.710   4.710   4.730
 7069SOL    HW222107   0.860   4.762   4.767
 7070SOL     OW22108   6.037   5.257   4.736
 7070SOL    HW122109   6.063   5.318   4.811
 7070SOL    HW222110   5.972   5.189   4.769
 7071SOL     OW22111   1.693   6.343   5.309
 7071SOL    HW122112   1.727   6.435   5.290
 7071SOL    HW222113   1.651   6.305   5.227
 7072SOL     OW22114   0.730   6.717   6.709
 7072SOL    HW122115   0.655   6.719   6.643
 7072SOL    HW222116   0.693   6.714   6.801
 7073SOL     OW22117   0.982   0.226   5.868
 7073SOL    HW122118   0.985   0.164   5.946
 7073SOL    HW222119   0.888   0.236   5.836
 7074SOL     OW22120   3.335   1.819   1.282
 7074SOL    HW122121   3.286   1.778   1.206
 7074SOL    HW222122   3.314   1.769   1.366
 7075SOL     OW22123   1.558   6.135   3.303
 7075SOL    HW122124   1.600   6.169   3.219
 7075SOL    HW222125   1.620   6.152   3.380
 7076SOL     OW22126   2.992   2.578   6.685
 7076SOL    HW122127   2.972   2.638   6.608
 7076SOL    HW222128   2.972   2.625   6.771
 7077SOL     OW22129   2.415   5.627   5.558
 7077SOL    HW122130   2.397   5.592   5.650
 7077SOL    HW222131   2.346   5.592   5.495
 7078SOL     OW22132   5.927   0.786   3.176
 7078SOL    HW122133   5.916   0.689   3.155
 7078SOL    HW222134   5.894   0.804   3.269
 7079SOL     OW22135   5.954   6.178   5.738
 7079SOL    HW122136   5.931   6.257   5.796
 7079SOL    HW222137   6.015   6.117   5.788
 7080SOL     OW22138   4.801   1.903   3.882
 7080SOL    HW122139   4.846   1.866   3.964
 7080SOL    HW222140   4.737   1.834   3.846
 7081SOL     OW22141   3.631   1.476   5.269
 7081SOL    HW122142   3.709   1.430   5.227
 7081SOL    HW222143   3.621   1.446   5.364
 7082SOL     OW22144   5.286   0.762   6.010
 7082SOL    HW122145   5.282   0.662   6.016
 7082SOL    HW222146   5.312   0.800   6.099
 7083SOL     OW22147   3.315   6.960   6.677
 7083SOL    HW122148   3.221   6.988   6.697
 7083SOL    HW222149   3.315   6.869   6.637
 7084SOL     OW22150   6.823   6.410   6.148
 7084SOL    HW122151   6.816   6.394   6.050
 7084SOL    HW222152   6.777   6.495   6.171
 7085SOL     OW22153   2.127   2.176   1.700
 7085SOL    HW122154   2.040   2.226   1.702
 7085SOL    HW222155   2.154   2.153   1.793
 7086SOL     OW22156   5.741   0.182   6.285
 7086SOL    HW122157   5.734   0.218   6.378
 7086SOL    HW222158   5.829   0.207   6.245
 7087SOL     OW22159   1.273   3.260   3.982
 7087SOL    HW122160   1.266   3.279   4.080
 7087SOL    HW222161   1.340   3.188   3.967
 7088SOL     OW22162   6.032   3.081   4.938
 7088SOL    HW122163   6.019   3.060   4.842
 7088SOL    HW222164   5.961   3.144   4.969
 7089SOL     OW22165   2.921   1.996   0.078
 7089SOL    HW122166   3.011   1.996   0.034
 7089SOL    HW222167   2.885   2.089   0.082
 7090SOL     OW22168   2.469   2.102   5.311
 7090SOL    HW122169   2.403   2.176   5.317
 7090SOL    HW222170   2.525   2.100   5.395
 7091SOL     OW22171   6.873   6.933   0.324
 7091SOL    HW122172   6.817   6.862   0.283
 7091SOL    HW222173   6.844   6.948   0.419
 7092SOL     OW22174   3.428   4.086   1.018
 7092SOL    HW122175   3.355   4.022   0.994
 7092SOL    HW222176   3.473   4.055   1.101
 7093SOL     OW22177   3.419   4.073   4.539
 7093SOL    HW122178   3.357   3.995   4.524
 7093SOL    HW222179   3.460   4.100   4.452
 7094SOL     OW22180   0.767   0.282   5.314
 7094SOL    HW122181   0.754   0.312   5.219
 7094SOL    HW222182   0.834   0.209   5.317
 7095SOL     OW22183   0.541   3.289   6.348
 7095SOL    HW122184   0.474   3.221   6.378
 7095SOL    HW222185   0.494   3.365   6.305
 7096SOL     OW22186   4.579   2.360   3.395
 7096SOL    HW122187   4.666   2.408   3.400
 7096SOL    HW222188   4.593   2.268   3.358
 7097SOL     OW22189   6.972   0.785   1.446
 7097SOL    HW122190   6.988   0.883   1.433
 7097SOL    HW222191   6.968   0.739   1.357
 7098SOL     OW22192   2.178   6.226   6.598
 7098SOL    HW122193   2.201   6.302   6.537
 7098SOL    HW222194   2.138   6.262   6.683
 7099SOL     OW22195   1.221   1.044   6.152
 7099SOL    HW122196   1.134   1.065   6.196
 7099SOL    HW222197   1.226   1.090   6.064
 7100SOL     OW22198   5.343   3.652   0.962
 7100SOL    HW122199   5.387   3.675   1.049
 7100SOL    HW222200   5.406   3.596   0.908
 7101SOL     OW22201   2.911   0.513   5.318
 7101SOL    HW122202   2.968   0.586   5.281
 7101SOL    HW222203   2.861   0.547   5.398
 7102SOL     OW22204   4.118   1.550   0.810
 7102SOL    HW122205   4.057   1.629   0.799
 7102SOL    HW222206   4.155   1.549   0.902
 7103SOL     OW22207   3.285   6.542   6.848
 7103SOL    HW122208   3.300   6.521   6.752
 7103SOL    HW222209   3.360   6.601   6.881
 7104SOL     OW22210   1.135   1.867   2.995
 7104SOL    HW122211   1.208   1.915   2.947
 7104SOL    HW222212   1.160   1.856   3.092
 7105SOL     OW22213   3.427   3.545   4.824
 7105SOL    HW122214   3.341   3.574   4.782
 7105SOL    HW222215   3.489   3.512   4.753
 7106SOL     OW22216   3.369   2.824   5.185
 7106SOL    HW122217   3.328   2.886   5.252
 7106SOL    HW222218   3.359   2.730   5.218
 7107SOL     OW22219   2.318   2.158   0.395
 7107SOL    HW122220   2.376   2.089   0.352
 7107SOL    HW222221   2.356   2.182   0.485
 7108SOL     OW22222   5.520   6.656   1.605
 7108SOL    HW122223   5.585   6.652   1.529
 7108SOL    HW222224   5.429   6.679   1.570
 7109SOL     OW22225   3.665   0.127   6.625
 7109SOL    HW122226   3.613   0.174   6.553
 7109SOL    HW222227   3.603   0.104   6.700
 7110SOL     OW22228   4.521   5.425   3.889
 7110SOL    HW122229   4.500   5.335   3.928
 7110SOL    HW222230   4.452   5.448   3.821
 7111SOL     OW22231   2.353   2.701   4.358
 7111SOL    HW122232   2.371   2.785   4.309
 7111SOL    HW222233   2.308   2.635   4.297
 7112SOL     OW22234   1.030   6.556   3.697
 7112SOL    HW122235   1.099   6.493   3.732
 7112SOL    HW222236   1.074   6.626   3.641
 7113SOL     OW22237   4.052   3.329   4.483
 7113SOL    HW122238   3.962   3.365   4.457
 7113SOL    HW222239   4.041   3.261   4.556
 7114SOL     OW22240   4.436   0.973   1.504
 7114SOL    HW122241   4.432   0.878   1.533
 7114SOL    HW222242   4.489   1.026   1.571
 7115SOL     OW22243   4.792   1.600   1.332
 7115SOL    HW122244   4.883   1.642   1.325
 7115SOL    HW222245   4.777   1.541   1.253
 7116SOL     OW22246   5.101   4.069   2.982
 7116SOL    HW122247   5.158   4.137   2.936
 7116SOL    HW222248   5.159   4.008   3.036
 7117SOL     OW22249   6.165   6.512   2.332
 7117SOL    HW122250   6.262   6.507   2.351
 7117SOL    HW222251   6.151   6.520   2.233
 7118SOL     OW22252   6.434   3.729   1.058
 7118SOL    HW122253   6.367   3.733   1.132
 7118SOL    HW222254   6.490   3.647   1.068
 7119SOL     OW22255   6.648   1.345   3.429
 7119SOL    HW122256   6.698   1.259   3.415
 7119SOL    HW222257   6.561   1.340   3.380
 7120SOL     OW22258   4.663   1.468   3.256
 7120SOL    HW122259   4.590   1.532   3.232
 7120SOL    HW222260   4.730   1.514   3.315
 7121SOL     OW22261   2.934   6.558   3.477
 7121SOL    HW122262   2.986   6.494   3.535
 7121SOL    HW222263   2.863   6.602   3.532
 7122SOL     OW22264   6.696   0.864   6.902
 7122SOL    HW122265   6.633   0.811   6.960
 7122SOL    HW222266   6.689   0.831   6.808
 7123SOL     OW22267   3.275   5.148   1.121
 7123SOL    HW122268   3.278   5.122   1.217
 7123SOL    HW222269   3.183   5.131   1.085
 7124SOL     OW22270   0.205   5.060   0.081
 7124SOL    HW122271   0.266   5.111   0.141
 7124SOL    HW222272   0.121   5.038   0.131
 7125SOL     OW22273   6.606   6.216   2.467
 7125SOL    HW122274   6.513   6.192   2.441
 7125SOL    HW222275   6.647   6.274   2.397
 7126SOL     OW22276   0.974   4.554   0.529
 7126SOL    HW122277   1.068   4.538   0.499
 7126SOL    HW222278   0.918   4.582   0.452
 7127SOL     OW22279   3.800   6.381   4.220
 7127SOL    HW122280   3.759   6.382   4.311
 7127SOL    HW222281   3.735   6.344   4.154
 7128SOL     OW22282   3.325   4.182   1.462
 7128SOL    HW122283   3.417   4.202   1.428
 7128SOL    HW222284   3.297   4.091   1.432
 7129SOL     OW22285   2.303   6.986   1.974
 7129SOL    HW122286   2.390   6.984   2.024
 7129SOL    HW222287   2.320   7.010   1.879
 7130SOL     OW22288   2.120   4.467   3.855
 7130SOL    HW122289   2.086   4.467   3.761
 7130SOL    HW222290   2.143   4.561   3.882
 7131SOL     OW22291   2.722   0.866   2.871
 7131SOL    HW122292   2.775   0.944   2.901
 7131SOL    HW222293   2.762   0.781   2.907
 7132SOL     OW22294   3.971   3.831   3.289
 7132SOL    HW122295   3.997   3.815   3.384
 7132SOL    HW222296   3.896   3.898   3.286
 7133SOL     OW22297   5.186   4.810   3.220
 7133SOL    HW122298   5.214   4.861   3.139
 7133SOL    HW222299   5.212   4.860   3.303
 7134SOL     OW22300   5.950   4.846   4.167
 7134SOL    HW122301   5.895   4.898   4.233
 7134SOL    HW222302   6.011   4.784   4.217
 7135SOL     OW22303   0.857   1.791   5.246
 7135SOL    HW122304   0.853   1.698   5.281
 7135SOL    HW222305   0.951   1.826   5.251
 7136SOL     OW22306   1.848   1.555   0.460
 7136SOL    HW122307   1.851   1.561   0.560
 7136SOL    HW222308   1.934   1.515   0.426
 7137SOL     OW22309   4.622   0.806   4.775
 7137SOL    HW122310   4.699   0.742   4.778
 7137SOL    HW222311   4.607   0.843   4.867
 7138SOL     OW22312   2.069   4.113   1.368
 7138SOL    HW122313   2.045   4.160   1.284
 7138SOL    HW222314   2.156   4.148   1.403
 7139SOL     OW22315   4.513   3.225   1.491
 7139SOL    HW122316   4.426   3.184   1.520
 7139SOL    HW222317   4.587   3.186   1.545
 7140SOL     OW22318   6.144   4.107   5.547
 7140SOL    HW122319   6.227   4.087   5.495
 7140SOL    HW222320   6.118   4.026   5.600
 7141SOL     OW22321   2.671   6.773   0.744
 7141SOL    HW122322   2.764   6.766   0.781
 7141SOL    HW222323   2.672   6.744   0.648
 7142SOL     OW22324   4.095   6.405   3.964
 7142SOL    HW122325   4.149   6.489   3.967
 7142SOL    HW222326   4.005   6.421   4.006
 7143SOL     OW22327   1.256   4.060   5.787
 7143SOL    HW122328   1.180   3.997   5.772
 7143SOL    HW222329   1.342   4.017   5.759
 7144SOL     OW22330   0.939   1.598   3.325
 7144SOL    HW122331   0.922   1.614   3.422
 7144SOL    HW222332   1.037   1.606   3.306
 7145SOL     OW22333   4.902   6.787   0.006
 7145SOL    HW122334   4.985   6.837   0.028
 7145SOL    HW222335   4.867   6.741   0.087
 7146SOL     OW22336   2.956   5.442   0.194
 7146SOL    HW122337   3.036   5.392   0.228
 7146SOL    HW222338   2.915   5.392   0.118
 7147SOL     OW22339   0.155   0.458   3.069
 7147SOL    HW122340   0.119   0.549   3.048
 7147SOL    HW222341   0.246   0.466   3.110
 7148SOL     OW22342   1.304   0.716   1.685
 7148SOL    HW122343   1.308   0.624   1.648
 7148SOL    HW222344   1.356   0.778   1.626
 7149SOL     OW22345   6.384   1.297   3.310
 7149SOL    HW122346   6.338   1.208   3.311
 7149SOL    HW222347   6.394   1.328   3.215
 7150SOL     OW22348   6.212   2.787   6.628
 7150SOL    HW122349   6.300   2.816   6.591
 7150SOL    HW222350   6.206   2.814   6.724
 7151SOL     OW22351   2.730   5.759   1.669
 7151SOL    HW122352   2.661   5.706   1.718
 7151SOL    HW222353   2.801   5.788   1.732
 7152SOL     OW22354   1.525   2.696   3.832
 7152SOL    HW122355   1.500   2.723   3.739
 7152SOL    HW222356   1.610   2.644   3.830
 7153SOL     OW22357   3.937   1.338   3.852
 7153SOL    HW122358   3.875   1.271   3.893
 7153SOL    HW222359   4.008   1.290   3.801
 7154SOL     OW22360   4.658   5.429   4.136
 7154SOL    HW122361   4.598   5.437   4.056
 7154SOL    HW222362   4.635   5.500   4.202
 7155SOL     OW22363   1.673   0.218   1.387
 7155SOL    HW122364   1.704   0.303   1.430
 7155SOL    HW222365   1.745   0.149   1.394
 7156SOL     OW22366   6.608   5.478   4.735
 7156SOL    HW122367   6.568   5.529   4.659
 7156SOL    HW222368   6.694   5.437   4.706
 7157SOL     OW22369   4.842   5.142   0.765
 7157SOL    HW122370   4.840   5.241   0.749
 7157SOL    HW222371   4.827   5.094   0.679
 7158SOL     OW22372   6.780   6.714   2.937
 7158SOL    HW122373   6.877   6.728   2.957
 7158SOL    HW222374   6.726   6.738   3.017
 7159SOL     OW22375   0.789   5.244   0.383
 7159SOL    HW122376   0.796   5.207   0.290
 7159SOL    HW222377   0.726   5.322   0.383
 7160SOL     OW22378   6.006   0.575   1.987
 7160SOL    HW122379   6.095   0.563   2.032
 7160SOL    HW222380   5.977   0.670   1.995
 7161SOL     OW22381   3.599   3.281   4.170
 7161SOL    HW122382   3.686   3.248   4.206
 7161SOL    HW222383   3.526   3.218   4.196
 7162SOL     OW22384   3.316   4.871   3.786
 7162SOL    HW122385   3.394   4.900   3.730
 7162SOL    HW222386   3.347   4.848   3.878
 7163SOL     OW22387   3.065   0.265   3.146
 7163SOL    HW122388   3.145   0.206   3.139
 7163SOL    HW222389   3.081   0.350   3.096
 7164SOL     OW22390   2.142   0.954   3.090
 7164SOL    HW122391   2.174   0.931   3.182
 7164SOL    HW222392   2.213   1.006   3.042
 7165SOL     OW22393   5.287   1.305   0.755
 7165SOL    HW122394   5.318   1.400   0.761
 7165SOL    HW222395   5.189   1.301   0.775
 7166SOL     OW22396   5.193   5.123   0.864
 7166SOL    HW122397   5.107   5.132   0.914
 7166SOL    HW222398   5.219   5.212   0.826
 7167SOL     OW22399   4.840   3.243   5.052
 7167SOL    HW122400   4.899   3.324   5.053
 7167SOL    HW222401   4.834   3.209   4.958
 7168SOL     OW22402   1.043   0.601   3.813
 7168SOL    HW122403   1.083   0.613   3.904
 7168SOL    HW222404   0.944   0.605   3.820
 7169SOL     OW22405   1.734   2.725   5.528
 7169SOL    HW122406   1.679   2.792   5.478
 7169SOL    HW222407   1.681   2.642   5.542
 7170SOL     OW22408   5.968   5.175   4.157
 7170SOL    HW122409   5.907   5.148   4.083
 7170SOL    HW222410   5.961   5.108   4.232
 7171SOL     OW22411   4.382   3.202   5.389
 7171SOL    HW122412   4.445   3.278   5.371
 7171SOL    HW222413   4.367   3.193   5.488
 7172SOL     OW22414   1.317   0.024   0.149
 7172SOL    HW122415   1.351   7.003   0.064
 7172SOL    HW222416   1.275   6.972   0.205
 7173SOL     OW22417   0.248   6.296   5.654
 7173SOL    HW122418   0.239   6.218   5.592
 7173SOL    HW222419   0.299   6.267   5.735
 7174SOL     OW22420   1.866   5.133   0.102
 7174SOL    HW122421   1.816   5.182   0.172
 7174SOL    HW222422   1.832   5.159   0.012
 7175SOL     OW22423   5.930   4.107   6.894
 7175SOL    HW122424   6.011   4.160   6.869
 7175SOL    HW222425   5.914   4.036   6.826
 7176SOL     OW22426   5.723   4.252   1.087
 7176SOL    HW122427   5.798   4.186   1.084
 7176SOL    HW222428   5.665   4.240   1.007
 7177SOL     OW22429   1.161   5.191   2.861
 7177SOL    HW122430   1.239   5.222   2.807
 7177SOL    HW222431   1.161   5.237   2.950
 7178SOL     OW22432   0.957   2.710   5.237
 7178SOL    HW122433   1.016   2.752   5.168
 7178SOL    HW222434   0.882   2.772   5.260
 7179SOL     OW22435   2.655   4.324   5.691
 7179SOL    HW122436   2.593   4.374   5.630
 7179SOL    HW222437   2.685   4.240   5.646
 7180SOL     OW22438   0.939   6.049   2.143
 7180SOL    HW122439   0.898   6.049   2.052
 7180SOL    HW222440   0.876   6.007   2.209
 7181SOL     OW22441   4.856   0.347   1.087
 7181SOL    HW122442   4.858   0.272   1.153
 7181SOL    HW222443   4.770   0.397   1.096
 7182SOL     OW22444   2.605   4.103   5.306
 7182SOL    HW122445   2.607   4.202   5.288
 7182SOL    HW222446   2.520   4.065   5.271
 7183SOL     OW22447   1.401   5.038   3.067
 7183SOL    HW122448   1.429   5.133   3.082
 7183SOL    HW222449   1.480   4.985   3.038
 7184SOL     OW22450   2.580   6.384   4.257
 7184SOL    HW122451   2.506   6.448   4.236
 7184SOL    HW222452   2.664   6.413   4.210
 7185SOL     OW22453   4.482   2.816   6.880
 7185SOL    HW122454   4.563   2.781   6.929
 7185SOL    HW222455   4.407   2.827   6.944
 7186SOL     OW22456   6.538   5.850   5.390
 7186SOL    HW122457   6.508   5.820   5.481
 7186SOL    HW222458   6.633   5.823   5.375
 7187SOL     OW22459   2.002   4.199   1.916
 7187SOL    HW122460   2.035   4.248   1.835
 7187SOL    HW222461   2.046   4.109   1.921
 7188SOL     OW22462   5.095   1.410   2.141
 7188SOL    HW122463   5.169   1.347   2.163
 7188SOL    HW222464   5.010   1.359   2.128
 7189SOL     OW22465   0.084   1.488   5.573
 7189SOL    HW122466   0.003   1.535   5.609
 7189SOL    HW222467   0.160   1.552   5.568
 7190SOL     OW22468   5.226   4.044   3.298
 7190SOL    HW122469   5.246   3.972   3.232
 7190SOL    HW222470   5.303   4.108   3.303
 7191SOL     OW22471   1.432   3.636   1.845
 7191SOL    HW122472   1.480   3.571   1.904
 7191SOL    HW222473   1.382   3.586   1.774
 7192SOL     OW22474   2.647   4.405   5.967
 7192SOL    HW122475   2.705   4.486   5.969
 7192SOL    HW222476   2.651   4.364   5.876
 7193SOL     OW22477   4.291   2.310   4.003
 7193SOL    HW122478   4.313   2.379   4.072
 7193SOL    HW222479   4.204   2.267   4.025
 7194SOL     OW22480   2.431   1.877   1.734
 7194SOL    HW122481   2.506   1.892   1.669
 7194SOL    HW222482   2.426   1.955   1.796
 7195SOL     OW22483   1.218   5.152   1.087
 7195SOL    HW122484   1.183   5.188   1.001
 7195SOL    HW222485   1.279   5.220   1.129
 7196SOL     OW22486   2.968   3.707   2.321
 7196SOL    HW122487   3.067   3.722   2.315
 7196SOL    HW222488   2.924   3.741   2.238
 7197SOL     OW22489   6.663   2.131   5.315
 7197SOL    HW122490   6.759   2.145   5.339
 7197SOL    HW222491   6.645   2.169   5.224
 7198SOL     OW22492   1.205   6.348   6.587
 7198SOL    HW122493   1.125   6.387   6.542
 7198SOL    HW222494   1.276   6.330   6.519
 7199SOL     OW22495   6.597   6.576   2.801
 7199SOL    HW122496   6.603   6.626   2.714
 7199SOL    HW222497   6.665   6.612   2.864
 7200SOL     OW22498   2.078   1.127   0.983
 7200SOL    HW122499   2.162   1.090   1.023
 7200SOL    HW222500   2.099   1.169   0.894
 7201SOL     OW22501   1.933   3.899   3.894
 7201SOL    HW122502   2.019   3.872   3.938
 7201SOL    HW222503   1.939   3.996   3.868
 7202SOL     OW22504   3.607   1.053   6.801
 7202SOL    HW122505   3.563   1.119   6.740
 7202SOL    HW222506   3.651   0.981   6.747
 7203SOL     OW22507   5.485   1.158   6.932
 7203SOL    HW122508   5.477   1.100   7.014
 7203SOL    HW222509   5.415   1.133   6.866
 7204SOL     OW22510   5.862   1.309   3.406
 7204SOL    HW122511   5.936   1.365   3.369
 7204SOL    HW222512   5.851   1.228   3.349
 7205SOL     OW22513   2.478   4.593   2.464
 7205SOL    HW122514   2.440   4.565   2.552
 7205SOL    HW222515   2.477   4.516   2.400
 7206SOL     OW22516   6.513   0.957   1.288
 7206SOL    HW122517   6.432   1.002   1.252
 7206SOL    HW222518   6.535   0.995   1.378
 7207SOL     OW22519   3.401   0.105   1.297
 7207SOL    HW122520   3.465   0.066   1.364
 7207SOL    HW222521   3.368   0.032   1.237
 7208SOL     OW22522   3.319   0.211   5.831
 7208SOL    HW122523   3.401   0.178   5.783
 7208SOL    HW222524   3.271   0.134   5.872
 7209SOL     OW22525   3.810   3.422   4.340
 7209SOL    HW122526   3.885   3.448   4.279
 7209SOL    HW222527   3.730   3.478   4.321
 7210SOL     OW22528   4.476   1.067   3.804
 7210SOL    HW122529   4.538   1.115   3.867
 7210SOL    HW222530   4.382   1.084   3.832
 7211SOL     OW22531   1.683   5.233   3.497
 7211SOL    HW122532   1.756   5.296   3.523
 7211SOL    HW222533   1.614   5.230   3.569
 7212SOL     OW22534   6.116   6.620   4.225
 7212SOL    HW122535   6.167   6.705   4.235
 7212SOL    HW222536   6.072   6.618   4.135
 7213SOL     OW22537   6.281   1.013   5.378
 7213SOL    HW122538   6.245   1.024   5.471
 7213SOL    HW222539   6.362   1.071   5.366
 7214SOL     OW22540   1.669   5.141   5.009
 7214SOL    HW122541   1.610   5.112   5.084
 7214SOL    HW222542   1.718   5.224   5.036
 7215SOL     OW22543   0.987   3.639   3.601
 7215SOL    HW122544   0.992   3.739   3.604
 7215SOL    HW222545   1.076   3.602   3.578
 7216SOL     OW22546   2.496   0.542   0.178
 7216SOL    HW122547   2.534   0.605   0.246
 7216SOL    HW222548   2.566   0.521   0.110
 7217SOL     OW22549   0.556   2.902   2.438
 7217SOL    HW122550   0.477   2.865   2.486
 7217SOL    HW222551   0.638   2.889   2.495
 7218SOL     OW22552   4.964   2.769   5.360
 7218SOL    HW122553   5.040   2.715   5.396
 7218SOL    HW222554   4.878   2.736   5.400
 7219SOL     OW22555   3.897   0.726   2.717
 7219SOL    HW122556   3.939   0.705   2.629
 7219SOL    HW222557   3.870   0.822   2.719
 7220SOL     OW22558   6.570   1.275   2.567
 7220SOL    HW122559   6.544   1.253   2.473
 7220SOL    HW222560   6.523   1.213   2.630
 7221SOL     OW22561   5.253   4.802   6.221
 7221SOL    HW122562   5.210   4.847   6.300
 7221SOL    HW222563   5.306   4.724   6.252
 7222SOL     OW22564   0.312   5.900   1.565
 7222SOL    HW122565   0.257   5.983   1.571
 7222SOL    HW222566   0.375   5.907   1.488
 7223SOL     OW22567   3.580   1.072   5.930
 7223SOL    HW122568   3.593   0.978   5.962
 7223SOL    HW222569   3.669   1.114   5.916
 7224SOL     OW22570   5.332   0.049   4.985
 7224SOL    HW122571   5.236   0.020   4.984
 7224SOL    HW222572   5.364   0.057   5.079
 7225SOL     OW22573   2.364   6.591   6.855
 7225SOL    HW122574   2.367   6.492   6.868
 7225SOL    HW222575   2.364   6.636   6.944
 7226SOL     OW22576   0.495   6.373   0.341
 7226SOL    HW122577   0.523   6.286   0.301
 7226SOL    HW222578   0.571   6.411   0.395
 7227SOL     OW22579   6.822   2.539   6.959
 7227SOL    HW122580   6.909   2.515   7.002
 7227SOL    HW222581   6.839   2.585   6.872
 7228SOL     OW22582   0.846   0.770   2.252
 7228SOL    HW122583   0.842   0.809   2.344
 7228SOL    HW222584   0.903   0.688   2.254
 7229SOL     OW22585   0.757   0.587   3.838
 7229SOL    HW122586   0.753   0.633   3.927
 7229SOL    HW222587   0.757   0.488   3.851
 7230SOL     OW22588   5.152   4.216   3.714
 7230SOL    HW122589   5.086   4.238   3.642
 7230SOL    HW222590   5.215   4.146   3.680
 7231SOL     OW22591   6.019   1.039   6.490
 7231SOL    HW122592   6.012   1.122   6.546
 7231SOL    HW222593   5.995   1.062   6.396
 7232SOL     OW22594   4.498   4.917   1.921
 7232SOL    HW122595   4.492   4.974   2.003
 7232SOL    HW222596   4.570   4.849   1.932
 7233SOL     OW22597   6.985   2.342   6.299
 7233SOL    HW122598   0.066   2.343   6.313
 7233SOL    HW222599   6.945   2.424   6.339
 7234SOL     OW22600   6.145   2.018   1.745
 7234SOL    HW122601   6.120   1.953   1.817
 7234SOL    HW222602   6.172   1.967   1.663
 7235SOL     OW22603   5.619   3.734   5.098
 7235SOL    HW122604   5.522   3.743   5.121
 7235SOL    HW222605   5.673   3.770   5.174
 7236SOL     OW22606   3.535   0.348   2.940
 7236SOL    HW122607   3.461   0.384   2.882
 7236SOL    HW222608   3.538   0.399   3.026
 7237SOL     OW22609   5.871   5.871   5.909
 7237SOL    HW122610   5.780   5.891   5.947
 7237SOL    HW222611   5.939   5.925   5.958
 7238SOL     OW22612   2.038   1.592   1.709
 7238SOL    HW122613   2.034   1.605   1.808
 7238SOL    HW222614   2.133   1.581   1.681
 7239SOL     OW22615   3.236   1.724   1.512
 7239SOL    HW122616   3.244   1.640   1.566
 7239SOL    HW222617   3.160   1.778   1.548
 7240SOL     OW22618   2.736   4.332   0.196
 7240SOL    HW122619   2.715   4.427   0.221
 7240SOL    HW222620   2.829   4.328   0.158
 7241SOL     OW22621   3.774   6.844   4.821
 7241SOL    HW122622   3.790   6.880   4.729
 7241SOL    HW222623   3.782   6.919   4.887
 7242SOL     OW22624   5.470   4.524   6.579
 7242SOL    HW122625   5.557   4.488   6.546
 7242SOL    HW222626   5.482   4.618   6.610
 7243SOL     OW22627   0.595   5.823   0.302
 7243SOL    HW122628   0.693   5.808   0.315
 7243SOL    HW222629   0.573   5.813   0.205
 7244SOL     OW22630   5.974   0.997   1.538
 7244SOL    HW122631   6.063   0.972   1.501
 7244SOL    HW222632   5.931   0.917   1.579
 7245SOL     OW22633   6.980   1.645   4.021
 7245SOL    HW122634   6.920   1.603   4.090
 7245SOL    HW222635   0.053   1.608   4.031
 7246SOL     OW22636   6.788   6.229   5.900
 7246SOL    HW122637   6.771   6.200   5.805
 7246SOL    HW222638   6.701   6.237   5.948
 7247SOL     OW22639   3.341   5.441   2.662
 7247SOL    HW122640   3.329   5.344   2.683
 7247SOL    HW222641   3.383   5.451   2.572
 7248SOL     OW22642   3.564   0.833   4.569
 7248SOL    HW122643   3.517   0.786   4.494
 7248SOL    HW222644   3.661   0.841   4.547
 7249SOL     OW22645   6.442   5.302   0.286
 7249SOL    HW122646   6.362   5.284   0.343
 7249SOL    HW222647   6.525   5.297   0.342
 7250SOL     OW22648   3.007   4.799   6.144
 7250SOL    HW122649   3.075   4.727   6.158
 7250SOL    HW222650   2.993   4.848   6.230
 7251SOL     OW22651   5.668   0.181   4.976
 7251SOL    HW122652   5.705   0.163   5.067
 7251SOL    HW222653   5.575   0.217   4.984
 7252SOL     OW22654   3.780   3.441   5.103
 7252SOL    HW122655   3.852   3.398   5.049
 7252SOL    HW222656   3.815   3.522   5.149
 7253SOL     OW22657   5.230   5.994   1.221
 7253SOL    HW122658   5.200   6.084   1.190
 7253SOL    HW222659   5.293   6.005   1.298
 7254SOL     OW22660   4.520   6.077   4.773
 7254SOL    HW122661   4.543   5.981   4.756
 7254SOL    HW222662   4.521   6.127   4.686
 7255SOL     OW22663   3.553   3.816   2.474
 7255SOL    HW122664   3.521   3.790   2.383
 7255SOL    HW222665   3.649   3.844   2.469
 7256SOL     OW22666   4.472   4.965   4.430
 7256SOL    HW122667   4.407   4.916   4.372
 7256SOL    HW222668   4.529   4.899   4.480
 7257SOL     OW22669   6.006   4.055   3.042
 7257SOL    HW122670   5.912   4.033   3.067
 7257SOL    HW222671   6.014   4.154   3.026
 7258SOL     OW22672   3.478   6.543   4.316
 7258SOL    HW122673   3.415   6.491   4.260
 7258SOL    HW222674   3.536   6.601   4.258
 7259SOL     OW22675   2.301   5.305   5.951
 7259SOL    HW122676   2.259   5.294   6.041
 7259SOL    HW222677   2.384   5.250   5.946
 7260SOL     OW22678   3.519   1.780   2.181
 7260SOL    HW122679   3.524   1.823   2.091
 7260SOL    HW222680   3.561   1.841   2.249
 7261SOL     OW22681   1.277   3.900   1.771
 7261SOL    HW122682   1.184   3.918   1.804
 7261SOL    HW222683   1.307   3.811   1.805
 7262SOL     OW22684   5.976   1.817   5.080
 7262SOL    HW122685   6.002   1.725   5.048
 7262SOL    HW222686   6.057   1.875   5.081
 7263SOL     OW22687   2.931   5.860   1.844
 7263SOL    HW122688   2.913   5.831   1.938
 7263SOL    HW222689   2.999   5.933   1.844
 7264SOL     OW22690   0.706   0.251   5.695
 7264SOL    HW122691   0.724   0.219   5.602
 7264SOL    HW222692   0.613   0.288   5.700
 7265SOL     OW22693   4.326   4.840   6.078
 7265SOL    HW122694   4.316   4.859   5.981
 7265SOL    HW222695   4.416   4.872   6.109
 7266SOL     OW22696   5.395   0.923   2.162
 7266SOL    HW122697   5.373   0.826   2.156
 7266SOL    HW222698   5.313   0.978   2.144
 7267SOL     OW22699   7.007   3.927   3.873
 7267SOL    HW122700   0.082   3.919   3.905
 7267SOL    HW222701   7.001   3.893   3.779
 7268SOL     OW22702   3.081   6.964   1.469
 7268SOL    HW122703   3.032   6.977   1.555
 7268SOL    HW222704   3.176   6.996   1.481
 7269SOL     OW22705   1.470   6.713   1.580
 7269SOL    HW122706   1.435   6.763   1.501
 7269SOL    HW222707   1.412   6.633   1.597
 7270SOL     OW22708   3.301   1.344   3.000
 7270SOL    HW122709   3.213   1.318   3.041
 7270SOL    HW222710   3.296   1.331   2.901
 7271SOL     OW22711   6.730   3.857   3.370
 7271SOL    HW122712   6.670   3.842   3.449
 7271SOL    HW222713   6.698   3.803   3.293
 7272SOL     OW22714   5.572   2.509   1.559
 7272SOL    HW122715   5.542   2.433   1.501
 7272SOL    HW222716   5.515   2.513   1.641
 7273SOL     OW22717   5.376   4.449   6.928
 7273SOL    HW122718   5.345   4.406   6.842
 7273SOL    HW222719   5.296   4.475   6.982
 7274SOL     OW22720   0.050   4.900   5.575
 7274SOL    HW122721   6.991   4.952   5.611
 7274SOL    HW222722   0.097   4.955   5.506
 7275SOL     OW22723   6.440   6.897   0.752
 7275SOL    HW122724   6.348   6.903   0.790
 7275SOL    HW222725   6.465   6.801   0.740
 7276SOL     OW22726   2.674   2.015   3.312
 7276SOL    HW122727   2.687   2.110   3.343
 7276SOL    HW222728   2.763   1.976   3.289
 7277SOL     OW22729   5.537   1.628   4.621
 7277SOL    HW122730   5.562   1.684   4.542
 7277SOL    HW222731   5.452   1.579   4.602
 7278SOL     OW22732   2.776   1.408   2.918
 7278SOL    HW122733   2.691   1.435   2.962
 7278SOL    HW222734   2.847   1.476   2.938
 7279SOL     OW22735   4.654   4.821   0.917
 7279SOL    HW122736   4.713   4.874   0.978
 7279SOL    HW222737   4.639   4.730   0.955
 7280SOL     OW22738   5.939   2.287   5.642
 7280SOL    HW122739   5.845   2.309   5.615
 7280SOL    HW222740   6.003   2.341   5.587
 7281SOL     OW22741   4.528   5.562   2.326
 7281SOL    HW122742   4.465   5.559   2.404
 7281SOL    HW222743   4.476   5.575   2.241
 7282SOL     OW22744   6.406   4.067   2.576
 7282SOL    HW122745   6.343   4.135   2.614
 7282SOL    HW222746   6.476   4.114   2.521
 7283SOL     OW22747   4.361   4.611   2.956
 7283SOL    HW122748   4.317   4.562   3.032
 7283SOL    HW222749   4.371   4.550   2.878
 7284SOL     OW22750   6.770   1.629   3.121
 7284SOL    HW122751   6.792   1.670   3.032
 7284SOL    HW222752   6.739   1.700   3.184
 7285SOL     OW22753   4.898   2.947   1.813
 7285SOL    HW122754   4.858   2.987   1.896
 7285SOL    HW222755   4.836   2.876   1.778
 7286SOL     OW22756   6.972   0.991   2.543
 7286SOL    HW122757   0.002   0.904   2.537
 7286SOL    HW222758   6.985   1.042   2.458
 7287SOL     OW22759   1.715   2.619   3.440
 7287SOL    HW122760   1.749   2.658   3.354
 7287SOL    HW222761   1.643   2.678   3.477
 7288SOL     OW22762   2.812   2.038   2.729
 7288SOL    HW122763   2.900   2.030   2.682
 7288SOL    HW222764   2.826   2.069   2.823
 7289SOL     OW22765   6.372   1.512   1.258
 7289SOL    HW122766   6.296   1.447   1.253
 7289SOL    HW222767   6.448   1.480   1.203
 7290SOL     OW22768   3.237   1.466   5.634
 7290SOL    HW122769   3.258   1.547   5.579
 7290SOL    HW222770   3.237   1.490   5.731
 7291SOL     OW22771   3.958   1.038   0.530
 7291SOL    HW122772   3.896   1.029   0.452
 7291SOL    HW222773   4.012   1.121   0.521
 7292SOL     OW22774   2.732   0.394   2.433
 7292SOL    HW122775   2.724   0.463   2.505
 7292SOL    HW222776   2.820   0.403   2.387
 7293SOL     OW22777   0.704   1.609   4.208
 7293SOL    HW122778   0.666   1.648   4.292
 7293SOL    HW222779   0.679   1.668   4.131
 7294SOL     OW22780   3.733   6.520   2.451
 7294SOL    HW122781   3.660   6.589   2.455
 7294SOL    HW222782   3.820   6.563   2.477
 7295SOL     OW22783   6.486   5.363   1.944
 7295SOL    HW122784   6.549   5.439   1.932
 7295SOL    HW222785   6.401   5.382   1.895
 7296SOL     OW22786   4.944   4.505   1.966
 7296SOL    HW122787   4.976   4.432   1.906
 7296SOL    HW222788   4.845   4.498   1.979
 7297SOL     OW22789   4.321   6.533   1.469
 7297SOL    HW122790   4.416   6.510   1.487
 7297SOL    HW222791   4.316   6.619   1.418
 7298SOL     OW22792   4.182   5.424   6.675
 7298SOL    HW122793   4.152   5.485   6.602
 7298SOL    HW222794   4.133   5.445   6.759
 7299SOL     OW22795   1.342   2.573   6.220
 7299SOL    HW122796   1.357   2.493   6.162
 7299SOL    HW222797   1.247   2.574   6.251
 7300SOL     OW22798   0.489   5.015   2.156
 7300SOL    HW122799   0.562   5.068   2.199
 7300SOL    HW222800   0.529   4.945   2.098
 7301SOL     OW22801   4.774   1.809   5.509
 7301SOL    HW122802   4.819   1.881   5.457
 7301SOL    HW222803   4.772   1.725   5.455
 7302SOL     OW22804   5.557   1.489   6.141
 7302SOL    HW122805   5.591   1.583   6.141
 7302SOL    HW222806   5.475   1.484   6.083
 7303SOL     OW22807   2.854   1.911   2.039
 7303SOL    HW122808   2.797   1.879   1.964
 7303SOL    HW222809   2.893   2.001   2.016
 7304SOL     OW22810   2.709   5.428   1.194
 7304SOL    HW122811   2.808   5.437   1.191
 7304SOL    HW222812   2.666   5.509   1.153
 7305SOL     OW22813   6.266   1.119   0.852
 7305SOL    HW122814   6.204   1.081   0.784
 7305SOL    HW222815   6.311   1.200   0.815
 7306SOL     OW22816   0.640   2.367   1.111
 7306SOL    HW122817   0.579   2.324   1.178
 7306SOL    HW222818   0.622   2.328   1.020
 7307SOL     OW22819   2.371   0.243   1.219
 7307SOL    HW122820   2.442   0.245   1.149
 7307SOL    HW222821   2.389   0.314   1.287
 7308SOL     OW22822   4.752   1.248   2.866
 7308SOL    HW122823   4.771   1.343   2.888
 7308SOL    HW222824   4.801   1.189   2.930
 7309SOL     OW22825   2.189   4.711   3.381
 7309SOL    HW122826   2.194   4.759   3.294
 7309SOL    HW222827   2.259   4.745   3.443
 7310SOL     OW22828   2.699   2.690   6.006
 7310SOL    HW122829   2.708   2.721   6.100
 7310SOL    HW222830   2.786   2.653   5.975
 7311SOL     OW22831   0.139   6.628   6.737
 7311SOL    HW122832   0.195   6.585   6.666
 7311SOL    HW222833   0.143   6.572   6.820
 7312SOL     OW22834   6.079   1.738   3.945
 7312SOL    HW122835   6.100   1.833   3.966
 7312SOL    HW222836   6.149   1.679   3.985
 7313SOL     OW22837   2.719   0.595   2.620
 7313SOL    HW122838   2.744   0.589   2.716
 7313SOL    HW222839   2.625   0.627   2.611
 7314SOL     OW22840   0.094   3.734   6.257
 7314SOL    HW122841   7.014   3.721   6.265
 7314SOL    HW222842   0.112   3.823   6.215
 7315SOL     OW22843   1.874   5.006   2.527
 7315SOL    HW122844   1.927   4.990   2.610
 7315SOL    HW222845   1.924   4.971   2.448
 7316SOL     OW22846   3.042   2.408   1.059
 7316SOL    HW122847   3.042   2.508   1.055
 7316SOL    HW222848   3.119   2.377   1.114
 7317SOL     OW22849   3.859   1.567   0.299
 7317SOL    HW122850   3.944   1.515   0.315
 7317SOL    HW222851   3.783   1.503   0.291
 7318SOL     OW22852   4.242   6.294   1.104
 7318SOL    HW122853   4.210   6.290   1.199
 7318SOL    HW222854   4.336   6.325   1.102
 7319SOL     OW22855   5.628   5.238   6.565
 7319SOL    HW122856   5.650   5.331   6.536
 7319SOL    HW222857   5.610   5.238   6.664
 7320SOL     OW22858   0.177   2.395   1.288
 7320SOL    HW122859   0.246   2.435   1.349
 7320SOL    HW222860   0.202   2.415   1.193
 7321SOL     OW22861   1.529   1.156   6.959
 7321SOL    HW122862   1.533   1.073   6.904
 7321SOL    HW222863   1.460   1.145   0.012
 7322SOL     OW22864   0.979   2.207   2.711
 7322SOL    HW122865   0.911   2.268   2.751
 7322SOL    HW222866   0.971   2.208   2.612
 7323SOL     OW22867   1.114   2.881   1.195
 7323SOL    HW122868   1.168   2.797   1.205
 7323SOL    HW222869   1.176   2.958   1.179
 7324SOL     OW22870   5.552   4.741   3.139
 7324SOL    HW122871   5.556   4.757   3.237
 7324SOL    HW222872   5.489   4.807   3.097
 7325SOL     OW22873   4.553   0.820   5.725
 7325SOL    HW122874   4.623   0.784   5.786
 7325SOL    HW222875   4.574   0.915   5.702
 7326SOL     OW22876   3.252   0.412   0.130
 7326SOL    HW122877   3.188   0.429   0.205
 7326SOL    HW222878   3.205   0.361   0.057
 7327SOL     OW22879   0.976   4.055   3.223
 7327SOL    HW122880   0.946   4.110   3.145
 7327SOL    HW222881   0.983   4.113   3.304
 7328SOL     OW22882   4.787   5.069   4.667
 7328SOL    HW122883   4.785   5.059   4.767
 7328SOL    HW222884   4.713   5.129   4.638
 7329SOL     OW22885   3.353   3.588   1.354
 7329SOL    HW122886   3.301   3.615   1.274
 7329SOL    HW222887   3.300   3.606   1.437
 7330SOL     OW22888   2.798   3.361   1.749
 7330SOL    HW122889   2.705   3.324   1.738
 7330SOL    HW222890   2.848   3.351   1.663
 7331SOL     OW22891   5.531   2.052   2.264
 7331SOL    HW122892   5.535   2.118   2.340
 7331SOL    HW222893   5.618   2.052   2.216
 7332SOL     OW22894   3.154   5.634   5.959
 7332SOL    HW122895   3.087   5.659   5.889
 7332SOL    HW222896   3.236   5.597   5.915
 7333SOL     OW22897   0.741   1.232   0.683
 7333SOL    HW122898   0.662   1.276   0.726
 7333SOL    HW222899   0.812   1.217   0.751
 7334SOL     OW22900   2.768   0.025   4.151
 7334SOL    HW122901   2.847   0.009   4.092
 7334SOL    HW222902   2.734   6.957   4.185
 7335SOL     OW22903   6.383   3.337   1.906
 7335SOL    HW122904   6.440   3.391   1.845
 7335SOL    HW222905   6.399   3.365   2.001
 7336SOL     OW22906   1.994   0.266   1.722
 7336SOL    HW122907   2.076   0.292   1.774
 7336SOL    HW222908   1.916   0.319   1.755
 7337SOL     OW22909   2.232   1.598   3.319
 7337SOL    HW122910   2.211   1.636   3.230
 7337SOL    HW222911   2.181   1.647   3.390
 7338SOL     OW22912   5.523   3.125   1.589
 7338SOL    HW122913   5.566   3.204   1.546
 7338SOL    HW222914   5.468   3.076   1.522
 7339SOL     OW22915   6.668   5.727   4.252
 7339SOL    HW122916   6.650   5.818   4.216
 7339SOL    HW222917   6.767   5.716   4.266
 7340SOL     OW22918   2.318   6.532   1.070
 7340SOL    HW122919   2.405   6.564   1.034
 7340SOL    HW222920   2.277   6.602   1.128
 7341SOL     OW22921   6.291   5.316   4.301
 7341SOL    HW122922   6.359   5.383   4.271
 7341SOL    HW222923   6.280   5.320   4.400
 7342SOL     OW22924   1.113   5.291   1.356
 7342SOL    HW122925   1.197   5.345   1.360
 7342SOL    HW222926   1.064   5.313   1.272
 7343SOL     OW22927   5.442   3.285   2.514
 7343SOL    HW122928   5.389   3.215   2.562
 7343SOL    HW222929   5.447   3.262   2.417
 7344SOL     OW22930   2.354   1.023   6.948
 7344SOL    HW122931   2.366   0.925   6.969
 7344SOL    HW222932   2.257   1.045   6.946
 7345SOL     OW22933   3.952   5.578   0.172
 7345SOL    HW122934   3.965   5.502   0.109
 7345SOL    HW222935   3.868   5.627   0.149
 7346SOL     OW22936   3.981   4.804   1.956
 7346SOL    HW122937   4.060   4.744   1.947
 7346SOL    HW222938   3.957   4.813   2.053
 7347SOL     OW22939   5.823   2.202   3.475
 7347SOL    HW122940   5.817   2.276   3.542
 7347SOL    HW222941   5.809   2.114   3.521
 7348SOL     OW22942   0.669   2.362   4.027
 7348SOL    HW122943   0.741   2.355   4.096
 7348SOL    HW222944   0.675   2.285   3.964
 7349SOL     OW22945   4.075   1.373   0.372
 7349SOL    HW122946   4.162   1.332   0.344
 7349SOL    HW222947   4.079   1.397   0.469
 7350SOL     OW22948   2.285   0.851   2.766
 7350SOL    HW122949   2.340   0.858   2.849
 7350SOL    HW222950   2.210   0.918   2.770
 7351SOL     OW22951   3.761   4.755   6.861
 7351SOL    HW122952   3.699   4.826   6.828
 7351SOL    HW222953   3.771   4.763   6.960
 7352SOL     OW22954   6.616   0.986   2.799
 7352SOL    HW122955   6.643   0.959   2.706
 7352SOL    HW222956   6.534   0.934   2.825
 7353SOL     OW22957   5.079   2.810   4.513
 7353SOL    HW122958   5.006   2.877   4.529
 7353SOL    HW222959   5.168   2.852   4.529
 7354SOL     OW22960   6.141   4.501   5.809
 7354SOL    HW122961   6.139   4.529   5.713
 7354SOL    HW222962   6.139   4.401   5.815
 7355SOL     OW22963   1.759   4.697   2.059
 7355SOL    HW122964   1.730   4.791   2.074
 7355SOL    HW222965   1.683   4.635   2.075
 7356SOL     OW22966   6.100   1.701   5.661
 7356SOL    HW122967   6.094   1.608   5.698
 7356SOL    HW222968   6.177   1.748   5.702
 7357SOL     OW22969   6.916   1.439   0.254
 7357SOL    HW122970   6.949   1.346   0.269
 7357SOL    HW222971   6.992   1.504   0.263
 7358SOL     OW22972   3.117   0.914   4.261
 7358SOL    HW122973   3.161   1.001   4.284
 7358SOL    HW222974   3.050   0.930   4.189
 7359SOL     OW22975   3.517   3.125   3.625
 7359SOL    HW122976   3.463   3.171   3.556
 7359SOL    HW222977   3.551   3.192   3.691
 7360SOL     OW22978   0.358   3.118   5.806
 7360SOL    HW122979   0.282   3.065   5.843
 7360SOL    HW222980   0.322   3.194   5.751
 7361SOL     OW22981   5.051   6.689   2.529
 7361SOL    HW122982   4.991   6.755   2.483
 7361SOL    HW222983   5.058   6.712   2.626
 7362SOL     OW22984   1.829   6.228   6.414
 7362SOL    HW122985   1.870   6.312   6.380
 7362SOL    HW222986   1.862   6.150   6.360
 7363SOL     OW22987   5.270   2.740   6.354
 7363SOL    HW122988   5.281   2.714   6.450
 7363SOL    HW222989   5.257   2.658   6.299
 7364SOL     OW22990   4.922   6.954   2.079
 7364SOL    HW122991   5.012   6.912   2.094
 7364SOL    HW222992   4.928   0.033   2.095
 7365SOL     OW22993   3.086   0.753   2.043
 7365SOL    HW122994   3.003   0.700   2.061
 7365SOL    HW222995   3.061   0.837   1.994
 7366SOL     OW22996   0.653   5.477   0.289
 7366SOL    HW122997   0.738   5.492   0.238
 7366SOL    HW222998   0.603   5.563   0.296
 7367SOL     OW22999   5.039   3.723   0.020
 7367SOL    HW123000   5.052   3.656   6.966
 7367SOL    HW223001   5.048   3.677   0.109
 7368SOL     OW23002   3.380   4.127   3.652
 7368SOL    HW123003   3.287   4.156   3.631
 7368SOL    HW223004   3.439   4.143   3.573
 7369SOL     OW23005   4.254   2.829   0.058
 7369SOL    HW123006   4.218   2.792   0.144
 7369SOL    HW223007   4.183   2.826   7.007
 7370SOL     OW23008   2.211   5.834   1.448
 7370SOL    HW123009   2.146   5.844   1.373
 7370SOL    HW223010   2.268   5.915   1.454
 7371SOL     OW23011   2.459   5.443   4.903
 7371SOL    HW123012   2.432   5.351   4.930
 7371SOL    HW223013   2.395   5.479   4.835
 7372SOL     OW23014   3.327   6.564   6.039
 7372SOL    HW123015   3.403   6.502   6.018
 7372SOL    HW223016   3.241   6.517   6.021
 7373SOL     OW23017   3.835   0.502   1.427
 7373SOL    HW123018   3.840   0.456   1.516
 7373SOL    HW223019   3.744   0.487   1.388
 7374SOL     OW23020   1.202   3.040   5.821
 7374SOL    HW123021   1.247   3.125   5.793
 7374SOL    HW223022   1.264   2.963   5.804
 7375SOL     OW23023   1.195   0.220   3.594
 7375SOL    HW123024   1.235   0.184   3.678
 7375SOL    HW223025   1.168   0.144   3.534
 7376SOL     OW23026   2.325   4.368   5.770
 7376SOL    HW123027   2.309   4.298   5.839
 7376SOL    HW223028   2.348   4.455   5.815
 7377SOL     OW23029   4.406   4.897   0.772
 7377SOL    HW123030   4.308   4.882   0.759
 7377SOL    HW223031   4.444   4.823   0.827
 7378SOL     OW23032   6.773   1.057   5.171
 7378SOL    HW123033   6.726   1.123   5.112
 7378SOL    HW223034   6.744   1.071   5.266
 7379SOL     OW23035   2.999   1.508   1.793
 7379SOL    HW123036   3.098   1.516   1.782
 7379SOL    HW223037   2.980   1.447   1.870
 7380SOL     OW23038   6.780   3.449   5.913
 7380SOL    HW123039   6.835   3.527   5.941
 7380SOL    HW223040   6.821   3.406   5.833
 7381SOL     OW23041   5.464   2.292   1.005
 7381SOL    HW123042   5.377   2.336   0.987
 7381SOL    HW223043   5.464   2.251   1.096
 7382SOL     OW23044   0.142   6.044   3.674
 7382SOL    HW123045   0.184   5.954   3.658
 7382SOL    HW223046   0.065   6.056   3.611
 7383SOL     OW23047   6.930   5.717   3.274
 7383SOL    HW123048   6.958   5.806   3.309
 7383SOL    HW223049   6.919   5.722   3.175
 7384SOL     OW23050   5.643   0.443   2.551
 7384SOL    HW123051   5.710   0.400   2.611
 7384SOL    HW223052   5.688   0.474   2.467
 7385SOL     OW23053   4.846   6.444   1.399
 7385SOL    HW123054   4.866   6.359   1.448
 7385SOL    HW223055   4.751   6.444   1.369
 7386SOL     OW23056   0.541   2.370   5.399
 7386SOL    HW123057   0.521   2.459   5.356
 7386SOL    HW223058   0.464   2.308   5.385
 7387SOL     OW23059   3.892   5.885   3.549
 7387SOL    HW123060   3.793   5.899   3.551
 7387SOL    HW223061   3.928   5.885   3.643
 7388SOL     OW23062   6.814   4.882   4.088
 7388SOL    HW123063   6.755   4.943   4.035
 7388SOL    HW223064   6.909   4.912   4.078
 7389SOL     OW23065   0.989   4.056   6.196
 7389SOL    HW123066   1.032   4.137   6.235
 7389SOL    HW223067   0.978   3.987   6.267
 7390SOL     OW23068   2.202   6.533   5.530
 7390SOL    HW123069   2.186   6.434   5.534
 7390SOL    HW223070   2.218   6.567   5.623
 7391SOL     OW23071   6.177   3.504   6.749
 7391SOL    HW123072   6.248   3.565   6.784
 7391SOL    HW223073   6.199   3.477   6.656
 7392SOL     OW23074   2.407   4.501   4.126
 7392SOL    HW123075   2.489   4.534   4.172
 7392SOL    HW223076   2.357   4.579   4.087
 7393SOL     OW23077   0.352   3.892   1.890
 7393SOL    HW123078   0.283   3.855   1.952
 7393SOL    HW223079   0.355   3.992   1.901
 7394SOL     OW23080   3.259   4.270   6.346
 7394SOL    HW123081   3.190   4.286   6.276
 7394SOL    HW223082   3.323   4.347   6.349
 7395SOL     OW23083   1.577   6.847   0.502
 7395SOL    HW123084   1.634   6.894   0.569
 7395SOL    HW223085   1.498   6.806   0.548
 7396SOL     OW23086   0.588   0.182   6.888
 7396SOL    HW123087   0.668   0.203   6.944
 7396SOL    HW223088   0.592   0.086   6.859
 7397SOL     OW23089   6.306   5.353   4.564
 7397SOL    HW123090   6.283   5.282   4.630
 7397SOL    HW223091   6.398   5.388   4.582
 7398SOL     OW23092   4.029   4.771   3.283
 7398SOL    HW123093   3.988   4.748   3.194
 7398SOL    HW223094   4.037   4.870   3.291
 7399SOL     OW23095   4.923   3.865   5.598
 7399SOL    HW123096   5.016   3.829   5.602
 7399SOL    HW223097   4.895   3.897   5.689
 7400SOL     OW23098   2.109   5.211   6.575
 7400SOL    HW123099   2.208   5.206   6.572
 7400SOL    HW223100   2.070   5.146   6.509
 7401SOL     OW23101   6.404   1.868   4.188
 7401SOL    HW123102   6.450   1.823   4.112
 7401SOL    HW223103   6.388   1.964   4.166
 7402SOL     OW23104   2.908   0.320   3.563
 7402SOL    HW123105   2.841   0.305   3.636
 7402SOL    HW223106   2.889   0.260   3.486
 7403SOL     OW23107   1.718   3.246   2.140
 7403SOL    HW123108   1.620   3.242   2.118
 7403SOL    HW223109   1.738   3.334   2.184
 7404SOL     OW23110   1.553   0.897   2.059
 7404SOL    HW123111   1.647   0.900   2.027
 7404SOL    HW223112   1.526   0.987   2.093
 7405SOL     OW23113   2.357   5.062   6.317
 7405SOL    HW123114   2.378   4.982   6.261
 7405SOL    HW223115   2.293   5.038   6.389
 7406SOL     OW23116   0.442   5.064   1.586
 7406SOL    HW123117   0.443   5.092   1.490
 7406SOL    HW223118   0.379   5.122   1.637
 7407SOL     OW23119   1.965   6.914   6.370
 7407SOL    HW123120   1.871   6.913   6.334
 7407SOL    HW223121   1.998   7.009   6.373
 7408SOL     OW23122   1.174   3.986   5.161
 7408SOL    HW123123   1.155   3.888   5.172
 7408SOL    HW223124   1.112   4.024   5.093
 7409SOL     OW23125   3.018   5.262   5.599
 7409SOL    HW123126   3.046   5.285   5.505
 7409SOL    HW223127   2.946   5.193   5.597
 7410SOL     OW23128   6.395   4.743   0.793
 7410SOL    HW123129   6.451   4.746   0.710
 7410SOL    HW223130   6.305   4.706   0.771
 7411SOL     OW23131   4.140   6.504   4.769
 7411SOL    HW123132   4.168   6.467   4.858
 7411SOL    HW223133   4.043   6.485   4.755
 7412SOL     OW23134   1.016   1.753   0.125
 7412SOL    HW123135   0.969   1.763   0.037
 7412SOL    HW223136   1.038   1.843   0.162
 7413SOL     OW23137   6.752   3.208   4.730
 7413SOL    HW123138   6.742   3.307   4.737
 7413SOL    HW223139   6.798   3.185   4.644
 7414SOL     OW23140   6.497   6.187   3.309
 7414SOL    HW123141   6.459   6.238   3.231
 7414SOL    HW223142   6.501   6.247   3.389
 7415SOL     OW23143   2.140   2.159   3.098
 7415SOL    HW123144   2.188   2.076   3.129
 7415SOL    HW223145   2.205   2.220   3.052
 7416SOL     OW23146   4.673   6.864   4.173
 7416SOL    HW123147   4.626   6.846   4.260
 7416SOL    HW223148   4.607   6.901   4.107
 7417SOL     OW23149   1.025   6.055   0.458
 7417SOL    HW123150   1.071   6.050   0.369
 7417SOL    HW223151   1.041   6.146   0.498
 7418SOL     OW23152   1.914   3.632   0.664
 7418SOL    HW123153   1.971   3.692   0.607
 7418SOL    HW223154   1.836   3.684   0.698
 7419SOL     OW23155   6.573   0.723   5.241
 7419SOL    HW123156   6.584   0.751   5.146
 7419SOL    HW223157   6.490   0.766   5.278
 7420SOL     OW23158   0.334   5.735   1.969
 7420SOL    HW123159   0.312   5.658   1.909
 7420SOL    HW223160   0.273   5.811   1.948
 7421SOL     OW23161   3.805   3.356   0.830
 7421SOL    HW123162   3.882   3.334   0.771
 7421SOL    HW223163   3.811   3.302   0.914
 7422SOL     OW23164   0.662   3.400   0.558
 7422SOL    HW123165   0.630   3.481   0.606
 7422SOL    HW223166   0.603   3.382   0.480
 7423SOL     OW23167   2.107   6.389   6.834
 7423SOL    HW123168   2.202   6.356   6.827
 7423SOL    HW223169   2.095   6.436   6.922
 7424SOL     OW23170   5.638   1.520   4.351
 7424SOL    HW123171   5.633   1.620   4.349
 7424SOL    HW223172   5.692   1.488   4.274
 7425SOL     OW23173   3.568   5.738   6.256
 7425SOL    HW123174   3.486   5.715   6.203
 7425SOL    HW223175   3.559   5.831   6.292
 7426SOL     OW23176   1.001   1.353   6.621
 7426SOL    HW123177   1.038   1.400   6.701
 7426SOL    HW223178   0.919   1.302   6.648
 7427SOL     OW23179   4.299   5.462   4.184
 7427SOL    HW123180   4.267   5.506   4.269
 7427SOL    HW223181   4.260   5.370   4.178
 7428SOL     OW23182   3.831   2.079   5.470
 7428SOL    HW123183   3.743   2.035   5.452
 7428SOL    HW223184   3.819   2.178   5.469
 7429SOL     OW23185   6.221   6.639   3.486
 7429SOL    HW123186   6.190   6.544   3.483
 7429SOL    HW223187   6.175   6.691   3.413
 7430SOL     OW23188   6.512   4.017   4.985
 7430SOL    HW123189   6.537   3.945   5.049
 7430SOL    HW223190   6.447   3.982   4.918
 7431SOL     OW23191   1.169   4.154   2.182
 7431SOL    HW123192   1.207   4.201   2.103
 7431SOL    HW223193   1.227   4.169   2.262
 7432SOL     OW23194   0.469   6.777   5.349
 7432SOL    HW123195   0.444   6.819   5.436
 7432SOL    HW223196   0.505   6.847   5.287
 7433SOL     OW23197   6.295   5.842   1.197
 7433SOL    HW123198   6.336   5.795   1.275
 7433SOL    HW223199   6.314   5.790   1.113
 7434SOL     OW23200   4.493   0.896   6.335
 7434SOL    HW123201   4.558   0.907   6.260
 7434SOL    HW223202   4.458   0.802   6.335
 7435SOL     OW23203   2.732   6.055   0.147
 7435SOL    HW123204   2.658   6.122   0.159
 7435SOL    HW223205   2.814   6.102   0.113
 7436SOL     OW23206   5.248   2.518   0.367
 7436SOL    HW123207   5.249   2.435   0.312
 7436SOL    HW223208   5.342   2.549   0.381
 7437SOL     OW23209   0.630   5.771   5.891
 7437SOL    HW123210   0.721   5.730   5.878
 7437SOL    HW223211   0.587   5.784   5.802
 7438SOL     OW23212   6.562   4.771   1.941
 7438SOL    HW123213   6.596   4.761   2.035
 7438SOL    HW223214   6.524   4.683   1.910
 7439SOL     OW23215   1.210   6.730   3.525
 7439SOL    HW123216   1.190   6.703   3.431
 7439SOL    HW223217   1.168   6.819   3.543
 7440SOL     OW23218   1.631   2.050   4.136
 7440SOL    HW123219   1.590   1.978   4.079
 7440SOL    HW223220   1.565   2.079   4.205
 7441SOL     OW23221   5.520   0.495   3.678
 7441SOL    HW123222   5.554   0.402   3.689
 7441SOL    HW223223   5.596   0.559   3.685
 7442SOL     OW23224   1.764   1.289   0.202
 7442SOL    HW123225   1.838   1.347   0.237
 7442SOL    HW223226   1.803   1.216   0.147
 7443SOL     OW23227   0.463   1.026   0.328
 7443SOL    HW123228   0.374   0.993   0.296
 7443SOL    HW223229   0.510   1.072   0.253
 7444SOL     OW23230   0.165   2.921   5.889
 7444SOL    HW123231   0.227   2.847   5.915
 7444SOL    HW223232   0.099   2.937   5.963
 7445SOL     OW23233   5.740   2.468   1.809
 7445SOL    HW123234   5.708   2.373   1.814
 7445SOL    HW223235   5.754   2.492   1.713
 7446SOL     OW23236   7.015   3.442   0.971
 7446SOL    HW123237   7.017   3.356   0.920
 7446SOL    HW223238   6.922   3.479   0.968
 7447SOL     OW23239   0.845   4.043   5.957
 7447SOL    HW123240   0.822   4.135   5.924
 7447SOL    HW223241   0.915   4.050   6.027
 7448SOL     OW23242   6.994   6.683   6.059
 7448SOL    HW123243   6.968   6.633   5.977
 7448SOL    HW223244   6.993   6.782   6.039
 7449SOL     OW23245   5.800   1.993   2.618
 7449SOL    HW123246   5.753   1.999   2.706
 7449SOL    HW223247   5.805   2.084   2.576
 7450SOL     OW23248   4.328   1.170   2.907
 7450SOL    HW123249   4.414   1.138   2.868
 7450SOL    HW223250   4.270   1.092   2.931
 7451SOL     OW23251   2.155   0.329   4.068
 7451SOL    HW123252   2.060   0.298   4.062
 7451SOL    HW223253   2.162   0.421   4.030
 7452SOL     OW23254   2.022   6.328   5.264
 7452SOL    HW123255   1.969   6.397   5.215
 7452SOL    HW223256   1.982   6.237   5.247
 7453SOL     OW23257   5.788   6.088   5.001
 7453SOL    HW123258   5.845   6.164   5.033
 7453SOL    HW223259   5.782   6.018   5.072
 7454SOL     OW23260   0.761   3.672   0.891
 7454SOL    HW123261   0.699   3.665   0.813
 7454SOL    HW223262   0.814   3.757   0.885
 7455SOL     OW23263   5.070   2.480   0.053
 7455SOL    HW123264   5.114   2.416   0.116
 7455SOL    HW223265   4.981   2.507   0.089
 7456SOL     OW23266   1.807   3.389   4.617
 7456SOL    HW123267   1.770   3.300   4.642
 7456SOL    HW223268   1.899   3.377   4.580
 7457SOL     OW23269   5.700   0.864   6.052
 7457SOL    HW123270   5.796   0.846   6.073
 7457SOL    HW223271   5.686   0.963   6.042
 7458SOL     OW23272   2.615   1.250   0.564
 7458SOL    HW123273   2.662   1.165   0.586
 7458SOL    HW223274   2.553   1.235   0.487
 7459SOL     OW23275   4.405   0.791   4.593
 7459SOL    HW123276   4.462   0.820   4.669
 7459SOL    HW223277   4.400   0.691   4.591
 7460SOL     OW23278   0.630   4.340   7.005
 7460SOL    HW123279   0.675   4.289   0.060
 7460SOL    HW223280   0.697   4.366   6.936
 7461SOL     OW23281   5.447   1.079   4.353
 7461SOL    HW123282   5.525   1.054   4.296
 7461SOL    HW223283   5.435   1.179   4.351
 7462SOL     OW23284   2.360   1.632   2.177
 7462SOL    HW123285   2.401   1.690   2.106
 7462SOL    HW223286   2.379   1.671   2.267
 7463SOL     OW23287   4.133   3.641   2.740
 7463SOL    HW123288   4.098   3.574   2.806
 7463SOL    HW223289   4.223   3.673   2.770
 7464SOL     OW23290   5.374   5.973   0.946
 7464SOL    HW123291   5.430   5.903   0.902
 7464SOL    HW223292   5.281   5.970   0.908
 7465SOL     OW23293   2.624   0.482   1.576
 7465SOL    HW123294   2.615   0.470   1.675
 7465SOL    HW223295   2.705   0.433   1.544
 7466SOL     OW23296   0.844   0.671   6.713
 7466SOL    HW123297   0.902   0.735   6.763
 7466SOL    HW223298   0.900   0.593   6.684
 7467SOL     OW23299   6.929   1.453   0.779
 7467SOL    HW123300   7.013   1.401   0.794
 7467SOL    HW223301   6.861   1.395   0.734
 7468SOL     OW23302   6.185   2.724   2.851
 7468SOL    HW123303   6.136   2.759   2.771
 7468SOL    HW223304   6.166   2.782   2.930
 7469SOL     OW23305   1.133   1.457   1.307
 7469SOL    HW123306   1.044   1.414   1.292
 7469SOL    HW223307   1.128   1.516   1.388
 7470SOL     OW23308   6.695   2.604   2.287
 7470SOL    HW123309   6.647   2.692   2.290
 7470SOL    HW223310   6.654   2.546   2.216
 7471SOL     OW23311   5.689   6.108   5.568
 7471SOL    HW123312   5.657   6.040   5.634
 7471SOL    HW223313   5.782   6.136   5.592
 7472SOL     OW23314   3.337   6.800   3.159
 7472SOL    HW123315   3.296   6.822   3.248
 7472SOL    HW223316   3.274   6.829   3.086
 7473SOL     OW23317   6.956   3.117   4.150
 7473SOL    HW123318   6.901   3.095   4.069
 7473SOL    HW223319   6.897   3.117   4.231
 7474SOL     OW23320   3.612   0.977   3.183
 7474SOL    HW123321   3.590   0.955   3.278
 7474SOL    HW223322   3.635   1.074   3.175
 7475SOL     OW23323   3.996   1.144   1.067
 7475SOL    HW123324   4.047   1.180   1.145
 7475SOL    HW223325   3.956   1.220   1.016
 7476SOL     OW23326   4.217   6.751   4.693
 7476SOL    HW123327   4.275   6.722   4.616
 7476SOL    HW223328   4.172   6.671   4.732
 7477SOL     OW23329   4.251   1.888   3.778
 7477SOL    HW123330   4.161   1.925   3.758
 7477SOL    HW223331   4.295   1.943   3.849
 7478SOL     OW23332   1.064   4.714   0.755
 7478SOL    HW123333   1.002   4.793   0.751
 7478SOL    HW223334   1.057   4.662   0.669
 7479SOL     OW23335   4.558   0.674   6.707
 7479SOL    HW123336   4.591   0.720   6.789
 7479SOL    HW223337   4.493   0.733   6.660
 7480SOL     OW23338   6.825   5.257   1.110
 7480SOL    HW123339   6.742   5.302   1.143
 7480SOL    HW223340   6.836   5.277   1.012
 7481SOL     OW23341   5.583   5.362   0.631
 7481SOL    HW123342   5.639   5.415   0.567
 7481SOL    HW223343   5.543   5.284   0.583
 7482SOL     OW23344   4.938   0.393   3.326
 7482SOL    HW123345   4.864   0.459   3.311
 7482SOL    HW223346   4.980   0.408   3.415
 7483SOL     OW23347   3.408   0.541   5.275
 7483SOL    HW123348   3.500   0.513   5.304
 7483SOL    HW223349   3.340   0.479   5.314
 7484SOL     OW23350   1.986   6.900   2.463
 7484SOL    HW123351   1.980   6.802   2.482
 7484SOL    HW223352   1.895   6.935   2.443
 7485SOL     OW23353   2.271   6.459   6.484
 7485SOL    HW123354   2.353   6.490   6.531
 7485SOL    HW223355   2.205   6.535   6.480
 7486SOL     OW23356   2.532   6.949   5.591
 7486SOL    HW123357   2.479   7.004   5.527
 7486SOL    HW223358   2.626   6.941   5.558
 7487SOL     OW23359   3.366   6.073   4.447
 7487SOL    HW123360   3.386   6.039   4.355
 7487SOL    HW223361   3.354   5.996   4.509
 7488SOL     OW23362   3.978   0.724   6.237
 7488SOL    HW123363   4.062   0.778   6.233
 7488SOL    HW223364   3.900   0.785   6.256
 7489SOL     OW23365   5.269   3.518   3.518
 7489SOL    HW123366   5.363   3.488   3.531
 7489SOL    HW223367   5.246   3.587   3.586
 7490SOL     OW23368   5.181   1.197   1.146
 7490SOL    HW123369   5.272   1.240   1.149
 7490SOL    HW223370   5.127   1.229   1.223
 7491SOL     OW23371   6.826   5.636   6.784
 7491SOL    HW123372   6.729   5.644   6.761
 7491SOL    HW223373   6.859   5.725   6.816
 7492SOL     OW23374   1.690   2.739   4.671
 7492SOL    HW123375   1.657   2.652   4.633
 7492SOL    HW223376   1.789   2.737   4.680
 7493SOL     OW23377   4.979   3.861   6.695
 7493SOL    HW123378   4.948   3.796   6.764
 7493SOL    HW223379   4.905   3.881   6.630
 7494SOL     OW23380   5.444   0.563   1.833
 7494SOL    HW123381   5.436   0.535   1.929
 7494SOL    HW223382   5.457   0.482   1.776
 7495SOL     OW23383   1.147   1.940   1.164
 7495SOL    HW123384   1.157   2.026   1.215
 7495SOL    HW223385   1.052   1.928   1.137
 7496SOL     OW23386   0.740   4.974   6.281
 7496SOL    HW123387   0.839   4.981   6.270
 7496SOL    HW223388   0.718   4.894   6.336
 7497SOL     OW23389   1.758   4.134   2.044
 7497SOL    HW123390   1.843   4.178   2.013
 7497SOL    HW223391   1.748   4.045   1.998
 7498SOL     OW23392   4.118   1.777   4.110
 7498SOL    HW123393   4.129   1.791   4.208
 7498SOL    HW223394   4.192   1.823   4.061
 7499SOL     OW23395   5.267   6.576   4.403
 7499SOL    HW123396   5.202   6.647   4.373
 7499SOL    HW223397   5.306   6.531   4.323
 7500SOL     OW23398   5.129   4.989   1.462
 7500SOL    HW123399   5.115   5.088   1.452
 7500SOL    HW223400   5.209   4.961   1.409
 7501SOL     OW23401   0.382   4.131   3.964
 7501SOL    HW123402   0.406   4.178   4.049
 7501SOL    HW223403   0.328   4.191   3.906
 7502SOL     OW23404   2.765   1.514   4.982
 7502SOL    HW123405   2.825   1.477   4.912
 7502SOL    HW223406   2.813   1.516   5.070
 7503SOL     OW23407   2.764   2.232   0.068
 7503SOL    HW123408   2.792   2.304   0.130
 7503SOL    HW223409   2.682   2.261   0.018
 7504SOL     OW23410   3.921   5.986   3.105
 7504SOL    HW123411   3.904   6.065   3.046
 7504SOL    HW223412   4.019   5.969   3.111
 7505SOL     OW23413   1.770   1.691   5.338
 7505SOL    HW123414   1.848   1.703   5.277
 7505SOL    HW223415   1.702   1.762   5.319
 7506SOL     OW23416   3.736   1.430   2.631
 7506SOL    HW123417   3.778   1.358   2.685
 7506SOL    HW223418   3.710   1.393   2.541
 7507SOL     OW23419   0.692   6.175   5.849
 7507SOL    HW123420   0.703   6.274   5.860
 7507SOL    HW223421   0.673   6.154   5.752
 7508SOL     OW23422   5.329   0.280   2.741
 7508SOL    HW123423   5.351   0.273   2.643
 7508SOL    HW223424   5.414   0.284   2.793
 7509SOL     OW23425   4.613   4.045   6.120
 7509SOL    HW123426   4.629   4.079   6.027
 7509SOL    HW223427   4.570   4.117   6.175
 7510SOL     OW23428   3.607   4.203   4.687
 7510SOL    HW123429   3.580   4.299   4.687
 7510SOL    HW223430   3.535   4.149   4.643
 7511SOL     OW23431   1.015   0.890   1.595
 7511SOL    HW123432   1.000   0.796   1.563
 7511SOL    HW223433   1.089   0.891   1.662
 7512SOL     OW23434   2.248   2.729   1.927
 7512SOL    HW123435   2.244   2.701   2.023
 7512SOL    HW223436   2.217   2.824   1.920
 7513SOL     OW23437   1.501   2.190   6.907
 7513SOL    HW123438   1.547   2.206   6.994
 7513SOL    HW223439   1.544   2.247   6.836
 7514SOL     OW23440   2.490   5.618   3.054
 7514SOL    HW123441   2.573   5.659   3.016
 7514SOL    HW223442   2.509   5.583   3.146
 7515SOL     OW23443   6.841   6.034   2.323
 7515SOL    HW123444   6.752   6.039   2.367
 7515SOL    HW223445   6.895   6.114   2.349
 7516SOL     OW23446   0.120   1.160   3.467
 7516SOL    HW123447   0.136   1.101   3.388
 7516SOL    HW223448   0.202   1.161   3.524
 7517SOL     OW23449   0.568   3.627   1.450
 7517SOL    HW123450   0.541   3.647   1.544
 7517SOL    HW223451   0.566   3.528   1.435
 7518SOL     OW23452   4.715   5.327   3.728
 7518SOL    HW123453   4.670   5.305   3.641
 7518SOL    HW223454   4.658   5.389   3.781
 7519SOL     OW23455   2.220   5.885   3.811
 7519SOL    HW123456   2.157   5.840   3.747
 7519SOL    HW223457   2.285   5.941   3.760
 7520SOL     OW23458   1.592   6.566   3.965
 7520SOL    HW123459   1.578   6.501   3.890
 7520SOL    HW223460   1.617   6.655   3.927
 7521SOL     OW23461   4.512   4.234   5.567
 7521SOL    HW123462   4.586   4.280   5.617
 7521SOL    HW223463   4.516   4.260   5.471
 7522SOL     OW23464   2.307   1.062   1.169
 7522SOL    HW123465   2.392   1.106   1.198
 7522SOL    HW223466   2.265   1.014   1.246
 7523SOL     OW23467   5.613   0.276   6.552
 7523SOL    HW123468   5.678   0.329   6.607
 7523SOL    HW223469   5.612   0.181   6.584
 7524SOL     OW23470   0.157   1.240   5.109
 7524SOL    HW123471   0.144   1.239   5.209
 7524SOL    HW223472   0.068   1.250   5.064
 7525SOL     OW23473   0.827   0.536   0.468
 7525SOL    HW123474   0.740   0.488   0.480
 7525SOL    HW223475   0.844   0.595   0.547
 7526SOL     OW23476   3.448   2.907   4.654
 7526SOL    HW123477   3.449   2.820   4.604
 7526SOL    HW223478   3.453   2.888   4.752
 7527SOL     OW23479   5.529   4.795   3.406
 7527SOL    HW123480   5.494   4.877   3.451
 7527SOL    HW223481   5.539   4.722   3.473
 7528SOL     OW23482   6.156   2.907   6.868
 7528SOL    HW123483   6.125   2.877   6.959
 7528SOL    HW223484   6.083   2.959   6.824
 7529SOL     OW23485   3.111   1.365   5.924
 7529SOL    HW123486   3.062   1.293   5.972
 7529SOL    HW223487   3.205   1.335   5.904
 7530SOL     OW23488   0.756   3.940   1.996
 7530SOL    HW123489   0.733   3.844   2.016
 7530SOL    HW223490   0.682   3.999   2.030
 7531SOL     OW23491   3.882   1.715   3.416
 7531SOL    HW123492   3.925   1.630   3.445
 7531SOL    HW223493   3.953   1.780   3.388
 7532SOL     OW23494   5.356   5.445   2.673
 7532SOL    HW123495   5.420   5.396   2.613
 7532SOL    HW223496   5.379   5.542   2.672
 7533SOL     OW23497   3.836   1.174   4.481
 7533SOL    HW123498   3.776   1.138   4.409
 7533SOL    HW223499   3.781   1.226   4.547
 7534SOL     OW23500   5.204   6.483   4.671
 7534SOL    HW123501   5.216   6.544   4.593
 7534SOL    HW223502   5.269   6.408   4.666
 7535SOL     OW23503   3.264   2.759   5.580
 7535SOL    HW123504   3.307   2.758   5.490
 7535SOL    HW223505   3.335   2.758   5.651
 7536SOL     OW23506   4.715   5.967   4.423
 7536SOL    HW123507   4.663   6.037   4.474
 7536SOL    HW223508   4.689   5.970   4.327
 7537SOL     OW23509   1.815   4.860   5.900
 7537SOL    HW123510   1.726   4.815   5.901
 7537SOL    HW223511   1.823   4.916   5.817
 7538SOL     OW23512   2.856   3.441   2.564
 7538SOL    HW123513   2.889   3.358   2.608
 7538SOL    HW223514   2.759   3.432   2.542
 7539SOL     OW23515   2.145   2.911   4.973
 7539SOL    HW123516   2.114   2.969   4.898
 7539SOL    HW223517   2.231   2.945   5.010
 7540SOL     OW23518   2.732   1.561   0.083
 7540SOL    HW123519   2.715   1.493   0.155
 7540SOL    HW223520   2.649   1.573   0.028
 7541SOL     OW23521   6.286   2.585   5.619
 7541SOL    HW123522   6.317   2.631   5.703
 7541SOL    HW223523   6.362   2.531   5.581
 7542SOL     OW23524   1.439   6.648   5.908
 7542SOL    HW123525   1.344   6.626   5.931
 7542SOL    HW223526   1.444   6.684   5.815
 7543SOL     OW23527   3.902   3.057   0.307
 7543SOL    HW123528   3.860   3.032   0.220
 7543SOL    HW223529   3.994   3.021   0.311
 7544SOL     OW23530   2.264   2.007   2.624
 7544SOL    HW123531   2.205   2.084   2.600
 7544SOL    HW223532   2.354   2.041   2.652
 7545SOL     OW23533   5.363   6.743   3.610
 7545SOL    HW123534   5.352   6.646   3.633
 7545SOL    HW223535   5.440   6.781   3.661
 7546SOL     OW23536   4.252   0.820   0.044
 7546SOL    HW123537   4.259   0.919   0.040
 7546SOL    HW223538   4.337   0.779   0.008
 7547SOL     OW23539   3.153   6.973   0.449
 7547SOL    HW123540   3.063   6.994   0.487
 7547SOL    HW223541   3.153   6.993   0.351
 7548SOL     OW23542   1.857   2.205   1.641
 7548SOL    HW123543   1.855   2.108   1.667
 7548SOL    HW223544   1.918   2.217   1.562
 7549SOL     OW23545   5.606   1.857   2.947
 7549SOL    HW123546   5.530   1.901   2.898
 7549SOL    HW223547   5.594   1.870   3.045
 7550SOL     OW23548   1.880   5.616   2.365
 7550SOL    HW123549   1.975   5.601   2.393
 7550SOL    HW223550   1.822   5.624   2.447
 7551SOL     OW23551   4.957   3.374   6.664
 7551SOL    HW123552   4.926   3.279   6.674
 7551SOL    HW223553   5.015   3.382   6.583
 7552SOL     OW23554   3.175   5.050   4.227
 7552SOL    HW123555   3.271   5.063   4.200
 7552SOL    HW223556   3.125   5.008   4.152
 7553SOL     OW23557   3.900   5.485   6.015
 7553SOL    HW123558   3.977   5.437   6.057
 7553SOL    HW223559   3.925   5.513   5.922
 7554SOL     OW23560   6.508   0.935   0.459
 7554SOL    HW123561   6.479   0.875   0.533
 7554SOL    HW223562   6.608   0.944   0.460
 7555SOL     OW23563   0.522   6.397   5.535
 7555SOL    HW123564   0.431   6.438   5.531
 7555SOL    HW223565   0.538   6.344   5.452
 7556SOL     OW23566   0.657   2.864   4.677
 7556SOL    HW123567   0.691   2.857   4.583
 7556SOL    HW223568   0.593   2.940   4.684
 7557SOL     OW23569   4.946   3.889   0.511
 7557SOL    HW123570   4.971   3.975   0.466
 7557SOL    HW223571   4.894   3.832   0.448
 7558SOL     OW23572   1.676   3.286   3.232
 7558SOL    HW123573   1.584   3.308   3.265
 7558SOL    HW223574   1.675   3.278   3.132
 7559SOL     OW23575   0.512   4.077   0.773
 7559SOL    HW123576   0.505   4.175   0.792
 7559SOL    HW223577   0.535   4.028   0.857
 7560SOL     OW23578   5.402   6.824   0.433
 7560SOL    HW123579   5.438   6.773   0.354
 7560SOL    HW223580   5.310   6.857   0.411
 7561SOL     OW23581   0.051   2.906   0.440
 7561SOL    HW123582   0.078   3.000   0.415
 7561SOL    HW223583   6.971   2.898   0.436
 7562SOL     OW23584   5.335   6.089   4.872
 7562SOL    HW123585   5.253   6.110   4.820
 7562SOL    HW223586   5.409   6.151   4.844
 7563SOL     OW23587   2.978   0.877   2.330
 7563SOL    HW123588   2.979   0.790   2.281
 7563SOL    HW223589   2.931   0.866   2.417
 7564SOL     OW23590   5.233   0.137   3.269
 7564SOL    HW123591   5.234   0.049   3.316
 7564SOL    HW223592   5.143   0.151   3.226
 7565SOL     OW23593   4.912   4.601   0.384
 7565SOL    HW123594   4.816   4.624   0.369
 7565SOL    HW223595   4.932   4.514   0.339
 7566SOL     OW23596   1.543   5.575   4.306
 7566SOL    HW123597   1.617   5.568   4.373
 7566SOL    HW223598   1.514   5.670   4.297
 7567SOL     OW23599   2.988   4.354   0.067
 7567SOL    HW123600   3.083   4.323   0.063
 7567SOL    HW223601   2.982   4.450   0.039
 7568SOL     OW23602   4.474   5.117   3.622
 7568SOL    HW123603   4.515   5.192   3.570
 7568SOL    HW223604   4.535   5.039   3.622
 7569SOL     OW23605   3.748   6.517   0.901
 7569SOL    HW123606   3.791   6.548   0.816
 7569SOL    HW223607   3.819   6.486   0.964
 7570SOL     OW23608   6.238   5.353   3.585
 7570SOL    HW123609   6.159   5.406   3.553
 7570SOL    HW223610   6.235   5.346   3.685
 7571SOL     OW23611   5.448   4.211   2.127
 7571SOL    HW123612   5.504   4.167   2.197
 7571SOL    HW223613   5.487   4.193   2.036
 7572SOL     OW23614   3.163   1.242   4.693
 7572SOL    HW123615   3.262   1.245   4.683
 7572SOL    HW223616   3.139   1.176   4.765
 7573SOL     OW23617   2.051   5.883   4.299
 7573SOL    HW123618   1.997   5.967   4.308
 7573SOL    HW223619   2.078   5.870   4.204
 7574SOL     OW23620   5.128   6.208   2.950
 7574SOL    HW123621   5.106   6.169   2.861
 7574SOL    HW223622   5.083   6.297   2.960
 7575SOL     OW23623   3.801   1.902   5.224
 7575SOL    HW123624   3.718   1.956   5.217
 7575SOL    HW223625   3.859   1.939   5.297
 7576SOL     OW23626   6.550   2.931   0.550
 7576SOL    HW123627   6.619   2.992   0.589
 7576SOL    HW223628   6.551   2.939   0.450
 7577SOL     OW23629   6.000   0.614   5.112
 7577SOL    HW123630   6.001   0.521   5.076
 7577SOL    HW223631   5.918   0.661   5.080
 7578SOL     OW23632   2.405   4.859   4.281
 7578SOL    HW123633   2.328   4.872   4.343
 7578SOL    HW223634   2.453   4.775   4.305
 7579SOL     OW23635   3.918   1.887   2.513
 7579SOL    HW123636   3.831   1.930   2.539
 7579SOL    HW223637   3.993   1.934   2.560
 7580SOL     OW23638   1.852   4.214   2.383
 7580SOL    HW123639   1.911   4.249   2.311
 7580SOL    HW223640   1.890   4.128   2.418
 7581SOL     OW23641   5.661   0.531   1.048
 7581SOL    HW123642   5.587   0.464   1.058
 7581SOL    HW223643   5.735   0.509   1.112
 7582SOL     OW23644   3.156   1.024   1.426
 7582SOL    HW123645   3.179   1.019   1.328
 7582SOL    HW223646   3.101   1.106   1.442
 7583SOL     OW23647   5.862   3.587   2.524
 7583SOL    HW123648   5.849   3.517   2.594
 7583SOL    HW223649   5.805   3.666   2.545
 7584SOL     OW23650   2.580   6.780   1.443
 7584SOL    HW123651   2.678   6.795   1.461
 7584SOL    HW223652   2.534   6.757   1.529
 7585SOL     OW23653   1.916   5.038   6.100
 7585SOL    HW123654   1.939   5.053   6.004
 7585SOL    HW223655   1.829   4.990   6.107
 7586SOL     OW23656   3.136   1.120   2.648
 7586SOL    HW123657   3.174   1.204   2.610
 7586SOL    HW223658   3.037   1.118   2.634
 7587SOL     OW23659   0.626   1.579   6.109
 7587SOL    HW123660   0.627   1.495   6.055
 7587SOL    HW223661   0.712   1.588   6.159
 7588SOL     OW23662   0.317   4.261   2.598
 7588SOL    HW123663   0.226   4.294   2.575
 7588SOL    HW223664   0.384   4.306   2.539
 7589SOL     OW23665   5.879   5.483   0.761
 7589SOL    HW123666   5.889   5.456   0.857
 7589SOL    HW223667   5.800   5.544   0.753
 7590SOL     OW23668   1.989   0.866   6.358
 7590SOL    HW123669   1.952   0.784   6.314
 7590SOL    HW223670   1.914   0.923   6.391
 7591SOL     OW23671   6.843   4.726   0.190
 7591SOL    HW123672   6.881   4.721   0.098
 7591SOL    HW223673   6.799   4.814   0.204
 7592SOL     OW23674   5.336   5.468   6.587
 7592SOL    HW123675   5.355   5.409   6.508
 7592SOL    HW223676   5.248   5.442   6.626
 7593SOL     OW23677   5.525   2.090   6.830
 7593SOL    HW123678   5.489   2.182   6.841
 7593SOL    HW223679   5.601   2.076   6.894
 7594SOL     OW23680   1.277   5.860   3.804
 7594SOL    HW123681   1.312   5.766   3.795
 7594SOL    HW223682   1.180   5.861   3.780
 7595SOL     OW23683   6.469   2.864   6.614
 7595SOL    HW123684   6.466   2.953   6.568
 7595SOL    HW223685   6.537   2.867   6.688
 7596SOL     OW23686   5.119   4.657   1.709
 7596SOL    HW123687   5.218   4.667   1.712
 7596SOL    HW223688   5.086   4.686   1.619
 7597SOL     OW23689   3.576   5.266   1.779
 7597SOL    HW123690   3.634   5.348   1.777
 7597SOL    HW223691   3.620   5.197   1.837
 7598SOL     OW23692   6.973   1.272   3.716
 7598SOL    HW123693   0.029   1.206   3.709
 7598SOL    HW223694   7.010   1.363   3.734
 7599SOL     OW23695   6.383   1.834   2.903
 7599SOL    HW123696   6.384   1.735   2.920
 7599SOL    HW223697   6.308   1.856   2.841
 7600SOL     OW23698   2.333   1.245   1.455
 7600SOL    HW123699   2.258   1.179   1.455
 7600SOL    HW223700   2.325   1.305   1.376
 7601SOL     OW23701   2.211   6.386   4.282
 7601SOL    HW123702   2.227   6.305   4.226
 7601SOL    HW223703   2.294   6.440   4.289
 7602SOL     OW23704   0.522   3.744   4.294
 7602SOL    HW123705   0.618   3.725   4.315
 7602SOL    HW223706   0.493   3.825   4.344
 7603SOL     OW23707   1.200   6.681   1.417
 7603SOL    HW123708   1.166   6.769   1.386
 7603SOL    HW223709   1.165   6.609   1.357
 7604SOL     OW23710   4.486   5.883   5.114
 7604SOL    HW123711   4.445   5.859   5.026
 7604SOL    HW223712   4.552   5.813   5.140
 7605SOL     OW23713   6.648   4.553   0.067
 7605SOL    HW123714   6.727   4.609   0.090
 7605SOL    HW223715   6.572   4.576   0.128
 7606SOL     OW23716   6.109   2.466   2.748
 7606SOL    HW123717   6.133   2.562   2.762
 7606SOL    HW223718   6.148   2.434   2.662
 7607SOL     OW23719   4.632   0.008   0.030
 7607SOL    HW123720   4.658   0.011   6.952
 7607SOL    HW223721   4.605   6.934   0.055
 7608SOL     OW23722   3.048   3.764   3.812
 7608SOL    HW123723   2.954   3.731   3.811
 7608SOL    HW223724   3.108   3.693   3.848
 7609SOL     OW23725   0.966   3.417   4.072
 7609SOL    HW123726   0.869   3.437   4.085
 7609SOL    HW223727   0.983   3.320   4.089
 7610SOL     OW23728   5.666   0.167   0.902
 7610SOL    HW123729   5.581   0.203   0.940
 7610SOL    HW223730   5.722   0.243   0.868
 7611SOL     OW23731   1.223   2.093   6.899
 7611SOL    HW123732   1.156   2.112   6.828
 7611SOL    HW223733   1.312   2.129   6.872
 7612SOL     OW23734   3.797   1.878   3.168
 7612SOL    HW123735   3.719   1.816   3.166
 7612SOL    HW223736   3.770   1.965   3.210
 7613SOL     OW23737   4.937   1.090   1.929
 7613SOL    HW123738   5.026   1.121   1.895
 7613SOL    HW223739   4.916   1.001   1.890
 7614SOL     OW23740   4.344   2.443   0.847
 7614SOL    HW123741   4.372   2.398   0.762
 7614SOL    HW223742   4.246   2.462   0.844
 7615SOL     OW23743   3.976   4.861   6.221
 7615SOL    HW123744   3.912   4.871   6.145
 7615SOL    HW223745   4.045   4.792   6.198
 7616SOL     OW23746   6.668   3.241   3.305
 7616SOL    HW123747   6.574   3.223   3.277
 7616SOL    HW223748   6.685   3.339   3.303
 7617SOL     OW23749   3.536   4.897   3.145
 7617SOL    HW123750   3.523   4.819   3.083
 7617SOL    HW223751   3.471   4.969   3.123
 7618SOL     OW23752   2.037   2.835   6.568
 7618SOL    HW123753   1.956   2.798   6.613
 7618SOL    HW223754   2.015   2.858   6.473
 7619SOL     OW23755   5.992   3.734   5.351
 7619SOL    HW123756   6.020   3.691   5.265
 7619SOL    HW223757   5.967   3.664   5.417
 7620SOL     OW23758   3.456   6.805   1.627
 7620SOL    HW123759   3.404   6.822   1.710
 7620SOL    HW223760   3.473   6.892   1.580
 7621SOL     OW23761   2.305   0.652   1.461
 7621SOL    HW123762   2.241   0.674   1.388
 7621SOL    HW223763   2.395   0.632   1.423
 7622SOL     OW23764   4.129   2.800   0.326
 7622SOL    HW123765   4.121   2.736   0.403
 7622SOL    HW223766   4.200   2.868   0.347
 7623SOL     OW23767   4.869   0.404   5.312
 7623SOL    HW123768   4.828   0.314   5.324
 7623SOL    HW223769   4.958   0.394   5.266
 7624SOL     OW23770   0.781   0.892   3.338
 7624SOL    HW123771   0.754   0.814   3.393
 7624SOL    HW223772   0.842   0.862   3.264
 7625SOL     OW23773   4.888   0.868   1.056
 7625SOL    HW123774   4.843   0.779   1.050
 7625SOL    HW223775   4.898   0.894   1.152
 7626SOL     OW23776   1.859   6.488   4.704
 7626SOL    HW123777   1.794   6.412   4.707
 7626SOL    HW223778   1.931   6.468   4.638
 7627SOL     OW23779   6.528   2.422   0.809
 7627SOL    HW123780   6.586   2.434   0.728
 7627SOL    HW223781   6.586   2.413   0.890
 7628SOL     OW23782   3.348   1.633   0.697
 7628SOL    HW123783   3.287   1.631   0.618
 7628SOL    HW223784   3.303   1.678   0.774
 7629SOL     OW23785   0.183   5.362   2.914
 7629SOL    HW123786   0.262   5.423   2.919
 7629SOL    HW223787   0.120   5.382   2.989
 7630SOL     OW23788   6.357   0.573   2.726
 7630SOL    HW123789   6.414   0.505   2.680
 7630SOL    HW223790   6.331   0.539   2.817
 7631SOL     OW23791   0.311   2.396   3.686
 7631SOL    HW123792   0.361   2.433   3.765
 7631SOL    HW223793   0.214   2.387   3.710
 7632SOL     OW23794   4.963   2.173   0.319
 7632SOL    HW123795   4.962   2.232   0.399
 7632SOL    HW223796   4.947   2.078   0.346
 7633SOL     OW23797   5.401   4.111   6.903
 7633SOL    HW123798   5.403   4.168   6.821
 7633SOL    HW223799   5.309   4.114   6.943
 7634SOL     OW23800   2.258   0.973   2.004
 7634SOL    HW123801   2.255   1.071   1.982
 7634SOL    HW223802   2.335   0.931   1.955
 7635SOL     OW23803   2.876   5.060   5.472
 7635SOL    HW123804   2.818   5.065   5.391
 7635SOL    HW223805   2.856   4.976   5.523
 7636SOL     OW23806   0.921   0.575   4.268
 7636SOL    HW123807   0.936   0.573   4.367
 7636SOL    HW223808   0.867   0.496   4.241
 7637SOL     OW23809   1.561   6.030   4.101
 7637SOL    HW123810   1.649   6.077   4.105
 7637SOL    HW223811   1.487   6.097   4.107
 7638SOL     OW23812   5.116   4.959   1.739
 7638SOL    HW123813   5.018   4.937   1.748
 7638SOL    HW223814   5.143   4.949   1.643
 7639SOL     OW23815   0.717   1.594   5.404
 7639SOL    HW123816   0.664   1.678   5.418
 7639SOL    HW223817   0.781   1.581   5.479
 7640SOL     OW23818   2.483   1.949   0.656
 7640SOL    HW123819   2.489   2.045   0.686
 7640SOL    HW223820   2.538   1.892   0.718
 7641SOL     OW23821   5.894   3.992   2.284
 7641SOL    HW123822   5.988   3.956   2.281
 7641SOL    HW223823   5.861   3.992   2.378
 7642SOL     OW23824   2.520   1.771   2.353
 7642SOL    HW123825   2.508   1.844   2.286
 7642SOL    HW223826   2.561   1.809   2.436
 7643SOL     OW23827   4.841   2.929   3.301
 7643SOL    HW123828   4.936   2.903   3.287
 7643SOL    HW223829   4.794   2.858   3.353
 7644SOL     OW23830   6.884   3.123   2.620
 7644SOL    HW123831   6.801   3.157   2.663
 7644SOL    HW223832   6.865   3.036   2.574
 7645SOL     OW23833   4.247   4.072   0.031
 7645SOL    HW123834   4.329   4.100   0.081
 7645SOL    HW223835   4.178   4.039   0.097
 7646SOL     OW23836   2.199   1.841   1.988
 7646SOL    HW123837   2.295   1.862   1.973
 7646SOL    HW223838   2.179   1.750   1.951
 7647SOL     OW23839   2.608   3.972   1.565
 7647SOL    HW123840   2.518   4.006   1.593
 7647SOL    HW223841   2.603   3.873   1.550
 7648SOL     OW23842   4.216   1.172   3.636
 7648SOL    HW123843   4.191   1.171   3.733
 7648SOL    HW223844   4.209   1.266   3.601
 7649SOL     OW23845   2.753   0.770   1.863
 7649SOL    HW123846   2.678   0.822   1.821
 7649SOL    HW223847   2.835   0.827   1.866
 7650SOL     OW23848   6.168   4.064   2.123
 7650SOL    HW123849   6.173   4.164   2.123
 7650SOL    HW223850   6.160   4.031   2.217
 7651SOL     OW23851   3.342   1.079   6.523
 7651SOL    HW123852   3.299   1.118   6.442
 7651SOL    HW223853   3.295   0.994   6.548
 7652SOL     OW23854   0.351   3.536   2.611
 7652SOL    HW123855   0.418   3.608   2.594
 7652SOL    HW223856   0.395   3.447   2.604
 7653SOL     OW23857   2.430   2.115   1.827
 7653SOL    HW123858   2.528   2.127   1.843
 7653SOL    HW223859   2.402   2.168   1.747
 7654SOL     OW23860   5.033   3.781   3.500
 7654SOL    HW123861   5.097   3.766   3.575
 7654SOL    HW223862   4.971   3.703   3.492
 7655SOL     OW23863   3.787   6.311   5.308
 7655SOL    HW123864   3.788   6.226   5.362
 7655SOL    HW223865   3.735   6.296   5.224
 7656SOL     OW23866   0.161   6.089   5.483
 7656SOL    HW123867   0.258   6.070   5.465
 7656SOL    HW223868   0.117   6.007   5.518
 7657SOL     OW23869   3.380   1.549   3.998
 7657SOL    HW123870   3.444   1.624   4.013
 7657SOL    HW223871   3.332   1.563   3.911
 7658SOL     OW23872   4.261   1.021   5.985
 7658SOL    HW123873   4.324   1.087   5.946
 7658SOL    HW223874   4.179   1.015   5.929
 7659SOL     OW23875   5.911   6.821   0.742
 7659SOL    HW123876   5.953   6.873   0.668
 7659SOL    HW223877   5.914   6.723   0.720
 7660SOL     OW23878   5.772   5.530   3.280
 7660SOL    HW123879   5.813   5.444   3.249
 7660SOL    HW223880   5.717   5.513   3.362
 7661SOL     OW23881   6.719   2.921   3.525
 7661SOL    HW123882   6.659   2.980   3.471
 7661SOL    HW223883   6.673   2.895   3.610
 7662SOL     OW23884   1.175   5.042   2.125
 7662SOL    HW123885   1.232   4.964   2.099
 7662SOL    HW223886   1.093   5.044   2.068
 7663SOL     OW23887   0.211   4.809   6.110
 7663SOL    HW123888   0.169   4.856   6.032
 7663SOL    HW223889   0.296   4.857   6.135
 7664SOL     OW23890   2.281   5.361   3.546
 7664SOL    HW123891   2.305   5.352   3.449
 7664SOL    HW223892   2.205   5.300   3.567
 7665SOL     OW23893   2.895   6.745   4.755
 7665SOL    HW123894   2.949   6.675   4.706
 7665SOL    HW223895   2.807   6.706   4.782
 7666SOL     OW23896   1.463   1.062   1.079
 7666SOL    HW123897   1.500   1.097   1.165
 7666SOL    HW223898   1.367   1.088   1.070
 7667SOL     OW23899   4.349   6.819   0.172
 7667SOL    HW123900   4.287   6.787   0.243
 7667SOL    HW223901   4.395   6.903   0.202
 7668SOL     OW23902   3.550   4.265   1.331
 7668SOL    HW123903   3.516   4.329   1.261
 7668SOL    HW223904   3.650   4.269   1.333
 7669SOL     OW23905   5.065   0.317   4.222
 7669SOL    HW123906   5.115   0.390   4.174
 7669SOL    HW223907   5.085   0.322   4.320
 7670SOL     OW23908   1.542   5.119   0.459
 7670SOL    HW123909   1.483   5.178   0.514
 7670SOL    HW223910   1.487   5.072   0.390
 7671SOL     OW23911   6.261   3.118   4.096
 7671SOL    HW123912   6.209   3.050   4.147
 7671SOL    HW223913   6.295   3.078   4.011
 7672SOL     OW23914   5.546   0.828   3.122
 7672SOL    HW123915   5.600   0.882   3.057
 7672SOL    HW223916   5.596   0.744   3.144
 7673SOL     OW23917   0.872   4.298   0.957
 7673SOL    HW123918   0.831   4.355   1.028
 7673SOL    HW223919   0.898   4.210   0.996
 7674SOL     OW23920   6.141   1.382   5.284
 7674SOL    HW123921   6.064   1.438   5.313
 7674SOL    HW223922   6.133   1.361   5.187
 7675SOL     OW23923   4.294   6.691   2.950
 7675SOL    HW123924   4.286   6.787   2.923
 7675SOL    HW223925   4.203   6.655   2.972
 7676SOL     OW23926   1.161   0.825   0.539
 7676SOL    HW123927   1.159   0.884   0.620
 7676SOL    HW223928   1.220   0.746   0.557
 7677SOL     OW23929   1.257   3.036   2.524
 7677SOL    HW123930   1.331   2.987   2.571
 7677SOL    HW223931   1.189   3.066   2.592
 7678SOL     OW23932   6.500   6.647   0.588
 7678SOL    HW123933   6.582   6.704   0.594
 7678SOL    HW223934   6.526   6.551   0.583
 7679SOL     OW23935   0.721   5.436   4.993
 7679SOL    HW123936   0.790   5.508   4.983
 7679SOL    HW223937   0.758   5.364   5.053
 7680SOL     OW23938   3.586   3.148   0.152
 7680SOL    HW123939   3.613   3.224   0.210
 7680SOL    HW223940   3.610   3.062   0.197
 7681SOL     OW23941   2.855   1.767   0.219
 7681SOL    HW123942   2.878   1.856   0.180
 7681SOL    HW223943   2.830   1.704   0.145
 7682SOL     OW23944   2.714   6.942   2.378
 7682SOL    HW123945   2.785   6.996   2.332
 7682SOL    HW223946   2.633   7.000   2.393
 7683SOL     OW23947   5.325   2.281   3.225
 7683SOL    HW123948   5.228   2.267   3.208
 7683SOL    HW223949   5.356   2.363   3.177
 7684SOL     OW23950   4.265   2.150   5.927
 7684SOL    HW123951   4.167   2.162   5.944
 7684SOL    HW223952   4.290   2.200   5.844
 7685SOL     OW23953   3.591   2.987   0.578
 7685SOL    HW123954   3.541   3.068   0.546
 7685SOL    HW223955   3.624   3.003   0.672
 7686SOL     OW23956   4.505   6.534   4.182
 7686SOL    HW123957   4.554   6.579   4.107
 7686SOL    HW223958   4.415   6.576   4.193
 7687SOL     OW23959   5.156   5.337   5.277
 7687SOL    HW123960   5.231   5.286   5.320
 7687SOL    HW223961   5.075   5.332   5.336
 7688SOL     OW23962   0.260   6.515   4.702
 7688SOL    HW123963   0.201   6.484   4.628
 7688SOL    HW223964   0.356   6.503   4.675
 7689SOL     OW23965   4.796   6.850   4.820
 7689SOL    HW123966   4.858   6.807   4.755
 7689SOL    HW223967   4.703   6.819   4.803
 7690SOL     OW23968   6.336   4.869   3.591
 7690SOL    HW123969   6.384   4.952   3.562
 7690SOL    HW223970   6.397   4.790   3.582
 7691SOL     OW23971   5.054   3.300   4.365
 7691SOL    HW123972   4.979   3.238   4.386
 7691SOL    HW223973   5.136   3.247   4.344
 7692SOL     OW23974   1.971   6.734   1.783
 7692SOL    HW123975   2.009   6.796   1.715
 7692SOL    HW223976   1.898   6.679   1.741
 7693SOL     OW23977   4.378   1.361   6.201
 7693SOL    HW123978   4.444   1.360   6.276
 7693SOL    HW223979   4.285   1.357   6.238
 7694SOL     OW23980   6.850   5.378   4.610
 7694SOL    HW123981   6.855   5.465   4.562
 7694SOL    HW223982   6.942   5.344   4.629
 7695SOL     OW23983   4.493   6.714   1.190
 7695SOL    HW123984   4.431   6.703   1.112
 7695SOL    HW223985   4.442   6.746   1.270
 7696SOL     OW23986   6.972   3.517   5.411
 7696SOL    HW123987   0.036   3.566   5.383
 7696SOL    HW223988   6.959   3.437   5.353
 7697SOL     OW23989   3.105   1.477   2.790
 7697SOL    HW123990   3.067   1.535   2.718
 7697SOL    HW223991   3.198   1.451   2.767
 7698SOL     OW23992   6.630   2.630   5.713
 7698SOL    HW123993   6.677   2.545   5.737
 7698SOL    HW223994   6.669   2.667   5.629
 7699SOL     OW23995   2.809   5.318   6.541
 7699SOL    HW123996   2.778   5.254   6.611
 7699SOL    HW223997   2.730   5.360   6.496
 7700SOL     OW23998   5.223   6.617   5.032
 7700SOL    HW123999   5.285   6.544   5.057
 7700SOL    HW224000   5.136   6.605   5.080
 7701SOL     OW24001   7.007   1.676   4.485
 7701SOL    HW124002   6.939   1.748   4.472
 7701SOL    HW224003   0.080   1.714   4.472
 7702SOL     OW24004   3.297   6.151   5.877
 7702SOL    HW124005   3.228   6.101   5.825
 7702SOL    HW224006   3.386   6.107   5.865
 7703SOL     OW24007   0.766   0.957   6.038
 7703SOL    HW124008   0.688   1.019   6.049
 7703SOL    HW224009   0.838   1.004   5.987
 7704SOL     OW24010   4.098   4.467   6.830
 7704SOL    HW124011   4.195   4.469   6.805
 7704SOL    HW224012   4.083   4.394   6.897
 7705SOL     OW24013   3.300   5.137   5.294
 7705SOL    HW124014   3.255   5.209   5.242
 7705SOL    HW224015   3.359   5.084   5.233
 7706SOL     OW24016   6.834   0.596   5.318
 7706SOL    HW124017   6.916   0.652   5.313
 7706SOL    HW224018   6.756   0.649   5.284
 7707SOL     OW24019   6.791   5.414   6.274
 7707SOL    HW124020   6.872   5.378   6.321
 7707SOL    HW224021   6.710   5.395   6.328
 7708SOL     OW24022   4.757   0.109   4.706
 7708SOL    HW124023   4.825   0.173   4.742
 7708SOL    HW224024   4.781   0.016   4.731
 7709SOL     OW24025   4.143   2.142   2.199
 7709SOL    HW124026   4.204   2.188   2.135
 7709SOL    HW224027   4.057   2.120   2.154
 7710SOL     OW24028   2.113   0.769   0.078
 7710SOL    HW124029   2.096   0.677   0.115
 7710SOL    HW224030   2.210   0.780   0.058
 7711SOL     OW24031   5.270   6.427   5.350
 7711SOL    HW124032   5.327   6.406   5.270
 7711SOL    HW224033   5.179   6.387   5.338
 7712SOL     OW24034   5.725   5.350   1.166
 7712SOL    HW124035   5.812   5.340   1.117
 7712SOL    HW224036   5.652   5.370   1.101
 7713SOL     OW24037   1.668   4.316   6.288
 7713SOL    HW124038   1.611   4.270   6.221
 7713SOL    HW224039   1.630   4.303   6.379
 7714SOL     OW24040   6.334   4.217   4.073
 7714SOL    HW124041   6.285   4.289   4.023
 7714SOL    HW224042   6.396   4.170   4.011
 7715SOL     OW24043   4.718   0.204   1.394
 7715SOL    HW124044   4.701   0.136   1.323
 7715SOL    HW224045   4.700   0.164   1.484
 7716SOL     OW24046   4.312   1.656   3.635
 7716SOL    HW124047   4.237   1.590   3.635
 7716SOL    HW224048   4.279   1.744   3.672
 7717SOL     OW24049   2.916   1.479   5.761
 7717SOL    HW124050   2.925   1.492   5.662
 7717SOL    HW224051   2.996   1.430   5.796
 7718SOL     OW24052   3.104   0.287   3.978
 7718SOL    HW124053   3.081   0.301   3.882
 7718SOL    HW224054   3.185   0.229   3.985
 7719SOL     OW24055   6.818   1.845   4.345
 7719SOL    HW124056   6.803   1.778   4.272
 7719SOL    HW224057   6.863   1.926   4.307
 7720SOL     OW24058   5.513   5.845   1.743
 7720SOL    HW124059   5.461   5.839   1.658
 7720SOL    HW224060   5.601   5.798   1.732
 7721SOL     OW24061   1.924   4.420   2.851
 7721SOL    HW124062   1.846   4.467   2.894
 7721SOL    HW224063   1.909   4.415   2.752
 7722SOL     OW24064   6.679   4.721   3.814
 7722SOL    HW124065   6.681   4.804   3.870
 7722SOL    HW224066   6.694   4.641   3.872
 7723SOL     OW24067   6.755   3.234   0.932
 7723SOL    HW124068   6.720   3.327   0.940
 7723SOL    HW224069   6.691   3.170   0.975
 7724SOL     OW24070   1.254   4.264   1.243
 7724SOL    HW124071   1.167   4.308   1.220
 7724SOL    HW224072   1.287   4.212   1.165
 7725SOL     OW24073   5.476   3.315   4.135
 7725SOL    HW124074   5.424   3.385   4.088
 7725SOL    HW224075   5.533   3.357   4.206
 7726SOL     OW24076   0.531   4.719   3.161
 7726SOL    HW124077   0.439   4.693   3.193
 7726SOL    HW224078   0.572   4.643   3.111
 7727SOL     OW24079   6.595   2.432   2.838
 7727SOL    HW124080   6.658   2.430   2.760
 7727SOL    HW224081   6.560   2.340   2.854
 7728SOL     OW24082   1.961   2.999   3.217
 7728SOL    HW124083   1.906   2.997   3.133
 7728SOL    HW224084   2.058   3.002   3.193
 7729SOL     OW24085   5.215   2.407   1.007
 7729SOL    HW124086   5.213   2.503   1.037
 7729SOL    HW224087   5.186   2.348   1.083
 7730SOL     OW24088   5.296   0.799   3.032
 7730SOL    HW124089   5.227   0.824   3.100
 7730SOL    HW224090   5.387   0.810   3.071
 7731SOL     OW24091   6.127   0.976   7.008
 7731SOL    HW124092   6.195   1.050   7.007
 7731SOL    HW224093   6.171   0.891   6.979
 7732SOL     OW24094   4.025   5.762   0.500
 7732SOL    HW124095   4.029   5.687   0.567
 7732SOL    HW224096   3.941   5.814   0.514
 7733SOL     OW24097   3.704   0.217   1.837
 7733SOL    HW124098   3.612   0.182   1.851
 7733SOL    HW224099   3.719   0.296   1.896
 7734SOL     OW24100   1.846   2.190   3.171
 7734SOL    HW124101   1.783   2.132   3.119
 7734SOL    HW224102   1.940   2.173   3.139
 7735SOL     OW24103   5.139   4.450   6.728
 7735SOL    HW124104   5.124   4.531   6.671
 7735SOL    HW224105   5.195   4.384   6.678
 7736SOL     OW24106   6.183   4.916   0.221
 7736SOL    HW124107   6.104   4.971   0.193
 7736SOL    HW224108   6.266   4.957   0.186
 7737SOL     OW24109   4.769   1.638   0.534
 7737SOL    HW124110   4.774   1.723   0.481
 7737SOL    HW224111   4.840   1.576   0.503
 7738SOL     OW24112   2.649   5.432   0.216
 7738SOL    HW124113   2.747   5.414   0.219
 7738SOL    HW224114   2.599   5.347   0.230
 7739SOL     OW24115   6.534   2.096   1.446
 7739SOL    HW124116   6.494   2.010   1.414
 7739SOL    HW224117   6.470   2.140   1.509
 7740SOL     OW24118   0.073   7.009   3.035
 7740SOL    HW124119   0.171   0.005   3.050
 7740SOL    HW224120   0.038   6.947   3.105
 7741SOL     OW24121   1.655   5.755   4.672
 7741SOL    HW124122   1.634   5.716   4.762
 7741SOL    HW224123   1.715   5.693   4.622
 7742SOL     OW24124   6.544   1.707   4.014
 7742SOL    HW124125   6.585   1.621   4.045
 7742SOL    HW224126   6.590   1.737   3.930
 7743SOL     OW24127   4.651   2.658   4.328
 7743SOL    HW124128   4.608   2.570   4.349
 7743SOL    HW224129   4.750   2.649   4.334
 7744SOL     OW24130   6.576   0.107   3.964
 7744SOL    HW124131   6.631   0.190   3.966
 7744SOL    HW224132   6.512   0.111   3.887
 7745SOL     OW24133   4.167   2.911   6.272
 7745SOL    HW124134   4.170   2.957   6.183
 7745SOL    HW224135   4.135   2.976   6.341
 7746SOL     OW24136   1.274   1.010   0.358
 7746SOL    HW124137   1.215   0.959   0.421
 7746SOL    HW224138   1.339   0.947   0.315
 7747SOL     OW24139   5.407   6.240   1.019
 7747SOL    HW124140   5.388   6.154   0.972
 7747SOL    HW224141   5.321   6.279   1.053
 7748SOL     OW24142   3.159   4.588   6.203
 7748SOL    HW124143   3.205   4.624   6.284
 7748SOL    HW224144   3.210   4.509   6.168
 7749SOL     OW24145   5.431   2.697   5.651
 7749SOL    HW124146   5.490   2.777   5.641
 7749SOL    HW224147   5.461   2.625   5.588
 7750SOL     OW24148   0.052   5.420   2.279
 7750SOL    HW124149   0.058   5.507   2.232
 7750SOL    HW224150   0.065   5.434   2.377
 7751SOL     OW24151   0.543   2.683   2.271
 7751SOL    HW124152   0.559   2.754   2.340
 7751SOL    HW224153   0.609   2.694   2.197
 7752SOL     OW24154   4.473   1.796   4.120
 7752SOL    HW124155   4.510   1.810   4.028
 7752SOL    HW224156   4.480   1.881   4.172
 7753SOL     OW24157   3.208   1.504   5.062
 7753SOL    HW124158   3.285   1.442   5.045
 7753SOL    HW224159   3.135   1.454   5.109
 7754SOL     OW24160   4.598   6.011   1.856
 7754SOL    HW124161   4.499   6.024   1.851
 7754SOL    HW224162   4.623   5.982   1.948
 7755SOL     OW24163   0.341   4.300   5.988
 7755SOL    HW124164   0.340   4.378   6.049
 7755SOL    HW224165   0.412   4.235   6.018
 7756SOL     OW24166   2.696   5.439   1.506
 7756SOL    HW124167   2.708   5.355   1.453
 7756SOL    HW224168   2.785   5.477   1.529
 7757SOL     OW24169   0.254   4.412   2.220
 7757SOL    HW124170   0.273   4.315   2.203
 7757SOL    HW224171   0.330   4.453   2.269
 7758SOL     OW24172   1.650   1.235   4.865
 7758SOL    HW124173   1.669   1.218   4.768
 7758SOL    HW224174   1.693   1.322   4.892
 7759SOL     OW24175   2.718   2.495   6.556
 7759SOL    HW124176   2.767   2.412   6.583
 7759SOL    HW224177   2.635   2.504   6.611
 7760SOL     OW24178   4.233   2.965   0.584
 7760SOL    HW124179   4.308   2.954   0.650
 7760SOL    HW224180   4.156   2.907   0.611
 7761SOL     OW24181   4.783   5.290   4.327
 7761SOL    HW124182   4.719   5.223   4.364
 7761SOL    HW224183   4.746   5.328   4.242
 7762SOL     OW24184   6.100   1.526   2.747
 7762SOL    HW124185   6.010   1.549   2.708
 7762SOL    HW224186   6.099   1.431   2.780
 7763SOL     OW24187   2.324   0.040   3.962
 7763SOL    HW124188   2.306   6.965   3.992
 7763SOL    HW224189   2.291   0.052   3.869
 7764SOL     OW24190   2.883   3.879   5.523
 7764SOL    HW124191   2.921   3.955   5.576
 7764SOL    HW224192   2.791   3.903   5.491
 7765SOL     OW24193   6.590   3.325   5.327
 7765SOL    HW124194   6.678   3.365   5.352
 7765SOL    HW224195   6.534   3.395   5.281
 7766SOL     OW24196   6.083   4.033   6.235
 7766SOL    HW124197   6.174   3.992   6.222
 7766SOL    HW224198   6.092   4.133   6.236
 7767SOL     OW24199   3.254   0.604   3.694
 7767SOL    HW124200   3.281   0.637   3.603
 7767SOL    HW224201   3.199   0.521   3.683
 7768SOL     OW24202   4.354   5.011   3.386
 7768SOL    HW124203   4.400   5.024   3.474
 7768SOL    HW224204   4.357   4.914   3.361
 7769SOL     OW24205   3.675   2.636   5.349
 7769SOL    HW124206   3.622   2.551   5.354
 7769SOL    HW224207   3.621   2.711   5.386
 7770SOL     OW24208   2.080   3.481   4.650
 7770SOL    HW124209   2.086   3.571   4.607
 7770SOL    HW224210   2.106   3.487   4.746
 7771SOL     OW24211   2.637   2.598   6.293
 7771SOL    HW124212   2.643   2.697   6.285
 7771SOL    HW224213   2.663   2.570   6.385
 7772SOL     OW24214   4.759   6.317   1.788
 7772SOL    HW124215   4.845   6.285   1.748
 7772SOL    HW224216   4.776   6.396   1.846
 7773SOL     OW24217   3.196   6.286   6.894
 7773SOL    HW124218   3.193   6.234   6.809
 7773SOL    HW224219   3.236   6.376   6.877
 7774SOL     OW24220   4.013   1.332   2.178
 7774SOL    HW124221   3.976   1.342   2.086
 7774SOL    HW224222   3.972   1.252   2.222
 7775SOL     OW24223   2.776   1.113   0.109
 7775SOL    HW124224   2.867   1.148   0.087
 7775SOL    HW224225   2.783   1.015   0.129
 7776SOL     OW24226   1.678   1.475   4.624
 7776SOL    HW124227   1.581   1.457   4.639
 7776SOL    HW224228   1.693   1.574   4.617
 7777SOL     OW24229   6.111   5.017   3.651
 7777SOL    HW124230   6.156   4.927   3.649
 7777SOL    HW224231   6.179   5.089   3.642
 7778SOL     OW24232   0.043   4.843   2.540
 7778SOL    HW124233   7.014   4.930   2.552
 7778SOL    HW224234   0.142   4.859   2.540
 7779SOL     OW24235   3.802   5.968   2.319
 7779SOL    HW124236   3.745   5.969   2.237
 7779SOL    HW224237   3.850   6.055   2.327
 7780SOL     OW24238   6.039   6.268   4.615
 7780SOL    HW124239   6.031   6.192   4.551
 7780SOL    HW224240   6.091   6.342   4.572
 7781SOL     OW24241   1.202   2.566   0.743
 7781SOL    HW124242   1.192   2.555   0.841
 7781SOL    HW224243   1.113   2.557   0.698
 7782SOL     OW24244   5.616   2.976   4.310
 7782SOL    HW124245   5.614   2.991   4.212
 7782SOL    HW224246   5.523   2.965   4.344
 7783SOL     OW24247   1.609   0.044   5.103
 7783SOL    HW124248   1.655   0.057   5.190
 7783SOL    HW224249   1.661   7.000   5.046
 7784SOL     OW24250   1.679   2.247   1.962
 7784SOL    HW124251   1.667   2.325   1.900
 7784SOL    HW224252   1.590   2.219   1.998
 7785SOL     OW24253   0.685   0.216   2.770
 7785SOL    HW124254   0.775   0.205   2.727
 7785SOL    HW224255   0.623   0.147   2.734
 7786SOL     OW24256   4.293   0.752   6.053
 7786SOL    HW124257   4.289   0.852   6.056
 7786SOL    HW224258   4.319   0.718   6.144
 7787SOL     OW24259   1.984   2.538   1.543
 7787SOL    HW124260   1.980   2.485   1.458
 7787SOL    HW224261   1.912   2.508   1.605
 7788SOL     OW24262   6.986   4.497   1.570
 7788SOL    HW124263   0.026   4.531   1.644
 7788SOL    HW224264   6.963   4.401   1.588
 7789SOL     OW24265   2.939   1.695   5.553
 7789SOL    HW124266   2.916   1.604   5.519
 7789SOL    HW224267   3.016   1.731   5.501
 7790SOL     OW24268   4.449   4.558   2.009
 7790SOL    HW124269   4.479   4.463   2.017
 7790SOL    HW224270   4.505   4.616   2.068
 7791SOL     OW24271   2.565   4.900   2.215
 7791SOL    HW124272   2.590   4.805   2.233
 7791SOL    HW224273   2.607   4.960   2.283
 7792SOL     OW24274   0.502   1.696   2.854
 7792SOL    HW124275   0.596   1.690   2.889
 7792SOL    HW224276   0.479   1.613   2.804
 7793SOL     OW24277   4.711   0.728   5.971
 7793SOL    HW124278   4.803   0.712   6.007
 7793SOL    HW224279   4.673   0.812   6.011
 7794SOL     OW24280   0.447   6.858   3.387
 7794SOL    HW124281   0.468   6.951   3.358
 7794SOL    HW224282   0.503   6.835   3.467
 7795SOL     OW24283   3.289   5.423   6.824
 7795SOL    HW124284   3.388   5.419   6.831
 7795SOL    HW224285   3.256   5.353   6.761
 7796SOL     OW24286   3.891   3.282   0.077
 7796SOL    HW124287   3.896   3.250   0.171
 7796SOL    HW224288   3.796   3.277   0.045
 7797SOL     OW24289   0.962   6.063   2.980
 7797SOL    HW124290   0.961   5.977   3.031
 7797SOL    HW224291   0.944   6.044   2.883
 7798SOL     OW24292   1.424   3.713   1.177
 7798SOL    HW124293   1.358   3.648   1.140
 7798SOL    HW224294   1.410   3.723   1.276
 7799SOL     OW24295   2.342   5.550   3.778
 7799SOL    HW124296   2.357   5.470   3.721
 7799SOL    HW224297   2.263   5.535   3.837
 7800SOL     OW24298   0.849   6.386   2.103
 7800SOL    HW124299   0.762   6.341   2.123
 7800SOL    HW224300   0.924   6.322   2.117
 7801SOL     OW24301   1.406   2.207   2.058
 7801SOL    HW124302   1.325   2.192   2.115
 7801SOL    HW224303   1.393   2.163   1.969
 7802SOL     OW24304   0.204   3.909   4.308
 7802SOL    HW124305   0.127   3.907   4.244
 7802SOL    HW224306   0.287   3.877   4.262
 7803SOL     OW24307   3.934   2.927   5.798
 7803SOL    HW124308   3.884   2.890   5.876
 7803SOL    HW224309   3.952   3.024   5.813
 7804SOL     OW24310   3.531   1.714   5.190
 7804SOL    HW124311   3.457   1.712   5.122
 7804SOL    HW224312   3.561   1.620   5.209
 7805SOL     OW24313   5.665   3.119   0.843
 7805SOL    HW124314   5.643   3.023   0.863
 7805SOL    HW224315   5.667   3.133   0.744
 7806SOL     OW24316   6.561   1.648   5.744
 7806SOL    HW124317   6.617   1.594   5.806
 7806SOL    HW224318   6.469   1.659   5.784
 7807SOL     OW24319   2.226   4.598   5.957
 7807SOL    HW124320   2.272   4.556   6.035
 7807SOL    HW224321   2.131   4.619   5.982
 7808SOL     OW24322   5.459   3.716   2.776
 7808SOL    HW124323   5.412   3.650   2.717
 7808SOL    HW224324   5.541   3.674   2.814
 7809SOL     OW24325   4.940   5.048   2.927
 7809SOL    HW124326   4.891   4.965   2.901
 7809SOL    HW224327   5.014   5.064   2.863
 7810SOL     OW24328   3.511   6.427   5.355
 7810SOL    HW124329   3.490   6.474   5.269
 7810SOL    HW224330   3.596   6.375   5.344
 7811SOL     OW24331   1.642   6.519   3.177
 7811SOL    HW124332   1.571   6.468   3.127
 7811SOL    HW224333   1.627   6.509   3.275
 7812SOL     OW24334   3.180   2.001   6.206
 7812SOL    HW124335   3.232   1.927   6.248
 7812SOL    HW224336   3.236   2.046   6.137
 7813SOL     OW24337   5.618   0.644   0.538
 7813SOL    HW124338   5.668   0.659   0.624
 7813SOL    HW224339   5.657   0.701   0.466
 7814SOL     OW24340   6.542   2.955   1.854
 7814SOL    HW124341   6.546   2.882   1.786
 7814SOL    HW224342   6.463   3.014   1.836
 7815SOL     OW24343   5.904   3.686   5.833
 7815SOL    HW124344   5.897   3.730   5.923
 7815SOL    HW224345   5.934   3.591   5.846
 7816SOL     OW24346   0.622   0.504   5.416
 7816SOL    HW124347   0.673   0.576   5.369
 7816SOL    HW224348   0.667   0.416   5.401
 7817SOL     OW24349   3.071   3.171   6.690
 7817SOL    HW124350   3.017   3.244   6.730
 7817SOL    HW224351   3.019   3.085   6.692
 7818SOL     OW24352   5.807   0.738   3.478
 7818SOL    HW124353   5.759   0.694   3.553
 7818SOL    HW224354   5.775   0.832   3.467
 7819SOL     OW24355   1.813   3.686   3.759
 7819SOL    HW124356   1.720   3.667   3.791
 7819SOL    HW224357   1.848   3.768   3.806
 7820SOL     OW24358   1.715   6.893   6.199
 7820SOL    HW124359   1.745   6.989   6.202
 7820SOL    HW224360   1.729   6.857   6.107
 7821SOL     OW24361   4.858   5.908   6.497
 7821SOL    HW124362   4.821   5.856   6.420
 7821SOL    HW224363   4.788   5.920   6.567
 7822SOL     OW24364   0.236   0.728   4.808
 7822SOL    HW124365   0.226   0.753   4.712
 7822SOL    HW224366   0.330   0.747   4.839
 7823SOL     OW24367   2.027   3.399   5.625
 7823SOL    HW124368   2.096   3.326   5.621
 7823SOL    HW224369   2.016   3.439   5.535
 7824SOL     OW24370   5.717   2.819   3.427
 7824SOL    HW124371   5.628   2.858   3.400
 7824SOL    HW224372   5.743   2.747   3.363
 7825SOL     OW24373   3.555   3.656   2.231
 7825SOL    HW124374   3.613   3.574   2.239
 7825SOL    HW224375   3.599   3.722   2.169
 7826SOL     OW24376   6.394   7.000   1.142
 7826SOL    HW124377   6.308   0.025   1.115
 7826SOL    HW224378   6.467   0.012   1.081
 7827SOL     OW24379   4.964   3.971   1.065
 7827SOL    HW124380   4.995   3.988   0.972
 7827SOL    HW224381   4.953   3.873   1.080
 7828SOL     OW24382   0.926   5.554   0.807
 7828SOL    HW124383   0.910   5.652   0.821
 7828SOL    HW224384   1.011   5.541   0.755
 7829SOL     OW24385   3.909   3.032   2.606
 7829SOL    HW124386   3.913   2.959   2.538
 7829SOL    HW224387   3.834   3.014   2.670
 7830SOL     OW24388   5.881   2.838   6.908
 7830SOL    HW124389   5.891   2.754   6.856
 7830SOL    HW224390   5.903   2.917   6.850
 7831SOL     OW24391   1.839   2.644   6.687
 7831SOL    HW124392   1.745   2.654   6.652
 7831SOL    HW224393   1.885   2.571   6.637
 7832SOL     OW24394   2.807   2.426   5.204
 7832SOL    HW124395   2.862   2.365   5.147
 7832SOL    HW224396   2.866   2.491   5.251
 7833SOL     OW24397   1.375   0.132   0.774
 7833SOL    HW124398   1.313   0.111   0.699
 7833SOL    HW224399   1.446   0.195   0.743
 7834SOL     OW24400   0.352   0.486   1.170
 7834SOL    HW124401   0.291   0.418   1.211
 7834SOL    HW224402   0.447   0.456   1.180
 7835SOL     OW24403   2.078   2.952   5.267
 7835SOL    HW124404   2.041   3.037   5.304
 7835SOL    HW224405   2.077   2.956   5.167
 7836SOL     OW24406   2.511   0.050   0.439
 7836SOL    HW124407   2.517   0.090   0.347
 7836SOL    HW224408   2.420   0.010   0.451
 7837SOL     OW24409   6.081   0.164   3.352
 7837SOL    HW124410   6.074   0.109   3.436
 7837SOL    HW224411   5.993   0.207   3.333
 7838SOL     OW24412   4.091   6.858   3.428
 7838SOL    HW124413   3.997   6.894   3.425
 7838SOL    HW224414   4.128   6.869   3.520
 7839SOL     OW24415   6.209   5.048   4.405
 7839SOL    HW124416   6.249   5.117   4.345
 7839SOL    HW224417   6.119   5.021   4.369
 7840SOL     OW24418   5.117   2.924   5.546
 7840SOL    HW124419   5.033   2.903   5.597
 7840SOL    HW224420   5.134   2.851   5.480
 7841SOL     OW24421   1.427   1.868   6.291
 7841SOL    HW124422   1.477   1.935   6.236
 7841SOL    HW224423   1.479   1.848   6.374
 7842SOL     OW24424   3.050   1.254   3.050
 7842SOL    HW124425   2.998   1.224   3.130
 7842SOL    HW224426   2.990   1.255   2.970
 7843SOL     OW24427   5.344   3.418   1.350
 7843SOL    HW124428   5.314   3.362   1.272
 7843SOL    HW224429   5.269   3.423   1.416
 7844SOL     OW24430   4.563   1.239   4.009
 7844SOL    HW124431   4.478   1.266   4.053
 7844SOL    HW224432   4.640   1.281   4.056
 7845SOL     OW24433   0.355   0.856   4.133
 7845SOL    HW124434   0.408   0.774   4.154
 7845SOL    HW224435   0.394   0.934   4.182
 7846SOL     OW24436   3.505   6.731   2.099
 7846SOL    HW124437   3.428   6.722   2.163
 7846SOL    HW224438   3.517   6.644   2.050
 7847SOL     OW24439   0.171   0.202   0.130
 7847SOL    HW124440   0.200   0.239   0.219
 7847SOL    HW224441   0.224   0.246   0.057
 7848SOL     OW24442   4.873   4.292   0.724
 7848SOL    HW124443   4.801   4.231   0.759
 7848SOL    HW224444   4.935   4.316   0.799
 7849SOL     OW24445   5.741   3.831   5.344
 7849SOL    HW124446   5.835   3.799   5.363
 7849SOL    HW224447   5.724   3.916   5.394
 7850SOL     OW24448   0.627   0.577   4.418
 7850SOL    HW124449   0.703   0.533   4.465
 7850SOL    HW224450   0.549   0.515   4.414
 7851SOL     OW24451   5.216   0.018   6.869
 7851SOL    HW124452   5.247   6.999   6.782
 7851SOL    HW224453   5.269   0.099   6.891
 7852SOL     OW24454   2.404   6.298   6.843
 7852SOL    HW124455   2.475   6.299   6.774
 7852SOL    HW224456   2.409   6.213   6.896
 7853SOL     OW24457   2.291   3.399   0.757
 7853SOL    HW124458   2.295   3.300   0.741
 7853SOL    HW224459   2.196   3.425   0.777
 7854SOL     OW24460   3.528   4.055   2.650
 7854SOL    HW124461   3.624   4.080   2.665
 7854SOL    HW224462   3.525   3.972   2.593
 7855SOL     OW24463   3.676   6.700   5.870
 7855SOL    HW124464   3.743   6.656   5.810
 7855SOL    HW224465   3.710   6.703   5.964
 7856SOL     OW24466   4.877   3.003   6.256
 7856SOL    HW124467   4.868   3.088   6.309
 7856SOL    HW224468   4.806   2.939   6.284
 7857SOL     OW24469   0.643   1.496   5.118
 7857SOL    HW124470   0.647   1.513   5.216
 7857SOL    HW224471   0.736   1.488   5.082
 7858SOL     OW24472   6.173   4.167   3.393
 7858SOL    HW124473   6.241   4.157   3.320
 7858SOL    HW224474   6.134   4.259   3.390
 7859SOL     OW24475   1.216   5.588   6.646
 7859SOL    HW124476   1.157   5.634   6.712
 7859SOL    HW224477   1.161   5.525   6.591
 7860SOL     OW24478   3.424   0.119   1.847
 7860SOL    HW124479   3.418   0.185   1.772
 7860SOL    HW224480   3.377   0.157   1.927
 7861SOL     OW24481   5.677   4.376   0.648
 7861SOL    HW124482   5.647   4.362   0.742
 7861SOL    HW224483   5.634   4.308   0.589
 7862SOL     OW24484   2.789   4.706   1.695
 7862SOL    HW124485   2.759   4.791   1.737
 7862SOL    HW224486   2.840   4.652   1.762
 7863SOL     OW24487   0.185   5.955   1.922
 7863SOL    HW124488   0.141   5.975   2.010
 7863SOL    HW224489   0.243   6.033   1.897
 7864SOL     OW24490   0.818   5.354   4.603
 7864SOL    HW124491   0.814   5.269   4.655
 7864SOL    HW224492   0.761   5.423   4.649
 7865SOL     OW24493   3.156   0.183   2.619
 7865SOL    HW124494   3.247   0.216   2.595
 7865SOL    HW224495   3.151   0.084   2.605
 7866SOL     OW24496   2.775   2.360   4.198
 7866SOL    HW124497   2.729   2.448   4.192
 7866SOL    HW224498   2.818   2.339   4.110
 7867SOL     OW24499   5.361   4.419   2.271
 7867SOL    HW124500   5.379   4.342   2.211
 7867SOL    HW224501   5.315   4.491   2.220
 7868SOL     OW24502   5.350   0.043   0.791
 7868SOL    HW124503   5.259   0.074   0.764
 7868SOL    HW224504   5.414   0.060   0.716
 7869SOL     OW24505   0.282   3.265   2.055
 7869SOL    HW124506   0.252   3.360   2.058
 7869SOL    HW224507   0.267   3.228   1.963
 7870SOL     OW24508   0.114   6.132   3.943
 7870SOL    HW124509   0.191   6.126   4.006
 7870SOL    HW224510   0.147   6.123   3.849
 7871SOL     OW24511   5.358   2.825   3.205
 7871SOL    HW124512   5.379   2.892   3.134
 7871SOL    HW224513   5.388   2.860   3.294
 7872SOL     OW24514   6.861   3.164   3.474
 7872SOL    HW124515   6.843   3.069   3.500
 7872SOL    HW224516   6.785   3.198   3.418
 7873SOL     OW24517   0.425   5.048   5.136
 7873SOL    HW124518   0.360   5.038   5.061
 7873SOL    HW224519   0.388   5.006   5.219
 7874SOL     OW24520   5.353   1.032   0.421
 7874SOL    HW124521   5.357   0.998   0.515
 7874SOL    HW224522   5.438   1.081   0.400
 7875SOL     OW24523   4.482   3.016   6.556
 7875SOL    HW124524   4.428   3.091   6.518
 7875SOL    HW224525   4.485   3.025   6.656
 7876SOL     OW24526   6.607   0.415   3.843
 7876SOL    HW124527   6.521   0.464   3.826
 7876SOL    HW224528   6.630   0.421   3.940
 7877SOL     OW24529   6.975   2.255   2.267
 7877SOL    HW124530   7.011   2.206   2.346
 7877SOL    HW224531   0.002   2.344   2.260
 7878SOL     OW24532   4.813   3.567   1.835
 7878SOL    HW124533   4.722   3.540   1.804
 7878SOL    HW224534   4.855   3.627   1.767
 7879SOL     OW24535   5.252   0.573   4.478
 7879SOL    HW124536   5.286   0.587   4.385
 7879SOL    HW224537   5.323   0.599   4.543
 7880SOL     OW24538   0.648   6.956   6.561
 7880SOL    HW124539   0.598   0.011   6.516
 7880SOL    HW224540   0.714   6.916   6.498
 7881SOL     OW24541   0.037   4.864   3.813
 7881SOL    HW124542   0.064   4.834   3.904
 7881SOL    HW224543   0.117   4.898   3.763
 7882SOL     OW24544   0.209   3.888   2.316
 7882SOL    HW124545   0.210   3.890   2.416
 7882SOL    HW224546   0.290   3.839   2.283
 7883SOL     OW24547   3.814   1.667   4.249
 7883SOL    HW124548   3.856   1.702   4.332
 7883SOL    HW224549   3.873   1.596   4.210
 7884SOL     OW24550   0.410   3.386   4.034
 7884SOL    HW124551   0.396   3.347   3.943
 7884SOL    HW224552   0.321   3.407   4.074
 7885SOL     OW24553   6.303   5.249   3.324
 7885SOL    HW124554   6.308   5.294   3.413
 7885SOL    HW224555   6.337   5.312   3.253
 7886SOL     OW24556   4.950   3.194   3.172
 7886SOL    HW124557   4.997   3.167   3.088
 7886SOL    HW224558   4.885   3.123   3.199
 7887SOL     OW24559   2.517   3.551   0.743
 7887SOL    HW124560   2.606   3.507   0.742
 7887SOL    HW224561   2.445   3.483   0.760
 7888SOL     OW24562   6.010   2.391   4.586
 7888SOL    HW124563   6.024   2.448   4.667
 7888SOL    HW224564   5.964   2.444   4.515
 7889SOL     OW24565   5.336   5.284   0.316
 7889SOL    HW124566   5.340   5.358   0.249
 7889SOL    HW224567   5.270   5.308   0.388
 7890SOL     OW24568   1.391   3.588   4.194
 7890SOL    HW124569   1.335   3.670   4.207
 7890SOL    HW224570   1.475   3.613   4.146
 7891SOL     OW24571   6.897   1.427   4.423
 7891SOL    HW124572   6.959   1.502   4.447
 7891SOL    HW224573   6.935   1.375   4.346
 7892SOL     OW24574   0.354   1.983   5.864
 7892SOL    HW124575   0.397   1.895   5.884
 7892SOL    HW224576   0.267   1.967   5.817
 7893SOL     OW24577   6.179   0.385   0.280
 7893SOL    HW124578   6.114   0.461   0.278
 7893SOL    HW224579   6.252   0.401   0.213
 7894SOL     OW24580   3.167   1.642   5.892
 7894SOL    HW124581   3.073   1.675   5.886
 7894SOL    HW224582   3.171   1.562   5.952
 7895SOL     OW24583   4.523   6.387   3.667
 7895SOL    HW124584   4.562   6.296   3.656
 7895SOL    HW224585   4.424   6.383   3.655
 7896SOL     OW24586   2.809   2.299   0.942
 7896SOL    HW124587   2.840   2.322   0.850
 7896SOL    HW224588   2.872   2.338   1.010
 7897SOL     OW24589   3.371   3.530   0.706
 7897SOL    HW124590   3.299   3.478   0.659
 7897SOL    HW224591   3.361   3.518   0.804
 7898SOL     OW24592   5.233   6.926   3.417
 7898SOL    HW124593   5.140   6.935   3.452
 7898SOL    HW224594   5.291   6.882   3.486
 7899SOL     OW24595   6.212   4.723   3.061
 7899SOL    HW124596   6.167   4.634   3.058
 7899SOL    HW224597   6.156   4.790   3.012
 7900SOL     OW24598   0.683   4.298   1.726
 7900SOL    HW124599   0.747   4.357   1.677
 7900SOL    HW224600   0.669   4.334   1.818
 7901SOL     OW24601   6.260   1.305   6.520
 7901SOL    HW124602   6.303   1.231   6.468
 7901SOL    HW224603   6.257   1.388   6.465
 7902SOL     OW24604   0.942   6.826   3.460
 7902SOL    HW124605   0.922   6.882   3.379
 7902SOL    HW224606   0.886   6.858   3.537
 7903SOL     OW24607   2.922   2.170   5.090
 7903SOL    HW124608   3.013   2.212   5.098
 7903SOL    HW224609   2.889   2.180   4.996
 7904SOL     OW24610   4.871   1.511   2.281
 7904SOL    HW124611   4.954   1.507   2.225
 7904SOL    HW224612   4.795   1.468   2.232
 7905SOL     OW24613   5.478   1.028   1.076
 7905SOL    HW124614   5.545   1.044   1.004
 7905SOL    HW224615   5.459   0.930   1.083
 7906SOL     OW24616   1.959   5.463   0.286
 7906SOL    HW124617   1.985   5.559   0.274
 7906SOL    HW224618   1.861   5.453   0.270
 7907SOL     OW24619   6.628   0.113   2.965
 7907SOL    HW124620   6.694   0.062   2.910
 7907SOL    HW224621   6.588   0.052   3.033
 7908SOL     OW24622   1.006   0.459   6.696
 7908SOL    HW124623   1.085   0.434   6.641
 7908SOL    HW224624   1.034   0.471   6.792
 7909SOL     OW24625   5.660   4.863   1.893
 7909SOL    HW124626   5.739   4.802   1.897
 7909SOL    HW224627   5.691   4.957   1.878
 7910SOL     OW24628   1.675   3.715   0.463
 7910SOL    HW124629   1.669   3.799   0.518
 7910SOL    HW224630   1.710   3.738   0.372
 7911SOL     OW24631   1.110   4.079   0.264
 7911SOL    HW124632   1.127   4.140   0.186
 7911SOL    HW224633   1.019   4.099   0.302
 7912SOL     OW24634   5.932   5.941   0.855
 7912SOL    HW124635   5.868   5.865   0.847
 7912SOL    HW224636   5.924   6.000   0.774
 7913SOL     OW24637   0.801   3.943   0.935
 7913SOL    HW124638   0.891   3.930   0.975
 7913SOL    HW224639   0.810   3.991   0.847
 7914SOL     OW24640   6.337   5.873   4.745
 7914SOL    HW124641   6.294   5.903   4.830
 7914SOL    HW224642   6.304   5.782   4.721
 7915SOL     OW24643   3.636   5.972   2.541
 7915SOL    HW124644   3.712   5.959   2.478
 7915SOL    HW224645   3.557   6.007   2.491
 7916SOL     OW24646   1.743   0.631   4.727
 7916SOL    HW124647   1.696   0.548   4.699
 7916SOL    HW224648   1.679   0.691   4.776
 7917SOL     OW24649   4.623   3.783   1.053
 7917SOL    HW124650   4.604   3.873   1.090
 7917SOL    HW224651   4.646   3.720   1.127
 7918SOL     OW24652   2.131   1.665   4.629
 7918SOL    HW124653   2.122   1.670   4.530
 7918SOL    HW224654   2.209   1.722   4.658
 7919SOL     OW24655   1.996   6.216   3.671
 7919SOL    HW124656   1.991   6.233   3.770
 7919SOL    HW224657   2.047   6.290   3.627
 7920SOL     OW24658   5.027   0.539   1.003
 7920SOL    HW124659   4.982   0.462   1.049
 7920SOL    HW224660   5.105   0.569   1.059
 7921SOL     OW24661   4.781   1.884   1.866
 7921SOL    HW124662   4.851   1.881   1.937
 7921SOL    HW224663   4.701   1.934   1.900
 7922SOL     OW24664   1.433   5.480   1.114
 7922SOL    HW124665   1.409   5.475   1.211
 7922SOL    HW224666   1.350   5.470   1.059
 7923SOL     OW24667   4.776   1.564   0.239
 7923SOL    HW124668   4.688   1.600   0.268
 7923SOL    HW224669   4.850   1.614   0.285
 7924SOL     OW24670   6.284   6.541   1.158
 7924SOL    HW124671   6.215   6.579   1.095
 7924SOL    HW224672   6.347   6.613   1.186
 7925SOL     OW24673   1.415   6.459   0.373
 7925SOL    HW124674   1.479   6.430   0.444
 7925SOL    HW224675   1.386   6.553   0.391
 7926SOL     OW24676   4.422   5.762   6.810
 7926SOL    HW124677   4.391   5.784   6.717
 7926SOL    HW224678   4.342   5.752   6.869
 7927SOL     OW24679   4.721   0.389   2.408
 7927SOL    HW124680   4.697   0.336   2.489
 7927SOL    HW224681   4.745   0.482   2.435
 7928SOL     OW24682   6.941   1.534   3.376
 7928SOL    HW124683   6.861   1.561   3.322
 7928SOL    HW224684   6.953   1.435   3.370
 7929SOL     OW24685   3.924   4.510   5.758
 7929SOL    HW124686   3.967   4.588   5.714
 7929SOL    HW224687   3.983   4.476   5.832
 7930SOL     OW24688   4.406   6.084   5.793
 7930SOL    HW124689   4.488   6.110   5.741
 7930SOL    HW224690   4.326   6.128   5.752
 7931SOL     OW24691   3.427   2.213   0.739
 7931SOL    HW124692   3.523   2.225   0.763
 7931SOL    HW224693   3.377   2.298   0.757
 7932SOL     OW24694   1.474   5.083   2.688
 7932SOL    HW124695   1.388   5.111   2.644
 7932SOL    HW224696   1.530   5.164   2.706
 7933SOL     OW24697   0.379   1.090   6.604
 7933SOL    HW124698   0.387   1.186   6.576
 7933SOL    HW224699   0.464   1.060   6.645
 7934SOL     OW24700   0.916   4.801   1.210
 7934SOL    HW124701   0.882   4.847   1.293
 7934SOL    HW224702   1.003   4.843   1.182
 7935SOL     OW24703   4.853   3.037   3.549
 7935SOL    HW124704   4.794   2.975   3.600
 7935SOL    HW224705   4.842   3.020   3.451
 7936SOL     OW24706   3.314   6.372   4.187
 7936SOL    HW124707   3.283   6.341   4.277
 7936SOL    HW224708   3.237   6.411   4.137
 7937SOL     OW24709   3.513   0.326   0.048
 7937SOL    HW124710   3.424   0.318   0.092
 7937SOL    HW224711   3.531   0.243   7.014
 7938SOL     OW24712   3.813   6.726   4.331
 7938SOL    HW124713   3.889   6.724   4.267
 7938SOL    HW224714   3.844   6.695   4.421
 7939SOL     OW24715   0.670   1.674   3.217
 7939SOL    HW124716   0.620   1.589   3.231
 7939SOL    HW224717   0.747   1.679   3.282
 7940SOL     OW24718   5.117   1.429   2.709
 7940SOL    HW124719   5.111   1.332   2.733
 7940SOL    HW224720   5.076   1.484   2.781
 7941SOL     OW24721   3.689   6.733   1.770
 7941SOL    HW124722   3.719   6.824   1.800
 7941SOL    HW224723   3.597   6.738   1.733
 7942SOL     OW24724   1.018   4.618   1.397
 7942SOL    HW124725   0.971   4.682   1.336
 7942SOL    HW224726   1.104   4.658   1.428
 7943SOL     OW24727   1.140   5.767   6.321
 7943SOL    HW124728   1.056   5.713   6.317
 7943SOL    HW224729   1.140   5.823   6.404
 7944SOL     OW24730   1.567   2.719   0.610
 7944SOL    HW124731   1.640   2.701   0.676
 7944SOL    HW224732   1.521   2.634   0.586
 7945SOL     OW24733   5.681   4.498   3.178
 7945SOL    HW124734   5.722   4.501   3.269
 7945SOL    HW224735   5.620   4.576   3.167
 7946SOL     OW24736   4.046   0.976   5.804
 7946SOL    HW124737   3.988   1.000   5.726
 7946SOL    HW224738   4.065   0.878   5.802
 7947SOL     OW24739   0.727   3.496   6.103
 7947SOL    HW124740   0.747   3.445   6.020
 7947SOL    HW224741   0.764   3.448   6.183
 7948SOL     OW24742   1.312   4.297   1.957
 7948SOL    HW124743   1.293   4.325   1.863
 7948SOL    HW224744   1.316   4.377   2.016
 7949SOL     OW24745   3.630   5.608   6.684
 7949SOL    HW124746   3.636   5.526   6.740
 7949SOL    HW224747   3.624   5.582   6.587
 7950SOL     OW24748   5.377   5.038   5.285
 7950SOL    HW124749   5.450   5.080   5.231
 7950SOL    HW224750   5.306   5.003   5.223
 7951SOL     OW24751   2.906   5.846   3.136
 7951SOL    HW124752   3.005   5.854   3.123
 7951SOL    HW224753   2.874   5.919   3.196
 7952SOL     OW24754   5.460   3.720   6.739
 7952SOL    HW124755   5.385   3.661   6.768
 7952SOL    HW224756   5.424   3.794   6.682
 7953SOL     OW24757   2.470   0.788   1.074
 7953SOL    HW124758   2.415   0.705   1.082
 7953SOL    HW224759   2.433   0.845   1.001
 7954SOL     OW24760   3.748   3.352   6.563
 7954SOL    HW124761   3.786   3.263   6.587
 7954SOL    HW224762   3.650   3.352   6.582
 7955SOL     OW24763   1.609   1.494   0.067
 7955SOL    HW124764   1.637   1.403   0.095
 7955SOL    HW224765   1.548   1.488   7.007
 7956SOL     OW24766   5.914   6.119   0.653
 7956SOL    HW124767   5.951   6.090   0.565
 7956SOL    HW224768   5.980   6.177   0.700
 7957SOL     OW24769   4.622   0.868   5.254
 7957SOL    HW124770   4.597   0.946   5.197
 7957SOL    HW224771   4.541   0.837   5.305
 7958SOL     OW24772   5.772   2.870   0.158
 7958SOL    HW124773   5.813   2.889   0.068
 7958SOL    HW224774   5.687   2.922   0.167
 7959SOL     OW24775   5.853   1.442   6.428
 7959SOL    HW124776   5.859   1.474   6.334
 7959SOL    HW224777   5.769   1.390   6.440
 7960SOL     OW24778   0.803   0.504   5.908
 7960SOL    HW124779   0.722   0.553   5.940
 7960SOL    HW224780   0.782   0.406   5.903
 7961SOL     OW24781   6.405   6.251   0.501
 7961SOL    HW124782   6.376   6.275   0.409
 7961SOL    HW224783   6.504   6.264   0.510
 7962SOL     OW24784   5.440   6.684   5.390
 7962SOL    HW124785   5.396   6.704   5.478
 7962SOL    HW224786   5.397   6.602   5.350
 7963SOL     OW24787   0.221   5.169   4.435
 7963SOL    HW124788   0.254   5.238   4.370
 7963SOL    HW224789   0.298   5.131   4.485
 7964SOL     OW24790   6.784   4.710   2.546
 7964SOL    HW124791   6.703   4.769   2.545
 7964SOL    HW224792   6.864   4.763   2.520
 7965SOL     OW24793   3.521   2.602   6.467
 7965SOL    HW124794   3.468   2.528   6.425
 7965SOL    HW224795   3.506   2.602   6.566
 7966SOL     OW24796   4.851   3.892   5.051
 7966SOL    HW124797   4.833   3.922   5.145
 7966SOL    HW224798   4.832   3.794   5.044
 7967SOL     OW24799   1.360   4.276   2.362
 7967SOL    HW124800   1.438   4.294   2.303
 7967SOL    HW224801   1.306   4.360   2.374
 7968SOL     OW24802   0.133   2.110   4.508
 7968SOL    HW124803   0.215   2.157   4.539
 7968SOL    HW224804   0.052   2.164   4.534
 7969SOL     OW24805   4.771   4.866   0.139
 7969SOL    HW124806   4.727   4.953   0.158
 7969SOL    HW224807   4.855   4.858   0.192
 7970SOL     OW24808   5.895   2.922   2.175
 7970SOL    HW124809   5.931   2.902   2.084
 7970SOL    HW224810   5.823   2.857   2.198
 7971SOL     OW24811   3.095   1.037   0.413
 7971SOL    HW124812   3.142   1.037   0.501
 7971SOL    HW224813   3.030   1.113   0.410
 7972SOL     OW24814   3.687   3.823   2.892
 7972SOL    HW124815   3.633   3.876   2.958
 7972SOL    HW224816   3.774   3.798   2.933
 7973SOL     OW24817   6.115   3.869   2.371
 7973SOL    HW124818   6.116   3.781   2.322
 7973SOL    HW224819   6.130   3.852   2.468
 7974SOL     OW24820   6.447   2.221   6.116
 7974SOL    HW124821   6.525   2.276   6.088
 7974SOL    HW224822   6.371   2.281   6.141
 7975SOL     OW24823   4.929   0.580   1.359
 7975SOL    HW124824   4.997   0.622   1.299
 7975SOL    HW224825   4.847   0.637   1.361
 7976SOL     OW24826   0.807   0.228   0.036
 7976SOL    HW124827   0.847   0.263   0.121
 7976SOL    HW224828   0.868   0.160   7.015
 7977SOL     OW24829   6.089   5.726   2.825
 7977SOL    HW124830   6.065   5.709   2.921
 7977SOL    HW224831   6.188   5.715   2.813
 7978SOL     OW24832   0.469   4.633   1.653
 7978SOL    HW124833   0.419   4.547   1.664
 7978SOL    HW224834   0.404   4.707   1.637
 7979SOL     OW24835   1.643   2.984   4.574
 7979SOL    HW124836   1.658   2.899   4.623
 7979SOL    HW224837   1.718   2.998   4.508
 7980SOL     OW24838   4.204   5.675   6.926
 7980SOL    HW124839   4.238   5.592   6.969
 7980SOL    HW224840   4.112   5.659   6.890
 7981SOL     OW24841   1.323   4.553   2.666
 7981SOL    HW124842   1.273   4.469   2.684
 7981SOL    HW224843   1.330   4.568   2.568
 7982SOL     OW24844   7.003   2.053   5.176
 7982SOL    HW124845   0.059   2.040   5.112
 7982SOL    HW224846   6.932   1.984   5.160
 7983SOL     OW24847   5.036   1.401   1.802
 7983SOL    HW124848   5.081   1.457   1.871
 7983SOL    HW224849   5.088   1.317   1.787
 7984SOL     OW24850   0.456   2.216   2.814
 7984SOL    HW124851   0.475   2.134   2.867
 7984SOL    HW224852   0.440   2.293   2.876
 7985SOL     OW24853   2.671   2.055   5.142
 7985SOL    HW124854   2.605   2.052   5.217
 7985SOL    HW224855   2.742   2.123   5.162
 7986SOL     OW24856   3.002   0.860   4.023
 7986SOL    HW124857   3.001   0.920   3.942
 7986SOL    HW224858   3.092   0.818   4.032
 7987SOL     OW24859   1.357   3.054   0.172
 7987SOL    HW124860   1.401   2.974   0.214
 7987SOL    HW224861   1.417   3.133   0.179
 7988SOL     OW24862   0.355   1.731   0.693
 7988SOL    HW124863   0.354   1.811   0.754
 7988SOL    HW224864   0.407   1.753   0.611
 7989SOL     OW24865   0.458   4.561   0.014
 7989SOL    HW124866   0.455   4.553   0.114
 7989SOL    HW224867   0.507   4.483   6.995
 7990SOL     OW24868   3.940   5.389   5.499
 7990SOL    HW124869   4.019   5.448   5.479
 7990SOL    HW224870   3.864   5.414   5.439
 7991SOL     OW24871   6.103   1.283   5.012
 7991SOL    HW124872   6.121   1.320   4.921
 7991SOL    HW224873   6.177   1.221   5.038
 7992SOL     OW24874   2.746   0.329   0.479
 7992SOL    HW124875   2.671   0.360   0.420
 7992SOL    HW224876   2.710   0.289   0.562
 7993SOL     OW24877   6.675   6.025   1.391
 7993SOL    HW124878   6.670   5.939   1.443
 7993SOL    HW224879   6.600   6.028   1.326
 7994SOL     OW24880   5.664   0.550   3.161
 7994SOL    HW124881   5.717   0.468   3.137
 7994SOL    HW224882   5.570   0.524   3.184
 7995SOL     OW24883   0.436   4.511   1.220
 7995SOL    HW124884   0.460   4.601   1.181
 7995SOL    HW224885   0.481   4.500   1.308
 7996SOL     OW24886   3.412   0.763   2.814
 7996SOL    HW124887   3.347   0.836   2.791
 7996SOL    HW224888   3.447   0.777   2.906
 7997SOL     OW24889   1.114   2.338   0.116
 7997SOL    HW124890   1.120   2.413   0.182
 7997SOL    HW224891   1.158   2.257   0.154
 7998SOL     OW24892   2.440   1.286   0.809
 7998SOL    HW124893   2.485   1.278   0.720
 7998SOL    HW224894   2.375   1.362   0.807
 7999SOL     OW24895   0.696   0.907   4.890
 7999SOL    HW124896   0.599   0.898   4.911
 7999SOL    HW224897   0.729   0.996   4.922
 8000SOL     OW24898   4.703   5.725   6.773
 8000SOL    HW124899   4.709   5.821   6.746
 8000SOL    HW224900   4.611   5.705   6.805
 8001SOL     OW24901   4.553   6.450   1.310
 8001SOL    HW124902   4.517   6.525   1.256
 8001SOL    HW224903   4.556   6.367   1.253
 8002SOL     OW24904   1.142   6.736   5.000
 8002SOL    HW124905   1.237   6.752   4.973
 8002SOL    HW224906   1.111   6.811   5.058
 8003SOL     OW24907   2.447   6.535   2.353
 8003SOL    HW124908   2.434   6.445   2.310
 8003SOL    HW224909   2.470   6.602   2.283
 8004SOL     OW24910   1.222   3.216   3.452
 8004SOL    HW124911   1.156   3.243   3.382
 8004SOL    HW224912   1.173   3.185   3.534
 8005SOL     OW24913   2.854   0.935   3.525
 8005SOL    HW124914   2.766   0.894   3.551
 8005SOL    HW224915   2.897   0.880   3.453
 8006SOL     OW24916   3.440   4.695   5.289
 8006SOL    HW124917   3.452   4.713   5.386
 8006SOL    HW224918   3.436   4.596   5.273
 8007SOL     OW24919   6.076   0.538   6.400
 8007SOL    HW124920   6.090   0.517   6.304
 8007SOL    HW224921   6.159   0.581   6.437
 8008SOL     OW24922   5.271   6.619   6.249
 8008SOL    HW124923   5.172   6.602   6.246
 8008SOL    HW224924   5.311   6.599   6.160
 8009SOL     OW24925   4.988   1.432   6.184
 8009SOL    HW124926   4.927   1.445   6.263
 8009SOL    HW224927   5.055   1.362   6.204
 8010SOL     OW24928   2.520   1.816   5.576
 8010SOL    HW124929   2.502   1.914   5.568
 8010SOL    HW224930   2.557   1.781   5.490
 8011SOL     OW24931   4.052   1.528   1.834
 8011SOL    HW124932   4.022   1.569   1.920
 8011SOL    HW224933   4.150   1.544   1.822
 8012SOL     OW24934   6.900   1.956   5.551
 8012SOL    HW124935   6.903   2.049   5.514
 8012SOL    HW224936   6.809   1.938   5.589
 8013SOL     OW24937   2.778   2.245   2.913
 8013SOL    HW124938   2.872   2.238   2.946
 8013SOL    HW224939   2.773   2.316   2.843
 8014SOL     OW24940   2.007   0.969   2.780
 8014SOL    HW124941   1.935   0.999   2.717
 8014SOL    HW224942   2.026   1.040   2.846
 8015SOL     OW24943   2.391   0.143   5.415
 8015SOL    HW124944   2.323   0.210   5.445
 8015SOL    HW224945   2.442   0.181   5.337
 8016SOL     OW24946   4.276   1.552   4.827
 8016SOL    HW124947   4.200   1.617   4.816
 8016SOL    HW224948   4.292   1.504   4.741
 8017SOL     OW24949   6.563   6.575   1.397
 8017SOL    HW124950   6.533   6.656   1.347
 8017SOL    HW224951   6.624   6.520   1.340
 8018SOL     OW24952   3.892   2.066   0.082
 8018SOL    HW124953   3.911   2.083   7.004
 8018SOL    HW224954   3.861   1.971   0.093
 8019SOL     OW24955   2.340   3.627   1.561
 8019SOL    HW124956   2.334   3.715   1.515
 8019SOL    HW224957   2.394   3.564   1.505
 8020SOL     OW24958   0.185   0.382   5.479
 8020SOL    HW124959   0.267   0.337   5.515
 8020SOL    HW224960   0.131   0.316   5.427
 8021SOL     OW24961   1.409   2.218   1.653
 8021SOL    HW124962   1.418   2.315   1.632
 8021SOL    HW224963   1.427   2.164   1.571
 8022SOL     OW24964   4.648   1.349   1.833
 8022SOL    HW124965   4.648   1.442   1.872
 8022SOL    HW224966   4.616   1.285   1.903
 8023SOL     OW24967   4.749   5.608   2.720
 8023SOL    HW124968   4.650   5.620   2.728
 8023SOL    HW224969   4.784   5.666   2.647
 8024SOL     OW24970   2.336   0.865   6.441
 8024SOL    HW124971   2.286   0.949   6.420
 8024SOL    HW224972   2.391   0.878   6.524
 8025SOL     OW24973   1.570   5.301   0.934
 8025SOL    HW124974   1.582   5.208   0.970
 8025SOL    HW224975   1.532   5.359   1.005
 8026SOL     OW24976   0.900   5.612   6.299
 8026SOL    HW124977   0.913   5.536   6.235
 8026SOL    HW224978   0.873   5.576   6.389
 8027SOL     OW24979   3.162   7.013   0.191
 8027SOL    HW124980   3.088   0.061   0.182
 8027SOL    HW224981   3.221   7.017   0.110
 8028SOL     OW24982   3.192   5.507   5.209
 8028SOL    HW124983   3.282   5.549   5.194
 8028SOL    HW224984   3.128   5.576   5.243
 8029SOL     OW24985   6.704   6.740   0.250
 8029SOL    HW124986   6.608   6.717   0.258
 8029SOL    HW224987   6.755   6.662   0.213
 8030SOL     OW24988   0.908   4.017   0.572
 8030SOL    HW124989   0.950   3.932   0.602
 8030SOL    HW224990   0.809   4.011   0.580
 8031SOL     OW24991   6.902   1.369   2.796
 8031SOL    HW124992   6.813   1.377   2.841
 8031SOL    HW224993   6.923   1.272   2.781
 8032SOL     OW24994   5.464   2.913   1.225
 8032SOL    HW124995   5.534   2.985   1.224
 8032SOL    HW224996   5.509   2.824   1.227
 8033SOL     OW24997   4.660   3.611   0.831
 8033SOL    HW124998   4.587   3.555   0.793
 8033SOL    HW224999   4.627   3.657   0.913
 8034SOL     OW25000   5.988   0.394   5.566
 8034SOL    HW125001   5.981   0.492   5.581
 8034SOL    HW225002   5.985   0.346   5.653
 8035SOL     OW25003   5.831   1.740   3.127
 8035SOL    HW125004   5.921   1.771   3.099
 8035SOL    HW225005   5.765   1.755   3.053
 8036SOL     OW25006   6.285   2.830   3.970
 8036SOL    HW125007   6.229   2.757   3.931
 8036SOL    HW225008   6.293   2.905   3.905
 8037SOL     OW25009   0.827   2.664   5.887
 8037SOL    HW125010   0.924   2.684   5.875
 8037SOL    HW225011   0.777   2.693   5.805
 8038SOL     OW25012   0.506   5.022   2.866
 8038SOL    HW125013   0.600   4.997   2.846
 8038SOL    HW225014   0.504   5.091   2.938
 8039SOL     OW25015   1.060   2.603   5.505
 8039SOL    HW125016   1.001   2.676   5.541
 8039SOL    HW225017   1.093   2.629   5.414
 8040SOL     OW25018   2.123   5.715   5.925
 8040SOL    HW125019   2.102   5.759   6.012
 8040SOL    HW225020   2.117   5.782   5.851
 8041SOL     OW25021   4.068   1.070   3.156
 8041SOL    HW125022   4.023   1.158   3.143
 8041SOL    HW225023   4.137   1.078   3.228
 8042SOL     OW25024   4.060   4.257   5.580
 8042SOL    HW125025   4.078   4.251   5.482
 8042SOL    HW225026   3.967   4.227   5.599
 8043SOL     OW25027   5.347   5.059   6.670
 8043SOL    HW125028   5.405   5.140   6.657
 8043SOL    HW225029   5.258   5.088   6.707
 8044SOL     OW25030   2.871   3.790   1.773
 8044SOL    HW125031   2.922   3.796   1.688
 8044SOL    HW225032   2.776   3.763   1.754
 8045SOL     OW25033   0.427   1.300   3.072
 8045SOL    HW125034   0.338   1.328   3.037
 8045SOL    HW225035   0.484   1.268   2.996
 8046SOL     OW25036   0.258   5.029   2.297
 8046SOL    HW125037   0.259   4.953   2.362
 8046SOL    HW225038   0.349   5.040   2.258
 8047SOL     OW25039   3.735   6.660   6.828
 8047SOL    HW125040   3.822   6.706   6.846
 8047SOL    HW225041   3.714   6.665   6.730
 8048SOL     OW25042   4.103   2.718   6.836
 8048SOL    HW125043   4.168   2.677   6.772
 8048SOL    HW225044   4.028   2.760   6.785
 8049SOL     OW25045   1.325   1.700   0.537
 8049SOL    HW125046   1.394   1.758   0.494
 8049SOL    HW225047   1.333   1.606   0.502
 8050SOL     OW25048   0.513   4.539   5.839
 8050SOL    HW125049   0.417   4.537   5.814
 8050SOL    HW225050   0.569   4.510   5.761
 8051SOL     OW25051   3.770   5.797   3.990
 8051SOL    HW125052   3.786   5.876   3.932
 8051SOL    HW225053   3.823   5.806   4.074
 8052SOL     OW25054   2.358   2.690   2.177
 8052SOL    HW125055   2.332   2.628   2.251
 8052SOL    HW225056   2.432   2.648   2.124
 8053SOL     OW25057   2.291   2.775   6.478
 8053SOL    HW125058   2.216   2.794   6.541
 8053SOL    HW225059   2.260   2.707   6.410
 8054SOL     OW25060   4.901   3.411   5.316
 8054SOL    HW125061   4.977   3.416   5.251
 8054SOL    HW225062   4.854   3.499   5.320
 8055SOL     OW25063   6.451   0.347   6.383
 8055SOL    HW125064   6.406   0.344   6.294
 8055SOL    HW225065   6.382   0.364   6.454
 8056SOL     OW25066   2.426   1.455   4.453
 8056SOL    HW125067   2.524   1.447   4.467
 8056SOL    HW225068   2.379   1.442   4.540
 8057SOL     OW25069   2.790   2.234   2.218
 8057SOL    HW125070   2.865   2.224   2.284
 8057SOL    HW225071   2.826   2.268   2.131
 8058SOL     OW25072   3.543   6.107   2.761
 8058SOL    HW125073   3.612   6.179   2.755
 8058SOL    HW225074   3.567   6.033   2.698
 8059SOL     OW25075   2.707   3.127   6.495
 8059SOL    HW125076   2.706   3.221   6.460
 8059SOL    HW225077   2.646   3.120   6.574
 8060SOL     OW25078   6.354   6.995   5.599
 8060SOL    HW125079   6.278   6.942   5.561
 8060SOL    HW225080   6.321   0.066   5.627
 8061SOL     OW25081   6.748   0.589   2.003
 8061SOL    HW125082   6.741   0.650   2.082
 8061SOL    HW225083   6.828   0.530   2.012
 8062SOL     OW25084   4.266   5.761   5.726
 8062SOL    HW125085   4.175   5.794   5.754
 8062SOL    HW225086   4.271   5.662   5.741
 8063SOL     OW25087   3.829   5.825   3.294
 8063SOL    HW125088   3.872   5.884   3.225
 8063SOL    HW225089   3.865   5.849   3.384
 8064SOL     OW25090   6.114   1.404   0.976
 8064SOL    HW125091   6.207   1.389   0.943
 8064SOL    HW225092   6.066   1.316   0.980
 8065SOL     OW25093   3.259   5.334   5.713
 8065SOL    HW125094   3.169   5.321   5.672
 8065SOL    HW225095   3.328   5.287   5.657
 8066SOL     OW25096   0.458   6.681   4.958
 8066SOL    HW125097   0.454   6.703   4.861
 8066SOL    HW225098   0.540   6.720   4.998
 8067SOL     OW25099   5.107   3.051   3.657
 8067SOL    HW125100   5.151   2.964   3.635
 8067SOL    HW225101   5.015   3.052   3.619
 8068SOL     OW25102   6.301   4.428   1.062
 8068SOL    HW125103   6.258   4.337   1.059
 8068SOL    HW225104   6.396   4.419   1.091
 8069SOL     OW25105   2.440   4.884   2.540
 8069SOL    HW125106   2.527   4.933   2.547
 8069SOL    HW225107   2.441   4.825   2.460
 8070SOL     OW25108   5.376   4.843   0.058
 8070SOL    HW125109   5.357   4.928   0.107
 8070SOL    HW225110   5.332   4.767   0.105
 8071SOL     OW25111   2.817   6.889   5.577
 8071SOL    HW125112   2.848   6.956   5.509
 8071SOL    HW225113   2.894   6.864   5.636
 8072SOL     OW25114   1.862   2.821   6.097
 8072SOL    HW125115   1.781   2.779   6.140
 8072SOL    HW225116   1.871   2.915   6.129
 8073SOL     OW25117   3.875   0.412   6.366
 8073SOL    HW125118   3.913   0.485   6.309
 8073SOL    HW225119   3.811   0.451   6.432
 8074SOL     OW25120   1.575   1.385   6.654
 8074SOL    HW125121   1.588   1.335   6.568
 8074SOL    HW225122   1.625   1.472   6.650
 8075SOL     OW25123   0.863   6.702   0.781
 8075SOL    HW125124   0.935   6.720   0.713
 8075SOL    HW225125   0.878   6.761   0.861
 8076SOL     OW25126   7.011   6.211   0.634
 8076SOL    HW125127   6.938   6.177   0.693
 8076SOL    HW225128   0.069   6.242   0.691
 8077SOL     OW25129   4.054   5.067   0.782
 8077SOL    HW125130   3.980   5.120   0.742
 8077SOL    HW225131   4.092   5.004   0.714
 8078SOL     OW25132   0.306   0.327   1.901
 8078SOL    HW125133   0.281   0.424   1.904
 8078SOL    HW225134   0.378   0.310   1.969
 8079SOL     OW25135   1.417   2.523   5.132
 8079SOL    HW125136   1.374   2.536   5.221
 8079SOL    HW225137   1.515   2.542   5.139
 8080SOL     OW25138   1.176   2.785   2.839
 8080SOL    HW125139   1.198   2.882   2.846
 8080SOL    HW225140   1.194   2.740   2.926
 8081SOL     OW25141   6.460   5.917   4.197
 8081SOL    HW125142   6.466   6.010   4.162
 8081SOL    HW225143   6.434   5.918   4.293
 8082SOL     OW25144   3.914   2.035   2.052
 8082SOL    HW125145   3.821   2.071   2.042
 8082SOL    HW225146   3.942   1.992   1.967
 8083SOL     OW25147   6.002   2.790   4.775
 8083SOL    HW125148   5.932   2.840   4.825
 8083SOL    HW225149   5.988   2.692   4.787
 8084SOL     OW25150   2.937   0.997   6.208
 8084SOL    HW125151   2.872   0.926   6.182
 8084SOL    HW225152   2.954   0.993   6.306
 8085SOL     OW25153   1.004   6.160   4.518
 8085SOL    HW125154   0.989   6.100   4.597
 8085SOL    HW225155   1.020   6.104   4.437
 8086SOL     OW25156   6.943   1.317   1.859
 8086SOL    HW125157   6.915   1.384   1.791
 8086SOL    HW225158   0.016   1.284   1.836
 8087SOL     OW25159   1.020   0.987   0.904
 8087SOL    HW125160   1.078   0.912   0.871
 8087SOL    HW225161   0.982   1.037   0.826
 8088SOL     OW25162   5.843   6.954   5.321
 8088SOL    HW125163   5.844   0.035   5.320
 8088SOL    HW225164   5.764   6.921   5.268
 8089SOL     OW25165   5.026   2.773   6.238
 8089SOL    HW125166   5.116   2.786   6.280
 8089SOL    HW225167   4.982   2.862   6.225
 8090SOL     OW25168   4.024   1.742   5.555
 8090SOL    HW125169   3.949   1.708   5.498
 8090SOL    HW225170   4.047   1.673   5.624
 8091SOL     OW25171   1.810   4.713   4.604
 8091SOL    HW125172   1.853   4.798   4.633
 8091SOL    HW225173   1.880   4.651   4.567
 8092SOL     OW25174   4.921   2.415   5.439
 8092SOL    HW125175   4.951   2.319   5.437
 8092SOL    HW225176   4.892   2.439   5.532
 8093SOL     OW25177   4.423   6.516   2.191
 8093SOL    HW125178   4.503   6.567   2.223
 8093SOL    HW225179   4.343   6.544   2.243
 8094SOL     OW25180   1.614   3.717   3.464
 8094SOL    HW125181   1.580   3.673   3.547
 8094SOL    HW225182   1.546   3.707   3.391
 8095SOL     OW25183   0.918   4.665   5.830
 8095SOL    HW125184   1.002   4.666   5.776
 8095SOL    HW225185   0.844   4.625   5.775
 8096SOL     OW25186   1.208   6.252   1.850
 8096SOL    HW125187   1.271   6.285   1.920
 8096SOL    HW225188   1.121   6.301   1.857
 8097SOL     OW25189   4.031   5.381   5.124
 8097SOL    HW125190   4.014   5.457   5.186
 8097SOL    HW225191   3.956   5.315   5.130
 8098SOL     OW25192   1.193   5.485   5.209
 8098SOL    HW125193   1.190   5.582   5.236
 8098SOL    HW225194   1.207   5.479   5.110
 8099SOL     OW25195   2.529   5.715   3.916
 8099SOL    HW125196   2.551   5.681   4.007
 8099SOL    HW225197   2.468   5.651   3.870
 8100SOL     OW25198   0.063   0.484   6.465
 8100SOL    HW125199   0.103   0.430   6.539
 8100SOL    HW225200   0.131   0.548   6.431
 8101SOL     OW25201   2.525   5.902   1.887
 8101SOL    HW125202   2.594   5.882   1.957
 8101SOL    HW225203   2.467   5.977   1.918
 8102SOL     OW25204   1.318   2.900   4.596
 8102SOL    HW125205   1.374   2.862   4.670
 8102SOL    HW225206   1.335   2.998   4.589
 8103SOL     OW25207   3.421   1.525   2.213
 8103SOL    HW125208   3.480   1.448   2.237
 8103SOL    HW225209   3.476   1.608   2.206
 8104SOL     OW25210   2.439   6.706   0.464
 8104SOL    HW125211   2.538   6.719   0.459
 8104SOL    HW225212   2.393   6.793   0.448
 8105SOL     OW25213   6.513   1.216   2.289
 8105SOL    HW125214   6.581   1.143   2.283
 8105SOL    HW225215   6.457   1.216   2.205
 8106SOL     OW25216   2.555   6.151   5.406
 8106SOL    HW125217   2.482   6.099   5.362
 8106SOL    HW225218   2.524   6.184   5.495
 8107SOL     OW25219   1.699   5.704   5.439
 8107SOL    HW125220   1.686   5.679   5.343
 8107SOL    HW225221   1.748   5.631   5.486
 8108SOL     OW25222   0.182   1.448   7.012
 8108SOL    HW125223   0.220   1.414   6.926
 8108SOL    HW225224   0.216   1.392   0.069
 8109SOL     OW25225   6.530   3.127   0.094
 8109SOL    HW125226   6.493   3.036   0.113
 8109SOL    HW225227   6.497   3.158   0.005
 8110SOL     OW25228   4.199   5.290   0.727
 8110SOL    HW125229   4.136   5.366   0.717
 8110SOL    HW225230   4.153   5.213   0.772
 8111SOL     OW25231   5.983   1.523   3.266
 8111SOL    HW125232   5.948   1.596   3.206
 8111SOL    HW225233   6.036   1.564   3.340
 8112SOL     OW25234   0.495   2.965   5.589
 8112SOL    HW125235   0.425   3.027   5.625
 8112SOL    HW225236   0.520   2.899   5.659
 8113SOL     OW25237   6.150   2.774   0.681
 8113SOL    HW125238   6.235   2.747   0.726
 8113SOL    HW225239   6.111   2.695   0.633
 8114SOL     OW25240   1.856   4.448   1.573
 8114SOL    HW125241   1.896   4.358   1.593
 8114SOL    HW225242   1.823   4.489   1.658
 8115SOL     OW25243   2.423   0.770   0.030
 8115SOL    HW125244   2.481   0.771   6.968
 8115SOL    HW225245   2.400   0.675   0.054
 8116SOL     OW25246   2.805   4.682   1.383
 8116SOL    HW125247   2.892   4.634   1.374
 8116SOL    HW225248   2.765   4.663   1.472
 8117SOL     OW25249   3.165   6.929   2.552
 8117SOL    HW125250   3.231   6.912   2.478
 8117SOL    HW225251   3.190   6.876   2.632
 8118SOL     OW25252   6.344   3.111   6.917
 8118SOL    HW125253   6.297   3.034   6.875
 8118SOL    HW225254   6.278   3.166   6.969
 8119SOL     OW25255   5.825   5.980   6.478
 8119SOL    HW125256   5.770   6.048   6.527
 8119SOL    HW225257   5.867   5.917   6.544
 8120SOL     OW25258   1.897   6.318   0.939
 8120SOL    HW125259   1.985   6.272   0.932
 8120SOL    HW225260   1.911   6.413   0.965
 8121SOL     OW25261   1.039   2.897   2.408
 8121SOL    HW125262   1.131   2.913   2.445
 8121SOL    HW225263   1.030   2.944   2.321
 8122SOL     OW25264   0.929   4.295   2.283
 8122SOL    HW125265   0.992   4.218   2.278
 8122SOL    HW225266   0.921   4.337   2.193
 8123SOL     OW25267   0.298   1.672   5.613
 8123SOL    HW125268   0.298   1.721   5.526
 8123SOL    HW225269   0.390   1.676   5.653
 8124SOL     OW25270   5.668   4.926   4.419
 8124SOL    HW125271   5.625   4.933   4.329
 8124SOL    HW225272   5.635   4.843   4.464
 8125SOL     OW25273   0.704   0.036   2.480
 8125SOL    HW125274   0.777   0.087   2.435
 8125SOL    HW225275   0.743   6.985   2.538
 8126SOL     OW25276   3.798   4.897   4.591
 8126SOL    HW125277   3.699   4.901   4.573
 8126SOL    HW225278   3.818   4.951   4.673
 8127SOL     OW25279   3.256   2.980   0.327
 8127SOL    HW125280   3.158   2.984   0.346
 8127SOL    HW225281   3.272   3.000   0.230
 8128SOL     OW25282   3.338   2.803   2.064
 8128SOL    HW125283   3.290   2.889   2.081
 8128SOL    HW225284   3.303   2.733   2.125
 8129SOL     OW25285   1.468   2.921   0.395
 8129SOL    HW125286   1.449   2.832   0.437
 8129SOL    HW225287   1.435   2.994   0.455
 8130SOL     OW25288   1.772   5.093   6.593
 8130SOL    HW125289   1.758   5.136   6.682
 8130SOL    HW225290   1.724   5.145   6.522
 8131SOL     OW25291   2.163   3.834   1.140
 8131SOL    HW125292   2.157   3.781   1.056
 8131SOL    HW225293   2.258   3.860   1.156
 8132SOL     OW25294   6.904   6.836   4.611
 8132SOL    HW125295   6.914   6.829   4.710
 8132SOL    HW225296   6.992   6.817   4.567
 8133SOL     OW25297   3.447   5.137   0.913
 8133SOL    HW125298   3.401   5.095   0.835
 8133SOL    HW225299   3.388   5.132   0.994
 8134SOL     OW25300   6.074   0.920   5.182
 8134SOL    HW125301   6.063   0.827   5.146
 8134SOL    HW225302   6.137   0.919   5.260
 8135SOL     OW25303   2.384   6.725   1.658
 8135SOL    HW125304   2.291   6.690   1.649
 8135SOL    HW225305   2.432   6.675   1.730
 8136SOL     OW25306   4.572   5.208   2.573
 8136SOL    HW125307   4.627   5.242   2.649
 8136SOL    HW225308   4.610   5.242   2.487
 8137SOL     OW25309   4.146   1.851   4.376
 8137SOL    HW125310   4.220   1.787   4.398
 8137SOL    HW225311   4.168   1.941   4.413
 8138SOL     OW25312   5.284   0.996   1.346
 8138SOL    HW125313   5.351   0.926   1.323
 8138SOL    HW225314   5.278   1.063   1.271
 8139SOL     OW25315   0.899   1.622   2.458
 8139SOL    HW125316   0.861   1.621   2.550
 8139SOL    HW225317   0.825   1.622   2.391
 8140SOL     OW25318   3.719   1.301   3.542
 8140SOL    HW125319   3.778   1.224   3.514
 8140SOL    HW225320   3.730   1.376   3.477
 8141SOL     OW25321   4.173   5.615   4.835
 8141SOL    HW125322   4.230   5.535   4.851
 8141SOL    HW225323   4.162   5.629   4.736
 8142SOL     OW25324   6.186   5.276   0.365
 8142SOL    HW125325   6.110   5.212   0.352
 8142SOL    HW225326   6.162   5.365   0.328
 8143SOL     OW25327   6.115   4.216   5.780
 8143SOL    HW125328   6.143   4.198   5.686
 8143SOL    HW225329   6.020   4.246   5.781
 8144SOL     OW25330   5.372   6.661   6.983
 8144SOL    HW125331   5.280   6.639   6.950
 8144SOL    HW225332   5.370   6.675   0.063
 8145SOL     OW25333   6.166   6.002   2.572
 8145SOL    HW125334   6.229   5.940   2.526
 8145SOL    HW225335   6.147   6.081   2.513
 8146SOL     OW25336   3.317   1.027   5.508
 8146SOL    HW125337   3.313   0.982   5.419
 8146SOL    HW225338   3.235   1.084   5.519
 8147SOL     OW25339   5.230   2.038   3.957
 8147SOL    HW125340   5.247   1.953   4.006
 8147SOL    HW225341   5.187   2.017   3.868
 8148SOL     OW25342   5.721   3.196   2.985
 8148SOL    HW125343   5.775   3.165   2.906
 8148SOL    HW225344   5.637   3.239   2.953
 8149SOL     OW25345   4.060   4.903   3.555
 8149SOL    HW125346   4.110   4.842   3.494
 8149SOL    HW225347   4.123   4.968   3.597
 8150SOL     OW25348   0.885   5.193   6.469
 8150SOL    HW125349   0.786   5.208   6.461
 8150SOL    HW225350   0.915   5.133   6.395
 8151SOL     OW25351   1.152   1.930   5.469
 8151SOL    HW125352   1.056   1.929   5.495
 8151SOL    HW225353   1.209   1.940   5.551
 8152SOL     OW25354   1.802   0.595   3.416
 8152SOL    HW125355   1.835   0.679   3.373
 8152SOL    HW225356   1.727   0.617   3.479
 8153SOL     OW25357   2.619   6.347   0.632
 8153SOL    HW125358   2.577   6.263   0.597
 8153SOL    HW225359   2.632   6.339   0.730
 8154SOL     OW25360   1.874   6.772   3.783
 8154SOL    HW125361   1.789   6.824   3.793
 8154SOL    HW225362   1.875   6.728   3.693
 8155SOL     OW25363   3.119   3.421   2.953
 8155SOL    HW125364   3.069   3.506   2.967
 8155SOL    HW225365   3.167   3.424   2.865
 8156SOL     OW25366   6.092   0.711   5.468
 8156SOL    HW125367   6.067   0.797   5.512
 8156SOL    HW225368   6.191   0.698   5.472
 8157SOL     OW25369   5.831   4.354   0.146
 8157SOL    HW125370   5.795   4.307   0.066
 8157SOL    HW225371   5.828   4.292   0.225
 8158SOL     OW25372   1.774   5.284   2.233
 8158SOL    HW125373   1.822   5.353   2.288
 8158SOL    HW225374   1.705   5.329   2.176
 8159SOL     OW25375   1.937   6.230   2.493
 8159SOL    HW125376   1.992   6.148   2.479
 8159SOL    HW225377   1.976   6.306   2.441
 8160SOL     OW25378   4.139   2.404   1.801
 8160SOL    HW125379   4.160   2.464   1.724
 8160SOL    HW225380   4.045   2.371   1.794
 8161SOL     OW25381   4.853   1.360   6.761
 8161SOL    HW125382   4.846   1.369   6.860
 8161SOL    HW225383   4.815   1.441   6.717
 8162SOL     OW25384   5.311   0.326   1.240
 8162SOL    HW125385   5.374   0.259   1.278
 8162SOL    HW225386   5.219   0.309   1.275
 8163SOL     OW25387   2.243   3.973   5.388
 8163SOL    HW125388   2.312   3.984   5.317
 8163SOL    HW225389   2.266   3.894   5.445
 8164SOL     OW25390   4.286   2.332   2.019
 8164SOL    HW125391   4.378   2.303   1.993
 8164SOL    HW225392   4.241   2.372   1.940
 8165SOL     OW25393   2.178   4.636   1.665
 8165SOL    HW125394   2.210   4.727   1.638
 8165SOL    HW225395   2.111   4.645   1.739
 8166SOL     OW25396   2.799   6.969   1.625
 8166SOL    HW125397   2.837   6.889   1.579
 8166SOL    HW225398   2.780   6.947   1.721
 8167SOL     OW25399   6.196   2.666   4.240
 8167SOL    HW125400   6.249   2.725   4.178
 8167SOL    HW225401   6.170   2.583   4.192
 8168SOL     OW25402   3.617   1.133   2.899
 8168SOL    HW125403   3.611   1.068   2.975
 8168SOL    HW225404   3.613   1.226   2.934
 8169SOL     OW25405   4.503   3.637   6.208
 8169SOL    HW125406   4.522   3.722   6.159
 8169SOL    HW225407   4.562   3.630   6.288
 8170SOL     OW25408   0.765   5.577   3.994
 8170SOL    HW125409   0.856   5.535   3.991
 8170SOL    HW225410   0.756   5.641   3.918
 8171SOL     OW25411   0.651   2.518   5.657
 8171SOL    HW125412   0.741   2.475   5.648
 8171SOL    HW225413   0.584   2.468   5.602
 8172SOL     OW25414   0.720   6.326   1.248
 8172SOL    HW125415   0.762   6.397   1.305
 8172SOL    HW225416   0.678   6.257   1.307
 8173SOL     OW25417   4.199   2.195   6.647
 8173SOL    HW125418   4.163   2.175   6.556
 8173SOL    HW225419   4.209   2.109   6.698
 8174SOL     OW25420   5.909   1.093   2.059
 8174SOL    HW125421   5.826   1.125   2.105
 8174SOL    HW225422   5.901   0.995   2.040
 8175SOL     OW25423   0.604   2.722   6.030
 8175SOL    HW125424   0.552   2.664   6.093
 8175SOL    HW225425   0.694   2.682   6.015
 8176SOL     OW25426   2.662   5.587   2.686
 8176SOL    HW125427   2.677   5.639   2.771
 8176SOL    HW225428   2.572   5.545   2.688
 8177SOL     OW25429   0.033   6.222   5.254
 8177SOL    HW125430   0.059   6.160   5.328
 8177SOL    HW225431   0.111   6.280   5.231
 8178SOL     OW25432   2.619   6.800   6.200
 8178SOL    HW125433   2.698   6.739   6.189
 8178SOL    HW225434   2.605   6.818   6.298
 8179SOL     OW25435   3.516   2.247   0.373
 8179SOL    HW125436   3.457   2.289   0.303
 8179SOL    HW225437   3.598   2.304   0.385
 8180SOL     OW25438   6.032   6.065   4.830
 8180SOL    HW125439   6.064   6.121   4.754
 8180SOL    HW225440   5.945   6.022   4.806
 8181SOL     OW25441   2.694   2.433   3.172
 8181SOL    HW125442   2.731   2.382   3.250
 8181SOL    HW225443   2.704   2.379   3.089
 8182SOL     OW25444   3.818   2.332   5.322
 8182SOL    HW125445   3.792   2.421   5.360
 8182SOL    HW225446   3.917   2.330   5.308
 8183SOL     OW25447   1.421   3.629   4.636
 8183SOL    HW125448   1.420   3.729   4.628
 8183SOL    HW225449   1.501   3.593   4.589
 8184SOL     OW25450   6.462   6.109   5.596
 8184SOL    HW125451   6.397   6.093   5.671
 8184SOL    HW225452   6.412   6.140   5.515
 8185SOL     OW25453   2.707   1.361   2.653
 8185SOL    HW125454   2.774   1.369   2.727
 8185SOL    HW225455   2.696   1.449   2.608
 8186SOL     OW25456   3.656   5.381   5.718
 8186SOL    HW125457   3.662   5.361   5.816
 8186SOL    HW225458   3.662   5.296   5.666
 8187SOL     OW25459   1.513   1.696   4.926
 8187SOL    HW125460   1.419   1.663   4.912
 8187SOL    HW225461   1.555   1.713   4.837
 8188SOL     OW25462   5.402   3.054   3.070
 8188SOL    HW125463   5.383   3.117   2.994
 8188SOL    HW225464   5.443   3.105   3.146
 8189SOL     OW25465   5.933   4.193   2.711
 8189SOL    HW125466   6.025   4.177   2.748
 8189SOL    HW225467   5.913   4.291   2.712
 8190SOL     OW25468   4.962   3.635   3.183
 8190SOL    HW125469   5.061   3.638   3.196
 8190SOL    HW225470   4.928   3.728   3.169
 8191SOL     OW25471   0.913   4.845   3.964
 8191SOL    HW125472   0.891   4.753   3.997
 8191SOL    HW225473   0.927   4.906   4.043
 8192SOL     OW25474   1.870   4.598   1.315
 8192SOL    HW125475   1.917   4.570   1.399
 8192SOL    HW225476   1.819   4.520   1.278
 8193SOL     OW25477   3.731   0.241   5.853
 8193SOL    HW125478   3.820   0.212   5.887
 8193SOL    HW225479   3.714   0.200   5.763
 8194SOL     OW25480   0.446   0.755   0.472
 8194SOL    HW125481   0.500   0.809   0.537
 8194SOL    HW225482   0.506   0.715   0.404
 8195SOL     OW25483   6.730   6.253   0.493
 8195SOL    HW125484   6.822   6.271   0.529
 8195SOL    HW225485   6.737   6.200   0.409
 8196SOL     OW25486   2.900   0.129   6.304
 8196SOL    HW125487   2.821   0.144   6.245
 8196SOL    HW225488   2.915   0.210   6.361
 8197SOL     OW25489   0.518   0.138   6.449
 8197SOL    HW125490   0.520   0.237   6.436
 8197SOL    HW225491   0.428   0.103   6.424
 8198SOL     OW25492   3.414   6.191   3.181
 8198SOL    HW125493   3.401   6.231   3.090
 8198SOL    HW225494   3.476   6.113   3.174
 8199SOL     OW25495   6.773   3.958   0.362
 8199SOL    HW125496   6.826   3.879   0.391
 8199SOL    HW225497   6.701   3.977   0.429
 8200SOL     OW25498   4.941   4.295   1.033
 8200SOL    HW125499   4.912   4.383   1.071
 8200SOL    HW225500   5.016   4.257   1.087
 8201SOL     OW25501   5.720   0.709   3.749
 8201SOL    HW125502   5.668   0.792   3.767
 8201SOL    HW225503   5.815   0.721   3.780
 8202SOL     OW25504   1.498   4.121   3.326
 8202SOL    HW125505   1.413   4.175   3.325
 8202SOL    HW225506   1.489   4.044   3.262
 8203SOL     OW25507   5.872   3.255   1.100
 8203SOL    HW125508   5.777   3.265   1.130
 8203SOL    HW225509   5.876   3.194   1.020
 8204SOL     OW25510   2.873   0.033   1.980
 8204SOL    HW125511   2.827   0.119   1.960
 8204SOL    HW225512   2.827   6.977   1.933
 8205SOL     OW25513   5.858   5.104   2.431
 8205SOL    HW125514   5.786   5.156   2.385
 8205SOL    HW225515   5.819   5.022   2.473
 8206SOL     OW25516   4.655   2.276   4.065
 8206SOL    HW125517   4.698   2.240   3.982
 8206SOL    HW225518   4.555   2.275   4.054
 8207SOL     OW25519   2.601   6.338   0.096
 8207SOL    HW125520   2.623   6.429   0.131
 8207SOL    HW225521   2.501   6.327   0.094
 8208SOL     OW25522   1.685   4.615   6.623
 8208SOL    HW125523   1.742   4.621   6.705
 8208SOL    HW225524   1.656   4.707   6.596
 8209SOL     OW25525   0.429   0.026   5.203
 8209SOL    HW125526   0.449   0.063   5.294
 8209SOL    HW225527   0.464   0.090   5.133
 8210SOL     OW25528   3.044   2.012   6.742
 8210SOL    HW125529   2.955   1.994   6.700
 8210SOL    HW225530   3.032   2.077   6.817
 8211SOL     OW25531   2.938   3.291   4.272
 8211SOL    HW125532   2.870   3.231   4.313
 8211SOL    HW225533   2.991   3.239   4.205
 8212SOL     OW25534   2.989   0.103   0.969
 8212SOL    HW125535   3.027   0.151   0.889
 8212SOL    HW225536   3.019   0.008   0.967
 8213SOL     OW25537   4.391   4.046   1.624
 8213SOL    HW125538   4.296   4.016   1.626
 8213SOL    HW225539   4.408   4.109   1.699
 8214SOL     OW25540   4.393   5.778   4.422
 8214SOL    HW125541   4.485   5.774   4.463
 8214SOL    HW225542   4.340   5.850   4.466
 8215SOL     OW25543   3.964   6.848   0.482
 8215SOL    HW125544   3.867   6.856   0.504
 8215SOL    HW225545   3.979   6.872   0.386
 8216SOL     OW25546   5.601   4.600   1.518
 8216SOL    HW125547   5.545   4.568   1.442
 8216SOL    HW225548   5.587   4.541   1.598
 8217SOL     OW25549   3.146   6.431   3.928
 8217SOL    HW125550   3.093   6.346   3.930
 8217SOL    HW225551   3.097   6.500   3.875
 8218SOL     OW25552   2.853   6.935   4.552
 8218SOL    HW125553   2.885   0.008   4.574
 8218SOL    HW225554   2.857   6.877   4.634
 8219SOL     OW25555   3.966   3.500   1.259
 8219SOL    HW125556   3.995   3.467   1.349
 8219SOL    HW225557   3.884   3.451   1.230
 8220SOL     OW25558   3.956   3.506   4.084
 8220SOL    HW125559   4.012   3.560   4.020
 8220SOL    HW225560   4.012   3.433   4.124
 8221SOL     OW25561   5.640   3.850   3.386
 8221SOL    HW125562   5.731   3.822   3.353
 8221SOL    HW225563   5.571   3.822   3.320
 8222SOL     OW25564   6.672   3.375   0.156
 8222SOL    HW125565   6.711   3.372   0.249
 8222SOL    HW225566   6.649   3.282   0.127
 8223SOL     OW25567   1.365   6.021   5.557
 8223SOL    HW125568   1.456   6.060   5.570
 8223SOL    HW225569   1.372   5.923   5.538
 8224SOL     OW25570   5.316   1.688   0.533
 8224SOL    HW125571   5.273   1.601   0.559
 8224SOL    HW225572   5.281   1.761   0.592
 8225SOL     OW25573   5.429   1.803   0.088
 8225SOL    HW125574   5.395   1.710   0.076
 8225SOL    HW225575   5.528   1.800   0.104
 8226SOL     OW25576   4.181   0.025   0.372
 8226SOL    HW125577   4.174   6.954   0.413
 8226SOL    HW225578   4.277   0.047   0.355
 8227SOL     OW25579   4.930   2.559   2.833
 8227SOL    HW125580   5.023   2.558   2.870
 8227SOL    HW225581   4.886   2.471   2.853
 8228SOL     OW25582   2.240   6.978   4.565
 8228SOL    HW125583   2.229   7.004   4.470
 8228SOL    HW225584   2.151   6.950   4.603
 8229SOL     OW25585   4.723   4.110   0.868
 8229SOL    HW125586   4.642   4.138   0.920
 8229SOL    HW225587   4.802   4.105   0.929
 8230SOL     OW25588   5.740   0.553   6.494
 8230SOL    HW125589   5.837   0.530   6.504
 8230SOL    HW225590   5.711   0.608   6.573
 8231SOL     OW25591   2.443   1.861   2.880
 8231SOL    HW125592   2.444   1.864   2.980
 8231SOL    HW225593   2.349   1.867   2.847
 8232SOL     OW25594   3.671   5.370   3.222
 8232SOL    HW125595   3.743   5.437   3.240
 8232SOL    HW225596   3.596   5.384   3.287
 8233SOL     OW25597   0.092   1.222   6.293
 8233SOL    HW125598   0.143   1.276   6.360
 8233SOL    HW225599   0.152   1.199   6.216
 8234SOL     OW25600   1.024   2.216   0.776
 8234SOL    HW125601   1.009   2.261   0.689
 8234SOL    HW225602   1.122   2.218   0.799
 8235SOL     OW25603   1.076   6.476   1.248
 8235SOL    HW125604   1.072   6.492   1.150
 8235SOL    HW225605   0.983   6.467   1.285
 8236SOL     OW25606   1.005   6.172   1.419
 8236SOL    HW125607   0.955   6.259   1.430
 8236SOL    HW225608   1.023   6.133   1.509
 8237SOL     OW25609   4.397   5.258   6.724
 8237SOL    HW125610   4.384   5.184   6.658
 8237SOL    HW225611   4.317   5.318   6.724
 8238SOL     OW25612   0.934   4.761   0.054
 8238SOL    HW125613   0.834   4.761   0.057
 8238SOL    HW225614   0.969   4.798   0.140
 8239SOL     OW25615   1.602   1.878   5.109
 8239SOL    HW125616   1.602   1.835   5.018
 8239SOL    HW225617   1.536   1.831   5.168
 8240SOL     OW25618   3.259   3.314   5.011
 8240SOL    HW125619   3.308   3.291   4.927
 8240SOL    HW225620   3.198   3.238   5.035
 8241SOL     OW25621   2.026   4.383   5.684
 8241SOL    HW125622   2.102   4.412   5.742
 8241SOL    HW225623   2.058   4.312   5.621
 8242SOL     OW25624   0.690   2.604   2.920
 8242SOL    HW125625   0.599   2.639   2.898
 8242SOL    HW225626   0.712   2.626   3.015
 8243SOL     OW25627   1.425   5.808   4.196
 8243SOL    HW125628   1.463   5.892   4.158
 8243SOL    HW225629   1.360   5.769   4.132
 8244SOL     OW25630   0.648   1.346   4.253
 8244SOL    HW125631   0.736   1.304   4.277
 8244SOL    HW225632   0.664   1.439   4.221
 8245SOL     OW25633   5.434   1.606   3.226
 8245SOL    HW125634   5.475   1.592   3.316
 8245SOL    HW225635   5.440   1.521   3.173
 8246SOL     OW25636   1.900   4.838   6.562
 8246SOL    HW125637   1.902   4.785   6.647
 8246SOL    HW225638   1.844   4.920   6.575
 8247SOL     OW25639   2.839   5.578   3.170
 8247SOL    HW125640   2.775   5.547   3.240
 8247SOL    HW225641   2.836   5.678   3.165
 8248SOL     OW25642   6.671   5.129   2.932
 8248SOL    HW125643   6.764   5.150   2.962
 8248SOL    HW225644   6.674   5.085   2.843
 8249SOL     OW25645   3.295   1.593   6.458
 8249SOL    HW125646   3.347   1.673   6.429
 8249SOL    HW225647   3.198   1.608   6.439
 8250SOL     OW25648   1.318   1.712   0.157
 8250SOL    HW125649   1.387   1.772   0.117
 8250SOL    HW225650   1.227   1.739   0.124
 8251SOL     OW25651   1.073   2.378   4.888
 8251SOL    HW125652   0.994   2.412   4.937
 8251SOL    HW225653   1.117   2.305   4.941
 8252SOL     OW25654   1.038   2.470   6.374
 8252SOL    HW125655   1.056   2.528   6.453
 8252SOL    HW225656   0.978   2.518   6.310
 8253SOL     OW25657   4.546   5.892   0.242
 8253SOL    HW125658   4.449   5.904   0.220
 8253SOL    HW225659   4.577   5.804   0.207
 8254SOL     OW25660   5.487   4.809   6.626
 8254SOL    HW125661   5.572   4.821   6.678
 8254SOL    HW225662   5.428   4.888   6.640
 8255SOL     OW25663   1.671   0.331   6.092
 8255SOL    HW125664   1.672   0.425   6.057
 8255SOL    HW225665   1.590   0.284   6.059
 8256SOL     OW25666   1.391   5.348   5.344
 8256SOL    HW125667   1.321   5.303   5.400
 8256SOL    HW225668   1.348   5.417   5.286
 8257SOL     OW25669   5.260   3.863   3.122
 8257SOL    HW125670   5.342   3.868   3.066
 8257SOL    HW225671   5.252   3.771   3.161
 8258SOL     OW25672   6.810   3.312   1.826
 8258SOL    HW125673   6.752   3.341   1.750
 8258SOL    HW225674   6.808   3.212   1.832
 8259SOL     OW25675   5.337   1.839   4.400
 8259SOL    HW125676   5.332   1.741   4.415
 8259SOL    HW225677   5.432   1.866   4.383
 8260SOL     OW25678   3.938   1.815   1.157
 8260SOL    HW125679   4.038   1.815   1.155
 8260SOL    HW225680   3.906   1.874   1.231
 8261SOL     OW25681   5.640   0.805   2.705
 8261SOL    HW125682   5.600   0.895   2.686
 8261SOL    HW225683   5.568   0.743   2.738
 8262SOL     OW25684   5.782   4.046   1.844
 8262SOL    HW125685   5.756   3.950   1.833
 8262SOL    HW225686   5.882   4.054   1.837
 8263SOL     OW25687   6.737   2.122   5.843
 8263SOL    HW125688   6.801   2.166   5.780
 8263SOL    HW225689   6.753   2.157   5.935
 8264SOL     OW25690   2.990   0.258   2.837
 8264SOL    HW125691   3.040   0.192   2.892
 8264SOL    HW225692   3.015   0.247   2.741
 8265SOL     OW25693   5.108   6.876   0.431
 8265SOL    HW125694   5.036   6.903   0.368
 8265SOL    HW225695   5.095   6.780   0.458
 8266SOL     OW25696   2.763   0.676   3.569
 8266SOL    HW125697   2.850   0.672   3.618
 8266SOL    HW225698   2.750   0.591   3.517
 8267SOL     OW25699   1.855   3.473   2.489
 8267SOL    HW125700   1.904   3.387   2.506
 8267SOL    HW225701   1.839   3.483   2.391
 8268SOL     OW25702   3.569   4.965   6.233
 8268SOL    HW125703   3.593   4.872   6.262
 8268SOL    HW225704   3.613   5.031   6.293
 8269SOL     OW25705   6.490   3.194   4.247
 8269SOL    HW125706   6.432   3.116   4.272
 8269SOL    HW225707   6.443   3.250   4.179
 8270SOL     OW25708   3.857   0.129   7.003
 8270SOL    HW125709   3.866   0.196   6.929
 8270SOL    HW225710   3.875   0.038   6.967
 8271SOL     OW25711   3.712   5.995   6.253
 8271SOL    HW125712   3.737   6.091   6.236
 8271SOL    HW225713   3.751   5.966   6.341
 8272SOL     OW25714   0.477   0.362   2.144
 8272SOL    HW125715   0.443   0.452   2.173
 8272SOL    HW225716   0.558   0.339   2.197
 8273SOL     OW25717   4.024   0.545   6.692
 8273SOL    HW125718   3.984   0.545   6.783
 8273SOL    HW225719   4.113   0.591   6.694
 8274SOL     OW25720   5.330   6.079   5.616
 8274SOL    HW125721   5.286   6.160   5.577
 8274SOL    HW225722   5.312   6.000   5.558
 8275SOL     OW25723   5.399   0.647   3.478
 8275SOL    HW125724   5.432   0.582   3.547
 8275SOL    HW225725   5.364   0.729   3.524
 8276SOL     OW25726   6.563   1.797   6.922
 8276SOL    HW125727   6.619   1.792   7.005
 8276SOL    HW225728   6.617   1.838   6.848
 8277SOL     OW25729   1.453   6.947   6.939
 8277SOL    HW125730   1.530   6.928   7.000
 8277SOL    HW225731   1.459   0.022   6.906
 8278SOL     OW25732   3.036   1.361   0.704
 8278SOL    HW125733   3.076   1.374   0.613
 8278SOL    HW225734   3.073   1.277   0.744
 8279SOL     OW25735   3.899   5.902   4.742
 8279SOL    HW125736   3.929   5.810   4.716
 8279SOL    HW225737   3.901   5.910   4.842
 8280SOL     OW25738   5.471   3.637   0.264
 8280SOL    HW125739   5.509   3.684   0.344
 8280SOL    HW225740   5.372   3.633   0.271
 8281SOL     OW25741   2.666   5.392   0.503
 8281SOL    HW125742   2.615   5.447   0.569
 8281SOL    HW225743   2.644   5.423   0.410
 8282SOL     OW25744   3.068   3.016   1.394
 8282SOL    HW125745   3.109   3.047   1.308
 8282SOL    HW225746   3.140   3.002   1.462
 8283SOL     OW25747   0.543   5.876   3.470
 8283SOL    HW125748   0.594   5.915   3.393
 8283SOL    HW225749   0.579   5.785   3.491
 8284SOL     OW25750   3.218   1.475   2.021
 8284SOL    HW125751   3.297   1.485   2.081
 8284SOL    HW225752   3.222   1.387   1.974
 8285SOL     OW25753   2.937   4.655   7.014
 8285SOL    HW125754   2.855   4.627   6.964
 8285SOL    HW225755   3.007   4.685   6.948
 8286SOL     OW25756   5.453   2.246   5.421
 8286SOL    HW125757   5.383   2.176   5.403
 8286SOL    HW225758   5.536   2.223   5.371
 8287SOL     OW25759   2.006   0.017   3.812
 8287SOL    HW125760   1.966   6.945   3.818
 8287SOL    HW225761   2.099   0.011   3.774
 8288SOL     OW25762   2.319   6.880   3.228
 8288SOL    HW125763   2.284   6.832   3.148
 8288SOL    HW225764   2.418   6.864   3.236
 8289SOL     OW25765   6.535   1.017   6.186
 8289SOL    HW125766   6.534   1.021   6.086
 8289SOL    HW225767   6.621   0.977   6.217
 8290SOL     OW25768   4.678   2.780   1.750
 8290SOL    HW125769   4.646   2.779   1.655
 8290SOL    HW225770   4.639   2.858   1.798
 8291SOL     OW25771   4.104   5.779   6.534
 8291SOL    HW125772   4.069   5.861   6.489
 8291SOL    HW225773   4.202   5.789   6.549
 8292SOL     OW25774   0.835   3.249   4.614
 8292SOL    HW125775   0.928   3.241   4.577
 8292SOL    HW225776   0.772   3.269   4.539
 8293SOL     OW25777   2.883   4.957   3.697
 8293SOL    HW125778   2.867   5.021   3.772
 8293SOL    HW225779   2.980   4.956   3.674
 8294SOL     OW25780   4.633   3.374   6.110
 8294SOL    HW125781   4.565   3.446   6.094
 8294SOL    HW225782   4.587   3.291   6.142
 8295SOL     OW25783   4.995   4.587   2.382
 8295SOL    HW125784   5.008   4.490   2.402
 8295SOL    HW225785   5.029   4.607   2.290
 8296SOL     OW25786   4.229   6.306   1.877
 8296SOL    HW125787   4.223   6.374   1.803
 8296SOL    HW225788   4.312   6.323   1.930
 8297SOL     OW25789   5.503   4.617   3.629
 8297SOL    HW125790   5.441   4.648   3.701
 8297SOL    HW225791   5.463   4.539   3.582
 8298SOL     OW25792   6.896   6.742   6.675
 8298SOL    HW125793   6.873   6.827   6.721
 8298SOL    HW225794   6.992   6.720   6.688
 8299SOL     OW25795   0.663   3.432   0.959
 8299SOL    HW125796   0.683   3.369   0.884
 8299SOL    HW225797   0.698   3.523   0.936
 8300SOL     OW25798   5.911   5.298   3.278
 8300SOL    HW125799   5.970   5.225   3.244
 8300SOL    HW225800   5.860   5.265   3.358
 8301SOL     OW25801   5.094   6.539   0.338
 8301SOL    HW125802   5.096   6.561   0.436
 8301SOL    HW225803   4.999   6.526   0.309
 8302SOL     OW25804   3.626   6.686   5.505
 8302SOL    HW125805   3.618   6.751   5.429
 8302SOL    HW225806   3.716   6.695   5.548
 8303SOL     OW25807   0.643   5.380   2.894
 8303SOL    HW125808   0.688   5.366   2.982
 8303SOL    HW225809   0.696   5.335   2.822
 8304SOL     OW25810   5.916   4.683   3.077
 8304SOL    HW125811   5.891   4.722   3.166
 8304SOL    HW225812   5.892   4.586   3.075
 8305SOL     OW25813   5.278   6.741   4.808
 8305SOL    HW125814   5.267   6.699   4.898
 8305SOL    HW225815   5.288   6.670   4.738
 8306SOL     OW25816   6.261   1.501   2.511
 8306SOL    HW125817   6.297   1.593   2.490
 8306SOL    HW225818   6.203   1.506   2.592
 8307SOL     OW25819   1.525   3.185   2.517
 8307SOL    HW125820   1.565   3.277   2.516
 8307SOL    HW225821   1.428   3.191   2.542
 8308SOL     OW25822   1.587   4.940   0.729
 8308SOL    HW125823   1.521   4.991   0.784
 8308SOL    HW225824   1.609   4.853   0.773
 8309SOL     OW25825   6.644   4.996   4.546
 8309SOL    HW125826   6.631   5.088   4.509
 8309SOL    HW225827   6.741   4.975   4.550
 8310SOL     OW25828   1.771   0.369   0.388
 8310SOL    HW125829   1.751   0.466   0.400
 8310SOL    HW225830   1.746   0.341   0.295
 8311SOL     OW25831   5.530   6.192   3.297
 8311SOL    HW125832   5.586   6.178   3.216
 8311SOL    HW225833   5.440   6.152   3.282
 8312SOL     OW25834   5.752   1.568   0.317
 8312SOL    HW125835   5.719   1.623   0.240
 8312SOL    HW225836   5.843   1.532   0.295
 8313SOL     OW25837   5.686   2.464   5.657
 8313SOL    HW125838   5.597   2.428   5.685
 8313SOL    HW225839   5.753   2.448   5.731
 8314SOL     OW25840   4.817   6.360   3.771
 8314SOL    HW125841   4.720   6.373   3.750
 8314SOL    HW225842   4.828   6.334   3.867
 8315SOL     OW25843   3.253   3.841   4.522
 8315SOL    HW125844   3.257   3.750   4.563
 8315SOL    HW225845   3.310   3.842   4.439
 8316SOL     OW25846   2.016   2.020   5.626
 8316SOL    HW125847   2.056   1.973   5.705
 8316SOL    HW225848   2.049   2.114   5.623
 8317SOL     OW25849   1.381   1.874   3.639
 8317SOL    HW125850   1.400   1.972   3.640
 8317SOL    HW225851   1.459   1.824   3.675
 8318SOL     OW25852   4.634   6.977   6.734
 8318SOL    HW125853   4.569   0.033   6.719
 8318SOL    HW225854   4.679   6.955   6.647
 8319SOL     OW25855   1.782   5.785   6.626
 8319SOL    HW125856   1.750   5.878   6.607
 8319SOL    HW225857   1.739   5.722   6.561
 8320SOL     OW25858   3.114   3.301   5.293
 8320SOL    HW125859   3.157   3.391   5.299
 8320SOL    HW225860   3.024   3.310   5.250
 8321SOL     OW25861   0.466   6.615   1.419
 8321SOL    HW125862   0.418   6.538   1.462
 8321SOL    HW225863   0.511   6.669   1.490
 8322SOL     OW25864   0.718   6.405   7.005
 8322SOL    HW125865   0.720   6.313   0.027
 8322SOL    HW225866   0.630   6.418   6.960
 8323SOL     OW25867   5.406   4.666   0.948
 8323SOL    HW125868   5.422   4.705   1.039
 8323SOL    HW225869   5.385   4.739   0.884
 8324SOL     OW25870   4.745   5.592   6.138
 8324SOL    HW125871   4.726   5.601   6.040
 8324SOL    HW225872   4.730   5.681   6.183
 8325SOL     OW25873   1.424   5.710   6.266
 8325SOL    HW125874   1.336   5.735   6.306
 8325SOL    HW225875   1.483   5.670   6.336
 8326SOL     OW25876   1.158   3.104   6.978
 8326SOL    HW125877   1.077   3.051   7.006
 8326SOL    HW225878   1.236   3.077   0.015
 8327SOL     OW25879   1.025   6.465   4.879
 8327SOL    HW125880   1.080   6.485   4.960
 8327SOL    HW225881   1.082   6.419   4.810
 8328SOL     OW25882   0.917   6.633   0.364
 8328SOL    HW125883   0.986   6.604   0.298
 8328SOL    HW225884   0.826   6.611   0.328
 8329SOL     OW25885   1.809   2.804   4.995
 8329SOL    HW125886   1.860   2.821   4.910
 8329SOL    HW225887   1.867   2.752   5.058
 8330SOL     OW25888   3.218   1.395   0.471
 8330SOL    HW125889   3.309   1.364   0.498
 8330SOL    HW225890   3.201   1.371   0.375
 8331SOL     OW25891   2.069   2.602   5.803
 8331SOL    HW125892   2.146   2.638   5.749
 8331SOL    HW225893   2.009   2.549   5.744
 8332SOL     OW25894   6.138   5.088   1.555
 8332SOL    HW125895   6.152   5.012   1.619
 8332SOL    HW225896   6.170   5.062   1.465
 8333SOL     OW25897   2.193   4.407   0.387
 8333SOL    HW125898   2.268   4.406   0.320
 8333SOL    HW225899   2.222   4.358   0.469
 8334SOL     OW25900   3.452   2.275   6.670
 8334SOL    HW125901   3.464   2.361   6.720
 8334SOL    HW225902   3.514   2.273   6.592
 8335SOL     OW25903   5.329   4.518   6.343
 8335SOL    HW125904   5.413   4.484   6.300
 8335SOL    HW225905   5.345   4.535   6.440
 8336SOL     OW25906   0.993   3.926   3.606
 8336SOL    HW125907   0.997   3.958   3.701
 8336SOL    HW225908   1.082   3.937   3.563
 8337SOL     OW25909   0.562   1.274   4.518
 8337SOL    HW125910   0.603   1.306   4.432
 8337SOL    HW225911   0.566   1.346   4.586
 8338SOL     OW25912   3.781   5.538   1.396
 8338SOL    HW125913   3.685   5.526   1.422
 8338SOL    HW225914   3.786   5.568   1.301
 8339SOL     OW25915   5.726   0.075   1.475
 8339SOL    HW125916   5.812   0.125   1.464
 8339SOL    HW225917   5.738   7.000   1.441
 8340SOL     OW25918   5.839   2.171   6.737
 8340SOL    HW125919   5.806   2.246   6.680
 8340SOL    HW225920   5.773   2.096   6.737
 8341SOL     OW25921   3.890   0.515   0.856
 8341SOL    HW125922   3.941   0.588   0.811
 8341SOL    HW225923   3.825   0.555   0.920
 8342SOL     OW25924   4.518   0.456   0.109
 8342SOL    HW125925   4.591   0.491   0.051
 8342SOL    HW225926   4.430   0.462   0.060
 8343SOL     OW25927   5.793   3.957   4.247
 8343SOL    HW125928   5.768   3.973   4.342
 8343SOL    HW225929   5.863   4.023   4.219
 8344SOL     OW25930   0.707   5.714   5.187
 8344SOL    HW125931   0.781   5.742   5.126
 8344SOL    HW225932   0.735   5.728   5.282
 8345SOL     OW25933   4.745   0.814   3.513
 8345SOL    HW125934   4.693   0.825   3.598
 8345SOL    HW225935   4.702   0.869   3.441
 8346SOL     OW25936   5.840   3.836   4.950
 8346SOL    HW125937   5.754   3.790   4.970
 8346SOL    HW225938   5.878   3.873   5.035
 8347SOL     OW25939   2.304   1.417   6.940
 8347SOL    HW125940   2.343   1.353   6.875
 8347SOL    HW225941   2.277   1.501   6.893
 8348SOL     OW25942   3.257   5.844   1.867
 8348SOL    HW125943   3.219   5.826   1.958
 8348SOL    HW225944   3.263   5.759   1.816
 8349SOL     OW25945   7.004   6.257   2.439
 8349SOL    HW125946   6.993   6.352   2.468
 8349SOL    HW225947   0.053   6.253   2.366
 8350SOL     OW25948   1.897   0.926   0.197
 8350SOL    HW125949   1.846   0.885   0.273
 8350SOL    HW225950   1.960   0.858   0.159
 8351SOL     OW25951   6.837   3.603   2.809
 8351SOL    HW125952   6.814   3.539   2.736
 8351SOL    HW225953   6.872   3.552   2.888
 8352SOL     OW25954   2.705   6.046   1.364
 8352SOL    HW125955   2.662   5.962   1.331
 8352SOL    HW225956   2.777   6.074   1.300
 8353SOL     OW25957   1.646   4.972   2.071
 8353SOL    HW125958   1.585   5.026   2.014
 8353SOL    HW225959   1.725   5.028   2.097
 8354SOL     OW25960   3.541   0.555   3.135
 8354SOL    HW125961   3.637   0.527   3.135
 8354SOL    HW225962   3.490   0.501   3.201
 8355SOL     OW25963   2.760   6.536   6.498
 8355SOL    HW125964   2.669   6.564   6.529
 8355SOL    HW225965   2.827   6.555   6.569
 8356SOL     OW25966   1.969   5.256   0.810
 8356SOL    HW125967   1.878   5.213   0.808
 8356SOL    HW225968   1.964   5.346   0.769
 8357SOL     OW25969   4.495   6.595   5.292
 8357SOL    HW125970   4.495   6.544   5.206
 8357SOL    HW225971   4.520   6.690   5.274
 8358SOL     OW25972   0.555   1.201   5.086
 8358SOL    HW125973   0.616   1.279   5.102
 8358SOL    HW225974   0.522   1.202   4.992
 8359SOL     OW25975   4.036   2.224   5.667
 8359SOL    HW125976   4.027   2.177   5.580
 8359SOL    HW225977   3.946   2.248   5.702
 8360SOL     OW25978   4.665   0.696   0.896
 8360SOL    HW125979   4.626   0.774   0.846
 8360SOL    HW225980   4.723   0.643   0.834
 8361SOL     OW25981   4.005   1.043   6.912
 8361SOL    HW125982   4.081   1.070   6.853
 8361SOL    HW225983   3.926   1.100   6.893
 8362SOL     OW25984   6.650   4.263   1.507
 8362SOL    HW125985   6.749   4.256   1.521
 8362SOL    HW225986   6.605   4.185   1.551
 8363SOL     OW25987   2.205   3.021   0.447
 8363SOL    HW125988   2.148   3.029   0.366
 8363SOL    HW225989   2.207   2.926   0.477
 8364SOL     OW25990   0.446   3.474   4.324
 8364SOL    HW125991   0.491   3.460   4.236
 8364SOL    HW225992   0.459   3.569   4.353
 8365SOL     OW25993   1.034   2.100   1.927
 8365SOL    HW125994   1.071   2.154   1.851
 8365SOL    HW225995   1.060   2.143   2.014
 8366SOL     OW25996   5.394   5.275   2.065
 8366SOL    HW125997   5.388   5.360   2.116
 8366SOL    HW225998   5.314   5.265   2.005
 8367SOL     OW25999   3.398   5.372   4.091
 8367SOL    HW126000   3.407   5.299   4.022
 8367SOL    HW226001   3.481   5.428   4.091
 8368SOL     OW26002   5.911   6.288   6.192
 8368SOL    HW126003   5.923   6.189   6.197
 8368SOL    HW226004   5.901   6.316   6.096
 8369SOL     OW26005   2.687   6.567   1.237
 8369SOL    HW126006   2.635   6.635   1.289
 8369SOL    HW226007   2.640   6.479   1.242
 8370SOL     OW26008   2.650   3.735   6.365
 8370SOL    HW126009   2.687   3.707   6.276
 8370SOL    HW226010   2.705   3.810   6.401
 8371SOL     OW26011   1.987   4.591   5.421
 8371SOL    HW126012   1.931   4.620   5.499
 8371SOL    HW226013   2.083   4.588   5.448
 8372SOL     OW26014   2.079   6.424   2.361
 8372SOL    HW126015   2.066   6.463   2.270
 8372SOL    HW226016   2.176   6.428   2.385
 8373SOL     OW26017   6.785   1.588   4.224
 8373SOL    HW126018   6.826   1.534   4.298
 8373SOL    HW226019   6.723   1.529   4.171
 8374SOL     OW26020   0.900   1.260   4.361
 8374SOL    HW126021   0.965   1.189   4.335
 8374SOL    HW226022   0.950   1.342   4.388
 8375SOL     OW26023   3.253   0.693   4.703
 8375SOL    HW126024   3.165   0.646   4.705
 8375SOL    HW226025   3.279   0.713   4.609
 8376SOL     OW26026   2.112   0.501   3.147
 8376SOL    HW126027   2.194   0.506   3.091
 8376SOL    HW226028   2.053   0.579   3.128
 8377SOL     OW26029   4.661   5.526   0.485
 8377SOL    HW126030   4.636   5.619   0.513
 8377SOL    HW226031   4.582   5.465   0.496
 8378SOL     OW26032   5.270   5.822   3.841
 8378SOL    HW126033   5.348   5.789   3.789
 8378SOL    HW226034   5.277   5.790   3.936
 8379SOL     OW26035   6.007   1.237   1.409
 8379SOL    HW126036   5.997   1.307   1.480
 8379SOL    HW226037   5.988   1.147   1.448
 8380SOL     OW26038   0.057   5.737   0.508
 8380SOL    HW126039   0.005   5.693   0.435
 8380SOL    HW226040   0.125   5.798   0.467
 8381SOL     OW26041   0.208   1.526   2.293
 8381SOL    HW126042   0.223   1.479   2.207
 8381SOL    HW226043   0.110   1.540   2.307
 8382SOL     OW26044   1.891   0.985   0.761
 8382SOL    HW126045   1.808   1.018   0.717
 8382SOL    HW226046   1.946   1.062   0.793
 8383SOL     OW26047   2.932   6.965   6.514
 8383SOL    HW126048   2.974   0.009   6.579
 8383SOL    HW226049   2.923   7.010   6.425
 8384SOL     OW26050   0.390   2.977   2.889
 8384SOL    HW126051   0.480   3.006   2.921
 8384SOL    HW226052   0.342   3.055   2.849
 8385SOL     OW26053   4.189   3.639   1.186
 8385SOL    HW126054   4.103   3.597   1.215
 8385SOL    HW226055   4.218   3.706   1.255
 8386SOL     OW26056   2.448   6.327   2.164
 8386SOL    HW126057   2.440   6.228   2.164
 8386SOL    HW226058   2.542   6.353   2.141
 8387SOL     OW26059   1.726   0.929   2.627
 8387SOL    HW126060   1.747   0.856   2.691
 8387SOL    HW226061   1.655   0.898   2.564
 8388SOL     OW26062   4.045   6.257   1.587
 8388SOL    HW126063   4.065   6.326   1.657
 8388SOL    HW226064   4.098   6.277   1.505
 8389SOL     OW26065   0.181   2.237   4.028
 8389SOL    HW126066   0.150   2.260   4.120
 8389SOL    HW226067   0.115   2.272   3.961
 8390SOL     OW26068   2.905   0.168   5.772
 8390SOL    HW126069   2.814   0.144   5.805
 8390SOL    HW226070   2.954   0.219   5.843
 8391SOL     OW26071   5.178   5.489   1.016
 8391SOL    HW126072   5.160   5.484   0.918
 8391SOL    HW226073   5.238   5.566   1.036
 8392SOL     OW26074   5.824   6.637   5.672
 8392SOL    HW126075   5.786   6.722   5.635
 8392SOL    HW226076   5.841   6.573   5.596
 8393SOL     OW26077   6.825   6.103   3.252
 8393SOL    HW126078   6.916   6.093   3.293
 8393SOL    HW226079   6.760   6.043   3.299
 8394SOL     OW26080   0.723   2.002   2.465
 8394SOL    HW126081   0.748   1.951   2.548
 8394SOL    HW226082   0.686   1.938   2.397
 8395SOL     OW26083   0.521   5.858   5.678
 8395SOL    HW126084   0.589   5.897   5.617
 8395SOL    HW226085   0.468   5.932   5.720
 8396SOL     OW26086   4.719   3.340   1.337
 8396SOL    HW126087   4.699   3.436   1.315
 8396SOL    HW226088   4.649   3.304   1.398
 8397SOL     OW26089   2.309   5.344   3.267
 8397SOL    HW126090   2.241   5.417   3.280
 8397SOL    HW226091   2.276   5.280   3.198
 8398SOL     OW26092   4.979   1.953   0.508
 8398SOL    HW126093   5.068   1.980   0.546
 8398SOL    HW226094   4.906   1.992   0.564
 8399SOL     OW26095   5.452   5.825   0.464
 8399SOL    HW126096   5.396   5.743   0.463
 8399SOL    HW226097   5.549   5.799   0.467
 8400SOL     OW26098   5.989   0.609   3.849
 8400SOL    HW126099   5.994   0.536   3.781
 8400SOL    HW226100   6.080   0.622   3.890
 8401SOL     OW26101   3.393   4.308   6.676
 8401SOL    HW126102   3.382   4.228   6.734
 8401SOL    HW226103   3.446   4.378   6.724
 8402SOL     OW26104   4.041   2.151   0.277
 8402SOL    HW126105   4.140   2.143   0.263
 8402SOL    HW226106   3.994   2.125   0.193
 8403SOL     OW26107   1.769   1.407   4.078
 8403SOL    HW126108   1.833   1.364   4.014
 8403SOL    HW226109   1.704   1.463   4.027
 8404SOL     OW26110   4.645   4.784   5.844
 8404SOL    HW126111   4.687   4.871   5.816
 8404SOL    HW226112   4.551   4.800   5.873
 8405SOL     OW26113   0.452   2.900   4.951
 8405SOL    HW126114   0.357   2.870   4.951
 8405SOL    HW226115   0.497   2.871   4.867
 8406SOL     OW26116   5.445   3.361   1.861
 8406SOL    HW126117   5.513   3.306   1.909
 8406SOL    HW226118   5.362   3.307   1.847
 8407SOL     OW26119   5.089   3.858   2.489
 8407SOL    HW126120   5.071   3.931   2.423
 8407SOL    HW226121   5.004   3.810   2.511
 8408SOL     OW26122   4.546   2.401   4.414
 8408SOL    HW126123   4.479   2.349   4.466
 8408SOL    HW226124   4.508   2.424   4.324
 8409SOL     OW26125   0.433   2.702   3.943
 8409SOL    HW126126   0.433   2.714   4.043
 8409SOL    HW226127   0.475   2.613   3.921
 8410SOL     OW26128   4.211   6.850   1.905
 8410SOL    HW126129   4.122   6.860   1.950
 8410SOL    HW226130   4.261   6.773   1.947
 8411SOL     OW26131   1.887   2.973   3.991
 8411SOL    HW126132   1.870   3.071   3.984
 8411SOL    HW226133   1.817   2.930   4.048
 8412SOL     OW26134   6.077   2.288   3.633
 8412SOL    HW126135   6.149   2.321   3.693
 8412SOL    HW226136   6.116   2.233   3.559
 8413SOL     OW26137   2.905   4.473   0.502
 8413SOL    HW126138   2.936   4.398   0.443
 8413SOL    HW226139   2.983   4.518   0.544
 8414SOL     OW26140   3.924   6.143   2.627
 8414SOL    HW126141   3.858   6.185   2.565
 8414SOL    HW226142   4.014   6.140   2.582
 8415SOL     OW26143   6.398   3.656   2.145
 8415SOL    HW126144   6.415   3.686   2.239
 8415SOL    HW226145   6.300   3.662   2.126
 8416SOL     OW26146   5.218   4.057   2.688
 8416SOL    HW126147   5.147   4.123   2.666
 8416SOL    HW226148   5.200   3.971   2.640
 8417SOL     OW26149   2.780   5.834   5.946
 8417SOL    HW126150   2.683   5.855   5.955
 8417SOL    HW226151   2.805   5.835   5.849
 8418SOL     OW26152   5.988   5.592   2.608
 8418SOL    HW126153   6.022   5.654   2.678
 8418SOL    HW226154   5.889   5.578   2.621
 8419SOL     OW26155   4.496   0.467   4.251
 8419SOL    HW126156   4.534   0.541   4.307
 8419SOL    HW226157   4.553   0.385   4.260
 8420SOL     OW26158   3.890   1.450   6.377
 8420SOL    HW126159   3.891   1.350   6.366
 8420SOL    HW226160   3.956   1.490   6.314
 8421SOL     OW26161   2.357   6.574   1.990
 8421SOL    HW126162   2.430   6.601   1.927
 8421SOL    HW226163   2.382   6.488   2.035
 8422SOL     OW26164   3.624   6.784   1.129
 8422SOL    HW126165   3.687   6.727   1.181
 8422SOL    HW226166   3.611   6.746   1.037
 8423SOL     OW26167   3.046   4.576   1.383
 8423SOL    HW126168   3.023   4.505   1.449
 8423SOL    HW226169   3.141   4.604   1.396
 8424SOL     OW26170   3.336   1.786   2.655
 8424SOL    HW126171   3.322   1.777   2.557
 8424SOL    HW226172   3.425   1.748   2.680
 8425SOL     OW26173   5.597   4.877   6.885
 8425SOL    HW126174   5.509   4.849   6.924
 8425SOL    HW226175   5.664   4.804   6.897
 8426SOL     OW26176   4.043   3.141   3.070
 8426SOL    HW126177   4.061   3.199   2.991
 8426SOL    HW226178   4.130   3.101   3.102
 8427SOL     OW26179   2.375   3.867   6.394
 8427SOL    HW126180   2.313   3.888   6.318
 8427SOL    HW226181   2.443   3.801   6.364
 8428SOL     OW26182   6.053   4.316   2.144
 8428SOL    HW126183   5.981   4.362   2.092
 8428SOL    HW226184   6.075   4.370   2.225
 8429SOL     OW26185   2.213   6.536   2.758
 8429SOL    HW126186   2.252   6.500   2.674
 8429SOL    HW226187   2.281   6.592   2.805
 8430SOL     OW26188   4.698   4.784   3.444
 8430SOL    HW126189   4.655   4.771   3.354
 8430SOL    HW226190   4.775   4.721   3.453
 8431SOL     OW26191   3.859   4.136   0.933
 8431SOL    HW126192   3.922   4.138   0.856
 8431SOL    HW226193   3.911   4.134   1.019
 8432SOL     OW26194   3.776   6.670   0.173
 8432SOL    HW126195   3.695   6.687   0.230
 8432SOL    HW226196   3.835   6.751   0.175
 8433SOL     OW26197   1.001   1.359   5.772
 8433SOL    HW126198   0.930   1.429   5.780
 8433SOL    HW226199   1.061   1.381   5.695
 8434SOL     OW26200   5.356   6.400   5.085
 8434SOL    HW126201   5.454   6.399   5.066
 8434SOL    HW226202   5.319   6.308   5.072
 8435SOL     OW26203   4.419   2.099   1.189
 8435SOL    HW126204   4.464   2.172   1.137
 8435SOL    HW226205   4.409   2.127   1.284
 8436SOL     OW26206   3.755   4.587   1.656
 8436SOL    HW126207   3.781   4.629   1.569
 8436SOL    HW226208   3.684   4.642   1.700
 8437SOL     OW26209   0.294   0.972   1.511
 8437SOL    HW126210   0.299   0.872   1.506
 8437SOL    HW226211   0.354   1.011   1.442
 8438SOL     OW26212   1.431   0.173   1.493
 8438SOL    HW126213   1.396   0.094   1.442
 8438SOL    HW226214   1.524   0.195   1.461
 8439SOL     OW26215   0.343   5.943   2.343
 8439SOL    HW126216   0.249   5.954   2.311
 8439SOL    HW226217   0.352   5.981   2.435
 8440SOL     OW26218   0.774   1.364   3.495
 8440SOL    HW126219   0.683   1.381   3.459
 8440SOL    HW226220   0.821   1.451   3.511
 8441SOL     OW26221   4.663   5.993   6.699
 8441SOL    HW126222   4.600   6.052   6.649
 8441SOL    HW226223   4.649   6.005   6.797
 8442SOL     OW26224   2.123   4.400   6.817
 8442SOL    HW126225   2.148   4.408   6.720
 8442SOL    HW226226   2.205   4.414   6.873
 8443SOL     OW26227   1.719   0.781   2.881
 8443SOL    HW126228   1.636   0.782   2.937
 8443SOL    HW226229   1.799   0.767   2.939
 8444SOL     OW26230   3.709   6.382   3.183
 8444SOL    HW126231   3.751   6.471   3.165
 8444SOL    HW226232   3.681   6.340   3.097
 8445SOL     OW26233   3.979   4.870   2.220
 8445SOL    HW126234   4.029   4.872   2.307
 8445SOL    HW226235   3.882   4.888   2.237
 8446SOL     OW26236   6.313   4.798   3.310
 8446SOL    HW126237   6.284   4.792   3.215
 8446SOL    HW226238   6.239   4.835   3.365
 8447SOL     OW26239   4.854   2.585   1.825
 8447SOL    HW126240   4.812   2.503   1.787
 8447SOL    HW226241   4.796   2.664   1.809
 8448SOL     OW26242   0.864   3.073   6.852
 8448SOL    HW126243   0.859   3.173   6.863
 8448SOL    HW226244   0.866   3.050   6.755
 8449SOL     OW26245   2.131   2.585   4.603
 8449SOL    HW126246   2.225   2.606   4.630
 8449SOL    HW226247   2.131   2.505   4.543
 8450SOL     OW26248   2.050   4.924   2.324
 8450SOL    HW126249   2.121   4.991   2.301
 8450SOL    HW226250   2.091   4.845   2.368
 8451SOL     OW26251   3.363   2.797   0.935
 8451SOL    HW126252   3.395   2.885   0.899
 8451SOL    HW226253   3.441   2.748   0.974
 8452SOL     OW26254   6.884   6.079   1.133
 8452SOL    HW126255   6.847   5.989   1.113
 8452SOL    HW226256   6.808   6.145   1.138
 8453SOL     OW26257   7.006   4.461   6.348
 8453SOL    HW126258   0.041   4.443   6.430
 8453SOL    HW226259   6.911   4.433   6.364
 8454SOL     OW26260   1.458   0.509   4.694
 8454SOL    HW126261   1.458   0.496   4.595
 8454SOL    HW226262   1.372   0.551   4.722
 8455SOL     OW26263   5.178   1.696   1.692
 8455SOL    HW126264   5.178   1.667   1.787
 8455SOL    HW226265   5.085   1.690   1.655
 8456SOL     OW26266   5.485   5.593   2.991
 8456SOL    HW126267   5.574   5.566   2.954
 8456SOL    HW226268   5.437   5.512   3.026
 8457SOL     OW26269   0.525   6.331   6.588
 8457SOL    HW126270   0.467   6.278   6.526
 8457SOL    HW226271   0.607   6.278   6.611
 8458SOL     OW26272   1.091   1.440   1.043
 8458SOL    HW126273   1.155   1.454   1.118
 8458SOL    HW226274   1.067   1.528   1.002
 8459SOL     OW26275   2.926   5.341   2.335
 8459SOL    HW126276   2.954   5.337   2.239
 8459SOL    HW226277   3.007   5.348   2.393
 8460SOL     OW26278   4.513   0.942   0.238
 8460SOL    HW126279   4.534   1.000   0.159
 8460SOL    HW226280   4.418   0.957   0.266
 8461SOL     OW26281   6.014   4.225   1.528
 8461SOL    HW126282   5.982   4.265   1.613
 8461SOL    HW226283   6.094   4.275   1.494
 8462SOL     OW26284   2.576   4.888   0.090
 8462SOL    HW126285   2.668   4.913   0.058
 8462SOL    HW226286   2.568   4.913   0.187
 8463SOL     OW26287   6.277   1.072   0.436
 8463SOL    HW126288   6.367   1.030   0.450
 8463SOL    HW226289   6.222   1.013   0.376
 8464SOL     OW26290   0.437   3.255   6.762
 8464SOL    HW126291   0.512   3.322   6.768
 8464SOL    HW226292   0.469   3.166   6.793
 8465SOL     OW26293   4.210   3.116   0.917
 8465SOL    HW126294   4.196   3.209   0.885
 8465SOL    HW226295   4.247   3.117   1.010
 8466SOL     OW26296   6.064   0.950   5.600
 8466SOL    HW126297   6.080   0.991   5.690
 8466SOL    HW226298   5.974   0.977   5.566
 8467SOL     OW26299   3.349   1.376   1.216
 8467SOL    HW126300   3.370   1.405   1.122
 8467SOL    HW226301   3.265   1.420   1.247
 8468SOL     OW26302   6.304   3.001   0.625
 8468SOL    HW126303   6.253   2.924   0.664
 8468SOL    HW226304   6.399   2.974   0.613
 8469SOL     OW26305   4.166   3.042   5.985
 8469SOL    HW126306   4.166   3.139   6.011
 8469SOL    HW226307   4.167   3.035   5.885
 8470SOL     OW26308   1.677   4.998   1.686
 8470SOL    HW126309   1.771   5.006   1.653
 8470SOL    HW226310   1.640   4.909   1.658
 8471SOL     OW26311   3.523   2.121   4.810
 8471SOL    HW126312   3.496   2.146   4.903
 8471SOL    HW226313   3.535   2.022   4.804
 8472SOL     OW26314   5.847   1.440   5.939
 8472SOL    HW126315   5.838   1.443   6.039
 8472SOL    HW226316   5.793   1.364   5.903
 8473SOL     OW26317   4.612   4.725   6.613
 8473SOL    HW126318   4.628   4.673   6.697
 8473SOL    HW226319   4.591   4.662   6.538
 8474SOL     OW26320   3.565   3.686   2.700
 8474SOL    HW126321   3.617   3.744   2.762
 8474SOL    HW226322   3.540   3.739   2.619
 8475SOL     OW26323   6.742   2.434   1.813
 8475SOL    HW126324   6.737   2.533   1.826
 8475SOL    HW226325   6.801   2.394   1.883
 8476SOL     OW26326   6.305   0.163   2.044
 8476SOL    HW126327   6.208   0.181   2.054
 8476SOL    HW226328   6.328   0.158   1.947
 8477SOL     OW26329   5.862   6.523   2.210
 8477SOL    HW126330   5.766   6.551   2.215
 8477SOL    HW226331   5.918   6.601   2.183
 8478SOL     OW26332   6.474   0.329   5.993
 8478SOL    HW126333   6.459   0.377   5.907
 8478SOL    HW226334   6.570   0.338   6.020
 8479SOL     OW26335   1.176   2.642   1.333
 8479SOL    HW126336   1.147   2.629   1.428
 8479SOL    HW226337   1.217   2.558   1.298
 8480SOL     OW26338   4.700   3.962   0.392
 8480SOL    HW126339   4.687   3.938   0.488
 8480SOL    HW226340   4.744   4.051   0.385
 8481SOL     OW26341   4.326   2.326   3.268
 8481SOL    HW126342   4.415   2.350   3.307
 8481SOL    HW226343   4.260   2.315   3.341
 8482SOL     OW26344   4.289   1.221   0.312
 8482SOL    HW126345   4.302   1.131   0.352
 8482SOL    HW226346   4.377   1.268   0.303
 8483SOL     OW26347   2.883   5.466   3.501
 8483SOL    HW126348   2.880   5.375   3.461
 8483SOL    HW226349   2.862   5.461   3.599
 8484SOL     OW26350   5.513   6.014   3.912
 8484SOL    HW126351   5.432   5.969   3.875
 8484SOL    HW226352   5.570   5.947   3.960
 8485SOL     OW26353   2.985   3.011   0.341
 8485SOL    HW126354   2.986   3.105   0.308
 8485SOL    HW226355   2.907   2.997   0.402
 8486SOL     OW26356   0.590   1.179   2.849
 8486SOL    HW126357   0.622   1.206   2.758
 8486SOL    HW226358   0.550   1.087   2.844
 8487SOL     OW26359   6.520   1.399   5.646
 8487SOL    HW126360   6.525   1.494   5.677
 8487SOL    HW226361   6.475   1.396   5.557
 8488SOL     OW26362   4.532   4.718   1.668
 8488SOL    HW126363   4.489   4.628   1.664
 8488SOL    HW226364   4.567   4.733   1.760
 8489SOL     OW26365   5.166   1.146   1.811
 8489SOL    HW126366   5.131   1.099   1.731
 8489SOL    HW226367   5.262   1.121   1.824
 8490SOL     OW26368   2.553   0.414   6.629
 8490SOL    HW126369   2.509   0.502   6.608
 8490SOL    HW226370   2.499   0.365   6.697
 8491SOL     OW26371   3.275   5.208   2.170
 8491SOL    HW126372   3.224   5.207   2.084
 8491SOL    HW226373   3.247   5.287   2.225
 8492SOL     OW26374   0.206   6.203   4.325
 8492SOL    HW126375   0.128   6.144   4.306
 8492SOL    HW226376   0.177   6.280   4.382
 8493SOL     OW26377   4.100   0.683   6.479
 8493SOL    HW126378   4.053   0.622   6.543
 8493SOL    HW226379   4.044   0.694   6.397
 8494SOL     OW26380   6.709   4.992   2.381
 8494SOL    HW126381   6.629   5.047   2.403
 8494SOL    HW226382   6.789   5.028   2.429
 8495SOL     OW26383   6.908   5.589   0.318
 8495SOL    HW126384   6.952   5.499   0.315
 8495SOL    HW226385   6.833   5.591   0.251
 8496SOL     OW26386   5.513   2.443   2.049
 8496SOL    HW126387   5.459   2.524   2.074
 8496SOL    HW226388   5.608   2.456   2.077
 8497SOL     OW26389   6.531   0.741   3.785
 8497SOL    HW126390   6.499   0.833   3.761
 8497SOL    HW226391   6.599   0.712   3.719
 8498SOL     OW26392   4.639   0.618   4.430
 8498SOL    HW126393   4.586   0.592   4.511
 8498SOL    HW226394   4.707   0.688   4.456
 8499SOL     OW26395   6.619   6.605   6.132
 8499SOL    HW126396   6.552   6.652   6.074
 8499SOL    HW226397   6.570   6.554   6.203
 8500SOL     OW26398   1.533   0.788   4.860
 8500SOL    HW126399   1.498   0.720   4.925
 8500SOL    HW226400   1.456   0.834   4.816
 8501SOL     OW26401   0.864   2.240   6.109
 8501SOL    HW126402   0.960   2.238   6.139
 8501SOL    HW226403   0.857   2.293   6.025
 8502SOL     OW26404   0.576   2.992   6.710
 8502SOL    HW126405   0.628   2.976   6.626
 8502SOL    HW226406   0.634   2.973   6.789
 8503SOL     OW26407   5.561   0.615   4.550
 8503SOL    HW126408   5.583   0.598   4.646
 8503SOL    HW226409   5.624   0.684   4.513
 8504SOL     OW26410   1.366   6.476   2.201
 8504SOL    HW126411   1.411   6.406   2.146
 8504SOL    HW226412   1.349   6.557   2.145
 8505SOL     OW26413   5.229   3.196   2.740
 8505SOL    HW126414   5.231   3.252   2.823
 8505SOL    HW226415   5.164   3.235   2.674
 8506SOL     OW26416   2.190   0.142   6.925
 8506SOL    HW126417   2.147   0.060   6.962
 8506SOL    HW226418   2.227   0.197   7.000
 8507SOL     OW26419   4.107   6.220   5.113
 8507SOL    HW126420   4.053   6.136   5.112
 8507SOL    HW226421   4.199   6.199   5.146
 8508SOL     OW26422   3.305   1.440   7.016
 8508SOL    HW126423   3.295   1.416   6.920
 8508SOL    HW226424   3.373   1.380   0.040
 8509SOL     OW26425   6.059   1.408   3.761
 8509SOL    HW126426   5.974   1.454   3.739
 8509SOL    HW226427   6.126   1.424   3.689
 8510SOL     OW26428   6.555   1.901   4.441
 8510SOL    HW126429   6.495   1.930   4.367
 8510SOL    HW226430   6.634   1.853   4.402
 8511SOL     OW26431   5.427   2.531   1.792
 8511SOL    HW126432   5.489   2.496   1.862
 8511SOL    HW226433   5.337   2.488   1.802
 8512SOL     OW26434   1.564   0.319   5.123
 8512SOL    HW126435   1.478   0.360   5.092
 8512SOL    HW226436   1.574   0.227   5.084
 8513SOL     OW26437   5.026   6.091   6.063
 8513SOL    HW126438   4.999   6.022   6.130
 8513SOL    HW226439   5.060   6.172   6.110
 8514SOL     OW26440   2.403   6.108   3.771
 8514SOL    HW126441   2.446   6.152   3.850
 8514SOL    HW226442   2.413   6.167   3.691
 8515SOL     OW26443   5.371   2.058   0.895
 8515SOL    HW126444   5.420   2.141   0.922
 8515SOL    HW226445   5.428   1.979   0.914
 8516SOL     OW26446   6.828   2.015   2.227
 8516SOL    HW126447   6.811   1.917   2.231
 8516SOL    HW226448   6.923   2.032   2.202
 8517SOL     OW26449   1.987   3.461   6.446
 8517SOL    HW126450   2.080   3.451   6.480
 8517SOL    HW226451   1.941   3.373   6.449
 8518SOL     OW26452   3.284   5.387   0.683
 8518SOL    HW126453   3.364   5.384   0.623
 8518SOL    HW226454   3.201   5.377   0.629
 8519SOL     OW26455   1.237   4.847   2.733
 8519SOL    HW126456   1.252   4.907   2.811
 8519SOL    HW226457   1.255   4.752   2.760
 8520SOL     OW26458   3.343   0.677   0.128
 8520SOL    HW126459   3.337   0.580   0.147
 8520SOL    HW226460   3.260   0.723   0.159
 8521SOL     OW26461   1.070   6.690   6.436
 8521SOL    HW126462   1.161   6.663   6.404
 8521SOL    HW226463   1.025   6.610   6.475
 8522SOL     OW26464   1.828   5.590   4.980
 8522SOL    HW126465   1.759   5.539   4.928
 8522SOL    HW226466   1.782   5.659   5.037
 8523SOL     OW26467   1.492   0.253   6.929
 8523SOL    HW126468   1.436   0.292   7.002
 8523SOL    HW226469   1.464   0.292   6.841
 8524SOL     OW26470   1.315   2.278   6.412
 8524SOL    HW126471   1.371   2.307   6.334
 8524SOL    HW226472   1.239   2.221   6.379
 8525SOL     OW26473   5.385   2.693   2.726
 8525SOL    HW126474   5.306   2.754   2.728
 8525SOL    HW226475   5.356   2.600   2.748
 8526SOL     OW26476   2.020   2.794   2.362
 8526SOL    HW126477   2.114   2.819   2.383
 8526SOL    HW226478   2.012   2.769   2.265
 8527SOL     OW26479   4.429   0.138   4.215
 8527SOL    HW126480   4.410   0.196   4.135
 8527SOL    HW226481   4.348   0.082   4.235
 8528SOL     OW26482   5.329   2.624   6.606
 8528SOL    HW126483   5.360   2.533   6.578
 8528SOL    HW226484   5.290   2.619   6.698
 8529SOL     OW26485   0.235   4.640   0.293
 8529SOL    HW126486   0.254   4.550   0.254
 8529SOL    HW226487   0.277   4.647   0.384
 8530SOL     OW26488   1.521   3.439   5.179
 8530SOL    HW126489   1.521   3.503   5.103
 8530SOL    HW226490   1.531   3.489   5.265
 8531SOL     OW26491   4.456   4.864   2.845
 8531SOL    HW126492   4.422   4.853   2.752
 8531SOL    HW226493   4.438   4.780   2.897
 8532SOL     OW26494   1.444   4.097   6.008
 8532SOL    HW126495   1.480   4.006   6.028
 8532SOL    HW226496   1.362   4.090   5.952
 8533SOL     OW26497   3.545   0.239   5.334
 8533SOL    HW126498   3.490   0.192   5.266
 8533SOL    HW226499   3.637   0.200   5.335
 8534SOL     OW26500   1.826   2.744   3.206
 8534SOL    HW126501   1.898   2.813   3.201
 8534SOL    HW226502   1.790   2.725   3.114
 8535SOL     OW26503   0.097   2.300   4.272
 8535SOL    HW126504   0.154   2.317   4.353
 8535SOL    HW226505   0.013   2.353   4.279
 8536SOL     OW26506   0.465   1.310   5.523
 8536SOL    HW126507   0.412   1.383   5.479
 8536SOL    HW226508   0.507   1.253   5.452
 8537SOL     OW26509   5.601   0.785   1.840
 8537SOL    HW126510   5.684   0.730   1.846
 8537SOL    HW226511   5.521   0.726   1.844
 8538SOL     OW26512   5.769   1.297   4.447
 8538SOL    HW126513   5.721   1.368   4.397
 8538SOL    HW226514   5.710   1.260   4.518
 8539SOL     OW26515   6.644   2.990   2.297
 8539SOL    HW126516   6.739   2.983   2.327
 8539SOL    HW226517   6.596   3.057   2.354
 8540SOL     OW26518   4.656   0.407   0.339
 8540SOL    HW126519   4.618   0.448   0.422
 8540SOL    HW226520   4.601   0.435   0.260
 8541SOL     OW26521   3.181   6.810   5.336
 8541SOL    HW126522   3.110   6.841   5.273
 8541SOL    HW226523   3.192   6.878   5.409
 8542SOL     OW26524   1.267   4.815   6.512
 8542SOL    HW126525   1.278   4.725   6.471
 8542SOL    HW226526   1.214   4.874   6.451
 8543SOL     OW26527   2.436   2.089   6.204
 8543SOL    HW126528   2.419   2.028   6.127
 8543SOL    HW226529   2.535   2.101   6.216
 8544SOL     OW26530   5.852   4.320   5.771
 8544SOL    HW126531   5.793   4.380   5.824
 8544SOL    HW226532   5.858   4.354   5.677
 8545SOL     OW26533   3.129   0.727   6.112
 8545SOL    HW126534   3.140   0.696   6.206
 8545SOL    HW226535   3.138   0.827   6.108
 8546SOL     OW26536   5.198   0.597   1.727
 8546SOL    HW126537   5.283   0.569   1.772
 8546SOL    HW226538   5.156   0.517   1.684
 8547SOL     OW26539   6.020   5.741   5.241
 8547SOL    HW126540   6.023   5.840   5.257
 8547SOL    HW226541   5.979   5.696   5.321
 8548SOL     OW26542   0.610   3.143   5.415
 8548SOL    HW126543   0.591   3.071   5.482
 8548SOL    HW226544   0.524   3.185   5.386
 8549SOL     OW26545   2.260   0.002   3.693
 8549SOL    HW126546   2.268   6.922   3.701
 8549SOL    HW226547   2.298   0.031   3.605
 8550SOL     OW26548   6.825   4.146   6.274
 8550SOL    HW126549   6.874   4.076   6.326
 8550SOL    HW226550   6.801   4.110   6.184
 8551SOL     OW26551   1.633   0.964   6.507
 8551SOL    HW126552   1.599   1.057   6.493
 8551SOL    HW226553   1.584   0.901   6.447
 8552SOL     OW26554   3.240   1.786   3.558
 8552SOL    HW126555   3.171   1.843   3.602
 8552SOL    HW226556   3.273   1.832   3.475
 8553SOL     OW26557   4.891   4.356   0.194
 8553SOL    HW126558   4.866   4.334   0.288
 8553SOL    HW226559   4.846   4.292   0.132
 8554SOL     OW26560   2.219   1.454   0.752
 8554SOL    HW126561   2.272   1.502   0.682
 8554SOL    HW226562   2.160   1.520   0.800
 8555SOL     OW26563   3.933   1.101   3.467
 8555SOL    HW126564   3.882   1.042   3.405
 8555SOL    HW226565   3.996   1.047   3.522
 8556SOL     OW26566   1.516   6.293   0.558
 8556SOL    HW126567   1.575   6.277   0.480
 8556SOL    HW226568   1.460   6.211   0.575
 8557SOL     OW26569   0.315   0.613   6.635
 8557SOL    HW126570   0.275   0.521   6.638
 8557SOL    HW226571   0.320   0.651   6.727
 8558SOL     OW26572   3.051   5.838   4.525
 8558SOL    HW126573   3.151   5.832   4.523
 8558SOL    HW226574   3.013   5.787   4.448
 8559SOL     OW26575   1.365   4.669   3.027
 8559SOL    HW126576   1.430   4.711   2.964
 8559SOL    HW226577   1.415   4.615   3.095
 8560SOL     OW26578   2.904   4.720   1.013
 8560SOL    HW126579   2.940   4.631   1.042
 8560SOL    HW226580   2.891   4.778   1.093
 8561SOL     OW26581   4.942   1.081   2.428
 8561SOL    HW126582   4.953   1.045   2.335
 8561SOL    HW226583   5.029   1.117   2.460
 8562SOL     OW26584   5.159   1.633   6.449
 8562SOL    HW126585   5.212   1.585   6.519
 8562SOL    HW226586   5.089   1.572   6.412
 8563SOL     OW26587   2.238   5.117   2.283
 8563SOL    HW126588   2.327   5.161   2.269
 8563SOL    HW226589   2.200   5.147   2.370
 8564SOL     OW26590   4.368   0.156   7.003
 8564SOL    HW126591   4.454   0.110   0.006
 8564SOL    HW226592   4.369   0.182   6.906
 8565SOL     OW26593   1.857   4.724   1.022
 8565SOL    HW126594   1.910   4.790   1.076
 8565SOL    HW226595   1.911   4.696   0.942
 8566SOL     OW26596   3.351   1.441   2.710
 8566SOL    HW126597   3.422   1.497   2.753
 8566SOL    HW226598   3.343   1.465   2.613
 8567SOL     OW26599   2.128   2.985   1.962
 8567SOL    HW126600   2.042   3.033   1.948
 8567SOL    HW226601   2.167   3.010   2.050
 8568SOL     OW26602   5.978   0.269   6.468
 8568SOL    HW126603   5.998   0.367   6.471
 8568SOL    HW226604   5.936   0.240   6.554
 8569SOL     OW26605   4.132   2.361   6.377
 8569SOL    HW126606   4.114   2.452   6.340
 8569SOL    HW226607   4.231   2.351   6.393
 8570SOL     OW26608   1.714   2.551   2.668
 8570SOL    HW126609   1.636   2.613   2.670
 8570SOL    HW226610   1.741   2.528   2.762
 8571SOL     OW26611   1.570   0.906   3.430
 8571SOL    HW126612   1.510   0.977   3.466
 8571SOL    HW226613   1.640   0.947   3.371
 8572SOL     OW26614   2.893   4.796   5.700
 8572SOL    HW126615   2.965   4.848   5.746
 8572SOL    HW226616   2.931   4.749   5.621
 8573SOL     OW26617   3.927   6.368   0.281
 8573SOL    HW126618   3.891   6.439   0.221
 8573SOL    HW226619   3.859   6.295   0.291
 8574SOL     OW26620   5.480   0.918   4.881
 8574SOL    HW126621   5.429   1.002   4.901
 8574SOL    HW226622   5.502   0.915   4.783
 8575SOL     OW26623   3.330   5.742   3.555
 8575SOL    HW126624   3.414   5.788   3.528
 8575SOL    HW226625   3.282   5.797   3.624
 8576SOL     OW26626   1.686   4.865   3.398
 8576SOL    HW126627   1.677   4.766   3.412
 8576SOL    HW226628   1.603   4.900   3.356
 8577SOL     OW26629   1.696   2.037   0.581
 8577SOL    HW126630   1.649   1.981   0.513
 8577SOL    HW226631   1.773   2.084   0.539
 8578SOL     OW26632   0.137   6.430   6.348
 8578SOL    HW126633   0.188   6.456   6.267
 8578SOL    HW226634   0.057   6.489   6.357
 8579SOL     OW26635   3.193   6.251   2.419
 8579SOL    HW126636   3.251   6.307   2.360
 8579SOL    HW226637   3.163   6.304   2.498
 8580SOL     OW26638   1.843   0.553   0.966
 8580SOL    HW126639   1.829   0.652   0.973
 8580SOL    HW226640   1.916   0.534   0.901
 8581SOL     OW26641   3.282   4.820   1.238
 8581SOL    HW126642   3.331   4.896   1.282
 8581SOL    HW226643   3.335   4.787   1.160
 8582SOL     OW26644   3.846   4.894   6.005
 8582SOL    HW126645   3.774   4.960   5.983
 8582SOL    HW226646   3.820   4.804   5.970
 8583SOL     OW26647   4.249   0.655   2.701
 8583SOL    HW126648   4.242   0.578   2.638
 8583SOL    HW226649   4.241   0.740   2.650
 8584SOL     OW26650   6.743   1.604   4.931
 8584SOL    HW126651   6.694   1.586   5.016
 8584SOL    HW226652   6.679   1.599   4.854
 8585SOL     OW26653   5.194   2.560   2.462
 8585SOL    HW126654   5.119   2.507   2.502
 8585SOL    HW226655   5.159   2.646   2.425
 8586SOL     OW26656   6.741   5.907   0.536
 8586SOL    HW126657   6.797   5.964   0.596
 8586SOL    HW226658   6.645   5.918   0.560
 8587SOL     OW26659   0.860   1.824   6.931
 8587SOL    HW126660   0.760   1.815   6.930
 8587SOL    HW226661   0.897   1.795   6.843
 8588SOL     OW26662   2.281   1.754   6.523
 8588SOL    HW126663   2.211   1.826   6.529
 8588SOL    HW226664   2.237   1.668   6.499
 8589SOL     OW26665   6.388   2.346   6.702
 8589SOL    HW126666   6.468   2.345   6.763
 8589SOL    HW226667   6.373   2.254   6.666
 8590SOL     OW26668   1.254   1.104   4.844
 8590SOL    HW126669   1.210   1.014   4.846
 8590SOL    HW226670   1.298   1.118   4.756
 8591SOL     OW26671   6.561   4.161   6.507
 8591SOL    HW126672   6.540   4.150   6.410
 8591SOL    HW226673   6.584   4.257   6.526
 8592SOL     OW26674   0.658   1.355   5.699
 8592SOL    HW126675   0.589   1.358   5.627
 8592SOL    HW226676   0.736   1.300   5.668
 8593SOL     OW26677   3.901   1.350   7.005
 8593SOL    HW126678   3.803   1.334   6.995
 8593SOL    HW226679   3.942   1.363   6.915
 8594SOL     OW26680   6.186   2.885   5.702
 8594SOL    HW126681   6.228   2.958   5.649
 8594SOL    HW226682   6.256   2.834   5.752
 8595SOL     OW26683   5.917   6.826   3.000
 8595SOL    HW126684   5.846   6.763   2.968
 8595SOL    HW226685   6.001   6.809   2.949
 8596SOL     OW26686   1.140   1.525   3.853
 8596SOL    HW126687   1.129   1.622   3.834
 8596SOL    HW226688   1.130   1.473   3.767
 8597SOL     OW26689   5.809   3.381   6.989
 8597SOL    HW126690   5.774   3.289   7.006
 8597SOL    HW226691   5.732   3.442   6.967
 8598SOL     OW26692   5.783   6.510   4.580
 8598SOL    HW126693   5.853   6.576   4.610
 8598SOL    HW226694   5.820   6.417   4.586
 8599SOL     OW26695   0.496   3.604   3.580
 8599SOL    HW126696   0.496   3.529   3.514
 8599SOL    HW226697   0.406   3.611   3.623
 8600SOL     OW26698   4.737   1.849   0.925
 8600SOL    HW126699   4.773   1.909   0.997
 8600SOL    HW226700   4.717   1.903   0.843
 8601SOL     OW26701   0.846   6.536   3.305
 8601SOL    HW126702   0.888   6.626   3.314
 8601SOL    HW226703   0.819   6.521   3.210
 8602SOL     OW26704   3.035   6.337   5.123
 8602SOL    HW126705   3.052   6.275   5.046
 8602SOL    HW226706   3.094   6.418   5.114
 8603SOL     OW26707   6.984   6.945   6.914
 8603SOL    HW126708   0.063   6.927   6.919
 8603SOL    HW226709   6.959   7.017   6.979
 8604SOL     OW26710   0.186   4.503   6.121
 8604SOL    HW126711   0.132   4.468   6.198
 8604SOL    HW226712   0.200   4.601   6.132
 8605SOL     OW26713   6.488   4.619   4.131
 8605SOL    HW126714   6.488   4.709   4.087
 8605SOL    HW226715   6.582   4.594   4.154
 8606SOL     OW26716   1.487   2.387   0.265
 8606SOL    HW126717   1.457   2.483   0.258
 8606SOL    HW226718   1.409   2.327   0.247
 8607SOL     OW26719   2.810   3.936   1.331
 8607SOL    HW126720   2.854   3.854   1.368
 8607SOL    HW226721   2.757   3.980   1.403
 8608SOL     OW26722   1.656   5.435   2.768
 8608SOL    HW126723   1.631   5.499   2.841
 8608SOL    HW226724   1.718   5.365   2.805
 8609SOL     OW26725   4.521   1.533   4.202
 8609SOL    HW126726   4.497   1.622   4.163
 8609SOL    HW226727   4.452   1.466   4.176
 8610SOL     OW26728   0.062   5.975   3.288
 8610SOL    HW126729   0.038   5.978   3.385
 8610SOL    HW226730   0.159   5.994   3.276
 8611SOL     OW26731   3.660   1.527   4.932
 8611SOL    HW126732   3.682   1.620   4.963
 8611SOL    HW226733   3.599   1.532   4.853
 8612SOL     OW26734   3.781   4.128   4.108
 8612SOL    HW126735   3.823   4.089   4.191
 8612SOL    HW226736   3.762   4.225   4.124
 8613SOL     OW26737   3.846   2.817   1.790
 8613SOL    HW126738   3.850   2.915   1.776
 8613SOL    HW226739   3.898   2.792   1.872
 8614SOL     OW26740   1.746   1.737   2.962
 8614SOL    HW126741   1.687   1.663   2.995
 8614SOL    HW226742   1.727   1.755   2.866
 8615SOL     OW26743   3.957   1.502   4.075
 8615SOL    HW126744   3.932   1.455   3.990
 8615SOL    HW226745   4.010   1.583   4.054
 8616SOL     OW26746   5.023   4.229   2.634
 8616SOL    HW126747   4.927   4.216   2.658
 8616SOL    HW226748   5.029   4.264   2.540
 8617SOL     OW26749   3.149   0.346   3.707
 8617SOL    HW126750   3.211   0.273   3.679
 8617SOL    HW226751   3.059   0.331   3.666
 8618SOL     OW26752   5.363   4.881   0.802
 8618SOL    HW126753   5.312   4.966   0.795
 8618SOL    HW226754   5.457   4.895   0.770
 8619SOL     OW26755   4.682   5.618   0.832
 8619SOL    HW126756   4.608   5.665   0.880
 8619SOL    HW226757   4.660   5.521   0.822
 8620SOL     OW26758   2.229   0.433   4.783
 8620SOL    HW126759   2.283   0.366   4.732
 8620SOL    HW226760   2.286   0.478   4.851
 8621SOL     OW26761   6.030   2.982   1.315
 8621SOL    HW126762   6.022   3.071   1.361
 8621SOL    HW226763   6.080   2.994   1.229
 8622SOL     OW26764   6.634   4.967   2.734
 8622SOL    HW126765   6.688   4.906   2.793
 8622SOL    HW226766   6.570   4.912   2.680
 8623SOL     OW26767   0.854   3.103   3.687
 8623SOL    HW126768   0.891   3.032   3.627
 8623SOL    HW226769   0.929   3.154   3.728
 8624SOL     OW26770   2.855   3.795   4.966
 8624SOL    HW126771   2.858   3.864   5.039
 8624SOL    HW226772   2.774   3.738   4.977
 8625SOL     OW26773   3.721   2.638   5.799
 8625SOL    HW126774   3.814   2.604   5.807
 8625SOL    HW226775   3.710   2.720   5.857
 8626SOL     OW26776   4.075   4.076   0.687
 8626SOL    HW126777   4.019   4.037   0.615
 8626SOL    HW226778   4.145   4.009   0.715
 8627SOL     OW26779   2.072   0.544   1.955
 8627SOL    HW126780   2.145   0.581   2.013
 8627SOL    HW226781   2.022   0.619   1.912
 8628SOL     OW26782   0.748   6.470   0.817
 8628SOL    HW126783   0.789   6.560   0.800
 8628SOL    HW226784   0.696   6.473   0.903
 8629SOL     OW26785   0.094   6.480   5.774
 8629SOL    HW126786   0.103   6.394   5.724
 8629SOL    HW226787   0.183   6.506   5.811
 8630SOL     OW26788   5.500   2.940   2.352
 8630SOL    HW126789   5.494   3.026   2.302
 8630SOL    HW226790   5.546   2.872   2.295
 8631SOL     OW26791   2.559   0.045   6.903
 8631SOL    HW126792   2.516   6.974   6.914
 8631SOL    HW226793   2.625   0.040   6.828
 8632SOL     OW26794   5.490   5.068   5.678
 8632SOL    HW126795   5.510   4.985   5.626
 8632SOL    HW226796   5.576   5.109   5.710
 8633SOL     OW26797   5.508   4.412   6.012
 8633SOL    HW126798   5.515   4.367   6.101
 8633SOL    HW226799   5.596   4.454   5.989
 8634SOL     OW26800   4.265   3.391   0.393
 8634SOL    HW126801   4.249   3.457   0.466
 8634SOL    HW226802   4.243   3.433   0.305
 8635SOL     OW26803   5.481   2.301   5.914
 8635SOL    HW126804   5.425   2.297   5.831
 8635SOL    HW226805   5.472   2.216   5.965
 8636SOL     OW26806   4.969   0.745   1.815
 8636SOL    HW126807   4.961   0.698   1.902
 8636SOL    HW226808   5.043   0.704   1.761
 8637SOL     OW26809   1.548   2.063   0.245
 8637SOL    HW126810   1.455   2.097   0.229
 8637SOL    HW226811   1.593   2.049   0.158
 8638SOL     OW26812   4.908   2.267   4.177
 8638SOL    HW126813   4.819   2.227   4.158
 8638SOL    HW226814   4.903   2.323   4.260
 8639SOL     OW26815   3.528   3.929   0.031
 8639SOL    HW126816   3.617   3.898   7.015
 8639SOL    HW226817   3.458   3.862   0.008
 8640SOL     OW26818   2.976   3.452   1.012
 8640SOL    HW126819   3.026   3.370   0.988
 8640SOL    HW226820   2.911   3.431   1.085
 8641SOL     OW26821   4.143   6.083   2.236
 8641SOL    HW126822   4.102   6.169   2.203
 8641SOL    HW226823   4.106   6.007   2.183
 8642SOL     OW26824   0.990   5.810   3.751
 8642SOL    HW126825   0.892   5.791   3.762
 8642SOL    HW226826   1.003   5.877   3.679
 8643SOL     OW26827   3.919   5.933   1.003
 8643SOL    HW126828   3.933   6.018   1.054
 8643SOL    HW226829   3.828   5.932   0.962
 8644SOL     OW26830   6.315   1.698   6.403
 8644SOL    HW126831   6.399   1.645   6.397
 8644SOL    HW226832   6.240   1.646   6.360
 8645SOL     OW26833   5.665   4.348   2.948
 8645SOL    HW126834   5.684   4.392   2.861
 8645SOL    HW226835   5.705   4.402   3.023
 8646SOL     OW26836   0.312   2.380   5.590
 8646SOL    HW126837   0.302   2.305   5.525
 8646SOL    HW226838   0.290   2.348   5.682
 8647SOL     OW26839   2.354   5.592   2.129
 8647SOL    HW126840   2.285   5.646   2.081
 8647SOL    HW226841   2.328   5.496   2.127
 8648SOL     OW26842   4.899   5.179   0.464
 8648SOL    HW126843   4.907   5.272   0.498
 8648SOL    HW226844   4.972   5.123   0.502
 8649SOL     OW26845   5.245   0.054   1.049
 8649SOL    HW126846   5.184   0.121   1.007
 8649SOL    HW226847   5.303   0.013   0.978
 8650SOL     OW26848   2.405   6.443   4.755
 8650SOL    HW126849   2.440   6.357   4.792
 8650SOL    HW226850   2.311   6.457   4.786
 8651SOL     OW26851   3.617   1.828   1.271
 8651SOL    HW126852   3.623   1.755   1.202
 8651SOL    HW226853   3.520   1.851   1.286
 8652SOL     OW26854   0.917   2.862   3.508
 8652SOL    HW126855   1.001   2.808   3.506
 8652SOL    HW226856   0.842   2.805   3.541
 8653SOL     OW26857   6.591   1.611   6.389
 8653SOL    HW126858   6.599   1.535   6.453
 8653SOL    HW226859   6.682   1.646   6.367
 8654SOL     OW26860   0.586   4.760   2.049
 8654SOL    HW126861   0.495   4.719   2.053
 8654SOL    HW226862   0.647   4.712   2.112
 8655SOL     OW26863   0.614   0.313   4.660
 8655SOL    HW126864   0.516   0.328   4.647
 8655SOL    HW226865   0.655   0.281   4.575
 8656SOL     OW26866   5.314   6.986   1.325
 8656SOL    HW126867   5.221   6.964   1.353
 8656SOL    HW226868   5.314   7.018   1.230
 8657SOL     OW26869   4.425   1.345   3.138
 8657SOL    HW126870   4.512   1.324   3.183
 8657SOL    HW226871   4.413   1.284   3.059
 8658SOL     OW26872   6.250   4.346   0.729
 8658SOL    HW126873   6.175   4.410   0.746
 8658SOL    HW226874   6.233   4.260   0.777
 8659SOL     OW26875   4.069   1.042   2.706
 8659SOL    HW126876   3.971   1.023   2.698
 8659SOL    HW226877   4.086   1.138   2.684
 8660SOL     OW26878   6.551   3.876   1.643
 8660SOL    HW126879   6.640   3.841   1.612
 8660SOL    HW226880   6.542   3.861   1.741
 8661SOL     OW26881   6.183   4.126   2.820
 8661SOL    HW126882   6.220   4.204   2.871
 8661SOL    HW226883   6.233   4.043   2.847
 8662SOL     OW26884   2.294   4.250   3.341
 8662SOL    HW126885   2.238   4.222   3.418
 8662SOL    HW226886   2.236   4.279   3.265
 8663SOL     OW26887   4.038   5.634   2.613
 8663SOL    HW126888   3.959   5.681   2.654
 8663SOL    HW226889   4.054   5.670   2.521
 8664SOL     OW26890   3.379   5.936   4.024
 8664SOL    HW126891   3.440   5.994   3.970
 8664SOL    HW226892   3.365   5.849   3.978
 8665SOL     OW26893   5.974   3.071   6.759
 8665SOL    HW126894   5.990   3.057   6.661
 8665SOL    HW226895   5.960   3.169   6.776
 8666SOL     OW26896   4.565   6.598   2.430
 8666SOL    HW126897   4.627   6.643   2.495
 8666SOL    HW226898   4.492   6.552   2.481
 8667SOL     OW26899   5.517   2.020   3.710
 8667SOL    HW126900   5.493   1.945   3.773
 8667SOL    HW226901   5.593   2.072   3.749
 8668SOL     OW26902   5.128   2.548   4.568
 8668SOL    HW126903   5.058   2.516   4.632
 8668SOL    HW226904   5.109   2.643   4.544
 8669SOL     OW26905   6.144   5.978   5.886
 8669SOL    HW126906   6.137   5.909   5.814
 8669SOL    HW226907   6.182   5.937   5.969
 8670SOL     OW26908   6.098   4.306   6.271
 8670SOL    HW126909   6.084   4.275   6.365
 8670SOL    HW226910   6.188   4.349   6.263
 8671SOL     OW26911   0.143   2.331   2.849
 8671SOL    HW126912   0.082   2.331   2.769
 8671SOL    HW226913   0.173   2.238   2.867
 8672SOL     OW26914   0.566   0.688   3.181
 8672SOL    HW126915   0.521   0.777   3.168
 8672SOL    HW226916   0.638   0.678   3.112
 8673SOL     OW26917   0.537   1.645   1.487
 8673SOL    HW126918   0.527   1.575   1.417
 8673SOL    HW226919   0.447   1.684   1.508
 8674SOL     OW26920   6.716   4.369   3.629
 8674SOL    HW126921   6.716   4.272   3.654
 8674SOL    HW226922   6.656   4.383   3.550
 8675SOL     OW26923   3.412   2.132   5.486
 8675SOL    HW126924   3.455   2.043   5.503
 8675SOL    HW226925   3.357   2.127   5.402
 8676SOL     OW26926   5.414   1.310   0.492
 8676SOL    HW126927   5.327   1.306   0.540
 8676SOL    HW226928   5.477   1.370   0.540
 8677SOL     OW26929   2.400   6.689   6.074
 8677SOL    HW126930   2.387   6.752   5.997
 8677SOL    HW226931   2.475   6.723   6.131
 8678SOL     OW26932   1.688   2.146   1.009
 8678SOL    HW126933   1.647   2.146   1.100
 8678SOL    HW226934   1.700   2.240   0.978
 8679SOL     OW26935   1.401   1.796   5.306
 8679SOL    HW126936   1.324   1.857   5.287
 8679SOL    HW226937   1.416   1.792   5.405
 8680SOL     OW26938   6.625   1.059   0.154
 8680SOL    HW126939   6.601   0.970   0.116
 8680SOL    HW226940   6.639   1.125   0.080
 8681SOL     OW26941   5.312   6.216   1.645
 8681SOL    HW126942   5.224   6.178   1.674
 8681SOL    HW226943   5.381   6.197   1.714
 8682SOL     OW26944   1.781   0.838   0.991
 8682SOL    HW126945   1.691   0.844   1.034
 8682SOL    HW226946   1.801   0.924   0.945
 8683SOL     OW26947   2.029   4.507   4.585
 8683SOL    HW126948   2.104   4.550   4.636
 8683SOL    HW226949   1.985   4.438   4.643
 8684SOL     OW26950   1.162   3.776   3.830
 8684SOL    HW126951   1.084   3.789   3.891
 8684SOL    HW226952   1.189   3.680   3.831
 8685SOL     OW26953   5.417   2.248   5.117
 8685SOL    HW126954   5.328   2.216   5.082
 8685SOL    HW226955   5.402   2.318   5.187
 8686SOL     OW26956   0.969   5.545   2.908
 8686SOL    HW126957   0.966   5.446   2.924
 8686SOL    HW226958   0.890   5.588   2.952
 8687SOL     OW26959   4.945   4.203   5.798
 8687SOL    HW126960   4.880   4.273   5.769
 8687SOL    HW226961   5.027   4.208   5.739
 8688SOL     OW26962   0.613   3.913   5.867
 8688SOL    HW126963   0.628   3.824   5.824
 8688SOL    HW226964   0.700   3.951   5.899
 8689SOL     OW26965   4.149   3.439   0.128
 8689SOL    HW126966   4.075   3.375   0.105
 8689SOL    HW226967   4.119   3.532   0.109
 8690SOL     OW26968   1.591   2.494   2.927
 8690SOL    HW126969   1.562   2.410   2.973
 8690SOL    HW226970   1.688   2.511   2.947
 8691SOL     OW26971   3.361   2.585   5.335
 8691SOL    HW126972   3.305   2.535   5.269
 8691SOL    HW226973   3.409   2.519   5.394
 8692SOL     OW26974   4.550   2.057   5.125
 8692SOL    HW126975   4.477   1.993   5.148
 8692SOL    HW226976   4.609   2.016   5.055
 8693SOL     OW26977   6.471   6.522   6.362
 8693SOL    HW126978   6.384   6.559   6.393
 8693SOL    HW226979   6.508   6.460   6.431
 8694SOL     OW26980   6.135   3.381   4.555
 8694SOL    HW126981   6.200   3.309   4.531
 8694SOL    HW226982   6.178   3.445   4.619
 8695SOL     OW26983   3.708   4.296   6.134
 8695SOL    HW126984   3.638   4.242   6.180
 8695SOL    HW226985   3.749   4.360   6.199
 8696SOL     OW26986   3.127   5.185   5.911
 8696SOL    HW126987   3.180   5.250   5.856
 8696SOL    HW226988   3.041   5.228   5.939
 8697SOL     OW26989   1.454   3.676   5.554
 8697SOL    HW126990   1.397   3.750   5.519
 8697SOL    HW226991   1.547   3.685   5.518
 8698SOL     OW26992   5.599   5.582   5.050
 8698SOL    HW126993   5.597   5.484   5.026
 8698SOL    HW226994   5.521   5.604   5.107
 8699SOL     OW26995   1.069   2.804   6.752
 8699SOL    HW126996   1.099   2.731   6.691
 8699SOL    HW226997   0.989   2.850   6.713
 8700SOL     OW26998   1.242   0.002   4.947
 8700SOL    HW126999   1.258   6.930   4.909
 8700SOL    HW227000   1.278   0.006   5.040
 8701SOL     OW27001   0.485   2.338   0.436
 8701SOL    HW127002   0.419   2.413   0.437
 8701SOL    HW227003   0.523   2.329   0.345
 8702SOL     OW27004   5.229   5.208   1.858
 8702SOL    HW127005   5.217   5.109   1.850
 8702SOL    HW227006   5.220   5.250   1.767
 8703SOL     OW27007   2.468   5.328   1.302
 8703SOL    HW127008   2.541   5.345   1.236
 8703SOL    HW227009   2.423   5.415   1.325
 8704SOL     OW27010   1.094   0.422   4.909
 8704SOL    HW127011   1.007   0.469   4.910
 8704SOL    HW227012   1.083   0.332   4.866
 8705SOL     OW27013   4.614   2.402   6.880
 8705SOL    HW127014   4.714   2.398   6.871
 8705SOL    HW227015   4.578   2.468   6.814
 8706SOL     OW27016   4.625   2.926   6.362
 8706SOL    HW127017   4.570   2.949   6.443
 8706SOL    HW227018   4.564   2.893   6.289
 8707SOL     OW27019   1.610   2.334   5.073
 8707SOL    HW127020   1.710   2.324   5.068
 8707SOL    HW227021   1.577   2.381   4.992
 8708SOL     OW27022   5.870   2.177   1.185
 8708SOL    HW127023   5.911   2.184   1.094
 8708SOL    HW227024   5.830   2.266   1.210
 8709SOL     OW27025   6.465   0.066   6.064
 8709SOL    HW127026   6.382   0.010   6.070
 8709SOL    HW227027   6.442   0.156   6.028
 8710SOL     OW27028   2.603   1.069   3.216
 8710SOL    HW127029   2.526   1.114   3.171
 8710SOL    HW227030   2.607   1.097   3.312
 8711SOL     OW27031   1.542   1.083   1.344
 8711SOL    HW127032   1.473   1.152   1.367
 8711SOL    HW227033   1.633   1.119   1.366
 8712SOL     OW27034   1.617   3.829   5.824
 8712SOL    HW127035   1.599   3.867   5.733
 8712SOL    HW227036   1.534   3.785   5.858
 8713SOL     OW27037   0.212   4.820   1.865
 8713SOL    HW127038   0.234   4.911   1.900
 8713SOL    HW227039   0.203   4.824   1.765
 8714SOL     OW27040   0.243   5.559   6.651
 8714SOL    HW127041   0.162   5.504   6.630
 8714SOL    HW227042   0.314   5.541   6.583
 8715SOL     OW27043   2.324   3.259   1.416
 8715SOL    HW127044   2.239   3.210   1.436
 8715SOL    HW227045   2.343   3.324   1.490
 8716SOL     OW27046   6.499   6.781   1.804
 8716SOL    HW127047   6.580   6.829   1.769
 8716SOL    HW227048   6.477   6.705   1.744
 8717SOL     OW27049   3.118   4.162   0.657
 8717SOL    HW127050   3.095   4.238   0.717
 8717SOL    HW227051   3.042   4.145   0.594
 8718SOL     OW27052   2.304   4.550   6.363
 8718SOL    HW127053   2.310   4.589   6.271
 8718SOL    HW227054   2.284   4.622   6.429
 8719SOL     OW27055   3.788   0.502   5.364
 8719SOL    HW127056   3.883   0.470   5.369
 8719SOL    HW227057   3.737   0.464   5.442
 8720SOL     OW27058   6.716   5.216   5.102
 8720SOL    HW127059   6.643   5.195   5.167
 8720SOL    HW227060   6.676   5.257   5.020
 8721SOL     OW27061   0.585   0.332   6.654
 8721SOL    HW127062   0.554   0.269   6.725
 8721SOL    HW227063   0.675   0.302   6.621
 8722SOL     OW27064   3.472   1.513   1.434
 8722SOL    HW127065   3.435   1.464   1.355
 8722SOL    HW227066   3.409   1.505   1.511
 8723SOL     OW27067   3.888   0.565   2.184
 8723SOL    HW127068   3.974   0.533   2.145
 8723SOL    HW227069   3.906   0.611   2.271
 8724SOL     OW27070   4.080   1.262   4.468
 8724SOL    HW127071   3.988   1.224   4.469
 8724SOL    HW227072   4.105   1.286   4.374
 8725SOL     OW27073   0.178   6.605   3.765
 8725SOL    HW127074   0.233   6.623   3.684
 8725SOL    HW227075   0.083   6.633   3.747
 8726SOL     OW27076   0.236   0.645   0.979
 8726SOL    HW127077   0.280   0.596   1.055
 8726SOL    HW227078   0.287   0.631   0.895
 8727SOL     OW27079   4.321   5.875   6.323
 8727SOL    HW127080   4.368   5.942   6.266
 8727SOL    HW227081   4.293   5.797   6.266
 8728SOL     OW27082   6.828   0.194   3.677
 8728SOL    HW127083   6.923   0.223   3.668
 8728SOL    HW227084   6.767   0.270   3.654
 8729SOL     OW27085   3.964   6.478   6.337
 8729SOL    HW127086   4.024   6.430   6.402
 8729SOL    HW227087   4.007   6.481   6.247
 8730SOL     OW27088   4.633   5.438   1.570
 8730SOL    HW127089   4.566   5.450   1.642
 8730SOL    HW227090   4.642   5.341   1.548
 8731SOL     OW27091   0.085   1.713   3.569
 8731SOL    HW127092   0.082   1.648   3.493
 8731SOL    HW227093   0.031   1.679   3.645
 8732SOL     OW27094   5.657   6.965   0.739
 8732SOL    HW127095   5.722   6.889   0.743
 8732SOL    HW227096   5.679   0.011   0.812
 8733SOL     OW27097   6.316   5.538   1.695
 8733SOL    HW127098   6.333   5.637   1.691
 8733SOL    HW227099   6.242   5.520   1.760
 8734SOL     OW27100   6.955   3.595   2.472
 8734SOL    HW127101   6.970   3.497   2.463
 8734SOL    HW227102   6.966   3.639   2.382
 8735SOL     OW27103   0.745   3.699   5.340
 8735SOL    HW127104   0.689   3.622   5.369
 8735SOL    HW227105   0.747   3.704   5.240
 8736SOL     OW27106   1.467   5.983   3.651
 8736SOL    HW127107   1.391   5.945   3.703
 8736SOL    HW227108   1.434   6.013   3.562
 8737SOL     OW27109   2.037   6.558   0.046
 8737SOL    HW127110   1.980   6.616   0.105
 8737SOL    HW227111   2.118   6.530   0.096
 8738SOL     OW27112   1.231   2.753   3.569
 8738SOL    HW127113   1.302   2.687   3.544
 8738SOL    HW227114   1.263   2.846   3.551
 8739SOL     OW27115   4.864   3.978   5.864
 8739SOL    HW127116   4.943   3.929   5.901
 8739SOL    HW227117   4.891   4.071   5.839
 8740SOL     OW27118   2.592   0.562   5.241
 8740SOL    HW127119   2.526   0.534   5.171
 8740SOL    HW227120   2.676   0.510   5.230
 8741SOL     OW27121   0.945   0.480   2.266
 8741SOL    HW127122   0.924   0.442   2.176
 8741SOL    HW227123   0.903   0.423   2.336
 8742SOL     OW27124   2.808   1.575   2.426
 8742SOL    HW127125   2.859   1.588   2.341
 8742SOL    HW227126   2.711   1.568   2.406
 8743SOL     OW27127   0.360   1.946   1.690
 8743SOL    HW127128   0.411   1.979   1.769
 8743SOL    HW227129   0.289   1.882   1.720
 8744SOL     OW27130   3.290   4.389   6.024
 8744SOL    HW127131   3.208   4.407   5.968
 8744SOL    HW227132   3.324   4.297   6.004
 8745SOL     OW27133   5.434   1.125   5.889
 8745SOL    HW127134   5.504   1.065   5.851
 8745SOL    HW227135   5.343   1.094   5.860
 8746SOL     OW27136   4.588   5.261   4.635
 8746SOL    HW127137   4.521   5.212   4.691
 8746SOL    HW227138   4.570   5.243   4.539
 8747SOL     OW27139   6.938   0.498   1.739
 8747SOL    HW127140   6.972   0.455   1.823
 8747SOL    HW227141   7.012   0.502   1.671
 8748SOL     OW27142   6.771   1.790   3.853
 8748SOL    HW127143   6.827   1.766   3.933
 8748SOL    HW227144   6.780   1.719   3.783
 8749SOL     OW27145   2.799   1.212   4.027
 8749SOL    HW127146   2.726   1.194   4.093
 8749SOL    HW227147   2.800   1.141   3.957
 8750SOL     OW27148   4.399   3.621   6.688
 8750SOL    HW127149   4.423   3.709   6.646
 8750SOL    HW227150   4.313   3.632   6.739
 8751SOL     OW27151   1.409   6.219   1.135
 8751SOL    HW127152   1.359   6.247   1.217
 8751SOL    HW227153   1.406   6.120   1.126
 8752SOL     OW27154   5.825   3.583   6.340
 8752SOL    HW127155   5.745   3.635   6.310
 8752SOL    HW227156   5.794   3.498   6.384
 8753SOL     OW27157   2.497   2.676   0.698
 8753SOL    HW127158   2.437   2.675   0.618
 8753SOL    HW227159   2.531   2.769   0.714
 8754SOL     OW27160   2.140   5.054   6.846
 8754SOL    HW127161   2.080   5.086   6.772
 8754SOL    HW227162   2.199   5.129   6.876
 8755SOL     OW27163   0.018   2.793   1.756
 8755SOL    HW127164   0.112   2.796   1.790
 8755SOL    HW227165   0.013   2.729   1.679
 8756SOL     OW27166   1.720   1.737   1.961
 8756SOL    HW127167   1.783   1.718   2.035
 8756SOL    HW227168   1.677   1.652   1.931
 8757SOL     OW27169   5.690   5.887   5.386
 8757SOL    HW127170   5.610   5.827   5.392
 8757SOL    HW227171   5.681   5.962   5.451
 8758SOL     OW27172   3.179   5.273   5.075
 8758SOL    HW127173   3.089   5.263   5.033
 8758SOL    HW227174   3.183   5.361   5.122
 8759SOL     OW27175   5.979   0.609   0.268
 8759SOL    HW127176   5.931   0.632   0.352
 8759SOL    HW227177   5.918   0.557   0.208
 8760SOL     OW27178   2.497   2.311   3.934
 8760SOL    HW127179   2.466   2.406   3.924
 8760SOL    HW227180   2.498   2.286   4.030
 8761SOL     OW27181   5.563   1.198   2.834
 8761SOL    HW127182   5.542   1.296   2.845
 8761SOL    HW227183   5.621   1.186   2.753
 8762SOL     OW27184   2.047   4.708   3.063
 8762SOL    HW127185   2.021   4.739   2.972
 8762SOL    HW227186   2.008   4.618   3.081
 8763SOL     OW27187   0.983   0.985   6.651
 8763SOL    HW127188   0.961   1.051   6.724
 8763SOL    HW227189   0.930   1.007   6.569
 8764SOL     OW27190   2.736   4.997   5.238
 8764SOL    HW127191   2.823   5.003   5.188
 8764SOL    HW227192   2.729   4.908   5.282
 8765SOL     OW27193   5.078   0.746   4.594
 8765SOL    HW127194   5.114   0.666   4.546
 8765SOL    HW227195   4.994   0.776   4.549
 8766SOL     OW27196   4.772   5.799   5.516
 8766SOL    HW127197   4.792   5.896   5.504
 8766SOL    HW227198   4.680   5.788   5.555
 8767SOL     OW27199   2.393   1.292   4.234
 8767SOL    HW127200   2.349   1.347   4.163
 8767SOL    HW227201   2.402   1.347   4.317
 8768SOL     OW27202   5.996   1.528   6.827
 8768SOL    HW127203   5.982   1.558   6.732
 8768SOL    HW227204   6.070   1.460   6.829
 8769SOL     OW27205   6.624   0.222   0.414
 8769SOL    HW127206   6.677   0.141   0.437
 8769SOL    HW227207   6.527   0.204   0.430
 8770SOL     OW27208   5.162   3.586   0.288
 8770SOL    HW127209   5.072   3.544   0.287
 8770SOL    HW227210   5.170   3.646   0.368
 8771SOL     OW27211   0.379   3.373   0.082
 8771SOL    HW127212   0.355   3.464   0.046
 8771SOL    HW227213   0.319   3.304   0.040
 8772SOL     OW27214   6.126   0.178   4.565
 8772SOL    HW127215   6.203   0.187   4.502
 8772SOL    HW227216   6.049   0.233   4.531
 8773SOL     OW27217   0.119   0.933   3.980
 8773SOL    HW127218   0.205   0.896   4.016
 8773SOL    HW227219   0.044   0.910   4.042
 8774SOL     OW27220   2.018   1.962   0.712
 8774SOL    HW127221   1.939   1.955   0.651
 8774SOL    HW227222   2.006   2.040   0.773
 8775SOL     OW27223   5.857   2.504   4.081
 8775SOL    HW127224   5.831   2.473   3.990
 8775SOL    HW227225   5.798   2.459   4.149
 8776SOL     OW27226   4.208   3.129   0.380
 8776SOL    HW127227   4.244   3.222   0.389
 8776SOL    HW227228   4.234   3.076   0.461
 8777SOL     OW27229   0.339   1.790   3.642
 8777SOL    HW127230   0.246   1.778   3.610
 8777SOL    HW227231   0.353   1.884   3.673
 8778SOL     OW27232   3.077   5.176   6.871
 8778SOL    HW127233   3.088   5.270   6.901
 8778SOL    HW227234   2.981   5.149   6.879
 8779SOL     OW27235   4.248   4.912   3.855
 8779SOL    HW127236   4.297   4.940   3.772
 8779SOL    HW227237   4.149   4.918   3.839
 8780SOL     OW27238   6.082   4.859   3.928
 8780SOL    HW127239   6.020   4.845   4.005
 8780SOL    HW227240   6.063   4.948   3.885
 8781SOL     OW27241   3.189   0.258   1.493
 8781SOL    HW127242   3.116   0.267   1.561
 8781SOL    HW227243   3.151   0.263   1.401
 8782SOL     OW27244   5.171   2.268   1.225
 8782SOL    HW127245   5.230   2.221   1.291
 8782SOL    HW227246   5.077   2.269   1.260
 8783SOL     OW27247   5.135   3.528   4.802
 8783SOL    HW127248   5.070   3.603   4.791
 8783SOL    HW227249   5.153   3.486   4.713
 8784SOL     OW27250   5.447   0.798   1.359
 8784SOL    HW127251   5.495   0.845   1.433
 8784SOL    HW227252   5.413   0.710   1.390
 8785SOL     OW27253   0.495   5.051   5.762
 8785SOL    HW127254   0.406   5.094   5.779
 8785SOL    HW227255   0.554   5.064   5.842
 8786SOL     OW27256   4.520   1.770   2.581
 8786SOL    HW127257   4.559   1.860   2.560
 8786SOL    HW227258   4.422   1.770   2.560
 8787SOL     OW27259   3.664   6.024   0.963
 8787SOL    HW127260   3.571   6.057   0.941
 8787SOL    HW227261   3.719   6.101   0.994
 8788SOL     OW27262   0.657   6.824   4.150
 8788SOL    HW127263   0.681   6.769   4.070
 8788SOL    HW227264   0.722   6.805   4.224
 8789SOL     OW27265   6.798   2.851   5.929
 8789SOL    HW127266   6.879   2.871   5.985
 8789SOL    HW227267   6.720   2.905   5.962
 8790SOL     OW27268   5.194   3.366   5.736
 8790SOL    HW127269   5.189   3.305   5.656
 8790SOL    HW227270   5.162   3.317   5.817
 8791SOL     OW27271   3.903   5.628   4.946
 8791SOL    HW127272   3.987   5.603   4.899
 8791SOL    HW227273   3.923   5.692   5.021
 8792SOL     OW27274   4.741   4.571   1.494
 8792SOL    HW127275   4.703   4.621   1.572
 8792SOL    HW227276   4.796   4.633   1.438
 8793SOL     OW27277   6.689   5.236   4.429
 8793SOL    HW127278   6.755   5.289   4.482
 8793SOL    HW227279   6.731   5.207   4.343
 8794SOL     OW27280   0.206   0.731   2.309
 8794SOL    HW127281   0.304   0.713   2.310
 8794SOL    HW227282   0.159   0.654   2.266
 8795SOL     OW27283   1.369   6.315   6.380
 8795SOL    HW127284   1.453   6.369   6.380
 8795SOL    HW227285   1.366   6.257   6.298
 8796SOL     OW27286   6.661   3.728   3.160
 8796SOL    HW127287   6.644   3.637   3.122
 8796SOL    HW227288   6.620   3.797   3.099
 8797SOL     OW27289   4.683   0.272   3.872
 8797SOL    HW127290   4.645   0.179   3.872
 8797SOL    HW227291   4.712   0.297   3.964
 8798SOL     OW27292   3.024   6.483   5.681
 8798SOL    HW127293   3.006   6.500   5.584
 8798SOL    HW227294   2.996   6.563   5.735
 8799SOL     OW27295   0.955   5.114   2.339
 8799SOL    HW127296   0.957   5.207   2.302
 8799SOL    HW227297   1.046   5.072   2.328
 8800SOL     OW27298   0.021   5.291   5.614
 8800SOL    HW127299   0.082   5.326   5.685
 8800SOL    HW227300   0.070   5.225   5.557
 8801SOL     OW27301   5.807   2.934   5.510
 8801SOL    HW127302   5.711   2.962   5.512
 8801SOL    HW227303   5.858   2.992   5.446
 8802SOL     OW27304   1.425   6.814   6.132
 8802SOL    HW127305   1.447   6.743   6.065
 8802SOL    HW227306   1.509   6.857   6.164
 8803SOL     OW27307   6.347   6.626   6.836
 8803SOL    HW127308   6.288   6.626   6.755
 8803SOL    HW227309   6.441   6.645   6.809
 8804SOL     OW27310   1.602   6.715   2.821
 8804SOL    HW127311   1.546   6.646   2.868
 8804SOL    HW227312   1.600   6.697   2.722
 8805SOL     OW27313   5.694   4.970   3.636
 8805SOL    HW127314   5.606   4.977   3.684
 8805SOL    HW227315   5.747   5.053   3.650
 8806SOL     OW27316   2.222   0.637   0.965
 8806SOL    HW127317   2.165   0.652   0.884
 8806SOL    HW227318   2.271   0.550   0.955
 8807SOL     OW27319   4.786   2.833   1.384
 8807SOL    HW127320   4.710   2.852   1.445
 8807SOL    HW227321   4.753   2.823   1.290
 8808SOL     OW27322   2.122   2.929   0.181
 8808SOL    HW127323   2.030   2.902   0.154
 8808SOL    HW227324   2.183   2.850   0.176
 8809SOL     OW27325   6.876   4.014   2.359
 8809SOL    HW127326   6.885   4.028   2.260
 8809SOL    HW227327   6.940   4.073   2.407
 8810SOL     OW27328   0.923   1.368   6.083
 8810SOL    HW127329   0.937   1.288   6.141
 8810SOL    HW227330   0.880   1.339   5.997
 8811SOL     OW27331   3.967   5.392   2.679
 8811SOL    HW127332   3.963   5.330   2.601
 8811SOL    HW227333   4.009   5.478   2.651
 8812SOL     OW27334   4.521   1.405   5.984
 8812SOL    HW127335   4.620   1.417   5.996
 8812SOL    HW227336   4.476   1.408   6.073
 8813SOL     OW27337   1.956   4.013   3.168
 8813SOL    HW127338   1.945   3.990   3.265
 8813SOL    HW227339   2.052   4.001   3.141
 8814SOL     OW27340   5.149   0.419   5.658
 8814SOL    HW127341   5.249   0.420   5.663
 8814SOL    HW227342   5.111   0.476   5.731
 8815SOL     OW27343   5.909   1.722   0.024
 8815SOL    HW127344   6.000   1.681   0.013
 8815SOL    HW227345   5.857   1.709   6.958
 8816SOL     OW27346   1.411   6.366   4.563
 8816SOL    HW127347   1.331   6.381   4.621
 8816SOL    HW227348   1.421   6.268   4.544
 8817SOL     OW27349   1.555   2.822   3.553
 8817SOL    HW127350   1.633   2.875   3.587
 8817SOL    HW227351   1.473   2.881   3.551
 8818SOL     OW27352   1.135   0.885   4.938
 8818SOL    HW127353   1.172   0.854   5.025
 8818SOL    HW227354   1.053   0.832   4.915
 8819SOL     OW27355   5.251   4.143   6.307
 8819SOL    HW127356   5.257   4.135   6.208
 8819SOL    HW227357   5.171   4.200   6.331
 8820SOL     OW27358   3.131   0.269   4.774
 8820SOL    HW127359   3.214   0.325   4.779
 8820SOL    HW227360   3.106   0.238   4.865
 8821SOL     OW27361   6.748   4.376   6.410
 8821SOL    HW127362   6.753   4.289   6.362
 8821SOL    HW227363   6.770   4.363   6.507
 8822SOL     OW27364   6.977   6.951   4.231
 8822SOL    HW127365   6.917   6.881   4.270
 8822SOL    HW227366   6.935   6.988   4.148
 8823SOL     OW27367   4.158   1.281   2.658
 8823SOL    HW127368   4.158   1.316   2.564
 8823SOL    HW227369   4.244   1.308   2.703
 8824SOL     OW27370   1.789   0.864   1.910
 8824SOL    HW127371   1.888   0.856   1.905
 8824SOL    HW227372   1.748   0.816   1.832
 8825SOL     OW27373   6.771   6.078   0.279
 8825SOL    HW127374   6.859   6.064   0.324
 8825SOL    HW227375   6.705   6.012   0.314
 8826SOL     OW27376   1.561   3.953   0.681
 8826SOL    HW127377   1.492   3.899   0.634
 8826SOL    HW227378   1.517   4.013   0.748
 8827SOL     OW27379   4.260   0.434   2.249
 8827SOL    HW127380   4.216   0.436   2.160
 8827SOL    HW227381   4.359   0.447   2.238
 8828SOL     OW27382   3.356   3.030   6.021
 8828SOL    HW127383   3.329   3.123   5.998
 8828SOL    HW227384   3.422   3.032   6.096
 8829SOL     OW27385   6.336   1.122   1.732
 8829SOL    HW127386   6.258   1.125   1.795
 8829SOL    HW227387   6.409   1.180   1.768
 8830SOL     OW27388   2.975   0.821   3.301
 8830SOL    HW127389   2.965   0.723   3.286
 8830SOL    HW227390   3.061   0.853   3.262
 8831SOL     OW27391   0.116   2.784   2.062
 8831SOL    HW127392   0.138   2.820   1.971
 8831SOL    HW227393   0.101   2.859   2.126
 8832SOL     OW27394   5.775   0.816   4.485
 8832SOL    HW127395   5.843   0.744   4.467
 8832SOL    HW227396   5.767   0.875   4.406
 8833SOL     OW27397   4.273   2.880   1.173
 8833SOL    HW127398   4.240   2.836   1.090
 8833SOL    HW227399   4.357   2.835   1.204
 8834SOL     OW27400   5.624   4.111   5.504
 8834SOL    HW127401   5.616   4.178   5.578
 8834SOL    HW227402   5.702   4.134   5.446
 8835SOL     OW27403   0.199   0.553   6.122
 8835SOL    HW127404   0.162   0.635   6.078
 8835SOL    HW227405   0.270   0.581   6.187
 8836SOL     OW27406   5.001   1.997   1.201
 8836SOL    HW127407   5.065   1.956   1.137
 8836SOL    HW227408   4.946   2.067   1.155
 8837SOL     OW27409   4.505   6.770   0.521
 8837SOL    HW127410   4.441   6.760   0.445
 8837SOL    HW227411   4.467   6.832   0.589
 8838SOL     OW27412   1.387   3.760   2.564
 8838SOL    HW127413   1.486   3.756   2.572
 8838SOL    HW227414   1.352   3.835   2.621
 8839SOL     OW27415   4.838   5.256   3.313
 8839SOL    HW127416   4.860   5.257   3.216
 8839SOL    HW227417   4.922   5.271   3.366
 8840SOL     OW27418   6.996   0.607   1.231
 8840SOL    HW127419   6.970   0.606   1.134
 8840SOL    HW227420   6.940   0.541   1.281
 8841SOL     OW27421   3.720   0.606   1.048
 8841SOL    HW127422   3.640   0.652   1.009
 8841SOL    HW227423   3.691   0.524   1.097
 8842SOL     OW27424   3.326   3.311   4.494
 8842SOL    HW127425   3.395   3.380   4.471
 8842SOL    HW227426   3.257   3.308   4.422
 8843SOL     OW27427   2.519   5.531   7.006
 8843SOL    HW127428   2.556   5.624   7.011
 8843SOL    HW227429   2.581   5.468   0.033
 8844SOL     OW27430   4.018   2.183   5.996
 8844SOL    HW127431   3.958   2.104   5.985
 8844SOL    HW227432   3.966   2.260   6.034
 8845SOL     OW27433   6.796   4.600   1.829
 8845SOL    HW127434   6.724   4.598   1.760
 8845SOL    HW227435   6.885   4.607   1.783
 8846SOL     OW27436   5.954   4.452   5.173
 8846SOL    HW127437   5.938   4.536   5.122
 8846SOL    HW227438   5.883   4.385   5.149
 8847SOL     OW27439   2.522   1.428   3.559
 8847SOL    HW127440   2.480   1.434   3.469
 8847SOL    HW227441   2.616   1.461   3.555
 8848SOL     OW27442   3.881   1.359   0.941
 8848SOL    HW127443   3.837   1.420   1.007
 8848SOL    HW227444   3.886   1.405   0.852
 8849SOL     OW27445   2.627   4.881   4.559
 8849SOL    HW127446   2.642   4.933   4.475
 8849SOL    HW227447   2.716   4.850   4.595
 8850SOL     OW27448   3.032   0.897   1.617
 8850SOL    HW127449   2.939   0.885   1.583
 8850SOL    HW227450   3.091   0.927   1.541
 8851SOL     OW27451   0.149   4.678   2.338
 8851SOL    HW127452   0.116   4.587   2.314
 8851SOL    HW227453   0.082   4.724   2.396
 8852SOL     OW27454   4.423   2.476   4.731
 8852SOL    HW127455   4.379   2.478   4.821
 8852SOL    HW227456   4.508   2.528   4.734
 8853SOL     OW27457   4.107   1.427   5.755
 8853SOL    HW127458   4.181   1.374   5.714
 8853SOL    HW227459   4.138   1.467   5.842
 8854SOL     OW27460   0.875   2.157   6.874
 8854SOL    HW127461   0.943   2.209   6.823
 8854SOL    HW227462   0.896   2.059   6.868
 8855SOL     OW27463   6.239   5.345   0.067
 8855SOL    HW127464   6.288   5.332   0.153
 8855SOL    HW227465   6.267   5.433   0.027
 8856SOL     OW27466   5.771   1.026   4.317
 8856SOL    HW127467   5.851   1.019   4.258
 8856SOL    HW227468   5.785   1.099   4.384
 8857SOL     OW27469   0.141   2.877   4.276
 8857SOL    HW127470   0.145   2.956   4.336
 8857SOL    HW227471   0.163   2.905   4.182
 8858SOL     OW27472   0.136   3.720   6.527
 8858SOL    HW127473   0.133   3.742   6.429
 8858SOL    HW227474   0.214   3.766   6.569
 8859SOL     OW27475   2.523   5.317   5.496
 8859SOL    HW127476   2.584   5.396   5.510
 8859SOL    HW227477   2.434   5.337   5.536
 8860SOL     OW27478   1.160   2.273   1.712
 8860SOL    HW127479   1.259   2.268   1.726
 8860SOL    HW227480   1.127   2.187   1.673
 8861SOL     OW27481   3.007   3.765   0.305
 8861SOL    HW127482   3.050   3.853   0.286
 8861SOL    HW227483   3.019   3.704   0.227
 8862SOL     OW27484   6.533   2.617   4.262
 8862SOL    HW127485   6.455   2.585   4.317
 8862SOL    HW227486   6.500   2.650   4.174
 8863SOL     OW27487   2.239   5.177   5.465
 8863SOL    HW127488   2.294   5.108   5.511
 8863SOL    HW227489   2.202   5.139   5.380
 8864SOL     OW27490   0.796   2.535   6.746
 8864SOL    HW127491   0.727   2.463   6.751
 8864SOL    HW227492   0.777   2.604   6.816
 8865SOL     OW27493   3.445   2.381   5.982
 8865SOL    HW127494   3.450   2.471   6.026
 8865SOL    HW227495   3.353   2.367   5.947
 8866SOL     OW27496   3.597   6.597   4.569
 8866SOL    HW127497   3.561   6.678   4.613
 8866SOL    HW227498   3.571   6.597   4.472
 8867SOL     OW27499   0.566   2.981   3.347
 8867SOL    HW127500   0.570   3.067   3.398
 8867SOL    HW227501   0.516   2.913   3.400
 8868SOL     OW27502   3.689   3.708   0.198
 8868SOL    HW127503   3.757   3.683   0.267
 8868SOL    HW227504   3.719   3.789   0.148
 8869SOL     OW27505   5.599   3.074   4.065
 8869SOL    HW127506   5.663   3.073   3.988
 8869SOL    HW227507   5.556   3.164   4.071
 8870SOL     OW27508   4.590   1.493   0.699
 8870SOL    HW127509   4.656   1.529   0.633
 8870SOL    HW227510   4.512   1.555   0.704
 8871SOL     OW27511   1.938   2.095   4.456
 8871SOL    HW127512   1.964   2.165   4.389
 8871SOL    HW227513   2.013   2.084   4.523
 8872SOL     OW27514   2.068   2.935   4.456
 8872SOL    HW127515   2.150   2.959   4.508
 8872SOL    HW227516   2.095   2.894   4.369
 8873SOL     OW27517   0.144   5.964   4.572
 8873SOL    HW127518   0.098   6.046   4.537
 8873SOL    HW227519   0.081   5.913   4.630
 8874SOL     OW27520   2.797   1.019   0.567
 8874SOL    HW127521   2.894   0.997   0.558
 8874SOL    HW227522   2.777   1.042   0.662
 8875SOL     OW27523   1.802   2.416   4.324
 8875SOL    HW127524   1.859   2.499   4.325
 8875SOL    HW227525   1.854   2.341   4.282
 8876SOL     OW27526   1.465   0.073   4.494
 8876SOL    HW127527   1.506   0.161   4.470
 8876SOL    HW227528   1.492   0.050   4.588
 8877SOL     OW27529   2.862   6.612   5.026
 8877SOL    HW127530   2.819   6.539   4.974
 8877SOL    HW227531   2.953   6.631   4.988
 8878SOL     OW27532   6.297   4.605   6.711
 8878SOL    HW127533   6.215   4.657   6.689
 8878SOL    HW227534   6.272   4.510   6.731
 8879SOL     OW27535   4.968   6.360   4.527
 8879SOL    HW127536   4.911   6.430   4.485
 8879SOL    HW227537   5.052   6.402   4.561
 8880SOL     OW27538   0.472   5.099   5.476
 8880SOL    HW127539   0.501   5.062   5.565
 8880SOL    HW227540   0.489   5.197   5.474
 8881SOL     OW27541   6.279   0.366   1.130
 8881SOL    HW127542   6.254   0.269   1.130
 8881SOL    HW227543   6.336   0.386   1.051
 8882SOL     OW27544   5.502   1.849   6.222
 8882SOL    HW127545   5.407   1.823   6.238
 8882SOL    HW227546   5.561   1.805   6.289
 8883SOL     OW27547   6.530   1.017   5.914
 8883SOL    HW127548   6.528   0.925   5.875
 8883SOL    HW227549   6.588   1.076   5.858
 8884SOL     OW27550   6.974   6.635   6.376
 8884SOL    HW127551   6.892   6.681   6.411
 8884SOL    HW227552   6.983   6.653   6.278
 8885SOL     OW27553   5.142   3.998   1.824
 8885SOL    HW127554   5.139   4.098   1.821
 8885SOL    HW227555   5.055   3.960   1.793
 8886SOL     OW27556   3.308   7.014   6.975
 8886SOL    HW127557   3.299   6.938   6.911
 8886SOL    HW227558   3.306   0.082   6.925
 8887SOL     OW27559   2.947   1.302   1.103
 8887SOL    HW127560   2.881   1.296   1.029
 8887SOL    HW227561   3.020   1.236   1.088
 8888SOL     OW27562   3.030   1.629   2.588
 8888SOL    HW127563   3.098   1.697   2.562
 8888SOL    HW227564   2.961   1.622   2.516
 8889SOL     OW27565   3.444   0.106   5.042
 8889SOL    HW127566   3.409   0.064   4.958
 8889SOL    HW227567   3.527   0.158   5.020
 8890SOL     OW27568   0.726   5.142   4.196
 8890SOL    HW127569   0.686   5.070   4.252
 8890SOL    HW227570   0.801   5.185   4.246
 8891SOL     OW27571   3.838   2.517   6.747
 8891SOL    HW127572   3.837   2.479   6.839
 8891SOL    HW227573   3.885   2.454   6.685
 8892SOL     OW27574   1.337   6.064   2.603
 8892SOL    HW127575   1.401   6.009   2.548
 8892SOL    HW227576   1.243   6.038   2.582
 8893SOL     OW27577   0.736   1.265   1.063
 8893SOL    HW127578   0.683   1.350   1.069
 8893SOL    HW227579   0.797   1.269   0.984
 8894SOL     OW27580   3.896   2.370   6.172
 8894SOL    HW127581   3.823   2.406   6.229
 8894SOL    HW227582   3.975   2.431   6.176
 8895SOL     OW27583   0.793   6.600   2.666
 8895SOL    HW127584   0.845   6.516   2.685
 8895SOL    HW227585   0.695   6.580   2.671
 8896SOL     OW27586   1.268   3.191   4.616
 8896SOL    HW127587   1.176   3.193   4.577
 8896SOL    HW227588   1.335   3.219   4.547
 8897SOL     OW27589   1.691   2.400   1.418
 8897SOL    HW127590   1.739   2.451   1.346
 8897SOL    HW227591   1.757   2.364   1.484
 8898SOL     OW27592   5.333   4.150   4.271
 8898SOL    HW127593   5.243   4.151   4.226
 8898SOL    HW227594   5.398   4.099   4.213
 8899SOL     OW27595   1.913   4.238   6.786
 8899SOL    HW127596   1.969   4.321   6.797
 8899SOL    HW227597   1.924   4.180   6.866
 8900SOL     OW27598   5.696   2.022   4.039
 8900SOL    HW127599   5.777   2.039   4.095
 8900SOL    HW227600   5.681   2.100   3.978
 8901SOL     OW27601   1.972   6.853   2.968
 8901SOL    HW127602   1.913   6.780   3.003
 8901SOL    HW227603   1.915   6.923   2.925
 8902SOL     OW27604   1.781   5.708   6.149
 8902SOL    HW127605   1.739   5.640   6.209
 8902SOL    HW227606   1.881   5.698   6.152
 8903SOL     OW27607   1.895   1.204   2.926
 8903SOL    HW127608   1.797   1.189   2.913
 8903SOL    HW227609   1.925   1.278   2.865
 8904SOL     OW27610   1.394   6.347   3.129
 8904SOL    HW127611   1.324   6.329   3.197
 8904SOL    HW227612   1.473   6.288   3.145
 8905SOL     OW27613   2.623   3.863   5.431
 8905SOL    HW127614   2.610   3.959   5.403
 8905SOL    HW227615   2.571   3.804   5.369
 8906SOL     OW27616   0.296   5.707   5.773
 8906SOL    HW127617   0.249   5.751   5.849
 8906SOL    HW227618   0.381   5.757   5.753
 8907SOL     OW27619   3.444   2.874   5.805
 8907SOL    HW127620   3.443   2.936   5.884
 8907SOL    HW227621   3.526   2.890   5.751
 8908SOL     OW27622   0.561   2.593   0.762
 8908SOL    HW127623   0.646   2.642   0.779
 8908SOL    HW227624   0.581   2.499   0.732
 8909SOL     OW27625   2.607   0.593   6.388
 8909SOL    HW127626   2.589   0.688   6.360
 8909SOL    HW227627   2.528   0.558   6.438
 8910SOL     OW27628   3.393   3.717   6.727
 8910SOL    HW127629   3.325   3.645   6.742
 8910SOL    HW227630   3.414   3.723   6.630
 8911SOL     OW27631   3.900   2.088   3.829
 8911SOL    HW127632   3.801   2.092   3.844
 8911SOL    HW227633   3.933   1.997   3.856
 8912SOL     OW27634   5.102   2.917   5.873
 8912SOL    HW127635   5.195   2.942   5.900
 8912SOL    HW227636   5.106   2.852   5.796
 8913SOL     OW27637   5.604   3.830   1.099
 8913SOL    HW127638   5.683   3.775   1.072
 8913SOL    HW227639   5.549   3.778   1.166
 8914SOL     OW27640   4.240   2.034   4.946
 8914SOL    HW127641   4.184   2.047   4.864
 8914SOL    HW227642   4.182   2.043   5.028
 8915SOL     OW27643   1.609   5.011   2.373
 8915SOL    HW127644   1.621   4.992   2.275
 8915SOL    HW227645   1.696   4.997   2.420
 8916SOL     OW27646   6.242   3.304   2.160
 8916SOL    HW127647   6.241   3.233   2.089
 8916SOL    HW227648   6.151   3.345   2.167
 8917SOL     OW27649   6.199   5.339   6.723
 8917SOL    HW127650   6.212   5.255   6.774
 8917SOL    HW227651   6.195   5.319   6.625
 8918SOL     OW27652   4.650   5.336   6.190
 8918SOL    HW127653   4.688   5.319   6.281
 8918SOL    HW227654   4.653   5.433   6.169
 8919SOL     OW27655   2.451   4.852   0.912
 8919SOL    HW127656   2.494   4.763   0.929
 8919SOL    HW227657   2.491   4.920   0.973
 8920SOL     OW27658   6.127   5.770   5.736
 8920SOL    HW127659   6.145   5.823   5.654
 8920SOL    HW227660   6.131   5.672   5.715
 8921SOL     OW27661   1.800   0.062   4.001
 8921SOL    HW127662   1.727   0.090   3.939
 8921SOL    HW227663   1.883   0.040   3.949
 8922SOL     OW27664   0.137   4.149   6.620
 8922SOL    HW127665   0.205   4.211   6.660
 8922SOL    HW227666   0.095   4.096   6.694
 8923SOL     OW27667   2.241   3.986   5.808
 8923SOL    HW127668   2.178   3.933   5.751
 8923SOL    HW227669   2.322   3.930   5.828
 8924SOL     OW27670   2.661   5.137   5.690
 8924SOL    HW127671   2.731   5.085   5.640
 8924SOL    HW227672   2.595   5.175   5.626
 8925SOL     OW27673   6.979   6.479   2.250
 8925SOL    HW127674   0.042   6.520   2.289
 8925SOL    HW227675   6.993   6.460   2.153
 8926SOL     OW27676   5.532   1.828   0.893
 8926SOL    HW127677   5.580   1.781   0.967
 8926SOL    HW227678   5.585   1.822   0.809
 8927SOL     OW27679   2.358   1.867   5.035
 8927SOL    HW127680   2.413   1.917   4.969
 8927SOL    HW227681   2.399   1.777   5.052
 8928SOL     OW27682   0.413   6.946   5.544
 8928SOL    HW127683   0.435   0.021   5.571
 8928SOL    HW227684   0.316   6.928   5.561
 8929SOL     OW27685   5.621   3.647   3.781
 8929SOL    HW127686   5.590   3.628   3.688
 8929SOL    HW227687   5.617   3.746   3.798
 8930SOL     OW27688   0.701   4.998   4.920
 8930SOL    HW127689   0.705   4.916   4.862
 8930SOL    HW227690   0.714   4.972   5.015
 8931SOL     OW27691   4.765   1.280   0.208
 8931SOL    HW127692   4.795   1.375   0.223
 8931SOL    HW227693   4.668   1.272   0.230
 8932SOL     OW27694   6.751   0.187   7.012
 8932SOL    HW127695   6.801   0.248   6.950
 8932SOL    HW227696   6.816   0.128   0.041
 8933SOL     OW27697   1.298   0.241   5.402
 8933SOL    HW127698   1.396   0.239   5.420
 8933SOL    HW227699   1.248   0.229   5.488
 8934SOL     OW27700   3.572   5.833   2.914
 8934SOL    HW127701   3.487   5.782   2.918
 8934SOL    HW227702   3.637   5.785   2.855
 8935SOL     OW27703   5.582   2.021   3.185
 8935SOL    HW127704   5.565   2.120   3.189
 8935SOL    HW227705   5.616   1.989   3.273
 8936SOL     OW27706   1.126   4.920   2.456
 8936SOL    HW127707   1.216   4.878   2.442
 8936SOL    HW227708   1.084   4.882   2.538
 8937SOL     OW27709   4.987   0.281   4.723
 8937SOL    HW127710   5.002   0.324   4.634
 8937SOL    HW227711   5.076   0.255   4.763
 8938SOL     OW27712   6.114   0.337   1.514
 8938SOL    HW127713   6.138   0.381   1.601
 8938SOL    HW227714   6.193   0.287   1.479
 8939SOL     OW27715   0.083   3.284   3.475
 8939SOL    HW127716   0.002   3.235   3.509
 8939SOL    HW227717   0.164   3.228   3.487
 8940SOL     OW27718   6.549   2.639   0.516
 8940SOL    HW127719   6.504   2.726   0.535
 8940SOL    HW227720   6.484   2.564   0.530
 8941SOL     OW27721   4.274   2.753   1.691
 8941SOL    HW127722   4.345   2.689   1.660
 8941SOL    HW227723   4.184   2.716   1.669
 8942SOL     OW27724   5.579   4.691   4.517
 8942SOL    HW127725   5.627   4.650   4.595
 8942SOL    HW227726   5.517   4.624   4.477
 8943SOL     OW27727   4.799   4.162   0.004
 8943SOL    HW127728   4.762   4.180   6.932
 8943SOL    HW227729   4.808   4.063   0.017
 8944SOL     OW27730   5.928   5.714   4.750
 8944SOL    HW127731   5.893   5.808   4.754
 8944SOL    HW227732   5.859   5.654   4.710
 8945SOL     OW27733   5.437   4.480   4.396
 8945SOL    HW127734   5.399   4.411   4.458
 8945SOL    HW227735   5.504   4.437   4.336
 8946SOL     OW27736   4.986   1.390   5.430
 8946SOL    HW127737   5.061   1.333   5.397
 8946SOL    HW227738   4.988   1.479   5.383
 8947SOL     OW27739   2.152   5.618   6.773
 8947SOL    HW127740   2.199   5.640   6.688
 8947SOL    HW227741   2.210   5.557   6.828
 8948SOL     OW27742   6.175   1.055   2.908
 8948SOL    HW127743   6.167   0.956   2.924
 8948SOL    HW227744   6.240   1.094   2.973
 8949SOL     OW27745   3.794   6.548   0.634
 8949SOL    HW127746   3.744   6.622   0.589
 8949SOL    HW227747   3.733   6.472   0.652
 8950SOL     OW27748   3.818   3.688   0.456
 8950SOL    HW127749   3.777   3.737   0.532
 8950SOL    HW227750   3.795   3.591   0.462
 8951SOL     OW27751   2.108   1.382   4.670
 8951SOL    HW127752   2.116   1.481   4.683
 8951SOL    HW227753   2.139   1.335   4.752
 8952SOL     OW27754   1.649   3.765   4.206
 8952SOL    HW127755   1.708   3.766   4.287
 8952SOL    HW227756   1.671   3.844   4.148
 8953SOL     OW27757   1.071   4.477   1.155
 8953SOL    HW127758   0.979   4.466   1.118
 8953SOL    HW227759   1.064   4.497   1.253
 8954SOL     OW27760   1.880   4.997   5.445
 8954SOL    HW127761   1.798   4.982   5.390
 8954SOL    HW227762   1.952   5.034   5.386
 8955SOL     OW27763   5.551   2.278   4.435
 8955SOL    HW127764   5.456   2.307   4.429
 8955SOL    HW227765   5.585   2.291   4.528
 8956SOL     OW27766   0.825   5.375   6.861
 8956SOL    HW127767   0.795   5.356   6.954
 8956SOL    HW227768   0.749   5.412   6.808
 8957SOL     OW27769   0.332   6.094   3.206
 8957SOL    HW127770   0.351   6.191   3.220
 8957SOL    HW227771   0.398   6.056   3.142
 8958SOL     OW27772   1.607   3.016   5.041
 8958SOL    HW127773   1.660   2.931   5.049
 8958SOL    HW227774   1.637   3.081   5.110
 8959SOL     OW27775   6.716   2.515   3.067
 8959SOL    HW127776   6.651   2.552   3.132
 8959SOL    HW227777   6.667   2.482   2.986
 8960SOL     OW27778   5.363   4.552   3.003
 8960SOL    HW127779   5.337   4.599   2.919
 8960SOL    HW227780   5.443   4.596   3.043
 8961SOL     OW27781   1.906   0.623   5.493
 8961SOL    HW127782   1.907   0.699   5.428
 8961SOL    HW227783   1.890   0.659   5.585
 8962SOL     OW27784   0.022   5.842   2.403
 8962SOL    HW127785   6.953   5.876   2.368
 8962SOL    HW227786   0.017   5.835   2.503
 8963SOL     OW27787   5.109   6.934   4.911
 8963SOL    HW127788   5.044   6.929   4.835
 8963SOL    HW227789   5.182   6.866   4.896
 8964SOL     OW27790   1.519   3.619   3.911
 8964SOL    HW127791   1.434   3.567   3.918
 8964SOL    HW227792   1.500   3.716   3.924
 8965SOL     OW27793   3.855   6.181   6.557
 8965SOL    HW127794   3.821   6.204   6.466
 8965SOL    HW227795   3.793   6.115   6.599
 8966SOL     OW27796   4.394   5.511   5.139
 8966SOL    HW127797   4.368   5.416   5.122
 8966SOL    HW227798   4.312   5.566   5.155
 8967SOL     OW27799   3.283   0.120   4.084
 8967SOL    HW127800   3.275   0.119   4.183
 8967SOL    HW227801   3.377   0.144   4.059
 8968SOL     OW27802   3.908   5.489   2.230
 8968SOL    HW127803   3.879   5.393   2.226
 8968SOL    HW227804   3.836   5.543   2.275
 8969SOL     OW27805   1.302   0.754   2.524
 8969SOL    HW127806   1.208   0.773   2.497
 8969SOL    HW227807   1.323   0.658   2.506
 8970SOL     OW27808   2.162   0.603   4.035
 8970SOL    HW127809   2.232   0.674   4.030
 8970SOL    HW227810   2.071   0.645   4.025
 8971SOL     OW27811   3.830   4.757   0.518
 8971SOL    HW127812   3.765   4.743   0.592
 8971SOL    HW227813   3.789   4.730   0.432
 8972SOL     OW27814   5.776   3.769   0.681
 8972SOL    HW127815   5.733   3.849   0.722
 8972SOL    HW227816   5.738   3.754   0.589
 8973SOL     OW27817   1.418   2.578   3.478
 8973SOL    HW127818   1.443   2.613   3.388
 8973SOL    HW227819   1.421   2.478   3.478
 8974SOL     OW27820   2.224   4.314   4.712
 8974SOL    HW127821   2.175   4.242   4.761
 8974SOL    HW227822   2.209   4.401   4.758
 8975SOL     OW27823   6.882   5.405   5.854
 8975SOL    HW127824   6.911   5.361   5.769
 8975SOL    HW227825   6.783   5.413   5.855
 8976SOL     OW27826   6.371   6.409   2.118
 8976SOL    HW127827   6.445   6.393   2.053
 8976SOL    HW227828   6.298   6.460   2.073
 8977SOL     OW27829   7.004   4.783   6.279
 8977SOL    HW127830   6.973   4.690   6.260
 8977SOL    HW227831   0.063   4.805   6.220
 8978SOL     OW27832   5.689   6.191   6.608
 8978SOL    HW127833   5.595   6.170   6.636
 8978SOL    HW227834   5.752   6.170   6.683
 8979SOL     OW27835   1.256   4.990   5.596
 8979SOL    HW127836   1.355   4.973   5.600
 8979SOL    HW227837   1.221   5.002   5.689
 8980SOL     OW27838   3.470   0.373   6.465
 8980SOL    HW127839   3.392   0.411   6.415
 8980SOL    HW227840   3.463   0.273   6.467
 8981SOL     OW27841   4.505   3.382   6.815
 8981SOL    HW127842   4.453   3.369   6.900
 8981SOL    HW227843   4.458   3.449   6.757
 8982SOL     OW27844   0.310   1.791   1.454
 8982SOL    HW127845   0.291   1.864   1.388
 8982SOL    HW227846   0.287   1.823   1.546
 8983SOL     OW27847   1.175   6.903   2.085
 8983SOL    HW127848   1.202   6.995   2.055
 8983SOL    HW227849   1.095   6.910   2.145
 8984SOL     OW27850   6.677   0.364   4.097
 8984SOL    HW127851   6.636   0.308   4.169
 8984SOL    HW227852   6.678   0.460   4.126
 8985SOL     OW27853   5.158   1.922   1.011
 8985SOL    HW127854   5.247   1.958   0.986
 8985SOL    HW227855   5.087   1.965   0.955
 8986SOL     OW27856   0.004   5.059   0.356
 8986SOL    HW127857   0.036   4.981   0.303
 8986SOL    HW227858   0.011   5.039   0.454
 8987SOL     OW27859   2.195   0.206   2.051
 8987SOL    HW127860   2.114   0.186   2.106
 8987SOL    HW227861   2.231   0.121   2.014
 8988SOL     OW27862   1.951   5.937   2.219
 8988SOL    HW127863   1.876   6.004   2.217
 8988SOL    HW227864   1.976   5.912   2.126
 8989SOL     OW27865   5.453   1.442   2.793
 8989SOL    HW127866   5.429   1.422   2.698
 8989SOL    HW227867   5.376   1.488   2.837
 8990SOL     OW27868   3.596   0.774   1.551
 8990SOL    HW127869   3.657   0.851   1.569
 8990SOL    HW227870   3.534   0.798   1.476
 8991SOL     OW27871   2.003   2.071   1.239
 8991SOL    HW127872   1.904   2.060   1.227
 8991SOL    HW227873   2.045   2.097   1.153
 8992SOL     OW27874   0.893   3.934   0.085
 8992SOL    HW127875   0.919   3.850   0.036
 8992SOL    HW227876   0.965   4.003   0.073
 8993SOL     OW27877   6.339   3.907   4.055
 8993SOL    HW127878   6.280   3.844   4.105
 8993SOL    HW227879   6.398   3.956   4.119
 8994SOL     OW27880   1.180   4.856   3.062
 8994SOL    HW127881   1.223   4.946   3.072
 8994SOL    HW227882   1.249   4.784   3.068
 8995SOL     OW27883   2.128   3.878   4.809
 8995SOL    HW127884   2.187   3.877   4.889
 8995SOL    HW227885   2.040   3.920   4.833
 8996SOL     OW27886   0.708   3.669   2.041
 8996SOL    HW127887   0.642   3.637   1.972
 8996SOL    HW227888   0.758   3.591   2.078
 8997SOL     OW27889   4.155   1.950   5.651
 8997SOL    HW127890   4.103   2.021   5.697
 8997SOL    HW227891   4.093   1.886   5.606
 8998SOL     OW27892   0.711   1.986   6.160
 8998SOL    HW127893   0.733   2.081   6.137
 8998SOL    HW227894   0.765   1.925   6.102
 8999SOL     OW27895   5.798   0.910   4.764
 8999SOL    HW127896   5.803   0.869   4.673
 8999SOL    HW227897   5.865   0.983   4.771
 9000SOL     OW27898   2.982   4.251   0.365
 9000SOL    HW127899   2.950   4.171   0.415
 9000SOL    HW227900   2.993   4.228   0.269
 9001SOL     OW27901   1.431   4.476   3.505
 9001SOL    HW127902   1.461   4.396   3.557
 9001SOL    HW227903   1.393   4.446   3.417
 9002SOL     OW27904   5.182   4.805   5.682
 9002SOL    HW127905   5.171   4.791   5.781
 9002SOL    HW227906   5.178   4.902   5.661
 9003SOL     OW27907   5.474   2.528   6.055
 9003SOL    HW127908   5.508   2.453   5.998
 9003SOL    HW227909   5.381   2.552   6.028
 9004SOL     OW27910   4.183   5.990   0.935
 9004SOL    HW127911   4.197   5.962   0.839
 9004SOL    HW227912   4.086   5.990   0.956
 9005SOL     OW27913   4.697   2.119   3.257
 9005SOL    HW127914   4.660   2.052   3.192
 9005SOL    HW227915   4.722   2.072   3.342
 9006SOL     OW27916   1.389   6.261   0.877
 9006SOL    HW127917   1.443   6.185   0.840
 9006SOL    HW227918   1.390   6.258   0.977
 9007SOL     OW27919   2.811   6.474   4.616
 9007SOL    HW127920   2.833   6.423   4.533
 9007SOL    HW227921   2.759   6.556   4.591
 9008SOL     OW27922   6.472   4.820   2.561
 9008SOL    HW127923   6.443   4.811   2.465
 9008SOL    HW227924   6.395   4.802   2.621
 9009SOL     OW27925   3.728   6.398   1.229
 9009SOL    HW127926   3.752   6.373   1.323
 9009SOL    HW227927   3.629   6.400   1.219
 9010SOL     OW27928   1.066   6.046   5.019
 9010SOL    HW127929   1.125   6.125   5.037
 9010SOL    HW227930   1.002   6.069   4.946
 9011SOL     OW27931   4.184   1.907   1.136
 9011SOL    HW127932   4.276   1.883   1.107
 9011SOL    HW227933   4.160   1.997   1.099
 9012SOL     OW27934   6.842   5.561   1.421
 9012SOL    HW127935   6.824   5.473   1.464
 9012SOL    HW227936   6.864   5.547   1.324
 9013SOL     OW27937   5.040   6.534   3.736
 9013SOL    HW127938   5.080   6.546   3.827
 9013SOL    HW227939   4.965   6.468   3.741
 9014SOL     OW27940   2.749   1.335   0.890
 9014SOL    HW127941   2.659   1.362   0.924
 9014SOL    HW227942   2.763   1.373   0.798
 9015SOL     OW27943   6.933   1.216   5.636
 9015SOL    HW127944   6.992   1.136   5.646
 9015SOL    HW227945   6.986   1.299   5.650
 9016SOL     OW27946   6.816   6.310   6.410
 9016SOL    HW127947   6.905   6.297   6.454
 9016SOL    HW227948   6.829   6.330   6.313
 9017SOL     OW27949   0.027   3.486   3.296
 9017SOL    HW127950   0.031   3.417   3.367
 9017SOL    HW227951   7.006   3.446   3.213
 9018SOL     OW27952   3.530   2.416   5.470
 9018SOL    HW127953   3.519   2.453   5.562
 9018SOL    HW227954   3.478   2.332   5.461
 9019SOL     OW27955   1.959   0.235   0.890
 9019SOL    HW127956   2.027   0.259   0.960
 9019SOL    HW227957   1.872   0.212   0.935
 9020SOL     OW27958   0.543   5.034   3.681
 9020SOL    HW127959   0.624   4.979   3.702
 9020SOL    HW227960   0.557   5.081   3.594
 9021SOL     OW27961   7.012   5.766   4.752
 9021SOL    HW127962   6.997   5.816   4.837
 9021SOL    HW227963   0.092   5.752   4.739
 9022SOL     OW27964   3.119   0.788   6.720
 9022SOL    HW127965   3.175   0.786   6.637
 9022SOL    HW227966   3.126   0.879   6.762
 9023SOL     OW27967   3.125   3.101   3.283
 9023SOL    HW127968   3.185   3.022   3.270
 9023SOL    HW227969   3.062   3.108   3.205
 9024SOL     OW27970   1.786   6.724   0.119
 9024SOL    HW127971   1.700   6.755   0.161
 9024SOL    HW227972   1.769   6.639   0.069
 9025SOL     OW27973   5.977   4.546   1.139
 9025SOL    HW127974   5.935   4.628   1.176
 9025SOL    HW227975   5.921   4.510   1.064
 9026SOL     OW27976   3.474   2.924   5.452
 9026SOL    HW127977   3.535   2.940   5.529
 9026SOL    HW227978   3.408   2.999   5.445
 9027SOL     OW27979   2.037   2.740   2.917
 9027SOL    HW127980   2.111   2.702   2.972
 9027SOL    HW227981   2.075   2.795   2.842
 9028SOL     OW27982   2.499   4.556   4.807
 9028SOL    HW127983   2.523   4.504   4.725
 9028SOL    HW227984   2.569   4.543   4.877
 9029SOL     OW27985   5.242   5.465   3.123
 9029SOL    HW127986   5.167   5.518   3.084
 9029SOL    HW227987   5.269   5.504   3.211
 9030SOL     OW27988   2.693   1.752   1.837
 9030SOL    HW127989   2.701   1.653   1.847
 9030SOL    HW227990   2.719   1.779   1.745
 9031SOL     OW27991   2.291   0.142   6.621
 9031SOL    HW127992   2.375   0.123   6.571
 9031SOL    HW227993   2.298   0.103   6.713
 9032SOL     OW27994   1.971   1.303   1.691
 9032SOL    HW127995   2.028   1.265   1.764
 9032SOL    HW227996   2.000   1.397   1.671
 9033SOL     OW27997   0.753   3.030   2.261
 9033SOL    HW127998   0.672   3.079   2.228
 9033SOL    HW227999   0.725   2.960   2.326
 9034SOL     OW28000   2.916   6.710   5.794
 9034SOL    HW128001   2.820   6.683   5.792
 9034SOL    HW228002   2.934   6.767   5.874
 9035SOL     OW28003   6.699   1.445   4.596
 9035SOL    HW128004   6.697   1.542   4.619
 9035SOL    HW228005   6.764   1.430   4.521
 9036SOL     OW28006   1.452   2.185   5.214
 9036SOL    HW128007   1.484   2.254   5.150
 9036SOL    HW228008   1.529   2.129   5.245
 9037SOL     OW28009   2.081   3.708   6.080
 9037SOL    HW128010   2.046   3.648   6.008
 9037SOL    HW228011   2.027   3.792   6.081
 9038SOL     OW28012   5.652   6.460   5.229
 9038SOL    HW128013   5.666   6.462   5.130
 9038SOL    HW228014   5.610   6.373   5.255
 9039SOL     OW28015   2.338   5.526   5.801
 9039SOL    HW128016   2.270   5.597   5.818
 9039SOL    HW228017   2.314   5.444   5.853
 9040SOL     OW28018   1.824   1.042   2.339
 9040SOL    HW128019   1.905   1.026   2.283
 9040SOL    HW228020   1.813   0.966   2.403
 9041SOL     OW28021   1.678   3.118   6.984
 9041SOL    HW128022   1.620   3.162   6.915
 9041SOL    HW228023   1.771   3.110   6.948
 9042SOL     OW28024   2.854   5.151   3.875
 9042SOL    HW128025   2.874   5.165   3.972
 9042SOL    HW228026   2.840   5.239   3.831
 9043SOL     OW28027   6.668   2.013   6.257
 9043SOL    HW128028   6.726   1.984   6.333
 9043SOL    HW228029   6.573   2.020   6.287
 9044SOL     OW28030   6.392   5.541   0.584
 9044SOL    HW128031   6.480   5.575   0.551
 9044SOL    HW228032   6.318   5.580   0.529
 9045SOL     OW28033   3.570   6.345   4.077
 9045SOL    HW128034   3.476   6.352   4.110
 9045SOL    HW228035   3.598   6.433   4.039
 9046SOL     OW28036   3.332   3.814   5.164
 9046SOL    HW128037   3.380   3.862   5.091
 9046SOL    HW228038   3.252   3.768   5.127
 9047SOL     OW28039   1.006   4.513   4.535
 9047SOL    HW128040   0.962   4.444   4.592
 9047SOL    HW228041   1.075   4.469   4.476
 9048SOL     OW28042   1.062   3.404   4.323
 9048SOL    HW128043   1.029   3.438   4.235
 9048SOL    HW228044   1.155   3.371   4.314
 9049SOL     OW28045   4.872   5.859   5.947
 9049SOL    HW128046   4.919   5.876   6.034
 9049SOL    HW228047   4.775   5.883   5.956
 9050SOL     OW28048   0.413   5.423   5.994
 9050SOL    HW128049   0.445   5.514   6.019
 9050SOL    HW228050   0.490   5.366   5.968
 9051SOL     OW28051   5.235   6.333   5.858
 9051SOL    HW128052   5.247   6.348   5.760
 9051SOL    HW228053   5.159   6.389   5.892
 9052SOL     OW28054   2.344   5.194   5.052
 9052SOL    HW128055   2.269   5.131   5.070
 9052SOL    HW228056   2.401   5.201   5.134
 9053SOL     OW28057   2.968   1.659   3.662
 9053SOL    HW128058   3.022   1.735   3.698
 9053SOL    HW228059   2.905   1.626   3.732
 9054SOL     OW28060   3.286   0.517   1.067
 9054SOL    HW128061   3.192   0.510   1.100
 9054SOL    HW228062   3.292   0.482   0.974
 9055SOL     OW28063   1.562   1.754   4.041
 9055SOL    HW128064   1.584   1.733   3.946
 9055SOL    HW228065   1.471   1.720   4.063
 9056SOL     OW28066   5.283   1.624   2.923
 9056SOL    HW128067   5.307   1.703   2.979
 9056SOL    HW228068   5.190   1.594   2.945
 9057SOL     OW28069   4.505   6.253   6.338
 9057SOL    HW128070   4.411   6.228   6.313
 9057SOL    HW228071   4.510   6.273   6.436
 9058SOL     OW28072   1.264   3.052   4.938
 9058SOL    HW128073   1.239   3.129   4.880
 9058SOL    HW228074   1.337   3.000   4.895
 9059SOL     OW28075   0.226   1.198   2.668
 9059SOL    HW128076   0.224   1.292   2.699
 9059SOL    HW228077   0.133   1.161   2.665
 9060SOL     OW28078   0.684   5.073   1.204
 9060SOL    HW128079   0.732   5.155   1.237
 9060SOL    HW228080   0.586   5.084   1.220
 9061SOL     OW28081   5.854   4.301   2.357
 9061SOL    HW128082   5.875   4.260   2.269
 9061SOL    HW228083   5.816   4.231   2.418
 9062SOL     OW28084   0.464   5.440   3.412
 9062SOL    HW128085   0.429   5.494   3.334
 9062SOL    HW228086   0.390   5.384   3.448
 9063SOL     OW28087   3.966   1.306   1.691
 9063SOL    HW128088   4.036   1.237   1.670
 9063SOL    HW228089   4.011   1.392   1.717
 9064SOL     OW28090   1.171   5.242   3.529
 9064SOL    HW128091   1.187   5.215   3.434
 9064SOL    HW228092   1.156   5.161   3.584
 9065SOL     OW28093   2.317   4.362   5.217
 9065SOL    HW128094   2.383   4.432   5.245
 9065SOL    HW228095   2.313   4.290   5.285
 9066SOL     OW28096   4.953   4.747   5.519
 9066SOL    HW128097   4.902   4.769   5.436
 9066SOL    HW228098   5.042   4.792   5.516
 9067SOL     OW28099   0.859   6.719   4.341
 9067SOL    HW128100   0.919   6.694   4.417
 9067SOL    HW228101   0.890   6.674   4.257
 9068SOL     OW28102   5.000   6.695   5.203
 9068SOL    HW128103   4.955   6.770   5.155
 9068SOL    HW228104   4.936   6.653   5.267
 9069SOL     OW28105   5.234   1.873   1.414
 9069SOL    HW128106   5.143   1.842   1.386
 9069SOL    HW228107   5.269   1.811   1.485
 9070SOL     OW28108   1.351   2.454   5.876
 9070SOL    HW128109   1.344   2.387   5.801
 9070SOL    HW228110   1.446   2.463   5.904
 9071SOL     OW28111   5.244   1.803   5.475
 9071SOL    HW128112   5.255   1.830   5.570
 9071SOL    HW228113   5.333   1.786   5.434
 9072SOL     OW28114   4.988   1.013   2.183
 9072SOL    HW128115   5.080   1.033   2.149
 9072SOL    HW228116   4.922   1.025   2.109
 9073SOL     OW28117   4.813   1.166   6.135
 9073SOL    HW128118   4.833   1.247   6.081
 9073SOL    HW228119   4.898   1.129   6.171
 9074SOL     OW28120   1.668   0.044   1.795
 9074SOL    HW128121   1.568   0.050   1.806
 9074SOL    HW228122   1.689   7.002   1.718
 9075SOL     OW28123   6.337   6.317   1.357
 9075SOL    HW128124   6.398   6.301   1.434
 9075SOL    HW228125   6.360   6.404   1.314
 9076SOL     OW28126   6.463   0.714   2.277
 9076SOL    HW128127   6.529   0.669   2.337
 9076SOL    HW228128   6.463   0.669   2.187
 9077SOL     OW28129   6.279   1.633   6.082
 9077SOL    HW128130   6.281   1.578   5.999
 9077SOL    HW228131   6.369   1.676   6.096
 9078SOL     OW28132   5.047   5.917   6.699
 9078SOL    HW128133   5.137   5.952   6.674
 9078SOL    HW228134   5.002   5.879   6.617
 9079SOL     OW28135   1.488   0.939   6.789
 9079SOL    HW128136   1.543   0.921   6.707
 9079SOL    HW228137   1.406   0.989   6.763
 9080SOL     OW28138   5.599   3.665   1.477
 9080SOL    HW128139   5.537   3.628   1.545
 9080SOL    HW228140   5.674   3.714   1.522
 9081SOL     OW28141   4.553   1.938   0.136
 9081SOL    HW128142   4.531   1.885   0.055
 9081SOL    HW228143   4.558   2.035   0.113
 9082SOL     OW28144   3.261   5.749   5.704
 9082SOL    HW128145   3.171   5.704   5.705
 9082SOL    HW228146   3.333   5.681   5.699
 9083SOL     OW28147   3.899   5.422   6.533
 9083SOL    HW128148   3.901   5.458   6.440
 9083SOL    HW228149   3.872   5.325   6.531
 9084SOL     OW28150   0.151   2.285   5.799
 9084SOL    HW128151   0.066   2.299   5.748
 9084SOL    HW228152   0.175   2.188   5.798
 9085SOL     OW28153   2.342   5.009   0.034
 9085SOL    HW128154   2.270   4.968   0.090
 9085SOL    HW228155   2.425   4.952   0.040
 9086SOL     OW28156   6.592   4.442   0.958
 9086SOL    HW128157   6.643   4.359   0.979
 9086SOL    HW228158   6.566   4.441   0.861
 9087SOL     OW28159   5.807   0.764   1.570
 9087SOL    HW128160   5.793   0.716   1.656
 9087SOL    HW228161   5.883   0.722   1.520
 9088SOL     OW28162   6.589   6.410   0.662
 9088SOL    HW128163   6.569   6.351   0.740
 9088SOL    HW228164   6.649   6.362   0.598
 9089SOL     OW28165   5.443   5.747   3.630
 9089SOL    HW128166   5.414   5.672   3.571
 9089SOL    HW228167   5.448   5.831   3.576
 9090SOL     OW28168   5.769   5.923   4.773
 9090SOL    HW128169   5.675   5.913   4.740
 9090SOL    HW228170   5.767   5.953   4.869
 9091SOL     OW28171   2.186   2.022   1.487
 9091SOL    HW128172   2.151   1.931   1.509
 9091SOL    HW228173   2.172   2.082   1.565
 9092SOL     OW28174   1.637   6.708   5.563
 9092SOL    HW128175   1.623   6.611   5.545
 9092SOL    HW228176   1.548   6.752   5.576
 9093SOL     OW28177   2.329   4.954   0.602
 9093SOL    HW128178   2.294   5.000   0.684
 9093SOL    HW228179   2.343   4.857   0.622
 9094SOL     OW28180   0.288   5.050   1.975
 9094SOL    HW128181   0.355   5.020   2.042
 9094SOL    HW228182   0.239   5.130   2.009
 9095SOL     OW28183   3.480   3.431   6.626
 9095SOL    HW128184   3.500   3.513   6.681
 9095SOL    HW228185   3.408   3.378   6.672
 9096SOL     OW28186   5.757   2.328   3.215
 9096SOL    HW128187   5.781   2.273   3.135
 9096SOL    HW228188   5.801   2.290   3.296
 9097SOL     OW28189   1.027   4.345   6.797
 9097SOL    HW128190   1.070   4.430   6.828
 9097SOL    HW228191   0.930   4.360   6.783
 9098SOL     OW28192   3.974   3.631   2.295
 9098SOL    HW128193   4.018   3.578   2.368
 9098SOL    HW228194   3.880   3.597   2.282
 9099SOL     OW28195   2.377   3.786   0.870
 9099SOL    HW128196   2.293   3.751   0.912
 9099SOL    HW228197   2.427   3.710   0.826
 9100SOL     OW28198   0.924   3.044   0.790
 9100SOL    HW128199   0.950   3.140   0.798
 9100SOL    HW228200   0.845   3.026   0.849
 9101SOL     OW28201   1.780   2.443   1.697
 9101SOL    HW128202   1.692   2.454   1.743
 9101SOL    HW228203   1.798   2.346   1.680
 9102SOL     OW28204   3.449   5.475   2.403
 9102SOL    HW128205   3.452   5.567   2.362
 9102SOL    HW228206   3.541   5.451   2.437
 9103SOL     OW28207   0.036   4.135   0.757
 9103SOL    HW128208   0.101   4.198   0.714
 9103SOL    HW228209   0.070   4.110   0.848
 9104SOL     OW28210   4.590   6.926   1.443
 9104SOL    HW128211   4.556   6.832   1.449
 9104SOL    HW228212   4.640   6.938   1.357
 9105SOL     OW28213   1.587   1.822   6.511
 9105SOL    HW128214   1.566   1.872   6.595
 9105SOL    HW228215   1.620   1.730   6.534
 9106SOL     OW28216   5.626   5.119   0.170
 9106SOL    HW128217   5.566   5.185   0.125
 9106SOL    HW228218   5.616   5.127   0.270
 9107SOL     OW28219   3.800   6.928   0.873
 9107SOL    HW128220   3.768   6.985   0.797
 9107SOL    HW228221   3.770   6.969   0.960
 9108SOL     OW28222   4.282   5.274   5.115
 9108SOL    HW128223   4.262   5.189   5.067
 9108SOL    HW228224   4.204   5.336   5.108
 9109SOL     OW28225   3.471   2.033   3.713
 9109SOL    HW128226   3.488   2.075   3.624
 9109SOL    HW228227   3.372   2.025   3.728
 9110SOL     OW28228   2.228   4.072   3.806
 9110SOL    HW128229   2.248   4.148   3.869
 9110SOL    HW228230   2.274   3.989   3.839
 9111SOL     OW28231   3.570   4.410   1.711
 9111SOL    HW128232   3.661   4.426   1.673
 9111SOL    HW228233   3.531   4.496   1.741
 9112SOL     OW28234   0.058   4.435   2.021
 9112SOL    HW128235   0.004   4.352   2.010
 9112SOL    HW228236   0.128   4.420   2.091
 9113SOL     OW28237   5.158   6.903   0.085
 9113SOL    HW128238   5.188   6.922   7.010
 9113SOL    HW228239   5.136   6.989   0.131
 9114SOL     OW28240   2.325   4.945   2.058
 9114SOL    HW128241   2.406   4.902   2.099
 9114SOL    HW228242   2.294   5.020   2.117
 9115SOL     OW28243   1.028   4.704   4.747
 9115SOL    HW128244   1.022   4.637   4.673
 9115SOL    HW228245   1.117   4.749   4.744
 9116SOL     OW28246   6.795   1.235   6.728
 9116SOL    HW128247   6.791   1.287   6.642
 9116SOL    HW228248   6.890   1.229   6.759
 9117SOL     OW28249   6.432   3.119   6.521
 9117SOL    HW128250   6.348   3.164   6.552
 9117SOL    HW228251   6.506   3.186   6.515
 9118SOL     OW28252   0.065   6.611   1.494
 9118SOL    HW128253   6.997   6.660   1.486
 9118SOL    HW228254   0.130   6.667   1.546
 9119SOL     OW28255   5.964   0.291   1.930
 9119SOL    HW128256   6.015   0.347   1.997
 9119SOL    HW228257   6.021   0.276   1.850
 9120SOL     OW28258   5.675   1.171   6.057
 9120SOL    HW128259   5.670   1.263   6.096
 9120SOL    HW228260   5.615   1.165   5.977
 9121SOL     OW28261   0.478   1.761   5.985
 9121SOL    HW128262   0.541   1.700   6.033
 9121SOL    HW228263   0.421   1.810   6.052
 9122SOL     OW28264   1.858   2.524   2.918
 9122SOL    HW128265   1.919   2.459   2.872
 9122SOL    HW228266   1.905   2.611   2.932
 9123SOL     OW28267   2.482   6.233   6.187
 9123SOL    HW128268   2.513   6.282   6.268
 9123SOL    HW228269   2.513   6.138   6.191
 9124SOL     OW28270   6.770   5.680   5.476
 9124SOL    HW128271   6.791   5.732   5.559
 9124SOL    HW228272   6.853   5.672   5.420
 9125SOL     OW28273   4.950   3.931   3.869
 9125SOL    HW128274   4.943   3.948   3.771
 9125SOL    HW228275   4.926   3.836   3.888
 9126SOL     OW28276   5.857   0.809   2.024
 9126SOL    HW128277   5.830   0.738   2.088
 9126SOL    HW228278   5.776   0.857   1.990
 9127SOL     OW28279   5.334   7.003   6.306
 9127SOL    HW128280   5.349   0.083   6.302
 9127SOL    HW228281   5.254   6.984   6.363
 9128SOL     OW28282   3.600   1.902   5.468
 9128SOL    HW128283   3.606   1.888   5.369
 9128SOL    HW228284   3.612   1.815   5.515
 9129SOL     OW28285   1.915   2.431   6.524
 9129SOL    HW128286   1.880   2.362   6.460
 9129SOL    HW228287   2.014   2.425   6.529
 9130SOL     OW28288   6.318   5.264   0.634
 9130SOL    HW128289   6.347   5.357   0.614
 9130SOL    HW228290   6.232   5.244   0.586
 9131SOL     OW28291   0.549   4.102   4.274
 9131SOL    HW128292   0.546   4.202   4.261
 9131SOL    HW228293   0.522   4.079   4.367
 9132SOL     OW28294   0.081   3.389   3.746
 9132SOL    HW128295   0.079   3.369   3.648
 9132SOL    HW228296   7.017   3.355   3.789
 9133SOL     OW28297   2.131   4.463   1.408
 9133SOL    HW128298   2.201   4.400   1.442
 9133SOL    HW228299   2.127   4.543   1.468
 9134SOL     OW28300   3.466   6.650   0.211
 9134SOL    HW128301   3.507   6.587   0.277
 9134SOL    HW228302   3.431   6.731   0.258
 9135SOL     OW28303   6.339   6.502   2.888
 9135SOL    HW128304   6.278   6.460   2.820
 9135SOL    HW228305   6.427   6.523   2.845
 9136SOL     OW28306   4.824   5.306   5.871
 9136SOL    HW128307   4.804   5.372   5.798
 9136SOL    HW228308   4.794   5.344   5.958
 9137SOL     OW28309   5.007   1.249   1.391
 9137SOL    HW128310   4.909   1.229   1.389
 9137SOL    HW228311   5.024   1.327   1.451
 9138SOL     OW28312   6.074   4.748   6.318
 9138SOL    HW128313   6.161   4.764   6.272
 9138SOL    HW228314   6.049   4.828   6.373
 9139SOL     OW28315   3.254   0.673   5.857
 9139SOL    HW128316   3.310   0.592   5.870
 9139SOL    HW228317   3.202   0.692   5.941
 9140SOL     OW28318   6.334   2.603   3.069
 9140SOL    HW128319   6.319   2.506   3.091
 9140SOL    HW228320   6.274   2.630   2.994
 9141SOL     OW28321   5.372   6.972   6.032
 9141SOL    HW128322   5.432   0.030   6.010
 9141SOL    HW228323   5.367   6.961   6.131
 9142SOL     OW28324   0.250   2.943   5.441
 9142SOL    HW128325   0.186   2.879   5.483
 9142SOL    HW228326   0.343   2.907   5.447
 9143SOL     OW28327   4.606   3.559   0.322
 9143SOL    HW128328   4.559   3.643   0.295
 9143SOL    HW228329   4.659   3.575   0.405
 9144SOL     OW28330   2.035   5.442   5.896
 9144SOL    HW128331   2.040   5.542   5.903
 9144SOL    HW228332   2.116   5.401   5.937
 9145SOL     OW28333   0.501   4.473   0.291
 9145SOL    HW128334   0.550   4.401   0.342
 9145SOL    HW228335   0.466   4.541   0.355
 9146SOL     OW28336   5.338   2.610   1.356
 9146SOL    HW128337   5.381   2.521   1.369
 9146SOL    HW228338   5.304   2.644   1.444
 9147SOL     OW28339   4.596   5.950   3.936
 9147SOL    HW128340   4.614   5.860   3.896
 9147SOL    HW228341   4.621   6.021   3.871
 9148SOL     OW28342   5.373   6.148   2.897
 9148SOL    HW128343   5.406   6.079   2.960
 9148SOL    HW228344   5.289   6.189   2.933
 9149SOL     OW28345   4.801   3.108   4.143
 9149SOL    HW128346   4.783   3.143   4.235
 9149SOL    HW228347   4.774   3.177   4.075
 9150SOL     OW28348   4.740   6.633   2.939
 9150SOL    HW128349   4.755   6.732   2.941
 9150SOL    HW228350   4.820   6.587   2.978
 9151SOL     OW28351   1.023   4.168   1.952
 9151SOL    HW128352   1.068   4.172   2.041
 9151SOL    HW228353   0.970   4.084   1.945
 9152SOL     OW28354   2.597   5.919   3.747
 9152SOL    HW128355   2.570   5.853   3.816
 9152SOL    HW228356   2.534   5.997   3.749
 9153SOL     OW28357   1.419   2.569   6.925
 9153SOL    HW128358   1.400   2.666   6.907
 9153SOL    HW228359   1.443   2.558   0.002
 9154SOL     OW28360   2.854   5.673   0.028
 9154SOL    HW128361   2.902   5.599   0.076
 9154SOL    HW228362   2.901   5.692   6.961
 9155SOL     OW28363   2.302   3.845   6.667
 9155SOL    HW128364   2.318   3.827   6.570
 9155SOL    HW228365   2.209   3.878   6.680
 9156SOL     OW28366   3.557   2.280   1.265
 9156SOL    HW128367   3.642   2.241   1.300
 9156SOL    HW228368   3.489   2.207   1.256
 9157SOL     OW28369   5.902   4.108   5.402
 9157SOL    HW128370   5.990   4.093   5.447
 9157SOL    HW228371   5.917   4.124   5.305
 9158SOL     OW28372   0.219   3.753   4.543
 9158SOL    HW128373   0.193   3.797   4.457
 9158SOL    HW228374   0.181   3.804   4.620
 9159SOL     OW28375   0.376   5.596   3.194
 9159SOL    HW128376   0.362   5.695   3.195
 9159SOL    HW228377   0.368   5.562   3.101
 9160SOL     OW28378   0.547   0.057   5.917
 9160SOL    HW128379   0.637   0.025   5.889
 9160SOL    HW228380   0.477   0.006   5.868
 9161SOL     OW28381   4.753   4.118   4.897
 9161SOL    HW128382   4.809   4.039   4.918
 9161SOL    HW228383   4.729   4.167   4.981
 9162SOL     OW28384   5.299   2.553   3.176
 9162SOL    HW128385   5.323   2.646   3.203
 9162SOL    HW228386   5.264   2.503   3.255
 9163SOL     OW28387   2.461   2.581   3.927
 9163SOL    HW128388   2.499   2.594   3.835
 9163SOL    HW228389   2.400   2.657   3.949
 9164SOL     OW28390   2.598   0.763   6.817
 9164SOL    HW128391   2.551   0.835   6.766
 9164SOL    HW228392   2.686   0.744   6.774
 9165SOL     OW28393   6.156   0.471   6.155
 9165SOL    HW128394   6.187   0.378   6.136
 9165SOL    HW228395   6.233   0.534   6.148
 9166SOL     OW28396   4.318   5.976   1.166
 9166SOL    HW128397   4.255   5.973   1.089
 9166SOL    HW228398   4.353   6.068   1.178
 9167SOL     OW28399   1.450   3.285   6.100
 9167SOL    HW128400   1.525   3.347   6.077
 9167SOL    HW228401   1.371   3.305   6.041
 9168SOL     OW28402   2.435   0.272   5.881
 9168SOL    HW128403   2.475   0.311   5.964
 9168SOL    HW228404   2.338   0.256   5.895
 9169SOL     OW28405   0.026   0.635   4.995
 9169SOL    HW128406   0.070   0.688   5.068
 9169SOL    HW228407   0.073   0.652   4.908
 9170SOL     OW28408   7.014   4.923   6.865
 9170SOL    HW128409   7.000   4.848   6.929
 9170SOL    HW228410   0.094   4.937   6.851
 9171SOL     OW28411   3.027   5.492   6.840
 9171SOL    HW128412   3.126   5.489   6.854
 9171SOL    HW228413   3.006   5.547   6.758
 9172SOL     OW28414   3.544   1.515   4.687
 9172SOL    HW128415   3.507   1.546   4.599
 9172SOL    HW228416   3.497   1.432   4.715
 9173SOL     OW28417   5.695   4.520   4.724
 9173SOL    HW128418   5.795   4.516   4.729
 9173SOL    HW228419   5.656   4.440   4.770
 9174SOL     OW28420   6.295   4.208   0.478
 9174SOL    HW128421   6.315   4.130   0.538
 9174SOL    HW228422   6.254   4.282   0.532
 9175SOL     OW28423   2.501   6.309   5.653
 9175SOL    HW128424   2.540   6.242   5.716
 9175SOL    HW228425   2.570   6.378   5.630
 9176SOL     OW28426   1.588   1.013   5.561
 9176SOL    HW128427   1.665   1.045   5.507
 9176SOL    HW228428   1.578   0.914   5.550
 9177SOL     OW28429   1.216   4.021   4.194
 9177SOL    HW128430   1.271   3.958   4.248
 9177SOL    HW228431   1.272   4.058   4.119
 9178SOL     OW28432   2.154   5.054   0.811
 9178SOL    HW128433   2.092   5.121   0.850
 9178SOL    HW228434   2.159   4.974   0.872
 9179SOL     OW28435   2.403   5.302   4.131
 9179SOL    HW128436   2.418   5.207   4.106
 9179SOL    HW228437   2.312   5.331   4.101
 9180SOL     OW28438   6.235   2.533   3.802
 9180SOL    HW128439   6.308   2.574   3.748
 9180SOL    HW228440   6.148   2.541   3.753
 9181SOL     OW28441   4.560   2.485   2.820
 9181SOL    HW128442   4.513   2.488   2.732
 9181SOL    HW228443   4.492   2.475   2.893
 9182SOL     OW28444   2.536   6.709   2.147
 9182SOL    HW128445   2.462   6.672   2.090
 9182SOL    HW228446   2.556   6.803   2.118
 9183SOL     OW28447   5.185   6.250   0.472
 9183SOL    HW128448   5.099   6.239   0.523
 9183SOL    HW228449   5.262   6.232   0.533
 9184SOL     OW28450   5.192   0.533   0.532
 9184SOL    HW128451   5.188   0.621   0.580
 9184SOL    HW228452   5.103   0.487   0.540
 9185SOL     OW28453   4.074   0.213   5.536
 9185SOL    HW128454   4.007   0.141   5.555
 9185SOL    HW228455   4.140   0.218   5.611
 9186SOL     OW28456   6.540   0.602   4.391
 9186SOL    HW128457   6.502   0.573   4.478
 9186SOL    HW228458   6.516   0.698   4.375
 9187SOL     OW28459   2.081   6.937   1.634
 9187SOL    HW128460   2.052   7.001   1.562
 9187SOL    HW228461   2.169   6.967   1.670
 9188SOL     OW28462   2.246   6.200   1.164
 9188SOL    HW128463   2.342   6.195   1.137
 9188SOL    HW228464   2.217   6.296   1.164
 9189SOL     OW28465   5.523   5.918   2.961
 9189SOL    HW128466   5.612   5.917   3.005
 9189SOL    HW228467   5.474   5.834   2.983
 9190SOL     OW28468   1.996   5.711   0.139
 9190SOL    HW128469   1.930   5.704   0.064
 9190SOL    HW228470   2.089   5.719   0.101
 9191SOL     OW28471   6.409   0.618   4.906
 9191SOL    HW128472   6.349   0.562   4.964
 9191SOL    HW228473   6.398   0.714   4.931
 9192SOL     OW28474   0.323   4.317   4.528
 9192SOL    HW128475   0.282   4.258   4.598
 9192SOL    HW228476   0.300   4.413   4.549
 9193SOL     OW28477   4.125   3.707   0.045
 9193SOL    HW128478   4.222   3.713   0.019
 9193SOL    HW228479   4.069   3.700   6.981
 9194SOL     OW28480   3.488   0.789   3.702
 9194SOL    HW128481   3.422   0.724   3.740
 9194SOL    HW228482   3.469   0.881   3.738
 9195SOL     OW28483   1.976   2.229   4.220
 9195SOL    HW128484   1.956   2.133   4.203
 9195SOL    HW228485   2.039   2.263   4.150
 9196SOL     OW28486   4.297   1.311   4.965
 9196SOL    HW128487   4.304   1.396   4.913
 9196SOL    HW228488   4.376   1.304   5.027
 9197SOL     OW28489   1.892   4.154   1.588
 9197SOL    HW128490   1.894   4.071   1.643
 9197SOL    HW228491   1.938   4.137   1.500
 9198SOL     OW28492   6.554   5.240   5.501
 9198SOL    HW128493   6.501   5.214   5.582
 9198SOL    HW228494   6.496   5.235   5.420
 9199SOL     OW28495   0.443   3.503   6.226
 9199SOL    HW128496   0.511   3.560   6.178
 9199SOL    HW228497   0.449   3.520   6.324
 9200SOL     OW28498   2.039   0.110   1.198
 9200SOL    HW128499   2.062   0.019   1.165
 9200SOL    HW228500   2.080   0.179   1.139
 9201SOL     OW28501   0.722   3.256   0.158
 9201SOL    HW128502   0.638   3.207   0.135
 9201SOL    HW228503   0.723   3.276   0.256
 9202SOL     OW28504   2.356   6.199   3.224
 9202SOL    HW128505   2.291   6.153   3.164
 9202SOL    HW228506   2.447   6.194   3.183
 9203SOL     OW28507   6.882   5.151   6.963
 9203SOL    HW128508   6.948   5.082   6.933
 9203SOL    HW228509   6.916   5.242   6.938
 9204SOL     OW28510   4.892   2.021   6.748
 9204SOL    HW128511   4.955   1.969   6.691
 9204SOL    HW228512   4.935   2.107   6.777
 9205SOL     OW28513   6.820   4.177   2.839
 9205SOL    HW128514   6.838   4.266   2.797
 9205SOL    HW228515   6.830   4.105   2.771
 9206SOL     OW28516   3.495   5.518   1.117
 9206SOL    HW128517   3.434   5.522   1.038
 9206SOL    HW228518   3.555   5.598   1.117
 9207SOL     OW28519   4.358   5.176   0.107
 9207SOL    HW128520   4.358   5.276   0.107
 9207SOL    HW228521   4.442   5.143   0.151
 9208SOL     OW28522   5.993   4.065   4.449
 9208SOL    HW128523   6.013   4.158   4.418
 9208SOL    HW228524   6.059   4.002   4.408
 9209SOL     OW28525   2.656   1.337   0.233
 9209SOL    HW128526   2.734   1.336   0.296
 9209SOL    HW228527   2.672   1.272   0.159
 9210SOL     OW28528   6.318   1.576   2.925
 9210SOL    HW128529   6.234   1.574   2.870
 9210SOL    HW228530   6.397   1.564   2.865
 9211SOL     OW28531   0.209   2.804   3.833
 9211SOL    HW128532   0.154   2.747   3.772
 9211SOL    HW228533   0.287   2.750   3.867
 9212SOL     OW28534   3.649   5.155   4.376
 9212SOL    HW128535   3.606   5.105   4.452
 9212SOL    HW228536   3.742   5.179   4.401
 9213SOL     OW28537   5.948   3.091   5.347
 9213SOL    HW128538   5.915   3.183   5.329
 9213SOL    HW228539   6.047   3.092   5.355
 9214SOL     OW28540   6.636   5.300   6.052
 9214SOL    HW128541   6.540   5.312   6.076
 9214SOL    HW228542   6.693   5.350   6.116
 9215SOL     OW28543   0.748   1.798   0.588
 9215SOL    HW128544   0.748   1.709   0.635
 9215SOL    HW228545   0.810   1.861   0.635
 9216SOL     OW28546   2.853   0.129   3.332
 9216SOL    HW128547   2.762   0.158   3.305
 9216SOL    HW228548   2.920   0.165   3.267
 9217SOL     OW28549   0.484   0.923   6.232
 9217SOL    HW128550   0.480   0.856   6.159
 9217SOL    HW228551   0.444   0.885   6.315
 9218SOL     OW28552   3.546   6.480   0.391
 9218SOL    HW128553   3.471   6.456   0.452
 9218SOL    HW228554   3.560   6.407   0.324
 9219SOL     OW28555   0.789   2.802   0.479
 9219SOL    HW128556   0.764   2.747   0.399
 9219SOL    HW228557   0.888   2.803   0.488
 9220SOL     OW28558   3.136   6.708   1.358
 9220SOL    HW128559   3.117   6.805   1.368
 9220SOL    HW228560   3.078   6.670   1.284
 9221SOL     OW28561   3.539   0.487   3.983
 9221SOL    HW128562   3.603   0.421   4.023
 9221SOL    HW228563   3.574   0.580   3.998
 9222SOL     OW28564   2.476   0.968   6.671
 9222SOL    HW128565   2.449   1.027   6.748
 9222SOL    HW228566   2.569   0.991   6.643
 9223SOL     OW28567   1.566   2.477   4.825
 9223SOL    HW128568   1.601   2.500   4.734
 9223SOL    HW228569   1.472   2.510   4.835
 9224SOL     OW28570   2.586   5.604   4.148
 9224SOL    HW128571   2.542   5.605   4.238
 9224SOL    HW228572   2.629   5.515   4.133
 9225SOL     OW28573   3.271   6.707   6.534
 9225SOL    HW128574   3.356   6.663   6.562
 9225SOL    HW228575   3.271   6.720   6.435
 9226SOL     OW28576   4.885   6.185   1.498
 9226SOL    HW128577   4.795   6.143   1.507
 9226SOL    HW228578   4.935   6.174   1.584
 9227SOL     OW28579   1.135   5.095   3.292
 9227SOL    HW128580   1.045   5.053   3.306
 9227SOL    HW228581   1.152   5.105   3.194
 9228SOL     OW28582   1.326   0.811   6.056
 9228SOL    HW128583   1.282   0.892   6.095
 9228SOL    HW228584   1.325   0.737   6.124
 9229SOL     OW28585   1.708   5.366   4.629
 9229SOL    HW128586   1.774   5.322   4.690
 9229SOL    HW228587   1.633   5.303   4.610
 9230SOL     OW28588   5.570   0.243   2.871
 9230SOL    HW128589   5.563   0.148   2.901
 9230SOL    HW228590   5.655   0.256   2.819
 9231SOL     OW28591   1.838   3.049   4.398
 9231SOL    HW128592   1.933   3.023   4.415
 9231SOL    HW228593   1.832   3.149   4.391
 9232SOL     OW28594   3.714   5.067   0.486
 9232SOL    HW128595   3.682   5.075   0.392
 9232SOL    HW228596   3.751   4.975   0.501
 9233SOL     OW28597   5.722   5.516   1.539
 9233SOL    HW128598   5.723   5.612   1.511
 9233SOL    HW228599   5.816   5.482   1.543
 9234SOL     OW28600   2.950   5.653   3.761
 9234SOL    HW128601   2.964   5.638   3.663
 9234SOL    HW228602   2.903   5.741   3.774
 9235SOL     OW28603   1.968   1.861   3.014
 9235SOL    HW128604   1.885   1.808   2.998
 9235SOL    HW228605   1.979   1.929   2.942
 9236SOL     OW28606   3.510   4.198   5.452
 9236SOL    HW128607   3.572   4.251   5.511
 9236SOL    HW228608   3.563   4.134   5.397
 9237SOL     OW28609   1.496   4.422   4.516
 9237SOL    HW128610   1.513   4.372   4.431
 9237SOL    HW228611   1.461   4.360   4.586
 9238SOL     OW28612   4.419   2.758   6.271
 9238SOL    HW128613   4.434   2.697   6.193
 9238SOL    HW228614   4.334   2.811   6.256
 9239SOL     OW28615   0.093   4.004   1.024
 9239SOL    HW128616   0.178   3.971   1.064
 9239SOL    HW228617   0.029   3.928   1.014
 9240SOL     OW28618   5.602   1.744   0.616
 9240SOL    HW128619   5.524   1.775   0.561
 9240SOL    HW228620   5.627   1.651   0.588
 9241SOL     OW28621   6.776   5.316   6.684
 9241SOL    HW128622   6.792   5.233   6.631
 9241SOL    HW228623   6.856   5.335   6.741
 9242SOL     OW28624   0.200   5.881   1.217
 9242SOL    HW128625   0.189   5.794   1.265
 9242SOL    HW228626   0.134   5.947   1.253
 9243SOL     OW28627   6.938   5.529   3.706
 9243SOL    HW128628   6.972   5.534   3.612
 9243SOL    HW228629   6.907   5.436   3.725
 9244SOL     OW28630   4.338   5.901   6.601
 9244SOL    HW128631   4.388   5.985   6.624
 9244SOL    HW228632   4.339   5.888   6.502
 9245SOL     OW28633   1.548   5.443   2.462
 9245SOL    HW128634   1.644   5.436   2.486
 9245SOL    HW228635   1.524   5.369   2.400
 9246SOL     OW28636   6.616   4.973   3.916
 9246SOL    HW128637   6.519   4.953   3.926
 9246SOL    HW228638   6.634   5.006   3.823
 9247SOL     OW28639   1.047   0.749   2.777
 9247SOL    HW128640   1.009   0.798   2.855
 9247SOL    HW228641   1.141   0.721   2.797
 9248SOL     OW28642   3.024   2.589   5.757
 9248SOL    HW128643   3.011   2.683   5.727
 9248SOL    HW228644   3.027   2.528   5.677
 9249SOL     OW28645   5.474   1.963   5.126
 9249SOL    HW128646   5.471   1.989   5.030
 9249SOL    HW228647   5.403   2.013   5.176
 9250SOL     OW28648   4.844   3.903   4.317
 9250SOL    HW128649   4.849   3.810   4.353
 9250SOL    HW228650   4.768   3.911   4.254
 9251SOL     OW28651   3.957   1.323   3.072
 9251SOL    HW128652   3.911   1.410   3.060
 9251SOL    HW228653   3.980   1.284   2.982
 9252SOL     OW28654   6.969   0.127   4.622
 9252SOL    HW128655   6.938   0.066   4.695
 9252SOL    HW228656   0.049   0.139   4.629
 9253SOL     OW28657   2.995   6.002   6.270
 9253SOL    HW128658   3.006   5.906   6.296
 9253SOL    HW228659   2.908   6.036   6.305
 9254SOL     OW28660   5.816   3.679   1.051
 9254SOL    HW128661   5.862   3.619   0.986
 9254SOL    HW228662   5.846   3.655   1.144
 9255SOL     OW28663   5.014   2.849   0.133
 9255SOL    HW128664   4.975   2.757   0.139
 9255SOL    HW228665   5.061   2.860   0.046
 9256SOL     OW28666   4.137   4.780   2.744
 9256SOL    HW128667   4.165   4.827   2.827
 9256SOL    HW228668   4.037   4.775   2.740
 9257SOL     OW28669   1.050   3.592   2.301
 9257SOL    HW128670   1.040   3.690   2.280
 9257SOL    HW228671   1.117   3.552   2.239
 9258SOL     OW28672   3.661   3.478   3.997
 9258SOL    HW128673   3.748   3.522   4.022
 9258SOL    HW228674   3.646   3.400   4.058
 9259SOL     OW28675   0.857   2.492   1.178
 9259SOL    HW128676   0.917   2.450   1.246
 9259SOL    HW228677   0.775   2.436   1.167
 9260SOL     OW28678   4.682   2.460   5.266
 9260SOL    HW128679   4.766   2.410   5.286
 9260SOL    HW228680   4.706   2.550   5.227
 9261SOL     OW28681   4.226   0.325   6.539
 9261SOL    HW128682   4.170   0.341   6.621
 9261SOL    HW228683   4.173   0.275   6.471
 9262SOL     OW28684   5.773   1.901   6.072
 9262SOL    HW128685   5.695   1.909   6.133
 9262SOL    HW228686   5.745   1.855   5.987
 9263SOL     OW28687   5.565   4.262   1.515
 9263SOL    HW128688   5.569   4.288   1.418
 9263SOL    HW228689   5.479   4.214   1.533
 9264SOL     OW28690   6.602   3.607   0.478
 9264SOL    HW128691   6.660   3.550   0.420
 9264SOL    HW228692   6.546   3.667   0.421
 9265SOL     OW28693   2.919   1.808   0.705
 9265SOL    HW128694   2.874   1.827   0.792
 9265SOL    HW228695   2.997   1.869   0.693
 9266SOL     OW28696   2.755   6.154   2.989
 9266SOL    HW128697   2.833   6.135   2.930
 9266SOL    HW228698   2.770   6.115   3.079
 9267SOL     OW28699   0.460   3.701   4.027
 9267SOL    HW128700   0.483   3.724   4.122
 9267SOL    HW228701   0.460   3.602   4.016
 9268SOL     OW28702   0.654   6.608   3.045
 9268SOL    HW128703   0.749   6.611   3.015
 9268SOL    HW228704   0.619   6.515   3.036
 9269SOL     OW28705   2.864   2.485   0.197
 9269SOL    HW128706   2.906   2.573   0.215
 9269SOL    HW228707   2.893   2.419   0.266
 9270SOL     OW28708   6.267   6.852   5.197
 9270SOL    HW128709   6.295   6.874   5.104
 9270SOL    HW228710   6.347   6.832   5.253
 9271SOL     OW28711   1.888   6.212   1.234
 9271SOL    HW128712   1.801   6.220   1.282
 9271SOL    HW228713   1.913   6.301   1.196
 9272SOL     OW28714   3.004   4.408   5.947
 9272SOL    HW128715   2.946   4.489   5.951
 9272SOL    HW228716   3.003   4.371   5.853
 9273SOL     OW28717   4.556   5.604   3.503
 9273SOL    HW128718   4.500   5.665   3.447
 9273SOL    HW228719   4.651   5.633   3.500
 9274SOL     OW28720   5.456   2.572   0.067
 9274SOL    HW128721   5.418   2.604   0.153
 9274SOL    HW228722   5.553   2.549   0.079
 9275SOL     OW28723   1.125   1.427   6.861
 9275SOL    HW128724   1.104   1.470   6.949
 9275SOL    HW228725   1.215   1.384   6.866
 9276SOL     OW28726   2.981   5.074   4.441
 9276SOL    HW128727   3.035   5.106   4.363
 9276SOL    HW228728   3.020   4.988   4.475
 9277SOL     OW28729   3.397   3.294   0.018
 9277SOL    HW128730   3.403   3.391   0.042
 9277SOL    HW228731   3.464   3.242   0.071
 9278SOL     OW28732   1.209   1.906   4.152
 9278SOL    HW128733   1.146   1.965   4.101
 9278SOL    HW228734   1.279   1.963   4.195
 9279SOL     OW28735   4.132   0.429   1.994
 9279SOL    HW128736   4.110   0.348   1.939
 9279SOL    HW228737   4.161   0.503   1.934
 9280SOL     OW28738   1.263   0.168   3.893
 9280SOL    HW128739   1.305   0.248   3.937
 9280SOL    HW228740   1.311   0.085   3.920
 9281SOL     OW28741   2.501   3.067   0.970
 9281SOL    HW128742   2.413   3.114   0.960
 9281SOL    HW228743   2.503   3.021   1.059
 9282SOL     OW28744   4.822   1.951   4.612
 9282SOL    HW128745   4.865   2.041   4.615
 9282SOL    HW228746   4.805   1.924   4.517
 9283SOL     OW28747   6.007   1.946   3.036
 9283SOL    HW128748   5.982   1.950   3.133
 9283SOL    HW228749   6.038   2.036   3.006
 9284SOL     OW28750   4.083   4.649   0.465
 9284SOL    HW128751   4.082   4.584   0.389
 9284SOL    HW228752   3.993   4.691   0.473
 9285SOL     OW28753   6.449   3.348   6.767
 9285SOL    HW128754   6.376   3.340   6.700
 9285SOL    HW228755   6.470   3.258   6.805
 9286SOL     OW28756   5.532   6.544   5.675
 9286SOL    HW128757   5.483   6.575   5.757
 9286SOL    HW228758   5.606   6.607   5.654
 9287SOL     OW28759   2.941   5.505   1.510
 9287SOL    HW128760   3.015   5.444   1.484
 9287SOL    HW228761   2.973   5.600   1.508
 9288SOL     OW28762   4.505   1.154   5.915
 9288SOL    HW128763   4.527   1.250   5.929
 9288SOL    HW228764   4.539   1.124   5.826
 9289SOL     OW28765   4.987   2.414   2.529
 9289SOL    HW128766   4.986   2.315   2.542
 9289SOL    HW228767   4.894   2.447   2.518
 9290SOL     OW28768   4.163   1.831   5.311
 9290SOL    HW128769   4.123   1.813   5.401
 9290SOL    HW228770   4.129   1.762   5.246
 9291SOL     OW28771   1.819   0.476   5.104
 9291SOL    HW128772   1.818   0.575   5.087
 9291SOL    HW228773   1.727   0.440   5.095
 9292SOL     OW28774   0.139   3.249   6.320
 9292SOL    HW128775   0.111   3.287   6.408
 9292SOL    HW228776   0.193   3.316   6.270
 9293SOL     OW28777   4.883   4.556   1.105
 9293SOL    HW128778   4.910   4.641   1.059
 9293SOL    HW228779   4.934   4.547   1.190
 9294SOL     OW28780   3.874   6.006   0.293
 9294SOL    HW128781   3.833   5.953   0.219
 9294SOL    HW228782   3.972   6.018   0.274
 9295SOL     OW28783   4.893   1.972   3.041
 9295SOL    HW128784   4.803   1.939   3.012
 9295SOL    HW228785   4.905   2.067   3.013
 9296SOL     OW28786   6.261   6.520   5.867
 9296SOL    HW128787   6.306   6.573   5.795
 9296SOL    HW228788   6.166   6.551   5.876
 9297SOL     OW28789   0.077   0.552   1.499
 9297SOL    HW128790   0.040   0.483   1.437
 9297SOL    HW228791   0.035   0.640   1.479
 9298SOL     OW28792   2.268   6.065   5.547
 9298SOL    HW128793   2.210   5.995   5.589
 9298SOL    HW228794   2.219   6.153   5.546
 9299SOL     OW28795   1.480   2.877   4.048
 9299SOL    HW128796   1.498   2.801   3.986
 9299SOL    HW228797   1.565   2.905   4.093
 9300SOL     OW28798   6.455   5.006   4.976
 9300SOL    HW128799   6.471   4.937   4.905
 9300SOL    HW228800   6.501   5.091   4.950
 9301SOL     OW28801   4.964   4.365   3.004
 9301SOL    HW128802   4.887   4.302   2.994
 9301SOL    HW228803   5.047   4.321   2.971
 9302SOL     OW28804   2.446   2.595   3.637
 9302SOL    HW128805   2.412   2.609   3.544
 9302SOL    HW228806   2.386   2.642   3.701
 9303SOL     OW28807   4.209   6.620   0.757
 9303SOL    HW128808   4.148   6.697   0.743
 9303SOL    HW228809   4.221   6.570   0.672
 9304SOL     OW28810   3.699   4.166   0.575
 9304SOL    HW128811   3.618   4.198   0.525
 9304SOL    HW228812   3.680   4.170   0.674
 9305SOL     OW28813   5.660   1.980   1.486
 9305SOL    HW128814   5.622   2.025   1.405
 9305SOL    HW228815   5.683   2.050   1.554
 9306SOL     OW28816   0.524   4.802   4.065
 9306SOL    HW128817   0.474   4.880   4.028
 9306SOL    HW228818   0.518   4.726   4.000
 9307SOL     OW28819   1.596   2.650   0.984
 9307SOL    HW128820   1.525   2.580   0.979
 9307SOL    HW228821   1.663   2.635   0.912
 9308SOL     OW28822   0.550   3.863   1.006
 9308SOL    HW128823   0.636   3.881   0.959
 9308SOL    HW228824   0.567   3.854   1.104
 9309SOL     OW28825   3.990   4.677   5.356
 9309SOL    HW128826   3.977   4.754   5.293
 9309SOL    HW228827   3.926   4.604   5.332
 9310SOL     OW28828   4.496   6.793   5.748
 9310SOL    HW128829   4.416   6.834   5.703
 9310SOL    HW228830   4.466   6.736   5.825
 9311SOL     OW28831   5.514   4.242   0.850
 9311SOL    HW128832   5.521   4.142   0.844
 9311SOL    HW228833   5.429   4.267   0.897
 9312SOL     OW28834   1.901   4.643   6.814
 9312SOL    HW128835   1.890   4.716   6.881
 9312SOL    HW228836   1.998   4.623   6.803
 9313SOL     OW28837   6.820   0.613   2.335
 9313SOL    HW128838   6.813   0.691   2.273
 9313SOL    HW228839   6.761   0.628   2.414
 9314SOL     OW28840   3.977   5.606   6.732
 9314SOL    HW128841   4.003   5.684   6.675
 9314SOL    HW228842   3.931   5.538   6.675
 9315SOL     OW28843   6.685   0.323   5.676
 9315SOL    HW128844   6.660   0.249   5.738
 9315SOL    HW228845   6.676   0.291   5.581
 9316SOL     OW28846   4.207   5.985   4.477
 9316SOL    HW128847   4.121   5.936   4.463
 9316SOL    HW228848   4.216   6.009   4.573
 9317SOL     OW28849   5.985   5.706   3.094
 9317SOL    HW128850   6.020   5.617   3.126
 9317SOL    HW228851   5.943   5.754   3.170
 9318SOL     OW28852   6.841   0.827   6.196
 9318SOL    HW128853   6.872   0.735   6.223
 9318SOL    HW228854   6.881   0.894   6.258
 9319SOL     OW28855   0.687   3.062   6.189
 9319SOL    HW128856   0.777   3.060   6.234
 9319SOL    HW228857   0.636   3.142   6.221
 9320SOL     OW28858   3.805   2.281   5.759
 9320SOL    HW128859   3.750   2.207   5.797
 9320SOL    HW228860   3.777   2.368   5.801
 9321SOL     OW28861   6.016   0.148   2.705
 9321SOL    HW128862   6.115   0.153   2.705
 9321SOL    HW228863   5.985   0.085   2.633
 9322SOL     OW28864   0.091   5.863   5.932
 9322SOL    HW128865   0.139   5.824   6.011
 9322SOL    HW228866   0.049   5.950   5.959
 9323SOL     OW28867   1.398   0.154   5.701
 9323SOL    HW128868   1.443   0.105   5.626
 9323SOL    HW228869   1.439   0.127   5.788
 9324SOL     OW28870   1.520   4.774   0.471
 9324SOL    HW128871   1.567   4.846   0.522
 9324SOL    HW228872   1.520   4.689   0.524
 9325SOL     OW28873   5.226   1.671   1.105
 9325SOL    HW128874   5.197   1.757   1.063
 9325SOL    HW228875   5.296   1.689   1.174
 9326SOL     OW28876   2.600   0.234   0.695
 9326SOL    HW128877   2.533   0.240   0.621
 9326SOL    HW228878   2.578   0.157   0.754
 9327SOL     OW28879   4.853   6.793   3.235
 9327SOL    HW128880   4.928   6.846   3.276
 9327SOL    HW228881   4.801   6.853   3.173
 9328SOL     OW28882   3.854   1.657   6.892
 9328SOL    HW128883   3.869   1.571   6.941
 9328SOL    HW228884   3.804   1.638   6.807
 9329SOL     OW28885   6.712   3.180   3.004
 9329SOL    HW128886   6.627   3.129   3.017
 9329SOL    HW228887   6.786   3.116   2.983
 9330SOL     OW28888   0.161   6.511   0.587
 9330SOL    HW128889   0.157   6.451   0.507
 9330SOL    HW228890   0.248   6.560   0.587
 9331SOL     OW28891   0.463   1.093   0.065
 9331SOL    HW128892   0.535   1.034   0.029
 9331SOL    HW228893   0.377   1.044   0.066
 9332SOL     OW28894   3.529   4.167   3.361
 9332SOL    HW128895   3.461   4.167   3.288
 9332SOL    HW228896   3.566   4.260   3.373
 9333SOL     OW28897   5.675   3.975   0.855
 9333SOL    HW128898   5.731   4.056   0.836
 9333SOL    HW228899   5.683   3.951   0.952
 9334SOL     OW28900   3.293   0.109   3.159
 9334SOL    HW128901   3.274   0.066   3.071
 9334SOL    HW228902   3.387   0.089   3.186
 9335SOL     OW28903   1.301   1.844   6.766
 9335SOL    HW128904   1.269   1.930   6.805
 9335SOL    HW228905   1.401   1.842   6.765
 9336SOL     OW28906   3.071   6.560   6.333
 9336SOL    HW128907   3.013   6.606   6.400
 9336SOL    HW228908   3.134   6.627   6.293
 9337SOL     OW28909   5.062   0.835   2.860
 9337SOL    HW128910   4.995   0.762   2.843
 9337SOL    HW228911   5.146   0.795   2.897
 9338SOL     OW28912   4.065   0.214   1.840
 9338SOL    HW128913   4.164   0.204   1.845
 9338SOL    HW228914   4.027   0.142   1.783
 9339SOL     OW28915   5.791   6.840   1.013
 9339SOL    HW128916   5.861   6.863   0.945
 9339SOL    HW228917   5.795   6.905   1.088
 9340SOL     OW28918   5.359   3.557   5.631
 9340SOL    HW128919   5.321   3.575   5.540
 9340SOL    HW228920   5.296   3.499   5.682
 9341SOL     OW28921   1.447   5.700   6.726
 9341SOL    HW128922   1.362   5.668   6.682
 9341SOL    HW228923   1.470   5.791   6.690
 9342SOL     OW28924   1.926   0.360   4.840
 9342SOL    HW128925   1.884   0.422   4.906
 9342SOL    HW228926   2.024   0.380   4.834
 9343SOL     OW28927   6.210   5.079   4.936
 9343SOL    HW128928   6.308   5.070   4.956
 9343SOL    HW228929   6.196   5.084   4.837
 9344SOL     OW28930   4.973   6.445   0.659
 9344SOL    HW128931   5.054   6.505   0.659
 9344SOL    HW228932   4.900   6.489   0.712
 9345SOL     OW28933   6.421   2.641   2.507
 9345SOL    HW128934   6.394   2.731   2.473
 9345SOL    HW228935   6.471   2.651   2.593
 9346SOL     OW28936   5.640   0.409   1.413
 9346SOL    HW128937   5.587   0.346   1.358
 9346SOL    HW228938   5.661   0.491   1.359
 9347SOL     OW28939   1.479   6.015   1.428
 9347SOL    HW128940   1.508   5.920   1.437
 9347SOL    HW228941   1.407   6.035   1.494
 9348SOL     OW28942   3.921   6.087   0.550
 9348SOL    HW128943   3.958   6.177   0.571
 9348SOL    HW228944   3.898   6.083   0.452
 9349SOL     OW28945   0.748   6.882   2.204
 9349SOL    HW128946   0.838   6.902   2.242
 9349SOL    HW228947   0.704   6.968   2.176
 9350SOL     OW28948   0.192   2.648   6.343
 9350SOL    HW128949   0.223   2.599   6.424
 9350SOL    HW228950   0.271   2.674   6.287
 9351SOL     OW28951   3.022   2.233   6.902
 9351SOL    HW128952   3.103   2.288   6.923
 9351SOL    HW228953   2.947   2.259   6.962
 9352SOL     OW28954   2.933   4.115   6.910
 9352SOL    HW128955   3.017   4.156   6.875
 9352SOL    HW228956   2.927   4.127   7.009
 9353SOL     OW28957   1.293   5.639   2.034
 9353SOL    HW128958   1.358   5.676   2.101
 9353SOL    HW228959   1.344   5.598   1.958
 9354SOL     OW28960   6.018   2.759   6.464
 9354SOL    HW128961   6.100   2.760   6.521
 9354SOL    HW228962   6.018   2.840   6.405
 9355SOL     OW28963   0.314   1.739   4.886
 9355SOL    HW128964   0.281   1.819   4.836
 9355SOL    HW228965   0.238   1.699   4.937
 9356SOL     OW28966   4.480   6.976   1.863
 9356SOL    HW128967   4.401   6.916   1.856
 9356SOL    HW228968   4.552   6.930   1.916
 9357SOL     OW28969   0.610   2.213   6.806
 9357SOL    HW128970   0.577   2.119   6.795
 9357SOL    HW228971   0.703   2.212   6.841
 9358SOL     OW28972   0.971   3.187   2.231
 9358SOL    HW128973   0.998   3.191   2.135
 9358SOL    HW228974   0.879   3.149   2.239
 9359SOL     OW28975   2.315   6.395   6.073
 9359SOL    HW128976   2.349   6.485   6.101
 9359SOL    HW228977   2.368   6.324   6.118
 9360SOL     OW28978   1.490   0.030   6.663
 9360SOL    HW128979   1.512   0.127   6.663
 9360SOL    HW228980   1.422   0.012   6.591
 9361SOL     OW28981   2.274   6.160   4.160
 9361SOL    HW128982   2.354   6.161   4.101
 9361SOL    HW228983   2.217   6.081   4.138
 9362SOL     OW28984   1.987   0.713   2.686
 9362SOL    HW128985   1.998   0.808   2.713
 9362SOL    HW228986   2.026   0.654   2.757
 9363SOL     OW28987   2.741   5.263   2.707
 9363SOL    HW128988   2.744   5.164   2.694
 9363SOL    HW228989   2.669   5.302   2.649
 9364SOL     OW28990   1.690   1.940   1.764
 9364SOL    HW128991   1.720   1.887   1.844
 9364SOL    HW228992   1.594   1.966   1.775
 9365SOL     OW28993   3.194   1.756   4.128
 9365SOL    HW128994   3.143   1.839   4.153
 9365SOL    HW228995   3.259   1.777   4.055
 9366SOL     OW28996   3.288   5.674   0.522
 9366SOL    HW128997   3.301   5.580   0.554
 9366SOL    HW228998   3.213   5.677   0.457
 9367SOL     OW28999   5.482   0.751   1.111
 9367SOL    HW129000   5.478   0.750   1.211
 9367SOL    HW229001   5.560   0.698   1.080
 9368SOL     OW29002   3.652   0.650   2.618
 9368SOL    HW129003   3.580   0.680   2.681
 9368SOL    HW229004   3.740   0.684   2.650
 9369SOL     OW29005   1.548   5.101   6.408
 9369SOL    HW129006   1.547   5.013   6.456
 9369SOL    HW229007   1.529   5.174   6.474
 9370SOL     OW29008   5.002   2.183   4.586
 9370SOL    HW129009   4.942   2.249   4.541
 9370SOL    HW229010   5.078   2.161   4.525
 9371SOL     OW29011   3.506   5.986   1.369
 9371SOL    HW129012   3.433   6.018   1.308
 9371SOL    HW229013   3.473   5.908   1.422
 9372SOL     OW29014   5.042   0.030   1.668
 9372SOL    HW129015   4.978   0.100   1.698
 9372SOL    HW229016   5.119   0.026   1.732
 9373SOL     OW29017   6.708   1.343   0.608
 9373SOL    HW129018   6.671   1.330   0.517
 9373SOL    HW229019   6.730   1.254   0.648
 9374SOL     OW29020   1.154   4.880   5.359
 9374SOL    HW129021   1.217   4.828   5.419
 9374SOL    HW229022   1.198   4.966   5.332
 9375SOL     OW29023   0.451   1.959   6.738
 9375SOL    HW129024   0.367   1.980   6.688
 9375SOL    HW229025   0.490   1.874   6.703
 9376SOL     OW29026   2.103   3.741   2.142
 9376SOL    HW129027   2.127   3.713   2.235
 9376SOL    HW229028   2.144   3.677   2.076
 9377SOL     OW29029   2.562   6.293   2.858
 9377SOL    HW129030   2.573   6.304   2.759
 9377SOL    HW229031   2.643   6.248   2.896
 9378SOL     OW29032   3.724   0.308   3.510
 9378SOL    HW129033   3.636   0.261   3.502
 9378SOL    HW229034   3.718   0.398   3.465
 9379SOL     OW29035   4.383   6.620   4.511
 9379SOL    HW129036   4.467   6.567   4.505
 9379SOL    HW229037   4.320   6.591   4.440
 9380SOL     OW29038   4.634   5.992   6.959
 9380SOL    HW129039   4.605   5.920   0.003
 9380SOL    HW229040   4.575   6.072   6.972
 9381SOL     OW29041   5.855   2.145   5.177
 9381SOL    HW129042   5.941   2.162   5.128
 9381SOL    HW229043   5.785   2.207   5.143
 9382SOL     OW29044   3.251   0.160   4.336
 9382SOL    HW129045   3.230   0.252   4.304
 9382SOL    HW229046   3.307   0.165   4.419
 9383SOL     OW29047   4.692   4.181   3.717
 9383SOL    HW129048   4.718   4.095   3.673
 9383SOL    HW229049   4.690   4.254   3.648
 9384SOL     OW29050   1.629   0.253   2.230
 9384SOL    HW129051   1.700   0.323   2.229
 9384SOL    HW229052   1.648   0.186   2.159
 9385SOL     OW29053   4.155   1.491   3.171
 9385SOL    HW129054   4.081   1.443   3.125
 9385SOL    HW229055   4.241   1.441   3.158
 9386SOL     OW29056   4.024   6.441   5.591
 9386SOL    HW129057   4.026   6.442   5.491
 9386SOL    HW229058   4.014   6.347   5.623
 9387SOL     OW29059   3.208   2.384   0.013
 9387SOL    HW129060   3.165   2.455   0.069
 9387SOL    HW229061   3.307   2.398   0.013
 9388SOL     OW29062   2.071   6.408   4.526
 9388SOL    HW129063   2.056   6.314   4.557
 9388SOL    HW229064   2.133   6.408   4.448
 9389SOL     OW29065   3.000   4.845   1.535
 9389SOL    HW129066   2.945   4.762   1.541
 9389SOL    HW229067   2.943   4.925   1.557
 9390SOL     OW29068   4.703   5.292   5.372
 9390SOL    HW129069   4.787   5.291   5.425
 9390SOL    HW229070   4.723   5.314   5.276
 9391SOL     OW29071   1.753   6.240   4.622
 9391SOL    HW129072   1.701   6.189   4.553
 9391SOL    HW229073   1.764   6.184   4.704
 9392SOL     OW29074   5.744   4.555   2.763
 9392SOL    HW129075   5.798   4.554   2.679
 9392SOL    HW229076   5.733   4.649   2.795
 9393SOL     OW29077   2.692   6.510   5.562
 9393SOL    HW129078   2.673   6.549   5.652
 9393SOL    HW229079   2.754   6.570   5.512
 9394SOL     OW29080   4.739   6.639   1.060
 9394SOL    HW129081   4.827   6.629   1.107
 9394SOL    HW229082   4.673   6.680   1.122
 9395SOL     OW29083   2.453   2.248   0.633
 9395SOL    HW129084   2.510   2.295   0.565
 9395SOL    HW229085   2.484   2.274   0.725
 9396SOL     OW29086   0.971   6.447   6.506
 9396SOL    HW129087   0.920   6.430   6.590
 9396SOL    HW229088   0.935   6.389   6.433
 9397SOL     OW29089   4.025   0.933   6.547
 9397SOL    HW129090   4.030   0.992   6.467
 9397SOL    HW229091   4.093   0.860   6.540
 9398SOL     OW29092   0.266   1.379   6.491
 9398SOL    HW129093   0.189   1.341   6.542
 9398SOL    HW229094   0.304   1.457   6.541
 9399SOL     OW29095   2.002   2.472   3.797
 9399SOL    HW129096   1.996   2.482   3.698
 9399SOL    HW229097   2.071   2.535   3.833
 9400SOL     OW29098   5.605   1.477   0.531
 9400SOL    HW129099   5.677   1.430   0.583
 9400SOL    HW229100   5.642   1.502   0.441
 9401SOL     OW29101   0.104   1.578   3.154
 9401SOL    HW129102   0.006   1.595   3.155
 9401SOL    HW229103   0.124   1.492   3.201
 9402SOL     OW29104   1.319   5.654   3.357
 9402SOL    HW129105   1.286   5.576   3.411
 9402SOL    HW229106   1.364   5.621   3.274
 9403SOL     OW29107   6.343   2.707   1.858
 9403SOL    HW129108   6.291   2.623   1.870
 9403SOL    HW229109   6.414   2.713   1.929
 9404SOL     OW29110   2.016   3.456   0.825
 9404SOL    HW129111   1.972   3.371   0.853
 9404SOL    HW229112   1.956   3.506   0.763
 9405SOL     OW29113   0.789   5.137   5.403
 9405SOL    HW129114   0.711   5.190   5.437
 9405SOL    HW229115   0.870   5.196   5.401
 9406SOL     OW29116   6.964   2.900   0.032
 9406SOL    HW129117   6.914   2.967   6.996
 9406SOL    HW229118   0.004   2.845   6.992
 9407SOL     OW29119   1.523   4.927   5.577
 9407SOL    HW129120   1.505   4.829   5.579
 9407SOL    HW229121   1.573   4.950   5.493
 9408SOL     OW29122   6.678   4.444   4.506
 9408SOL    HW129123   6.663   4.504   4.427
 9408SOL    HW229124   6.590   4.417   4.545
 9409SOL     OW29125   0.014   5.147   2.265
 9409SOL    HW129126   0.098   5.093   2.260
 9409SOL    HW229127   0.037   5.244   2.270
 9410SOL     OW29128   4.211   1.065   1.284
 9410SOL    HW129129   4.291   1.021   1.326
 9410SOL    HW229130   4.224   1.164   1.283
 9411SOL     OW29131   3.146   3.227   3.571
 9411SOL    HW129132   3.237   3.265   3.555
 9411SOL    HW229133   3.116   3.178   3.490
 9412SOL     OW29134   6.208   6.429   1.783
 9412SOL    HW129135   6.262   6.345   1.773
 9412SOL    HW229136   6.134   6.429   1.716
 9413SOL     OW29137   4.312   4.743   3.294
 9413SOL    HW129138   4.340   4.654   3.329
 9413SOL    HW229139   4.213   4.742   3.276
 9414SOL     OW29140   1.475   2.077   4.557
 9414SOL    HW129141   1.567   2.043   4.538
 9414SOL    HW229142   1.429   2.015   4.620
 9415SOL     OW29143   3.914   1.144   2.347
 9415SOL    HW129144   3.918   1.047   2.325
 9415SOL    HW229145   3.830   1.164   2.397
 9416SOL     OW29146   6.247   5.070   6.483
 9416SOL    HW129147   6.309   5.077   6.561
 9416SOL    HW229148   6.166   5.017   6.508
 9417SOL     OW29149   3.570   6.196   1.547
 9417SOL    HW129150   3.633   6.150   1.610
 9417SOL    HW229151   3.547   6.135   1.471
 9418SOL     OW29152   3.234   2.125   4.275
 9418SOL    HW129153   3.260   2.101   4.368
 9418SOL    HW229154   3.137   2.105   4.262
 9419SOL     OW29155   2.326   3.166   6.289
 9419SOL    HW129156   2.229   3.182   6.273
 9419SOL    HW229157   2.360   3.100   6.222
 9420SOL     OW29158   6.423   4.212   0.020
 9420SOL    HW129159   6.424   4.177   0.114
 9420SOL    HW229160   6.506   4.266   0.004
 9421SOL     OW29161   3.568   6.117   5.637
 9421SOL    HW129162   3.496   6.168   5.590
 9421SOL    HW229163   3.570   6.023   5.602
 9422SOL     OW29164   2.520   5.785   4.532
 9422SOL    HW129165   2.574   5.868   4.515
 9422SOL    HW229166   2.521   5.765   4.630
 9423SOL     OW29167   5.028   4.895   3.653
 9423SOL    HW129168   4.997   4.829   3.585
 9423SOL    HW229169   4.971   4.978   3.648
 9424SOL     OW29170   5.797   0.417   4.561
 9424SOL    HW129171   5.702   0.408   4.532
 9424SOL    HW229172   5.803   0.480   4.638
 9425SOL     OW29173   0.073   5.319   0.783
 9425SOL    HW129174   6.994   5.336   0.780
 9425SOL    HW229175   0.090   5.228   0.822
 9426SOL     OW29176   6.698   2.098   6.648
 9426SOL    HW129177   6.737   2.181   6.688
 9426SOL    HW229178   6.599   2.111   6.635
 9427SOL     OW29179   4.470   5.050   3.044
 9427SOL    HW129180   4.462   4.985   2.969
 9427SOL    HW229181   4.381   5.091   3.063
 9428SOL     OW29182   6.968   6.693   5.607
 9428SOL    HW129183   7.006   6.623   5.667
 9428SOL    HW229184   6.869   6.681   5.600
 9429SOL     OW29185   2.273   2.238   3.747
 9429SOL    HW129186   2.352   2.261   3.804
 9429SOL    HW229187   2.251   2.317   3.688
 9430SOL     OW29188   0.196   1.853   4.401
 9430SOL    HW129189   0.159   1.938   4.438
 9430SOL    HW229190   0.183   1.851   4.302
 9431SOL     OW29191   0.687   4.969   5.209
 9431SOL    HW129192   0.600   5.002   5.174
 9431SOL    HW229193   0.713   5.021   5.290
 9432SOL     OW29194   6.753   1.173   4.024
 9432SOL    HW129195   6.800   1.085   4.029
 9432SOL    HW229196   6.665   1.167   4.070
 9433SOL     OW29197   4.720   5.827   2.501
 9433SOL    HW129198   4.726   5.925   2.519
 9433SOL    HW229199   4.640   5.809   2.444
 9434SOL     OW29200   5.103   4.888   4.176
 9434SOL    HW129201   5.043   4.956   4.219
 9434SOL    HW229202   5.057   4.849   4.097
 9435SOL     OW29203   0.256   2.882   1.850
 9435SOL    HW129204   0.271   2.942   1.772
 9435SOL    HW229205   0.325   2.901   1.920
 9436SOL     OW29206   1.890   0.399   3.253
 9436SOL    HW129207   1.854   0.461   3.322
 9436SOL    HW229208   1.975   0.437   3.216
 9437SOL     OW29209   6.270   5.997   4.476
 9437SOL    HW129210   6.287   5.980   4.574
 9437SOL    HW229211   6.174   6.018   4.462
 9438SOL     OW29212   4.190   6.154   2.508
 9438SOL    HW129213   4.185   6.097   2.425
 9438SOL    HW229214   4.232   6.101   2.582
 9439SOL     OW29215   1.183   3.254   0.917
 9439SOL    HW129216   1.206   3.177   0.977
 9439SOL    HW229217   1.111   3.309   0.959
 9440SOL     OW29218   2.006   5.120   3.268
 9440SOL    HW129219   1.951   5.047   3.227
 9440SOL    HW229220   2.091   5.130   3.217
 9441SOL     OW29221   0.482   6.146   4.791
 9441SOL    HW129222   0.505   6.055   4.756
 9441SOL    HW229223   0.388   6.145   4.826
 9442SOL     OW29224   4.475   3.429   0.756
 9442SOL    HW129225   4.502   3.350   0.701
 9442SOL    HW229226   4.396   3.473   0.714
 9443SOL     OW29227   1.500   4.256   3.050
 9443SOL    HW129228   1.501   4.164   3.087
 9443SOL    HW229229   1.589   4.278   3.009
 9444SOL     OW29230   0.881   4.592   6.505
 9444SOL    HW129231   0.936   4.640   6.573
 9444SOL    HW229232   0.898   4.493   6.513
 9445SOL     OW29233   0.060   1.019   4.338
 9445SOL    HW129234   6.986   1.021   4.376
 9445SOL    HW229235   0.124   0.987   4.408
 9446SOL     OW29236   6.091   5.250   2.923
 9446SOL    HW129237   6.181   5.220   2.891
 9446SOL    HW229238   6.020   5.206   2.868
 9447SOL     OW29239   4.863   4.144   1.930
 9447SOL    HW129240   4.799   4.137   1.854
 9447SOL    HW229241   4.949   4.184   1.898
 9448SOL     OW29242   6.273   0.591   5.174
 9448SOL    HW129243   6.191   0.642   5.199
 9448SOL    HW229244   6.246   0.509   5.122
 9449SOL     OW29245   6.074   6.908   1.300
 9449SOL    HW129246   6.096   6.862   1.386
 9449SOL    HW229247   5.975   6.913   1.290
 9450SOL     OW29248   1.572   5.159   3.730
 9450SOL    HW129249   1.547   5.068   3.764
 9450SOL    HW229250   1.607   5.214   3.806
 9451SOL     OW29251   3.406   5.913   6.489
 9451SOL    HW129252   3.333   5.853   6.523
 9451SOL    HW229253   3.374   5.962   6.408
 9452SOL     OW29254   6.945   4.386   0.563
 9452SOL    HW129255   6.845   4.386   0.565
 9452SOL    HW229256   6.980   4.402   0.656
 9453SOL     OW29257   5.018   5.702   2.675
 9453SOL    HW129258   5.019   5.606   2.703
 9453SOL    HW229259   5.040   5.708   2.577
 9454SOL     OW29260   5.381   3.823   0.516
 9454SOL    HW129261   5.430   3.889   0.459
 9454SOL    HW229262   5.367   3.862   0.607
 9455SOL     OW29263   3.233   2.004   1.869
 9455SOL    HW129264   3.209   1.907   1.867
 9455SOL    HW229265   3.282   2.025   1.953
 9456SOL     OW29266   6.622   3.295   1.265
 9456SOL    HW129267   6.604   3.201   1.291
 9456SOL    HW229268   6.718   3.306   1.240
 9457SOL     OW29269   0.153   5.802   3.937
 9457SOL    HW129270   0.195   5.851   4.013
 9457SOL    HW229271   0.223   5.752   3.887
 9458SOL     OW29272   6.522   3.806   0.310
 9458SOL    HW129273   6.585   3.813   0.234
 9458SOL    HW229274   6.537   3.881   0.374
 9459SOL     OW29275   4.644   4.622   5.309
 9459SOL    HW129276   4.713   4.693   5.322
 9459SOL    HW229277   4.688   4.535   5.289
 9460SOL     OW29278   1.659   1.976   3.136
 9460SOL    HW129279   1.588   1.977   3.206
 9460SOL    HW229280   1.669   1.884   3.099
 9461SOL     OW29281   1.203   2.296   2.445
 9461SOL    HW129282   1.106   2.291   2.418
 9461SOL    HW229283   1.253   2.353   2.380
 9462SOL     OW29284   1.489   1.717   4.447
 9462SOL    HW129285   1.565   1.728   4.383
 9462SOL    HW229286   1.403   1.736   4.400
 9463SOL     OW29287   5.394   5.179   1.112
 9463SOL    HW129288   5.385   5.276   1.137
 9463SOL    HW229289   5.487   5.161   1.081
 9464SOL     OW29290   1.219   0.976   1.268
 9464SOL    HW129291   1.211   1.021   1.357
 9464SOL    HW229292   1.206   1.044   1.196
 9465SOL     OW29293   6.498   4.368   1.295
 9465SOL    HW129294   6.569   4.326   1.352
 9465SOL    HW229295   6.432   4.415   1.352
 9466SOL     OW29296   3.782   4.762   5.560
 9466SOL    HW129297   3.737   4.677   5.532
 9466SOL    HW229298   3.878   4.744   5.579
 9467SOL     OW29299   2.307   4.100   0.588
 9467SOL    HW129300   2.259   4.114   0.502
 9467SOL    HW229301   2.374   4.026   0.578
 9468SOL     OW29302   6.359   1.789   0.277
 9468SOL    HW129303   6.298   1.763   0.352
 9468SOL    HW229304   6.452   1.801   0.313
 9469SOL     OW29305   1.054   6.747   1.656
 9469SOL    HW129306   1.111   6.697   1.591
 9469SOL    HW229307   1.072   6.845   1.647
 9470SOL     OW29308   3.875   4.366   0.433
 9470SOL    HW129309   3.907   4.404   0.520
 9470SOL    HW229310   3.789   4.316   0.447
 9471SOL     OW29311   6.055   3.614   5.123
 9471SOL    HW129312   6.148   3.579   5.127
 9471SOL    HW229313   6.032   3.638   5.029
 9472SOL     OW29314   1.603   2.919   6.409
 9472SOL    HW129315   1.504   2.922   6.426
 9472SOL    HW229316   1.633   3.010   6.381
 9473SOL     OW29317   3.290   4.524   0.122
 9473SOL    HW129318   3.255   4.554   0.211
 9473SOL    HW229319   3.380   4.481   0.136
 9474SOL     OW29320   5.758   2.933   1.195
 9474SOL    HW129321   5.851   2.931   1.232
 9474SOL    HW229322   5.727   3.027   1.186
 9475SOL     OW29323   4.778   3.847   6.185
 9475SOL    HW129324   4.724   3.914   6.134
 9475SOL    HW229325   4.758   3.755   6.151
 9476SOL     OW29326   4.016   4.167   6.199
 9476SOL    HW129327   4.111   4.196   6.213
 9476SOL    HW229328   3.955   4.232   6.243
 9477SOL     OW29329   2.069   4.351   0.914
 9477SOL    HW129330   2.052   4.262   0.870
 9477SOL    HW229331   2.168   4.365   0.923
 9478SOL     OW29332   5.723   3.188   0.558
 9478SOL    HW129333   5.783   3.262   0.527
 9478SOL    HW229334   5.746   3.104   0.508
 9479SOL     OW29335   3.923   0.426   1.676
 9479SOL    HW129336   3.832   0.411   1.714
 9479SOL    HW229337   3.988   0.365   1.722
 9480SOL     OW29338   6.538   0.076   0.124
 9480SOL    HW129339   6.624   0.127   0.111
 9480SOL    HW229340   6.519   0.021   0.043
 9481SOL     OW29341   4.205   0.523   3.627
 9481SOL    HW129342   4.170   0.557   3.540
 9481SOL    HW229343   4.178   0.427   3.639
 9482SOL     OW29344   6.382   6.537   0.070
 9482SOL    HW129345   6.377   6.554   6.990
 9482SOL    HW229346   6.342   6.615   0.119
 9483SOL     OW29347   6.785   0.057   0.570
 9483SOL    HW129348   6.795   0.055   0.669
 9483SOL    HW229349   6.854   0.118   0.531
 9484SOL     OW29350   4.041   6.236   4.853
 9484SOL    HW129351   3.958   6.181   4.847
 9484SOL    HW229352   4.053   6.268   4.947
 9485SOL     OW29353   6.782   0.975   0.353
 9485SOL    HW129354   6.874   0.997   0.319
 9485SOL    HW229355   6.714   1.009   0.288
 9486SOL     OW29356   5.228   5.653   0.495
 9486SOL    HW129357   5.214   5.559   0.463
 9486SOL    HW229358   5.159   5.713   0.454
 9487SOL     OW29359   2.891   3.402   3.245
 9487SOL    HW129360   2.962   3.370   3.308
 9487SOL    HW229361   2.801   3.390   3.289
 9488SOL     OW29362   1.831   1.507   1.017
 9488SOL    HW129363   1.776   1.423   1.022
 9488SOL    HW229364   1.783   1.580   1.065
 9489SOL     OW29365   5.066   4.097   0.396
 9489SOL    HW129366   5.165   4.111   0.406
 9489SOL    HW229367   5.048   4.048   0.311
 9490SOL     OW29368   5.523   3.998   4.143
 9490SOL    HW129369   5.519   4.009   4.044
 9490SOL    HW229370   5.610   3.957   4.169
 9491SOL     OW29371   4.705   6.263   2.897
 9491SOL    HW129372   4.760   6.328   2.949
 9491SOL    HW229373   4.737   6.262   2.802
 9492SOL     OW29374   4.789   2.899   3.968
 9492SOL    HW129375   4.777   2.984   4.019
 9492SOL    HW229376   4.872   2.853   3.998
 9493SOL     OW29377   4.276   6.867   2.183
 9493SOL    HW129378   4.351   6.924   2.216
 9493SOL    HW229379   4.195   6.924   2.167
 9494SOL     OW29380   5.386   2.209   2.012
 9494SOL    HW129381   5.434   2.153   2.080
 9494SOL    HW229382   5.404   2.305   2.030
 9495SOL     OW29383   0.737   1.633   2.210
 9495SOL    HW129384   0.638   1.636   2.227
 9495SOL    HW229385   0.769   1.724   2.184
 9496SOL     OW29386   5.014   2.153   2.194
 9496SOL    HW129387   4.938   2.141   2.259
 9496SOL    HW229388   5.035   2.251   2.187
 9497SOL     OW29389   5.047   4.985   4.821
 9497SOL    HW129390   5.019   4.892   4.799
 9497SOL    HW229391   5.118   5.014   4.755
 9498SOL     OW29392   0.395   5.689   3.804
 9498SOL    HW129393   0.402   5.591   3.789
 9498SOL    HW229394   0.443   5.713   3.888
 9499SOL     OW29395   6.359   5.659   5.925
 9499SOL    HW129396   6.335   5.723   5.851
 9499SOL    HW229397   6.300   5.579   5.919
 9500SOL     OW29398   4.079   1.336   0.646
 9500SOL    HW129399   4.109   1.260   0.703
 9500SOL    HW229400   4.103   1.422   0.690
 9501SOL     OW29401   1.495   2.893   5.269
 9501SOL    HW129402   1.543   2.958   5.328
 9501SOL    HW229403   1.491   2.928   5.176
 9502SOL     OW29404   5.853   4.370   5.490
 9502SOL    HW129405   5.873   4.288   5.437
 9502SOL    HW229406   5.786   4.426   5.441
 9503SOL     OW29407   0.314   2.751   0.019
 9503SOL    HW129408   0.291   2.760   0.116
 9503SOL    HW229409   0.390   2.687   0.009
 9504SOL     OW29410   6.052   5.188   2.222
 9504SOL    HW129411   5.975   5.186   2.286
 9504SOL    HW229412   6.121   5.252   2.254
 9505SOL     OW29413   4.277   5.023   5.339
 9505SOL    HW129414   4.281   5.100   5.275
 9505SOL    HW229415   4.186   5.020   5.381
 9506SOL     OW29416   3.192   1.690   1.084
 9506SOL    HW129417   3.169   1.665   0.990
 9506SOL    HW229418   3.146   1.628   1.148
 9507SOL     OW29419   5.296   0.676   2.166
 9507SOL    HW129420   5.201   0.677   2.132
 9507SOL    HW229421   5.339   0.589   2.142
 9508SOL     OW29422   5.365   1.972   2.871
 9508SOL    HW129423   5.312   1.937   2.794
 9508SOL    HW229424   5.327   1.936   2.956
 9509SOL     OW29425   6.362   6.844   3.185
 9509SOL    HW129426   6.395   6.838   3.279
 9509SOL    HW229427   6.319   6.933   3.171
 9510SOL     OW29428   1.425   2.303   3.456
 9510SOL    HW129429   1.505   2.307   3.396
 9510SOL    HW229430   1.343   2.289   3.401
 9511SOL     OW29431   2.096   1.755   0.853
 9511SOL    HW129432   2.069   1.830   0.792
 9511SOL    HW229433   2.065   1.775   0.946
 9512SOL     OW29434   6.377   1.879   1.033
 9512SOL    HW129435   6.406   1.970   1.004
 9512SOL    HW229436   6.296   1.852   0.981
 9513SOL     OW29437   4.156   5.242   6.390
 9513SOL    HW129438   4.127   5.330   6.428
 9513SOL    HW229439   4.253   5.228   6.410
 9514SOL     OW29440   3.609   2.889   0.328
 9514SOL    HW129441   3.604   2.919   0.423
 9514SOL    HW229442   3.530   2.831   0.307
 9515SOL     OW29443   1.338   4.812   4.062
 9515SOL    HW129444   1.410   4.767   4.114
 9515SOL    HW229445   1.278   4.863   4.125
 9516SOL     OW29446   6.617   4.199   1.106
 9516SOL    HW129447   6.563   4.175   1.025
 9516SOL    HW229448   6.576   4.278   1.151
 9517SOL     OW29449   0.980   4.851   0.332
 9517SOL    HW129450   0.888   4.831   0.368
 9517SOL    HW229451   1.028   4.910   0.397
 9518SOL     OW29452   1.226   1.410   0.109
 9518SOL    HW129453   1.283   1.493   0.112
 9518SOL    HW229454   1.151   1.418   0.175
 9519SOL     OW29455   1.117   2.835   5.077
 9519SOL    HW129456   1.174   2.915   5.059
 9519SOL    HW229457   1.096   2.789   4.990
 9520SOL     OW29458   3.234   6.504   1.982
 9520SOL    HW129459   3.333   6.504   1.972
 9520SOL    HW229460   3.195   6.580   1.929
 9521SOL     OW29461   5.485   5.298   4.089
 9521SOL    HW129462   5.582   5.321   4.078
 9521SOL    HW229463   5.458   5.311   4.184
 9522SOL     OW29464   3.653   5.749   1.094
 9522SOL    HW129465   3.718   5.676   1.076
 9522SOL    HW229466   3.667   5.823   1.028
 9523SOL     OW29467   3.759   5.555   4.375
 9523SOL    HW129468   3.781   5.520   4.465
 9523SOL    HW229469   3.839   5.548   4.315
 9524SOL     OW29470   4.273   3.147   1.186
 9524SOL    HW129471   4.276   3.047   1.183
 9524SOL    HW229472   4.364   3.182   1.209
 9525SOL     OW29473   3.512   0.997   6.275
 9525SOL    HW129474   3.417   0.989   6.244
 9525SOL    HW229475   3.516   0.981   6.373
 9526SOL     OW29476   5.931   5.299   2.004
 9526SOL    HW129477   5.989   5.259   2.074
 9526SOL    HW229478   5.836   5.270   2.019
 9527SOL     OW29479   6.871   1.918   1.559
 9527SOL    HW129480   6.845   1.822   1.563
 9527SOL    HW229481   6.873   1.956   1.652
 9528SOL     OW29482   6.810   0.801   2.160
 9528SOL    HW129483   6.904   0.790   2.127
 9528SOL    HW229484   6.787   0.898   2.165
 9529SOL     OW29485   0.967   3.742   5.513
 9529SOL    HW129486   1.046   3.682   5.505
 9529SOL    HW229487   0.917   3.742   5.427
 9530SOL     OW29488   1.221   2.133   3.671
 9530SOL    HW129489   1.307   2.120   3.621
 9530SOL    HW229490   1.198   2.230   3.671
 9531SOL     OW29491   3.455   6.061   2.377
 9531SOL    HW129492   3.356   6.080   2.371
 9531SOL    HW229493   3.504   6.125   2.317
 9532SOL     OW29494   1.838   0.663   2.178
 9532SOL    HW129495   1.919   0.720   2.188
 9532SOL    HW229496   1.842   0.612   2.092
 9533SOL     OW29497   2.114   0.755   5.074
 9533SOL    HW129498   2.109   0.837   5.017
 9533SOL    HW229499   2.069   0.679   5.027
 9534SOL     OW29500   4.852   2.591   4.628
 9534SOL    HW129501   4.771   2.613   4.682
 9534SOL    HW229502   4.864   2.660   4.557
 9535SOL     OW29503   1.944   1.302   5.491
 9535SOL    HW129504   1.895   1.314   5.578
 9535SOL    HW229505   1.894   1.349   5.418
 9536SOL     OW29506   2.160   6.652   5.821
 9536SOL    HW129507   2.083   6.662   5.759
 9536SOL    HW229508   2.182   6.555   5.831
 9537SOL     OW29509   2.562   0.010   0.848
 9537SOL    HW129510   2.588   6.948   0.797
 9537SOL    HW229511   2.484   7.008   0.907
 9538SOL     OW29512   6.550   3.133   3.930
 9538SOL    HW129513   6.570   3.079   4.011
 9538SOL    HW229514   6.487   3.082   3.871
 9539SOL     OW29515   0.449   5.591   1.078
 9539SOL    HW129516   0.360   5.554   1.051
 9539SOL    HW229517   0.480   5.657   1.010
 9540SOL     OW29518   4.867   4.474   4.750
 9540SOL    HW129519   4.896   4.479   4.846
 9540SOL    HW229520   4.807   4.395   4.738
 9541SOL     OW29521   2.270   2.384   3.462
 9541SOL    HW129522   2.263   2.466   3.406
 9541SOL    HW229523   2.179   2.360   3.498
 9542SOL     OW29524   4.874   3.612   4.343
 9542SOL    HW129525   4.916   3.575   4.260
 9542SOL    HW229526   4.893   3.552   4.420
 9543SOL     OW29527   5.459   2.241   2.515
 9543SOL    HW129528   5.366   2.206   2.526
 9543SOL    HW229529   5.456   2.332   2.475
 9544SOL     OW29530   3.688   1.468   1.944
 9544SOL    HW129531   3.754   1.528   1.989
 9544SOL    HW229532   3.720   1.373   1.948
 9545SOL     OW29533   6.881   0.170   4.382
 9545SOL    HW129534   6.933   0.101   4.332
 9545SOL    HW229535   6.918   0.179   4.475
 9546SOL     OW29536   3.047   4.912   0.684
 9546SOL    HW129537   3.073   4.992   0.737
 9546SOL    HW229538   2.954   4.884   0.709
 9547SOL     OW29539   0.099   6.281   3.240
 9547SOL    HW129540   0.168   6.294   3.312
 9547SOL    HW229541   0.033   6.356   3.243
 9548SOL     OW29542   4.561   6.053   2.472
 9548SOL    HW129543   4.518   6.133   2.430
 9548SOL    HW229544   4.560   5.977   2.407
 9549SOL     OW29545   2.561   6.078   0.621
 9549SOL    HW129546   2.492   6.007   0.637
 9549SOL    HW229547   2.652   6.038   0.628
 9550SOL     OW29548   0.968   1.888   0.748
 9550SOL    HW129549   1.050   1.909   0.695
 9550SOL    HW229550   0.926   1.973   0.780
 9551SOL     OW29551   2.200   6.216   4.930
 9551SOL    HW129552   2.180   6.280   4.856
 9551SOL    HW229553   2.243   6.265   5.006
 9552SOL     OW29554   1.122   5.330   3.089
 9552SOL    HW129555   1.204   5.363   3.136
 9552SOL    HW229556   1.041   5.368   3.134
 9553SOL     OW29557   5.618   4.341   5.140
 9553SOL    HW129558   5.553   4.288   5.085
 9553SOL    HW229559   5.571   4.422   5.177
 9554SOL     OW29560   2.195   1.555   1.938
 9554SOL    HW129561   2.107   1.513   1.959
 9554SOL    HW229562   2.249   1.563   2.022
 9555SOL     OW29563   6.636   2.351   6.845
 9555SOL    HW129564   6.614   2.284   6.916
 9555SOL    HW229565   6.688   2.426   6.885
 9556SOL     OW29566   1.920   1.844   1.634
 9556SOL    HW129567   1.957   1.761   1.675
 9556SOL    HW229568   1.843   1.877   1.687
 9557SOL     OW29569   5.664   2.210   1.829
 9557SOL    HW129570   5.582   2.156   1.846
 9557SOL    HW229571   5.727   2.157   1.772
 9558SOL     OW29572   6.449   5.110   2.428
 9558SOL    HW129573   6.369   5.168   2.421
 9558SOL    HW229574   6.429   5.032   2.488
 9559SOL     OW29575   6.655   2.843   2.632
 9559SOL    HW129576   6.620   2.803   2.717
 9559SOL    HW229577   6.588   2.907   2.595
 9560SOL     OW29578   3.093   1.287   4.026
 9560SOL    HW129579   3.001   1.252   4.037
 9560SOL    HW229580   3.094   1.385   4.045
 9561SOL     OW29581   3.742   0.040   1.176
 9561SOL    HW129582   3.819   0.026   1.239
 9561SOL    HW229583   3.686   6.976   1.172
 9562SOL     OW29584   6.130   5.433   3.115
 9562SOL    HW129585   6.106   5.377   3.036
 9562SOL    HW229586   6.120   5.378   3.198
 9563SOL     OW29587   6.964   5.588   6.530
 9563SOL    HW129588   6.991   5.504   6.483
 9563SOL    HW229589   6.910   5.564   6.611
 9564SOL     OW29590   2.739   0.062   6.688
 9564SOL    HW129591   2.698   0.086   6.600
 9564SOL    HW229592   2.820   0.005   6.673
 9565SOL     OW29593   3.877   6.015   4.177
 9565SOL    HW129594   3.942   6.081   4.214
 9565SOL    HW229595   3.846   6.044   4.087
 9566SOL     OW29596   3.169   4.775   5.195
 9566SOL    HW129597   3.140   4.682   5.171
 9566SOL    HW229598   3.246   4.771   5.258
 9567SOL     OW29599   6.176   5.466   5.953
 9567SOL    HW129600   6.129   5.532   6.012
 9567SOL    HW229601   6.109   5.419   5.895
 9568SOL     OW29602   5.079   4.123   6.755
 9568SOL    HW129603   5.027   4.037   6.756
 9568SOL    HW229604   5.150   4.118   6.684
 9569SOL     OW29605   6.300   0.668   0.865
 9569SOL    HW129606   6.356   0.596   0.906
 9569SOL    HW229607   6.260   0.724   0.937
 9570SOL     OW29608   0.341   0.306   6.929
 9570SOL    HW129609   0.311   0.327   6.836
 9570SOL    HW229610   0.425   0.252   6.926
 9571SOL     OW29611   2.659   4.158   0.398
 9571SOL    HW129612   2.676   4.235   0.337
 9571SOL    HW229613   2.680   4.072   0.351
 9572SOL     OW29614   1.459   4.493   0.871
 9572SOL    HW129615   1.372   4.534   0.899
 9572SOL    HW229616   1.469   4.404   0.915
 9573SOL     OW29617   0.208   2.118   1.349
 9573SOL    HW129618   0.192   2.041   1.287
 9573SOL    HW229619   0.175   2.202   1.306
 9574SOL     OW29620   2.120   1.520   5.325
 9574SOL    HW129621   2.126   1.467   5.410
 9574SOL    HW229622   2.099   1.615   5.346
 9575SOL     OW29623   5.299   0.863   1.797
 9575SOL    HW129624   5.396   0.857   1.774
 9575SOL    HW229625   5.257   0.772   1.792
 9576SOL     OW29626   3.545   2.007   5.743
 9576SOL    HW129627   3.573   1.994   5.647
 9576SOL    HW229628   3.460   1.957   5.760
 9577SOL     OW29629   0.515   5.868   3.124
 9577SOL    HW129630   0.536   5.774   3.098
 9577SOL    HW229631   0.594   5.908   3.170
 9578SOL     OW29632   5.496   3.550   2.287
 9578SOL    HW129633   5.471   3.645   2.266
 9578SOL    HW229634   5.442   3.489   2.229
 9579SOL     OW29635   0.904   6.522   2.976
 9579SOL    HW129636   0.920   6.506   2.879
 9579SOL    HW229637   0.934   6.442   3.028
 9580SOL     OW29638   4.313   3.983   6.219
 9580SOL    HW129639   4.393   3.962   6.163
 9580SOL    HW229640   4.331   4.065   6.273
 9581SOL     OW29641   1.545   4.814   6.485
 9581SOL    HW129642   1.542   4.779   6.391
 9581SOL    HW229643   1.452   4.821   6.520
 9582SOL     OW29644   4.027   5.665   4.598
 9582SOL    HW129645   3.968   5.584   4.603
 9582SOL    HW229646   3.995   5.725   4.525
 9583SOL     OW29647   2.303   4.454   1.990
 9583SOL    HW129648   2.242   4.533   2.003
 9583SOL    HW229649   2.390   4.485   1.953
 9584SOL     OW29650   5.968   5.585   6.540
 9584SOL    HW129651   6.001   5.592   6.634
 9584SOL    HW229652   6.033   5.630   6.479
 9585SOL     OW29653   6.586   0.235   4.344
 9585SOL    HW129654   6.571   0.137   4.357
 9585SOL    HW229655   6.671   0.262   4.388
 9586SOL     OW29656   5.512   3.550   3.136
 9586SOL    HW129657   5.568   3.547   3.053
 9586SOL    HW229658   5.544   3.481   3.200
 9587SOL     OW29659   4.969   6.543   2.318
 9587SOL    HW129660   5.002   6.606   2.388
 9587SOL    HW229661   5.042   6.478   2.294
 9588SOL     OW29662   6.886   0.549   2.853
 9588SOL    HW129663   6.937   0.497   2.784
 9588SOL    HW229664   6.886   0.646   2.829
 9589SOL     OW29665   2.480   1.284   6.040
 9589SOL    HW129666   2.430   1.342   5.974
 9589SOL    HW229667   2.424   1.273   6.122
 9590SOL     OW29668   6.742   4.444   5.038
 9590SOL    HW129669   6.839   4.452   5.016
 9590SOL    HW229670   6.730   4.437   5.137
 9591SOL     OW29671   1.544   4.552   2.097
 9591SOL    HW129672   1.454   4.561   2.056
 9591SOL    HW229673   1.557   4.458   2.129
 9592SOL     OW29674   4.960   5.472   2.384
 9592SOL    HW129675   4.977   5.408   2.459
 9592SOL    HW229676   5.027   5.546   2.388
 9593SOL     OW29677   1.341   2.700   4.411
 9593SOL    HW129678   1.317   2.741   4.323
 9593SOL    HW229679   1.328   2.768   4.483
 9594SOL     OW29680   6.033   6.747   2.315
 9594SOL    HW129681   6.077   6.670   2.361
 9594SOL    HW229682   5.949   6.771   2.364
 9595SOL     OW29683   0.453   3.937   4.503
 9595SOL    HW129684   0.540   3.977   4.532
 9595SOL    HW229685   0.407   3.897   4.582
 9596SOL     OW29686   4.700   5.887   3.473
 9596SOL    HW129687   4.614   5.865   3.427
 9596SOL    HW229688   4.756   5.805   3.480
 9597SOL     OW29689   1.986   4.003   1.028
 9597SOL    HW129690   2.042   3.924   1.052
 9597SOL    HW229691   2.016   4.040   0.940
 9598SOL     OW29692   0.374   5.426   5.530
 9598SOL    HW129693   0.323   5.388   5.608
 9598SOL    HW229694   0.340   5.518   5.510
 9599SOL     OW29695   5.296   1.947   4.642
 9599SOL    HW129696   5.375   1.924   4.700
 9599SOL    HW229697   5.311   1.911   4.550
 9600SOL     OW29698   1.541   6.375   0.088
 9600SOL    HW129699   1.482   6.454   0.105
 9600SOL    HW229700   1.628   6.405   0.050
 9601SOL     OW29701   0.869   5.659   5.859
 9601SOL    HW129702   0.865   5.590   5.787
 9601SOL    HW229703   0.931   5.628   5.931
 9602SOL     OW29704   1.404   5.642   0.630
 9602SOL    HW129705   1.475   5.581   0.666
 9602SOL    HW229706   1.413   5.732   0.671
 9603SOL     OW29707   1.286   4.876   4.358
 9603SOL    HW129708   1.294   4.823   4.443
 9603SOL    HW229709   1.355   4.949   4.359
 9604SOL     OW29710   6.913   0.310   0.482
 9604SOL    HW129711   7.007   0.322   0.515
 9604SOL    HW229712   6.867   0.399   0.478
 9605SOL     OW29713   2.224   5.879   6.644
 9605SOL    HW129714   2.254   5.954   6.585
 9605SOL    HW229715   2.203   5.913   6.735
 9606SOL     OW29716   6.625   6.514   4.499
 9606SOL    HW129717   6.644   6.607   4.529
 9606SOL    HW229718   6.534   6.509   4.459
 9607SOL     OW29719   0.292   3.022   1.575
 9607SOL    HW129720   0.249   2.959   1.511
 9607SOL    HW229721   0.391   3.023   1.560
 9608SOL     OW29722   0.144   6.153   2.977
 9608SOL    HW129723   0.070   6.188   2.918
 9608SOL    HW229724   0.114   6.154   3.072
 9609SOL     OW29725   1.969   2.482   3.532
 9609SOL    HW129726   1.902   2.553   3.513
 9609SOL    HW229727   1.967   2.414   3.459
 9610SOL     OW29728   2.751   2.111   6.272
 9610SOL    HW129729   2.762   2.162   6.187
 9610SOL    HW229730   2.689   2.160   6.333
 9611SOL     OW29731   6.120   6.097   1.051
 9611SOL    HW129732   6.075   6.032   1.112
 9611SOL    HW229733   6.110   6.067   0.956
 9612SOL     OW29734   5.699   3.396   2.677
 9612SOL    HW129735   5.739   3.308   2.701
 9612SOL    HW229736   5.629   3.383   2.606
 9613SOL     OW29737   5.321   6.386   5.605
 9613SOL    HW129738   5.402   6.430   5.644
 9613SOL    HW229739   5.327   6.388   5.505
 9614SOL     OW29740   2.930   3.434   2.228
 9614SOL    HW129741   2.918   3.508   2.294
 9614SOL    HW229742   2.917   3.469   2.136
 9615SOL     OW29743   0.980   5.888   4.046
 9615SOL    HW129744   0.968   5.888   3.947
 9615SOL    HW229745   0.901   5.931   4.090
 9616SOL     OW29746   2.592   3.499   1.429
 9616SOL    HW129747   2.565   3.524   1.336
 9616SOL    HW229748   2.688   3.472   1.430
 9617SOL     OW29749   0.832   3.518   2.712
 9617SOL    HW129750   0.822   3.427   2.753
 9617SOL    HW229751   0.779   3.523   2.628
 9618SOL     OW29752   3.843   5.513   0.534
 9618SOL    HW129753   3.935   5.504   0.572
 9618SOL    HW229754   3.803   5.600   0.563
 9619SOL     OW29755   1.488   6.910   0.846
 9619SOL    HW129756   1.447   6.997   0.819
 9619SOL    HW229757   1.422   6.858   0.900
 9620SOL     OW29758   3.894   1.775   0.121
 9620SOL    HW129759   3.858   1.734   0.037
 9620SOL    HW229760   3.878   1.713   0.198
 9621SOL     OW29761   0.749   2.094   1.911
 9621SOL    HW129762   0.735   2.121   1.816
 9621SOL    HW229763   0.837   2.047   1.919
 9622SOL     OW29764   6.800   6.889   5.939
 9622SOL    HW129765   6.733   6.833   5.988
 9622SOL    HW229766   6.771   6.899   5.844
 9623SOL     OW29767   4.526   6.550   5.996
 9623SOL    HW129768   4.449   6.512   5.945
 9623SOL    HW229769   4.510   6.537   6.094
 9624SOL     OW29770   4.705   5.319   5.079
 9624SOL    HW129771   4.781   5.257   5.058
 9624SOL    HW229772   4.665   5.353   4.994
 9625SOL     OW29773   4.629   3.602   5.629
 9625SOL    HW129774   4.539   3.560   5.640
 9625SOL    HW229775   4.686   3.579   5.708
 9626SOL     OW29776   2.337   2.336   6.056
 9626SOL    HW129777   2.428   2.326   6.015
 9626SOL    HW229778   2.327   2.270   6.131
 9627SOL     OW29779   0.577   5.400   6.728
 9627SOL    HW129780   0.537   5.309   6.736
 9627SOL    HW229781   0.533   5.462   6.794
 9628SOL     OW29782   6.149   1.291   6.787
 9628SOL    HW129783   6.198   1.304   6.701
 9628SOL    HW229784   6.053   1.270   6.768
 9629SOL     OW29785   0.401   6.011   4.535
 9629SOL    HW129786   0.398   6.105   4.499
 9629SOL    HW229787   0.309   5.985   4.566
 9630SOL     OW29788   5.981   6.797   6.102
 9630SOL    HW129789   5.901   6.829   6.152
 9630SOL    HW229790   5.998   6.858   6.024
 9631SOL     OW29791   3.314   0.424   0.821
 9631SOL    HW129792   3.237   0.362   0.810
 9631SOL    HW229793   3.399   0.377   0.800
 9632SOL     OW29794   3.196   5.425   2.324
 9632SOL    HW129795   3.161   5.518   2.314
 9632SOL    HW229796   3.278   5.426   2.381
 9633SOL     OW29797   3.355   2.916   3.078
 9633SOL    HW129798   3.312   2.983   3.017
 9633SOL    HW229799   3.455   2.923   3.071
 9634SOL     OW29800   5.907   4.832   3.303
 9634SOL    HW129801   5.962   4.912   3.280
 9634SOL    HW229802   5.939   4.794   3.390
 9635SOL     OW29803   0.891   5.298   4.334
 9635SOL    HW129804   0.876   5.320   4.431
 9635SOL    HW229805   0.949   5.368   4.293
 9636SOL     OW29806   4.894   3.658   3.960
 9636SOL    HW129807   4.890   3.595   4.037
 9636SOL    HW229808   4.879   3.607   3.875
 9637SOL     OW29809   2.300   2.952   6.877
 9637SOL    HW129810   2.263   2.990   6.793
 9637SOL    HW229811   2.240   2.880   6.911
 9638SOL     OW29812   6.348   5.389   5.084
 9638SOL    HW129813   6.372   5.470   5.138
 9638SOL    HW229814   6.253   5.396   5.055
 9639SOL     OW29815   4.128   1.594   2.130
 9639SOL    HW129816   4.095   1.676   2.177
 9639SOL    HW229817   4.105   1.513   2.184
 9640SOL     OW29818   4.698   0.330   2.916
 9640SOL    HW129819   4.680   0.284   3.003
 9640SOL    HW229820   4.672   0.426   2.923
 9641SOL     OW29821   6.511   3.859   2.987
 9641SOL    HW129822   6.416   3.889   2.997
 9641SOL    HW229823   6.526   3.827   2.893
 9642SOL     OW29824   1.165   0.777   4.503
 9642SOL    HW129825   1.250   0.801   4.550
 9642SOL    HW229826   1.103   0.855   4.504
 9643SOL     OW29827   4.597   4.754   4.600
 9643SOL    HW129828   4.547   4.699   4.533
 9643SOL    HW229829   4.691   4.722   4.605
 9644SOL     OW29830   1.526   5.034   4.371
 9644SOL    HW129831   1.525   5.069   4.278
 9644SOL    HW229832   1.602   4.969   4.382
 9645SOL     OW29833   0.657   5.061   6.037
 9645SOL    HW129834   0.689   4.971   6.006
 9645SOL    HW229835   0.667   5.068   6.136
 9646SOL     OW29836   3.399   5.507   5.863
 9646SOL    HW129837   3.335   5.443   5.820
 9646SOL    HW229838   3.452   5.458   5.932
 9647SOL     OW29839   6.374   0.044   3.461
 9647SOL    HW129840   6.311   0.066   3.387
 9647SOL    HW229841   6.441   0.118   3.470
 9648SOL     OW29842   3.843   2.086   1.100
 9648SOL    HW129843   3.805   1.994   1.096
 9648SOL    HW229844   3.814   2.131   1.184
 9649SOL     OW29845   0.960   5.822   6.812
 9649SOL    HW129846   0.913   5.822   6.724
 9649SOL    HW229847   1.049   5.867   6.804
 9650SOL     OW29848   6.763   4.634   4.225
 9650SOL    HW129849   6.853   4.596   4.205
 9650SOL    HW229850   6.763   4.732   4.204
 9651SOL     OW29851   4.513   1.798   0.556
 9651SOL    HW129852   4.608   1.769   0.546
 9651SOL    HW229853   4.472   1.753   0.635
 9652SOL     OW29854   0.026   3.598   0.290
 9652SOL    HW129855   0.019   3.651   0.375
 9652SOL    HW229856   6.972   3.626   0.227
 9653SOL     OW29857   4.180   4.658   6.194
 9653SOL    HW129858   4.218   4.653   6.286
 9653SOL    HW229859   4.231   4.724   6.140
 9654SOL     OW29860   3.467   3.339   2.927
 9654SOL    HW129861   3.432   3.431   2.912
 9654SOL    HW229862   3.461   3.287   2.842
 9655SOL     OW29863   3.962   1.270   1.393
 9655SOL    HW129864   3.871   1.288   1.430
 9655SOL    HW229865   4.002   1.192   1.440
 9656SOL     OW29866   5.932   3.636   0.383
 9656SOL    HW129867   5.924   3.623   0.284
 9656SOL    HW229868   6.012   3.693   0.402
 9657SOL     OW29869   6.079   4.338   3.619
 9657SOL    HW129870   6.037   4.373   3.702
 9657SOL    HW229871   6.140   4.263   3.641
 9658SOL     OW29872   4.811   2.406   3.123
 9658SOL    HW129873   4.854   2.493   3.147
 9658SOL    HW229874   4.734   2.389   3.185
 9659SOL     OW29875   2.732   3.402   0.567
 9659SOL    HW129876   2.775   3.485   0.532
 9659SOL    HW229877   2.803   3.340   0.601
 9660SOL     OW29878   1.668   5.920   1.881
 9660SOL    HW129879   1.575   5.884   1.883
 9660SOL    HW229880   1.669   6.007   1.832
 9661SOL     OW29881   4.607   4.530   1.074
 9661SOL    HW129882   4.703   4.514   1.097
 9661SOL    HW229883   4.551   4.513   1.156
 9662SOL     OW29884   5.565   5.346   6.055
 9662SOL    HW129885   5.574   5.267   6.116
 9662SOL    HW229886   5.636   5.413   6.077
 9663SOL     OW29887   0.787   5.352   3.115
 9663SOL    HW129888   0.805   5.263   3.156
 9663SOL    HW229889   0.842   5.422   3.160
 9664SOL     OW29890   4.728   4.239   2.600
 9664SOL    HW129891   4.693   4.145   2.590
 9664SOL    HW229892   4.703   4.292   2.519
 9665SOL     OW29893   6.189   5.936   6.602
 9665SOL    HW129894   6.241   5.860   6.563
 9665SOL    HW229895   6.221   6.022   6.563
 9666SOL     OW29896   6.245   3.757   0.340
 9666SOL    HW129897   6.195   3.834   0.381
 9666SOL    HW229898   6.332   3.789   0.303
 9667SOL     OW29899   6.059   6.331   6.438
 9667SOL    HW129900   6.013   6.297   6.356
 9667SOL    HW229901   5.992   6.377   6.497
 9668SOL     OW29902   0.442   0.500   5.946
 9668SOL    HW129903   0.465   0.403   5.957
 9668SOL    HW229904   0.354   0.518   5.990
 9669SOL     OW29905   3.778   0.360   0.117
 9669SOL    HW129906   3.679   0.355   0.110
 9669SOL    HW229907   3.816   0.267   0.121
 9670SOL     OW29908   6.994   0.120   6.716
 9670SOL    HW129909   6.974   0.056   6.790
 9670SOL    HW229910   6.953   0.087   6.631
 9671SOL     OW29911   0.781   5.535   6.621
 9671SOL    HW129912   0.707   5.476   6.654
 9671SOL    HW229913   0.865   5.481   6.613
 9672SOL     OW29914   1.152   3.517   3.886
 9672SOL    HW129915   1.120   3.486   3.975
 9672SOL    HW229916   1.080   3.502   3.817
 9673SOL     OW29917   2.179   4.127   0.338
 9673SOL    HW129918   2.193   4.032   0.312
 9673SOL    HW229919   2.212   4.188   0.265
 9674SOL     OW29920   2.406   5.918   4.083
 9674SOL    HW129921   2.488   5.967   4.113
 9674SOL    HW229922   2.431   5.850   4.015
 9675SOL     OW29923   5.165   3.024   0.582
 9675SOL    HW129924   5.104   3.103   0.572
 9675SOL    HW229925   5.165   2.994   0.678
 9676SOL     OW29926   0.260   2.970   6.878
 9676SOL    HW129927   0.270   2.954   6.780
 9676SOL    HW229928   0.304   2.896   6.929
 9677SOL     OW29929   0.150   5.043   0.911
 9677SOL    HW129930   0.106   4.996   0.987
 9677SOL    HW229931   0.235   5.085   0.941
 9678SOL     OW29932   3.493   3.606   5.176
 9678SOL    HW129933   3.460   3.533   5.235
 9678SOL    HW229934   3.433   3.685   5.183
 9679SOL     OW29935   1.653   1.749   4.699
 9679SOL    HW129936   1.744   1.764   4.737
 9679SOL    HW229937   1.643   1.803   4.615
 9680SOL     OW29938   4.856   6.127   1.970
 9680SOL    HW129939   4.852   6.187   2.050
 9680SOL    HW229940   4.778   6.145   1.910
 9681SOL     OW29941   1.721   1.436   1.858
 9681SOL    HW129942   1.762   1.362   1.805
 9681SOL    HW229943   1.624   1.416   1.875
 9682SOL     OW29944   4.516   5.745   5.625
 9682SOL    HW129945   4.429   5.760   5.672
 9682SOL    HW229946   4.514   5.657   5.578
 9683SOL     OW29947   3.326   6.387   2.240
 9683SOL    HW129948   3.420   6.359   2.257
 9683SOL    HW229949   3.323   6.449   2.162
 9684SOL     OW29950   0.164   3.619   5.748
 9684SOL    HW129951   0.141   3.640   5.843
 9684SOL    HW229952   0.254   3.657   5.726
 9685SOL     OW29953   3.902   4.023   1.712
 9685SOL    HW129954   3.944   4.113   1.727
 9685SOL    HW229955   3.804   4.035   1.696
 9686SOL     OW29956   6.511   2.068   5.519
 9686SOL    HW129957   6.553   2.006   5.585
 9686SOL    HW229958   6.576   2.088   5.445
 9687SOL     OW29959   5.865   1.284   2.612
 9687SOL    HW129960   5.959   1.263   2.586
 9687SOL    HW229961   5.856   1.279   2.711
 9688SOL     OW29962   0.269   4.813   1.284
 9688SOL    HW129963   0.365   4.784   1.284
 9688SOL    HW229964   0.253   4.875   1.208
 9689SOL     OW29965   1.721   6.089   1.053
 9689SOL    HW129966   1.658   6.103   1.129
 9689SOL    HW229967   1.799   6.151   1.061
 9690SOL     OW29968   6.487   5.588   4.522
 9690SOL    HW129969   6.532   5.548   4.443
 9690SOL    HW229970   6.390   5.565   4.520
 9691SOL     OW29971   3.088   4.072   2.162
 9691SOL    HW129972   3.023   4.147   2.169
 9691SOL    HW229973   3.148   4.086   2.084
 9692SOL     OW29974   5.168   4.682   1.416
 9692SOL    HW129975   5.262   4.718   1.412
 9692SOL    HW229976   5.103   4.758   1.418
 9693SOL     OW29977   5.410   3.637   4.687
 9693SOL    HW129978   5.349   3.575   4.735
 9693SOL    HW229979   5.492   3.588   4.658
 9694SOL     OW29980   3.106   6.568   2.588
 9694SOL    HW129981   3.190   6.621   2.588
 9694SOL    HW229982   3.088   6.533   2.497
 9695SOL     OW29983   1.086   2.017   3.487
 9695SOL    HW129984   0.991   2.007   3.518
 9695SOL    HW229985   1.145   2.034   3.565
 9696SOL     OW29986   5.747   2.153   3.003
 9696SOL    HW129987   5.689   2.092   3.058
 9696SOL    HW229988   5.701   2.175   2.917
 9697SOL     OW29989   1.364   6.724   0.619
 9697SOL    HW129990   1.392   6.654   0.684
 9697SOL    HW229991   1.300   6.787   0.663
 9698SOL     OW29992   6.040   3.196   1.484
 9698SOL    HW129993   5.959   3.178   1.540
 9698SOL    HW229994   6.049   3.294   1.468
 9699SOL     OW29995   1.363   5.323   0.603
 9699SOL    HW129996   1.426   5.387   0.646
 9699SOL    HW229997   1.269   5.350   0.624
 9700SOL     OW29998   5.416   0.278   5.420
 9700SOL    HW129999   5.385   0.250   5.511
 9700SOL    HW230000   5.497   0.336   5.428
 9701SOL     OW30001   4.813   3.538   6.201
 9701SOL    HW130002   4.780   3.555   6.294
 9701SOL    HW230003   4.754   3.471   6.156
 9702SOL     OW30004   3.595   3.504   1.436
 9702SOL    HW130005   3.513   3.552   1.406
 9702SOL    HW230006   3.569   3.428   1.496
 9703SOL     OW30007   6.900   4.129   4.001
 9703SOL    HW130008   6.943   4.068   3.935
 9703SOL    HW230009   6.969   4.184   4.047
 9704SOL     OW30010   1.909   4.007   2.640
 9704SOL    HW130011   1.932   3.977   2.548
 9704SOL    HW230012   1.810   4.002   2.654
 9705SOL     OW30013   6.173   3.516   5.619
 9705SOL    HW130014   6.230   3.442   5.580
 9705SOL    HW230015   6.185   3.517   5.718
 9706SOL     OW30016   0.810   1.150   1.989
 9706SOL    HW130017   0.811   1.248   2.010
 9706SOL    HW230018   0.904   1.117   1.982
 9707SOL     OW30019   0.890   4.867   2.197
 9707SOL    HW130020   0.967   4.869   2.133
 9707SOL    HW230021   0.901   4.940   2.265
 9708SOL     OW30022   2.226   0.573   2.207
 9708SOL    HW130023   2.233   0.477   2.234
 9708SOL    HW230024   2.163   0.620   2.269
 9709SOL     OW30025   4.977   2.135   1.631
 9709SOL    HW130026   4.992   2.133   1.730
 9709SOL    HW230027   4.918   2.058   1.605
 9710SOL     OW30028   6.870   5.215   3.663
 9710SOL    HW130029   6.913   5.176   3.582
 9710SOL    HW230030   6.787   5.265   3.637
 9711SOL     OW30031   4.014   0.191   0.238
 9711SOL    HW130032   3.932   0.209   0.292
 9711SOL    HW230033   4.066   0.117   0.280
 9712SOL     OW30034   5.676   1.886   6.467
 9712SOL    HW130035   5.767   1.885   6.508
 9712SOL    HW230036   5.621   1.812   6.505
 9713SOL     OW30037   1.111   0.039   3.380
 9713SOL    HW130038   1.111   0.097   3.298
 9713SOL    HW230039   1.133   6.964   3.354
 9714SOL     OW30040   2.424   4.711   4.541
 9714SOL    HW130041   2.441   4.617   4.569
 9714SOL    HW230042   2.507   4.765   4.550
 9715SOL     OW30043   6.414   3.644   6.659
 9715SOL    HW130044   6.478   3.632   6.735
 9715SOL    HW230045   6.455   3.607   6.576
 9716SOL     OW30046   2.466   5.164   6.880
 9716SOL    HW130047   2.420   5.100   6.941
 9716SOL    HW230048   2.423   5.254   6.887
 9717SOL     OW30049   4.073   1.406   5.287
 9717SOL    HW130050   4.003   1.405   5.215
 9717SOL    HW230051   4.029   1.396   5.376
 9718SOL     OW30052   3.887   2.890   6.756
 9718SOL    HW130053   3.847   2.886   6.847
 9718SOL    HW230054   3.816   2.872   6.687
 9719SOL     OW30055   4.653   6.849   5.284
 9719SOL    HW130056   4.696   6.862   5.195
 9719SOL    HW230057   4.585   6.921   5.299
 9720SOL     OW30058   2.094   3.655   3.233
 9720SOL    HW130059   2.138   3.672   3.145
 9720SOL    HW230060   1.999   3.628   3.217
 9721SOL     OW30061   1.032   1.751   0.511
 9721SOL    HW130062   1.131   1.736   0.522
 9721SOL    HW230063   0.990   1.756   0.602
 9722SOL     OW30064   4.011   3.038   5.266
 9722SOL    HW130065   3.934   3.098   5.289
 9722SOL    HW230066   3.976   2.951   5.229
 9723SOL     OW30067   6.784   6.462   4.843
 9723SOL    HW130068   6.689   6.491   4.852
 9723SOL    HW230069   6.840   6.513   4.908
 9724SOL     OW30070   1.590   5.315   0.108
 9724SOL    HW130071   1.593   5.382   0.034
 9724SOL    HW230072   1.574   5.224   0.070
 9725SOL     OW30073   4.031   5.035   5.470
 9725SOL    HW130074   4.038   5.017   5.568
 9725SOL    HW230075   3.966   5.109   5.454
 9726SOL     OW30076   6.402   1.538   4.427
 9726SOL    HW130077   6.315   1.564   4.385
 9726SOL    HW230078   6.450   1.620   4.458
 9727SOL     OW30079   0.297   1.318   0.202
 9727SOL    HW130080   0.331   1.391   0.262
 9727SOL    HW230081   0.373   1.280   0.149
 9728SOL     OW30082   4.677   1.565   5.435
 9728SOL    HW130083   4.593   1.585   5.384
 9728SOL    HW230084   4.653   1.542   5.529
 9729SOL     OW30085   0.487   4.976   3.335
 9729SOL    HW130086   0.500   4.992   3.237
 9729SOL    HW230087   0.496   4.879   3.355
 9730SOL     OW30088   0.407   3.984   2.932
 9730SOL    HW130089   0.413   4.069   2.984
 9730SOL    HW230090   0.324   3.935   2.959
 9731SOL     OW30091   5.260   3.383   2.172
 9731SOL    HW130092   5.211   3.407   2.089
 9731SOL    HW230093   5.203   3.402   2.252
 9732SOL     OW30094   1.734   2.967   2.907
 9732SOL    HW130095   1.778   3.047   2.947
 9732SOL    HW230096   1.780   2.943   2.821
 9733SOL     OW30097   6.600   4.770   2.235
 9733SOL    HW130098   6.502   4.783   2.249
 9733SOL    HW230099   6.650   4.845   2.278
 9734SOL     OW30100   5.972   6.010   6.176
 9734SOL    HW130101   5.948   5.951   6.253
 9734SOL    HW230102   6.068   5.996   6.153
 9735SOL     OW30103   0.875   2.770   1.186
 9735SOL    HW130104   0.972   2.793   1.178
 9735SOL    HW230105   0.865   2.670   1.194
 9736SOL     OW30106   5.503   1.866   4.803
 9736SOL    HW130107   5.532   1.780   4.762
 9736SOL    HW230108   5.580   1.907   4.852
 9737SOL     OW30109   5.594   2.737   2.977
 9737SOL    HW130110   5.584   2.663   2.910
 9737SOL    HW230111   5.612   2.697   3.067
 9738SOL     OW30112   2.268   6.333   1.837
 9738SOL    HW130113   2.237   6.251   1.885
 9738SOL    HW230114   2.344   6.309   1.776
 9739SOL     OW30115   5.855   6.653   6.971
 9739SOL    HW130116   5.762   6.664   6.936
 9739SOL    HW230117   5.919   6.705   6.914
 9740SOL     OW30118   6.170   0.773   2.676
 9740SOL    HW130119   6.205   0.851   2.625
 9740SOL    HW230120   6.235   0.697   2.669
 9741SOL     OW30121   2.794   1.630   4.238
 9741SOL    HW130122   2.715   1.660   4.184
 9741SOL    HW230123   2.776   1.644   4.335
 9742SOL     OW30124   3.726   2.049   5.933
 9742SOL    HW130125   3.741   1.952   5.953
 9742SOL    HW230126   3.657   2.058   5.862
 9743SOL     OW30127   5.380   3.523   3.924
 9743SOL    HW130128   5.306   3.589   3.910
 9743SOL    HW230129   5.468   3.569   3.910
 9744SOL     OW30130   1.842   0.478   4.193
 9744SOL    HW130131   1.875   0.570   4.173
 9744SOL    HW230132   1.890   0.442   4.272
 9745SOL     OW30133   0.058   0.615   5.684
 9745SOL    HW130134   0.142   0.667   5.694
 9745SOL    HW230135   0.077   0.530   5.634
 9746SOL     OW30136   4.049   5.566   6.333
 9746SOL    HW130137   3.996   5.623   6.271
 9746SOL    HW230138   4.103   5.625   6.394
 9747SOL     OW30139   2.566   2.140   2.701
 9747SOL    HW130140   2.532   2.146   2.795
 9747SOL    HW230141   2.665   2.123   2.703
 9748SOL     OW30142   1.726   1.113   3.801
 9748SOL    HW130143   1.752   1.192   3.857
 9748SOL    HW230144   1.798   1.093   3.735
 9749SOL     OW30145   6.910   1.498   2.110
 9749SOL    HW130146   6.820   1.531   2.083
 9749SOL    HW230147   6.955   1.454   2.032
 9750SOL     OW30148   0.251   3.613   3.725
 9750SOL    HW130149   0.254   3.680   3.799
 9750SOL    HW230150   0.180   3.545   3.744
 9751SOL     OW30151   2.984   0.642   1.347
 9751SOL    HW130152   3.081   0.650   1.373
 9751SOL    HW230153   2.976   0.579   1.270
 9752SOL     OW30154   3.321   3.289   6.772
 9752SOL    HW130155   3.234   3.247   6.748
 9752SOL    HW230156   3.348   3.262   6.864
 9753SOL     OW30157   6.992   6.288   4.958
 9753SOL    HW130158   6.900   6.323   4.939
 9753SOL    HW230159   6.990   6.233   5.041
 9754SOL     OW30160   3.422   0.953   1.809
 9754SOL    HW130161   3.383   0.873   1.765
 9754SOL    HW230162   3.502   0.984   1.757
 9755SOL     OW30163   3.247   4.288   0.008
 9755SOL    HW130164   3.338   4.251   7.015
 9755SOL    HW230165   3.252   4.373   0.062
 9756SOL     OW30166   5.984   0.251   5.839
 9756SOL    HW130167   5.927   0.170   5.845
 9756SOL    HW230168   5.958   0.316   5.910
 9757SOL     OW30169   5.447   4.224   3.660
 9757SOL    HW130170   5.441   4.302   3.723
 9757SOL    HW230171   5.456   4.258   3.567
 9758SOL     OW30172   1.883   0.345   2.103
 9758SOL    HW130173   1.919   0.280   2.169
 9758SOL    HW230174   1.955   0.408   2.075
 9759SOL     OW30175   0.154   1.150   1.107
 9759SOL    HW130176   0.177   1.133   1.011
 9759SOL    HW230177   0.149   1.064   1.157
 9760SOL     OW30178   4.544   1.323   6.928
 9760SOL    HW130179   4.546   1.357   6.834
 9760SOL    HW230180   4.452   1.334   6.966
 9761SOL     OW30181   1.394   2.096   1.077
 9761SOL    HW130182   1.306   2.050   1.089
 9761SOL    HW230183   1.439   2.107   1.166
 9762SOL     OW30184   2.602   1.771   5.828
 9762SOL    HW130185   2.575   1.793   5.735
 9762SOL    HW230186   2.604   1.672   5.840
 9763SOL     OW30187   5.812   0.826   0.875
 9763SOL    HW130188   5.755   0.898   0.833
 9763SOL    HW230189   5.858   0.864   0.956
 9764SOL     OW30190   6.353   2.394   2.216
 9764SOL    HW130191   6.394   2.376   2.305
 9764SOL    HW230192   6.417   2.448   2.161
 9765SOL     OW30193   6.427   0.404   1.637
 9765SOL    HW130194   6.424   0.411   1.538
 9765SOL    HW230195   6.492   0.471   1.673
 9766SOL     OW30196   2.349   1.893   4.615
 9766SOL    HW130197   2.252   1.919   4.613
 9766SOL    HW230198   2.391   1.929   4.698
 9767SOL     OW30199   2.237   3.274   5.878
 9767SOL    HW130200   2.312   3.208   5.870
 9767SOL    HW230201   2.265   3.350   5.936
 9768SOL     OW30202   6.030   2.877   0.912
 9768SOL    HW130203   6.013   2.802   0.976
 9768SOL    HW230204   6.098   2.847   0.844
 9769SOL     OW30205   3.314   1.878   5.320
 9769SOL    HW130206   3.408   1.878   5.287
 9769SOL    HW230207   3.255   1.923   5.253
 9770SOL     OW30208   3.035   2.274   6.105
 9770SOL    HW130209   3.093   2.242   6.179
 9770SOL    HW230210   3.092   2.319   6.035
 9771SOL     OW30211   3.261   6.130   2.876
 9771SOL    HW130212   3.284   6.228   2.876
 9771SOL    HW230213   3.345   6.076   2.873
 9772SOL     OW30214   0.957   0.346   0.981
 9772SOL    HW130215   1.051   0.317   0.964
 9772SOL    HW230216   0.959   0.434   1.030
 9773SOL     OW30217   5.179   4.571   2.142
 9773SOL    HW130218   5.096   4.534   2.100
 9773SOL    HW230219   5.206   4.655   2.095
 9774SOL     OW30220   0.929   5.632   4.971
 9774SOL    HW130221   0.962   5.712   4.921
 9774SOL    HW230222   0.989   5.554   4.952
 9775SOL     OW30223   2.298   1.340   3.382
 9775SOL    HW130224   2.335   1.298   3.299
 9775SOL    HW230225   2.284   1.438   3.367
 9776SOL     OW30226   1.612   5.965   6.933
 9776SOL    HW130227   1.649   5.873   6.942
 9776SOL    HW230228   1.581   5.980   6.840
 9777SOL     OW30229   4.555   0.662   5.017
 9777SOL    HW130230   4.554   0.577   5.070
 9777SOL    HW230231   4.542   0.740   5.078
 9778SOL     OW30232   0.229   3.026   4.039
 9778SOL    HW130233   0.240   3.002   3.943
 9778SOL    HW230234   0.145   3.078   4.051
 9779SOL     OW30235   2.185   0.999   3.864
 9779SOL    HW130236   2.135   0.921   3.826
 9779SOL    HW230237   2.124   1.051   3.925
 9780SOL     OW30238   1.485   2.783   1.644
 9780SOL    HW130239   1.395   2.822   1.662
 9780SOL    HW230240   1.508   2.797   1.547
 9781SOL     OW30241   2.072   2.619   3.272
 9781SOL    HW130242   1.981   2.659   3.266
 9781SOL    HW230243   2.065   2.521   3.289
 9782SOL     OW30244   6.953   2.394   1.431
 9782SOL    HW130245   6.885   2.322   1.430
 9782SOL    HW230246   0.016   2.364   1.383
 9783SOL     OW30247   3.650   1.228   3.229
 9783SOL    HW130248   3.718   1.301   3.233
 9783SOL    HW230249   3.566   1.259   3.274
 9784SOL     OW30250   1.636   1.237   6.413
 9784SOL    HW130251   1.681   1.172   6.352
 9784SOL    HW230252   1.540   1.248   6.385
 9785SOL     OW30253   0.717   2.832   4.389
 9785SOL    HW130254   0.712   2.927   4.360
 9785SOL    HW230255   0.805   2.793   4.362
 9786SOL     OW30256   2.321   4.539   1.114
 9786SOL    HW130257   2.363   4.449   1.127
 9786SOL    HW230258   2.356   4.602   1.184
 9787SOL     OW30259   3.297   3.560   3.337
 9787SOL    HW130260   3.306   3.474   3.286
 9787SOL    HW230261   3.253   3.543   3.425
 9788SOL     OW30262   5.482   6.792   1.882
 9788SOL    HW130263   5.580   6.798   1.901
 9788SOL    HW230264   5.467   6.737   1.800
 9789SOL     OW30265   3.779   0.879   6.665
 9789SOL    HW130266   3.876   0.876   6.643
 9789SOL    HW230267   3.759   0.814   6.739
 9790SOL     OW30268   0.305   4.614   4.136
 9790SOL    HW130269   0.382   4.677   4.149
 9790SOL    HW230270   0.337   4.530   4.093
 9791SOL     OW30271   1.432   6.530   0.825
 9791SOL    HW130272   1.526   6.566   0.826
 9791SOL    HW230273   1.435   6.431   0.838
 9792SOL     OW30274   4.132   6.162   0.311
 9792SOL    HW130275   4.175   6.199   0.394
 9792SOL    HW230276   4.087   6.236   0.261
 9793SOL     OW30277   5.099   1.269   3.601
 9793SOL    HW130278   5.015   1.241   3.554
 9793SOL    HW230279   5.114   1.209   3.680
 9794SOL     OW30280   4.501   4.907   4.838
 9794SOL    HW130281   4.515   4.860   4.751
 9794SOL    HW230282   4.414   4.880   4.878
 9795SOL     OW30283   1.552   3.716   3.034
 9795SOL    HW130284   1.468   3.699   2.983
 9795SOL    HW230285   1.625   3.743   2.971
 9796SOL     OW30286   3.705   3.774   3.772
 9796SOL    HW130287   3.709   3.858   3.827
 9796SOL    HW230288   3.633   3.714   3.808
 9797SOL     OW30289   3.239   6.189   6.631
 9797SOL    HW130290   3.224   6.179   6.533
 9797SOL    HW230291   3.337   6.194   6.649
 9798SOL     OW30292   1.232   3.609   0.194
 9798SOL    HW130293   1.169   3.553   0.141
 9798SOL    HW230294   1.285   3.550   0.255
 9799SOL     OW30295   3.051   0.024   6.784
 9799SOL    HW130296   3.034   6.993   6.869
 9799SOL    HW230297   3.063   0.122   6.805
 9800SOL     OW30298   6.338   3.553   4.720
 9800SOL    HW130299   6.341   3.581   4.816
 9800SOL    HW230300   6.426   3.513   4.695
 9801SOL     OW30301   6.172   6.022   6.890
 9801SOL    HW130302   6.262   6.061   6.909
 9801SOL    HW230303   6.174   5.974   6.802
 9802SOL     OW30304   3.993   4.632   7.008
 9802SOL    HW130305   4.022   4.563   6.942
 9802SOL    HW230306   3.989   4.592   0.081
 9803SOL     OW30307   0.733   3.767   6.777
 9803SOL    HW130308   0.814   3.744   6.830
 9803SOL    HW230309   0.681   3.838   6.824
 9804SOL     OW30310   0.251   5.527   2.485
 9804SOL    HW130311   0.269   5.428   2.485
 9804SOL    HW230312   0.338   5.576   2.473
 9805SOL     OW30313   1.236   6.128   3.918
 9805SOL    HW130314   1.259   6.154   4.012
 9805SOL    HW230315   1.256   6.031   3.904
 9806SOL     OW30316   3.240   2.054   6.557
 9806SOL    HW130317   3.170   2.061   6.629
 9806SOL    HW230318   3.316   2.116   6.579
 9807SOL     OW30319   3.296   4.004   2.317
 9807SOL    HW130320   3.217   4.037   2.266
 9807SOL    HW230321   3.380   4.021   2.264
 9808SOL     OW30322   4.349   6.234   3.312
 9808SOL    HW130323   4.368   6.187   3.226
 9808SOL    HW230324   4.368   6.331   3.302
 9809SOL     OW30325   0.188   3.266   0.708
 9809SOL    HW130326   0.113   3.219   0.754
 9809SOL    HW230327   0.153   3.314   0.628
 9810SOL     OW30328   2.192   1.538   6.219
 9810SOL    HW130329   2.135   1.485   6.157
 9810SOL    HW230330   2.238   1.611   6.169
 9811SOL     OW30331   6.287   3.946   3.537
 9811SOL    HW130332   6.226   3.946   3.616
 9811SOL    HW230333   6.263   4.023   3.476
 9812SOL     OW30334   3.473   6.031   5.115
 9812SOL    HW130335   3.572   6.031   5.110
 9812SOL    HW230336   3.436   5.988   5.032
 9813SOL     OW30337   4.820   2.230   1.159
 9813SOL    HW130338   4.885   2.286   1.107
 9813SOL    HW230339   4.840   2.238   1.256
 9814SOL     OW30340   5.907   0.972   0.167
 9814SOL    HW130341   5.862   1.059   0.185
 9814SOL    HW230342   5.988   0.987   0.110
 9815SOL     OW30343   4.336   2.286   5.000
 9815SOL    HW130344   4.277   2.351   5.047
 9815SOL    HW230345   4.289   2.198   4.992
 9816SOL     OW30346   1.906   0.034   0.319
 9816SOL    HW130347   1.903   6.957   0.346
 9816SOL    HW230348   1.813   0.071   0.317
 9817SOL     OW30349   6.965   6.506   3.325
 9817SOL    HW130350   6.905   6.579   3.356
 9817SOL    HW230351   0.018   6.491   3.393
 9818SOL     OW30352   6.641   2.586   4.695
 9818SOL    HW130353   6.592   2.536   4.767
 9818SOL    HW230354   6.598   2.570   4.607
 9819SOL     OW30355   3.706   1.490   3.283
 9819SOL    HW130356   3.630   1.550   3.307
 9819SOL    HW230357   3.782   1.545   3.250
 9820SOL     OW30358   4.573   4.177   5.874
 9820SOL    HW130359   4.611   4.246   5.813
 9820SOL    HW230360   4.489   4.140   5.833
 9821SOL     OW30361   5.926   6.098   0.024
 9821SOL    HW130362   5.933   6.067   0.119
 9821SOL    HW230363   6.016   6.097   7.000
 9822SOL     OW30364   0.546   0.060   3.238
 9822SOL    HW130365   0.479   0.134   3.240
 9822SOL    HW230366   0.549   0.021   3.145
 9823SOL     OW30367   3.245   1.169   1.852
 9823SOL    HW130368   3.282   1.076   1.850
 9823SOL    HW230369   3.299   1.228   1.792
 9824SOL     OW30370   1.605   4.569   4.702
 9824SOL    HW130371   1.701   4.586   4.676
 9824SOL    HW230372   1.556   4.533   4.623
 9825SOL     OW30373   3.792   4.479   5.282
 9825SOL    HW130374   3.701   4.482   5.241
 9825SOL    HW230375   3.786   4.439   5.374
 9826SOL     OW30376   4.103   6.779   5.792
 9826SOL    HW130377   4.156   6.698   5.769
 9826SOL    HW230378   4.113   6.798   5.890
 9827SOL     OW30379   0.830   3.764   4.680
 9827SOL    HW130380   0.924   3.785   4.653
 9827SOL    HW230381   0.825   3.669   4.710
 9828SOL     OW30382   4.134   2.359   0.007
 9828SOL    HW130383   4.128   2.395   6.932
 9828SOL    HW230384   4.177   2.269   0.005
 9829SOL     OW30385   1.777   5.993   0.291
 9829SOL    HW130386   1.750   5.898   0.279
 9829SOL    HW230387   1.817   6.027   0.206
 9830SOL     OW30388   6.082   1.534   1.895
 9830SOL    HW130389   6.030   1.536   1.809
 9830SOL    HW230390   6.085   1.440   1.930
 9831SOL     OW30391   0.571   6.523   1.975
 9831SOL    HW130392   0.549   6.563   2.063
 9831SOL    HW230393   0.653   6.566   1.938
 9832SOL     OW30394   4.655   5.322   1.836
 9832SOL    HW130395   4.673   5.403   1.891
 9832SOL    HW230396   4.739   5.270   1.825
 9833SOL     OW30397   3.514   3.950   4.987
 9833SOL    HW130398   3.442   3.946   4.917
 9833SOL    HW230399   3.602   3.928   4.945
 9834SOL     OW30400   1.198   3.692   5.174
 9834SOL    HW130401   1.260   3.613   5.164
 9834SOL    HW230402   1.104   3.663   5.156
 9835SOL     OW30403   5.242   1.519   4.342
 9835SOL    HW130404   5.309   1.463   4.392
 9835SOL    HW230405   5.151   1.477   4.351
 9836SOL     OW30406   5.241   4.536   3.277
 9836SOL    HW130407   5.294   4.511   3.196
 9836SOL    HW230408   5.233   4.635   3.283
 9837SOL     OW30409   2.418   6.589   4.210
 9837SOL    HW130410   2.425   6.633   4.121
 9837SOL    HW230411   2.356   6.641   4.269
 9838SOL     OW30412   0.725   6.764   6.150
 9838SOL    HW130413   0.658   6.743   6.079
 9838SOL    HW230414   0.817   6.756   6.111
 9839SOL     OW30415   6.712   1.444   1.301
 9839SOL    HW130416   6.708   1.373   1.372
 9839SOL    HW230417   6.683   1.406   1.214
 9840SOL     OW30418   0.271   0.316   0.828
 9840SOL    HW130419   0.320   0.396   0.792
 9840SOL    HW230420   0.225   0.341   0.913
 9841SOL     OW30421   1.630   4.052   4.705
 9841SOL    HW130422   1.576   4.121   4.657
 9841SOL    HW230423   1.727   4.071   4.691
 9842SOL     OW30424   2.977   3.232   2.701
 9842SOL    HW130425   3.065   3.280   2.693
 9842SOL    HW230426   2.965   3.200   2.795
 9843SOL     OW30427   6.891   1.656   1.171
 9843SOL    HW130428   6.801   1.626   1.201
 9843SOL    HW230429   6.957   1.582   1.185
 9844SOL     OW30430   5.104   0.090   2.426
 9844SOL    HW130431   5.119   0.164   2.360
 9844SOL    HW230432   5.055   0.015   2.381
 9845SOL     OW30433   2.115   2.069   3.890
 9845SOL    HW130434   2.165   2.118   3.818
 9845SOL    HW230435   2.048   2.008   3.847
 9846SOL     OW30436   3.329   4.134   3.175
 9846SOL    HW130437   3.305   4.099   3.085
 9846SOL    HW230438   3.255   4.114   3.239
 9847SOL     OW30439   1.904   3.196   6.432
 9847SOL    HW130440   1.809   3.203   6.402
 9847SOL    HW230441   1.937   3.104   6.412
 9848SOL     OW30442   4.407   3.085   6.847
 9848SOL    HW130443   4.455   3.168   6.874
 9848SOL    HW230444   4.463   3.005   6.867
 9849SOL     OW30445   6.721   6.786   6.377
 9849SOL    HW130446   6.743   6.864   6.319
 9849SOL    HW230447   6.637   6.742   6.343
 9850SOL     OW30448   4.062   0.071   2.424
 9850SOL    HW130449   4.072   0.151   2.482
 9850SOL    HW230450   4.092   0.093   2.331
 9851SOL     OW30451   4.878   1.963   5.329
 9851SOL    HW130452   4.833   2.041   5.286
 9851SOL    HW230453   4.950   1.929   5.268
 9852SOL     OW30454   4.690   2.134   3.834
 9852SOL    HW130455   4.752   2.061   3.865
 9852SOL    HW230456   4.612   2.093   3.788
 9853SOL     OW30457   5.750   4.111   2.541
 9853SOL    HW130458   5.822   4.143   2.602
 9853SOL    HW230459   5.661   4.135   2.580
 9854SOL     OW30460   5.305   5.503   4.429
 9854SOL    HW130461   5.231   5.458   4.478
 9854SOL    HW230462   5.383   5.441   4.421
 9855SOL     OW30463   0.806   4.424   1.192
 9855SOL    HW130464   0.767   4.499   1.244
 9855SOL    HW230465   0.770   4.337   1.225
 9856SOL     OW30466   3.713   3.816   0.666
 9856SOL    HW130467   3.614   3.824   0.655
 9856SOL    HW230468   3.743   3.875   0.741
 9857SOL     OW30469   5.318   2.485   2.897
 9857SOL    HW130470   5.325   2.523   2.989
 9857SOL    HW230471   5.263   2.401   2.901
 9858SOL     OW30472   5.278   1.207   2.247
 9858SOL    HW130473   5.257   1.188   2.342
 9858SOL    HW230474   5.376   1.223   2.237
 9859SOL     OW30475   5.792   0.598   1.296
 9859SOL    HW130476   5.801   0.697   1.287
 9859SOL    HW230477   5.836   0.569   1.381
 9860SOL     OW30478   0.039   0.491   2.263
 9860SOL    HW130479   6.973   0.534   2.292
 9860SOL    HW230480   0.082   0.444   2.341
 9861SOL     OW30481   4.004   6.212   4.289
 9861SOL    HW130482   3.926   6.270   4.268
 9861SOL    HW230483   4.027   6.221   4.386
 9862SOL     OW30484   2.154   3.314   0.398
 9862SOL    HW130485   2.231   3.305   0.335
 9862SOL    HW230486   2.171   3.258   0.479
 9863SOL     OW30487   3.428   0.045   2.736
 9863SOL    HW130488   3.515   0.057   2.785
 9863SOL    HW230489   3.417   0.120   2.670
 9864SOL     OW30490   4.248   5.186   4.146
 9864SOL    HW130491   4.161   5.188   4.097
 9864SOL    HW230492   4.322   5.169   4.081
 9865SOL     OW30493   0.504   0.200   3.714
 9865SOL    HW130494   0.515   0.259   3.794
 9865SOL    HW230495   0.440   0.126   3.735
 9866SOL     OW30496   4.828   3.941   4.692
 9866SOL    HW130497   4.771   4.000   4.748
 9866SOL    HW230498   4.915   3.987   4.674
 9867SOL     OW30499   4.388   1.681   0.787
 9867SOL    HW130500   4.342   1.767   0.809
 9867SOL    HW230501   4.320   1.608   0.780
 9868SOL     OW30502   0.047   4.450   6.941
 9868SOL    HW130503   7.007   4.377   6.976
 9868SOL    HW230504   0.131   4.454   6.995
 9869SOL     OW30505   2.241   4.048   3.088
 9869SOL    HW130506   2.227   4.125   3.025
 9869SOL    HW230507   2.322   4.065   3.143
 9870SOL     OW30508   4.986   5.190   2.575
 9870SOL    HW130509   4.897   5.215   2.612
 9870SOL    HW230510   4.977   5.108   2.518
 9871SOL     OW30511   1.995   0.580   6.081
 9871SOL    HW130512   2.082   0.605   6.041
 9871SOL    HW230513   1.920   0.618   6.027
 9872SOL     OW30514   2.842   4.751   3.288
 9872SOL    HW130515   2.784   4.712   3.217
 9872SOL    HW230516   2.918   4.801   3.247
 9873SOL     OW30517   2.256   3.420   0.126
 9873SOL    HW130518   2.330   3.394   0.064
 9873SOL    HW230519   2.172   3.372   0.098
 9874SOL     OW30520   0.493   1.896   3.212
 9874SOL    HW130521   0.563   1.826   3.200
 9874SOL    HW230522   0.490   1.954   3.131
 9875SOL     OW30523   0.161   0.378   2.511
 9875SOL    HW130524   0.109   0.306   2.465
 9875SOL    HW230525   0.258   0.356   2.510
 9876SOL     OW30526   6.272   0.369   2.350
 9876SOL    HW130527   6.209   0.438   2.386
 9876SOL    HW230528   6.297   0.306   2.424
 9877SOL     OW30529   3.263   6.683   2.227
 9877SOL    HW130530   3.215   6.598   2.205
 9877SOL    HW230531   3.223   6.758   2.175
 9878SOL     OW30532   1.679   5.452   6.257
 9878SOL    HW130533   1.662   5.417   6.165
 9878SOL    HW230534   1.752   5.399   6.300
 9879SOL     OW30535   5.107   5.416   4.598
 9879SOL    HW130536   5.045   5.470   4.542
 9879SOL    HW230537   5.088   5.433   4.695
 9880SOL     OW30538   1.361   2.469   5.492
 9880SOL    HW130539   1.280   2.522   5.516
 9880SOL    HW230540   1.334   2.375   5.469
 9881SOL     OW30541   1.004   2.418   5.226
 9881SOL    HW130542   0.994   2.518   5.227
 9881SOL    HW230543   1.024   2.385   5.318
 9882SOL     OW30544   0.927   2.569   4.114
 9882SOL    HW130545   0.934   2.469   4.116
 9882SOL    HW230546   0.989   2.605   4.045
 9883SOL     OW30547   1.692   0.758   1.681
 9883SOL    HW130548   1.679   0.660   1.690
 9883SOL    HW230549   1.625   0.796   1.617
 9884SOL     OW30550   4.065   0.898   3.949
 9884SOL    HW130551   4.088   0.904   3.852
 9884SOL    HW230552   4.148   0.885   4.003
 9885SOL     OW30553   6.271   4.217   4.991
 9885SOL    HW130554   6.256   4.306   5.033
 9885SOL    HW230555   6.368   4.194   4.995
 9886SOL     OW30556   0.947   4.737   2.600
 9886SOL    HW130557   0.934   4.659   2.539
 9886SOL    HW230558   0.970   4.704   2.692
 9887SOL     OW30559   3.731   0.990   0.030
 9887SOL    HW130560   3.822   0.951   0.016
 9887SOL    HW230561   3.694   1.021   6.962
 9888SOL     OW30562   7.010   3.753   0.518
 9888SOL    HW130563   0.065   3.789   0.576
 9888SOL    HW230564   6.925   3.749   0.570
 9889SOL     OW30565   6.822   4.979   0.966
 9889SOL    HW130566   6.840   4.885   0.995
 9889SOL    HW230567   6.884   5.042   1.014
 9890SOL     OW30568   1.691   2.379   0.804
 9890SOL    HW130569   1.730   2.457   0.756
 9890SOL    HW230570   1.616   2.340   0.749
 9891SOL     OW30571   6.052   2.518   0.539
 9891SOL    HW130572   5.975   2.509   0.475
 9891SOL    HW230573   6.075   2.428   0.577
 9892SOL     OW30574   6.945   5.302   0.452
 9892SOL    HW130575   0.013   5.346   0.474
 9892SOL    HW230576   6.962   5.207   0.424
 9893SOL     OW30577   2.066   0.732   0.758
 9893SOL    HW130578   2.132   0.779   0.698
 9893SOL    HW230579   1.999   0.798   0.792
 9894SOL     OW30580   1.763   1.768   1.067
 9894SOL    HW130581   1.769   1.800   0.972
 9894SOL    HW230582   1.670   1.782   1.101
 9895SOL     OW30583   5.542   3.450   5.115
 9895SOL    HW130584   5.573   3.545   5.120
 9895SOL    HW230585   5.470   3.443   5.046
 9896SOL     OW30586   6.614   6.654   6.799
 9896SOL    HW130587   6.672   6.706   6.860
 9896SOL    HW230588   6.670   6.603   6.734
 9897SOL     OW30589   5.620   5.784   3.219
 9897SOL    HW130590   5.521   5.785   3.233
 9897SOL    HW230591   5.653   5.689   3.221
 9898SOL     OW30592   2.818   6.599   6.130
 9898SOL    HW130593   2.733   6.549   6.145
 9898SOL    HW230594   2.890   6.562   6.189
 9899SOL     OW30595   0.730   6.029   0.597
 9899SOL    HW130596   0.742   5.941   0.552
 9899SOL    HW230597   0.808   6.089   0.576
 9900SOL     OW30598   1.449   3.969   3.098
 9900SOL    HW130599   1.484   3.875   3.094
 9900SOL    HW230600   1.363   3.975   3.048
 9901SOL     OW30601   2.702   2.140   5.729
 9901SOL    HW130602   2.743   2.172   5.644
 9901SOL    HW230603   2.774   2.122   5.796
 9902SOL     OW30604   2.238   4.759   6.536
 9902SOL    HW130605   2.209   4.747   6.631
 9902SOL    HW230606   2.193   4.840   6.498
 9903SOL     OW30607   4.817   1.559   3.069
 9903SOL    HW130608   4.784   1.505   3.147
 9903SOL    HW230609   4.740   1.600   3.022
 9904SOL     OW30610   0.857   2.982   6.595
 9904SOL    HW130611   0.943   2.963   6.549
 9904SOL    HW230612   0.783   2.989   6.528
 9905SOL     OW30613   3.417   0.946   0.977
 9905SOL    HW130614   3.516   0.957   0.991
 9905SOL    HW230615   3.398   0.936   0.879
 9906SOL     OW30616   3.302   2.958   2.507
 9906SOL    HW130617   3.335   2.948   2.413
 9906SOL    HW230618   3.207   2.990   2.505
 9907SOL     OW30619   6.385   0.532   1.375
 9907SOL    HW130620   6.461   0.586   1.337
 9907SOL    HW230621   6.339   0.482   1.302
 9908SOL     OW30622   5.427   2.205   3.468
 9908SOL    HW130623   5.451   2.109   3.484
 9908SOL    HW230624   5.381   2.214   3.380
 9909SOL     OW30625   3.903   6.726   3.828
 9909SOL    HW130626   3.859   6.643   3.793
 9909SOL    HW230627   3.941   6.707   3.918
 9910SOL     OW30628   1.414   3.836   2.308
 9910SOL    HW130629   1.405   3.800   2.401
 9910SOL    HW230630   1.485   3.906   2.306
 9911SOL     OW30631   3.982   6.882   2.037
 9911SOL    HW130632   3.938   6.866   2.126
 9911SOL    HW230633   3.914   6.909   1.970
 9912SOL     OW30634   4.437   1.889   1.012
 9912SOL    HW130635   4.517   1.830   1.010
 9912SOL    HW230636   4.452   1.964   1.077
 9913SOL     OW30637   5.963   3.977   0.153
 9913SOL    HW130638   5.955   4.046   0.081
 9913SOL    HW230639   6.028   3.906   0.125
 9914SOL     OW30640   0.028   3.520   4.933
 9914SOL    HW130641   0.081   3.479   4.859
 9914SOL    HW230642   0.052   3.476   5.019
 9915SOL     OW30643   4.653   0.907   2.867
 9915SOL    HW130644   4.575   0.844   2.877
 9915SOL    HW230645   4.628   0.980   2.804
 9916SOL     OW30646   2.400   2.273   3.215
 9916SOL    HW130647   2.431   2.366   3.196
 9916SOL    HW230648   2.402   2.257   3.313
 9917SOL     OW30649   6.145   3.749   0.019
 9917SOL    HW130650   6.233   3.714   0.053
 9917SOL    HW230651   6.074   3.680   0.033
 9918SOL     OW30652   3.958   1.596   2.610
 9918SOL    HW130653   3.886   1.527   2.612
 9918SOL    HW230654   3.918   1.686   2.593
 9919SOL     OW30655   6.272   6.156   1.742
 9919SOL    HW130656   6.328   6.082   1.779
 9919SOL    HW230657   6.175   6.134   1.754
 9920SOL     OW30658   4.845   1.334   2.031
 9920SOL    HW130659   4.816   1.394   1.957
 9920SOL    HW230660   4.891   1.254   1.993
 9921SOL     OW30661   4.025   5.876   5.802
 9921SOL    HW130662   4.057   5.962   5.842
 9921SOL    HW230663   3.953   5.838   5.860
 9922SOL     OW30664   1.247   5.294   0.172
 9922SOL    HW130665   1.276   5.388   0.158
 9922SOL    HW230666   1.289   5.257   0.255
 9923SOL     OW30667   4.710   5.091   6.391
 9923SOL    HW130668   4.784   5.049   6.338
 9923SOL    HW230669   4.741   5.179   6.427
 9924SOL     OW30670   0.222   2.250   4.814
 9924SOL    HW130671   0.311   2.228   4.774
 9924SOL    HW230672   0.202   2.347   4.798
 9925SOL     OW30673   6.731   4.095   3.713
 9925SOL    HW130674   6.650   4.041   3.735
 9925SOL    HW230675   6.801   4.081   3.784
 9926SOL     OW30676   2.462   4.018   0.190
 9926SOL    HW130677   2.381   3.965   0.216
 9926SOL    HW230678   2.433   4.099   0.139
 9927SOL     OW30679   5.932   0.010   2.501
 9927SOL    HW130680   5.868   6.961   2.465
 9927SOL    HW230681   5.966   0.067   2.426
 9928SOL     OW30682   4.893   4.845   1.510
 9928SOL    HW130683   4.970   4.897   1.474
 9928SOL    HW230684   4.862   4.887   1.595
 9929SOL     OW30685   2.071   5.661   5.444
 9929SOL    HW130686   2.132   5.584   5.424
 9929SOL    HW230687   2.115   5.723   5.509
 9930SOL     OW30688   6.546   0.222   4.805
 9930SOL    HW130689   6.576   0.129   4.827
 9930SOL    HW230690   6.551   0.279   4.887
 9931SOL     OW30691   1.001   4.710   5.147
 9931SOL    HW130692   0.904   4.686   5.158
 9931SOL    HW230693   1.023   4.788   5.204
 9932SOL     OW30694   1.704   6.464   6.653
 9932SOL    HW130695   1.653   6.443   6.570
 9932SOL    HW230696   1.651   6.528   6.709
 9933SOL     OW30697   1.623   4.730   2.305
 9933SOL    HW130698   1.575   4.663   2.249
 9933SOL    HW230699   1.567   4.755   2.384
 9934SOL     OW30700   6.016   2.020   5.926
 9934SOL    HW130701   6.059   1.948   5.871
 9934SOL    HW230702   5.941   1.982   5.979
 9935SOL     OW30703   2.740   0.721   0.564
 9935SOL    HW130704   2.732   0.813   0.604
 9935SOL    HW230705   2.837   0.694   0.564
 9936SOL     OW30706   6.999   5.128   5.065
 9936SOL    HW130707   6.902   5.146   5.080
 9936SOL    HW230708   0.035   5.197   5.113
 9937SOL     OW30709   6.068   2.478   5.522
 9937SOL    HW130710   6.158   2.515   5.547
 9937SOL    HW230711   6.045   2.507   5.429
 9938SOL     OW30712   6.845   6.047   2.985
 9938SOL    HW130713   6.864   6.064   3.082
 9938SOL    HW230714   6.878   6.124   2.931
 9939SOL     OW30715   3.411   3.174   0.488
 9939SOL    HW130716   3.422   3.105   0.416
 9939SOL    HW230717   3.328   3.228   0.470
 9940SOL     OW30718   0.323   0.690   1.387
 9940SOL    HW130719   0.261   0.644   1.451
 9940SOL    HW230720   0.341   0.630   1.309
 9941SOL     OW30721   3.148   4.092   5.051
 9941SOL    HW130722   3.092   4.119   5.129
 9941SOL    HW230723   3.090   4.052   4.980
 9942SOL     OW30724   2.172   6.106   3.029
 9942SOL    HW130725   2.086   6.079   2.988
 9942SOL    HW230726   2.207   6.189   2.983
 9943SOL     OW30727   0.349   5.913   6.353
 9943SOL    HW130728   0.402   5.860   6.287
 9943SOL    HW230729   0.265   5.865   6.375
 9944SOL     OW30730   1.889   4.252   6.135
 9944SOL    HW130731   1.830   4.240   6.055
 9944SOL    HW230732   1.832   4.274   6.215
 9945SOL     OW30733   6.614   5.308   0.061
 9945SOL    HW130734   6.616   5.223   0.008
 9945SOL    HW230735   6.529   5.312   0.114
 9946SOL     OW30736   5.757   1.260   5.330
 9946SOL    HW130737   5.806   1.220   5.253
 9946SOL    HW230738   5.674   1.207   5.348
 9947SOL     OW30739   6.754   3.982   6.023
 9947SOL    HW130740   6.821   3.916   5.991
 9947SOL    HW230741   6.670   3.935   6.050
 9948SOL     OW30742   4.834   5.077   4.946
 9948SOL    HW130743   4.783   4.991   4.957
 9948SOL    HW230744   4.920   5.059   4.899
 9949SOL     OW30745   5.277   5.225   3.435
 9949SOL    HW130746   5.306   5.150   3.494
 9949SOL    HW230747   5.184   5.253   3.459
 9950SOL     OW30748   5.557   6.229   5.335
 9950SOL    HW130749   5.586   6.193   5.424
 9950SOL    HW230750   5.490   6.168   5.294
 9951SOL     OW30751   6.566   2.204   3.938
 9951SOL    HW130752   6.630   2.168   3.870
 9951SOL    HW230753   6.601   2.289   3.976
 9952SOL     OW30754   6.333   4.072   1.233
 9952SOL    HW130755   6.318   4.148   1.296
 9952SOL    HW230756   6.368   3.993   1.284
 9953SOL     OW30757   6.345   2.540   4.446
 9953SOL    HW130758   6.316   2.531   4.541
 9953SOL    HW230759   6.279   2.597   4.396
 9954SOL     OW30760   5.662   6.314   5.753
 9954SOL    HW130761   5.642   6.247   5.682
 9954SOL    HW230762   5.654   6.407   5.715
 9955SOL     OW30763   6.462   4.848   4.729
 9955SOL    HW130764   6.498   4.755   4.736
 9955SOL    HW230765   6.511   4.898   4.658
 9956SOL     OW30766   1.734   0.313   1.827
 9956SOL    HW130767   1.702   0.220   1.812
 9956SOL    HW230768   1.776   0.319   1.918
 9957SOL     OW30769   6.392   5.521   3.056
 9957SOL    HW130770   6.300   5.481   3.059
 9957SOL    HW230771   6.429   5.525   3.148
 9958SOL     OW30772   3.851   5.079   0.209
 9958SOL    HW130773   3.873   5.017   0.134
 9958SOL    HW230774   3.935   5.126   0.238
 9959SOL     OW30775   4.126   3.718   5.656
 9959SOL    HW130776   4.192   3.645   5.638
 9959SOL    HW230777   4.160   3.803   5.615
 9960SOL     OW30778   6.860   0.267   2.660
 9960SOL    HW130779   6.760   0.271   2.662
 9960SOL    HW230780   6.895   0.264   2.754
 9961SOL     OW30781   1.964   5.572   4.249
 9961SOL    HW130782   2.027   5.504   4.287
 9961SOL    HW230783   1.991   5.663   4.280
 9962SOL     OW30784   5.768   6.689   4.084
 9962SOL    HW130785   5.735   6.721   4.173
 9962SOL    HW230786   5.820   6.762   4.040
 9963SOL     OW30787   3.359   2.590   0.531
 9963SOL    HW130788   3.336   2.494   0.511
 9963SOL    HW230789   3.415   2.595   0.613
 9964SOL     OW30790   5.023   5.728   4.275
 9964SOL    HW130791   4.988   5.641   4.311
 9964SOL    HW230792   5.066   5.780   4.348
 9965SOL     OW30793   3.920   6.929   0.205
 9965SOL    HW130794   3.994   6.896   0.146
 9965SOL    HW230795   3.898   0.005   0.181
 9966SOL     OW30796   1.456   5.059   1.852
 9966SOL    HW130797   1.546   5.037   1.815
 9966SOL    HW230798   1.397   5.094   1.778
 9967SOL     OW30799   1.112   5.325   1.793
 9967SOL    HW130800   1.068   5.267   1.861
 9967SOL    HW230801   1.066   5.414   1.791
 9968SOL     OW30802   3.500   4.050   1.995
 9968SOL    HW130803   3.554   3.967   1.986
 9968SOL    HW230804   3.510   4.087   2.087
 9969SOL     OW30805   1.684   3.812   2.547
 9969SOL    HW130806   1.663   3.892   2.490
 9969SOL    HW230807   1.783   3.796   2.547
 9970SOL     OW30808   5.072   4.282   1.821
 9970SOL    HW130809   5.166   4.315   1.829
 9970SOL    HW230810   5.030   4.317   1.737
 9971SOL     OW30811   1.218   4.590   0.953
 9971SOL    HW130812   1.150   4.554   1.017
 9971SOL    HW230813   1.172   4.647   0.884
 9972SOL     OW30814   5.623   4.631   2.140
 9972SOL    HW130815   5.560   4.699   2.103
 9972SOL    HW230816   5.604   4.616   2.237
 9973SOL     OW30817   5.688   1.214   3.600
 9973SOL    HW130818   5.694   1.115   3.589
 9973SOL    HW230819   5.749   1.258   3.534
 9974SOL     OW30820   1.465   1.068   3.686
 9974SOL    HW130821   1.552   1.091   3.729
 9974SOL    HW230822   1.390   1.096   3.747
 9975SOL     OW30823   6.825   2.808   0.453
 9975SOL    HW130824   6.822   2.792   0.551
 9975SOL    HW230825   6.733   2.804   0.415
 9976SOL     OW30826   0.958   0.151   5.078
 9976SOL    HW130827   0.968   0.124   5.173
 9976SOL    HW230828   1.044   0.134   5.029
 9977SOL     OW30829   6.030   5.037   5.431
 9977SOL    HW130830   6.014   4.944   5.463
 9977SOL    HW230831   5.996   5.046   5.337
 9978SOL     OW30832   0.564   2.371   4.698
 9978SOL    HW130833   0.593   2.401   4.608
 9978SOL    HW230834   0.643   2.337   4.749
 9979SOL     OW30835   6.144   4.329   4.775
 9979SOL    HW130836   6.223   4.351   4.718
 9979SOL    HW230837   6.170   4.263   4.845
 9980SOL     OW30838   3.709   0.509   6.574
 9980SOL    HW130839   3.684   0.547   6.664
 9980SOL    HW230840   3.629   0.465   6.533
 9981SOL     OW30841   3.304   1.612   3.747
 9981SOL    HW130842   3.286   1.693   3.692
 9981SOL    HW230843   3.328   1.536   3.687
 9982SOL     OW30844   6.952   5.920   3.524
 9982SOL    HW130845   6.854   5.910   3.507
 9982SOL    HW230846   6.975   5.870   3.608
 9983SOL     OW30847   6.668   0.966   2.518
 9983SOL    HW130848   6.767   0.978   2.517
 9983SOL    HW230849   6.626   1.026   2.450
 9984SOL     OW30850   2.489   1.910   6.492
 9984SOL    HW130851   2.443   1.821   6.494
 9984SOL    HW230852   2.460   1.960   6.410
 9985SOL     OW30853   2.200   0.966   1.435
 9985SOL    HW130854   2.256   0.884   1.448
 9985SOL    HW230855   2.104   0.943   1.449
 9986SOL     OW30856   5.633   4.012   4.833
 9986SOL    HW130857   5.672   4.103   4.825
 9986SOL    HW230858   5.705   3.943   4.823
 9987SOL     OW30859   5.623   3.730   6.218
 9987SOL    HW130860   5.684   3.803   6.247
 9987SOL    HW230861   5.552   3.767   6.159
 9988SOL     OW30862   6.488   6.480   5.265
 9988SOL    HW130863   6.542   6.420   5.205
 9988SOL    HW230864   6.420   6.529   5.211
 9989SOL     OW30865   6.778   3.481   4.720
 9989SOL    HW130866   6.845   3.504   4.650
 9989SOL    HW230867   6.751   3.563   4.770
 9990SOL     OW30868   0.825   5.073   3.291
 9990SOL    HW130869   0.778   5.010   3.229
 9990SOL    HW230870   0.762   5.106   3.360
 9991SOL     OW30871   3.461   2.106   4.105
 9991SOL    HW130872   3.377   2.131   4.153
 9991SOL    HW230873   3.496   2.020   4.142
 9992SOL     OW30874   5.888   5.332   6.286
 9992SOL    HW130875   5.867   5.343   6.383
 9992SOL    HW230876   5.938   5.246   6.272
 9993SOL     OW30877   2.020   1.804   1.375
 9993SOL    HW130878   1.985   1.890   1.338
 9993SOL    HW230879   1.981   1.789   1.466
 9994SOL     OW30880   6.093   4.504   3.365
 9994SOL    HW130881   6.068   4.449   3.445
 9994SOL    HW230882   6.112   4.598   3.393
 9995SOL     OW30883   4.965   1.561   4.073
 9995SOL    HW130884   5.064   1.557   4.058
 9995SOL    HW230885   4.918   1.503   4.007
 9996SOL     OW30886   3.736   4.568   0.143
 9996SOL    HW130887   3.674   4.623   0.200
 9996SOL    HW230888   3.831   4.588   0.168
 9997SOL     OW30889   2.955   0.799   5.500
 9997SOL    HW130890   2.874   0.743   5.518
 9997SOL    HW230891   2.976   0.797   5.403
 9998SOL     OW30892   6.051   5.093   5.153
 9998SOL    HW130893   6.017   5.186   5.169
 9998SOL    HW230894   6.117   5.095   5.077
 9999SOL     OW30895   6.017   2.653   5.736
 9999SOL    HW130896   6.080   2.730   5.726
 9999SOL    HW230897   6.036   2.585   5.665
10000SOL     OW30898   6.749   2.320   0.181
10000SOL    HW130899   6.723   2.400   0.127
10000SOL    HW230900   6.703   2.239   0.144
10001SOL     OW30901   4.690   1.092   2.169
10001SOL    HW130902   4.766   1.151   2.199
10001SOL    HW230903   4.605   1.144   2.171
10002SOL     OW30904   1.096   0.278   1.775
10002SOL    HW130905   1.090   0.378   1.774
10002SOL    HW230906   1.121   0.247   1.866
10003SOL     OW30907   3.759   2.133   3.311
10003SOL    HW130908   3.831   2.175   3.257
10003SOL    HW230909   3.791   2.121   3.405
10004SOL     OW30910   0.091   2.280   3.391
10004SOL    HW130911   0.152   2.254   3.316
10004SOL    HW230912   0.012   2.328   3.353
10005SOL     OW30913   5.126   0.555   3.206
10005SOL    HW130914   5.048   0.497   3.182
10005SOL    HW230915   5.108   0.600   3.293
10006SOL     OW30916   3.772   6.923   4.543
10006SOL    HW130917   3.791   6.840   4.490
10006SOL    HW230918   3.680   6.955   4.524
10007SOL     OW30919   0.403   2.997   4.604
10007SOL    HW130920   0.328   3.041   4.553
10007SOL    HW230921   0.444   3.064   4.666
10008SOL     OW30922   3.214   0.710   4.425
10008SOL    HW130923   3.139   0.761   4.382
10008SOL    HW230924   3.276   0.676   4.354
10009SOL     OW30925   2.325   4.149   2.026
10009SOL    HW130926   2.275   4.235   2.040
10009SOL    HW230927   2.401   4.164   1.962
10010SOL     OW30928   1.895   1.852   0.048
10010SOL    HW130929   1.953   1.788   0.098
10010SOL    HW230930   1.910   1.944   0.082
10011SOL     OW30931   6.677   6.431   5.460
10011SOL    HW130932   6.756   6.441   5.400
10011SOL    HW230933   6.594   6.456   5.410
10012SOL     OW30934   6.020   1.476   4.245
10012SOL    HW130935   5.924   1.470   4.220
10012SOL    HW230936   6.042   1.570   4.272
10013SOL     OW30937   0.333   0.206   3.154
10013SOL    HW130938   0.366   0.301   3.153
10013SOL    HW230939   0.298   0.181   3.064
10014SOL     OW30940   0.485   4.388   6.340
10014SOL    HW130941   0.428   4.311   6.315
10014SOL    HW230942   0.530   4.425   6.259
10015SOL     OW30943   2.172   4.772   6.802
10015SOL    HW130944   2.258   4.739   6.839
10015SOL    HW230945   2.149   4.860   6.844
10016SOL     OW30946   2.578   1.084   6.275
10016SOL    HW130947   2.638   1.142   6.331
10016SOL    HW230948   2.498   1.137   6.246
10017SOL     OW30949   2.077   1.992   4.669
10017SOL    HW130950   2.104   2.047   4.748
10017SOL    HW230951   1.997   1.936   4.693
10018SOL     OW30952   5.329   0.758   5.578
10018SOL    HW130953   5.326   0.853   5.608
10018SOL    HW230954   5.240   0.730   5.543
10019SOL     OW30955   1.609   0.686   3.582
10019SOL    HW130956   1.550   0.617   3.538
10019SOL    HW230957   1.591   0.775   3.541
10020SOL     OW30958   1.005   3.405   1.035
10020SOL    HW130959   0.922   3.436   0.988
10020SOL    HW230960   0.983   3.382   1.130
10021SOL     OW30961   0.554   3.846   1.268
10021SOL    HW130962   0.547   3.751   1.298
10021SOL    HW230963   0.609   3.898   1.334
10022SOL     OW30964   1.217   2.020   6.212
10022SOL    HW130965   1.286   1.962   6.256
10022SOL    HW230966   1.163   2.066   6.282
10023SOL     OW30967   6.683   3.182   0.603
10023SOL    HW130968   6.735   3.243   0.663
10023SOL    HW230969   6.705   3.202   0.508
10024SOL     OW30970   1.435   4.398   4.060
10024SOL    HW130971   1.422   4.437   4.152
10024SOL    HW230972   1.364   4.432   3.999
10025SOL     OW30973   1.937   1.457   1.354
10025SOL    HW130974   1.983   1.540   1.323
10025SOL    HW230975   1.959   1.382   1.291
10026SOL     OW30976   6.437   0.588   3.202
10026SOL    HW130977   6.381   0.518   3.246
10026SOL    HW230978   6.506   0.621   3.266
10027SOL     OW30979   5.374   3.441   4.908
10027SOL    HW130980   5.381   3.355   4.856
10027SOL    HW230981   5.282   3.478   4.898
10028SOL     OW30982   1.891   1.119   0.426
10028SOL    HW130983   1.909   1.075   0.338
10028SOL    HW230984   1.926   1.212   0.425
10029SOL     OW30985   5.438   1.688   3.528
10029SOL    HW130986   5.498   1.615   3.561
10029SOL    HW230987   5.491   1.755   3.478
10030SOL     OW30988   1.578   0.563   4.235
10030SOL    HW130989   1.675   0.544   4.218
10030SOL    HW230990   1.536   0.599   4.152
10031SOL     OW30991   6.359   4.477   3.707
10031SOL    HW130992   6.399   4.541   3.640
10031SOL    HW230993   6.271   4.512   3.738
10032SOL     OW30994   3.066   1.303   5.166
10032SOL    HW130995   3.152   1.276   5.209
10032SOL    HW230996   3.032   1.227   5.109
10033SOL     OW30997   5.779   3.275   4.786
10033SOL    HW130998   5.740   3.213   4.719
10033SOL    HW230999   5.866   3.311   4.752
10034SOL     OW31000   5.312   0.504   5.315
10034SOL    HW131001   5.363   0.421   5.334
10034SOL    HW231002   5.375   0.582   5.312
10035SOL     OW31003   0.557   5.348   1.180
10035SOL    HW131004   0.655   5.366   1.187
10035SOL    HW231005   0.514   5.421   1.127
10036SOL     OW31006   6.731   1.518   0.036
10036SOL    HW131007   6.700   1.595   0.091
10036SOL    HW231008   6.802   1.467   0.086
10037SOL     OW31009   0.662   0.476   0.033
10037SOL    HW131010   0.635   0.516   6.965
10037SOL    HW231011   0.705   0.387   0.017
10038SOL     OW31012   6.390   6.763   1.288
10038SOL    HW131013   6.318   6.789   1.353
10038SOL    HW231014   6.402   6.836   1.221
10039SOL     OW31015   3.458   0.384   3.735
10039SOL    HW131016   3.503   0.416   3.818
10039SOL    HW231017   3.397   0.456   3.700
10040SOL     OW31018   6.894   3.435   1.218
10040SOL    HW131019   6.942   3.411   1.134
10040SOL    HW231020   6.894   3.534   1.230
10041SOL     OW31021   2.204   6.639   0.242
10041SOL    HW131022   2.269   6.613   0.313
10041SOL    HW231023   2.254   6.667   0.160
10042SOL     OW31024   6.574   2.156   2.883
10042SOL    HW131025   6.650   2.096   2.859
10042SOL    HW231026   6.498   2.101   2.918
10043SOL     OW31027   6.993   1.776   5.932
10043SOL    HW131028   0.019   1.827   5.858
10043SOL    HW231029   7.018   1.680   5.926
10044SOL     OW31030   3.254   2.243   5.699
10044SOL    HW131031   3.345   2.217   5.666
10044SOL    HW231032   3.192   2.165   5.689
10045SOL     OW31033   3.563   0.713   0.560
10045SOL    HW131034   3.597   0.780   0.494
10045SOL    HW231035   3.617   0.629   0.553
10046SOL     OW31036   1.849   5.188   1.461
10046SOL    HW131037   1.905   5.117   1.505
10046SOL    HW231038   1.831   5.261   1.526
10047SOL     OW31039   0.598   3.664   0.288
10047SOL    HW131040   0.513   3.693   0.331
10047SOL    HW231041   0.596   3.687   0.191
10048SOL     OW31042   5.780   5.973   3.070
10048SOL    HW131043   5.749   5.893   3.121
10048SOL    HW231044   5.878   5.967   3.054
10049SOL     OW31045   0.100   1.028   5.694
10049SOL    HW131046   0.182   1.027   5.751
10049SOL    HW231047   0.037   0.957   5.726
10050SOL     OW31048   6.293   3.247   6.056
10050SOL    HW131049   6.315   3.182   5.982
10050SOL    HW231050   6.273   3.196   6.140
10051SOL     OW31051   1.731   3.300   3.643
10051SOL    HW131052   1.745   3.246   3.726
10051SOL    HW231053   1.741   3.240   3.563
10052SOL     OW31054   1.211   0.226   3.138
10052SOL    HW131055   1.116   0.223   3.105
10052SOL    HW231056   1.246   0.319   3.128
10053SOL     OW31057   5.615   5.322   4.972
10053SOL    HW131058   5.540   5.301   4.909
10053SOL    HW231059   5.630   5.244   5.033
10054SOL     OW31060   6.047   4.067   5.049
10054SOL    HW131061   5.958   4.113   5.044
10054SOL    HW231062   6.119   4.136   5.052
10055SOL     OW31063   0.521   1.773   6.520
10055SOL    HW131064   0.597   1.717   6.485
10055SOL    HW231065   0.518   1.859   6.469
10056SOL     OW31066   6.435   2.518   3.997
10056SOL    HW131067   6.343   2.541   3.965
10056SOL    HW231068   6.497   2.511   3.919
10057SOL     OW31069   5.912   4.834   5.767
10057SOL    HW131070   5.950   4.809   5.678
10057SOL    HW231071   5.928   4.931   5.784
10058SOL     OW31072   6.976   3.950   5.138
10058SOL    HW131073   0.019   3.878   5.107
10058SOL    HW231074   6.895   3.908   5.178
10059SOL     OW31075   6.517   0.723   0.029
10059SOL    HW131076   6.471   0.765   0.107
10059SOL    HW231077   6.545   0.630   0.052
10060SOL     OW31078   2.544   2.081   2.238
10060SOL    HW131079   2.633   2.120   2.214
10060SOL    HW231080   2.515   2.118   2.326
10061SOL     OW31081   3.650   0.105   2.855
10061SOL    HW131082   3.607   0.193   2.875
10061SOL    HW231083   3.747   0.110   2.875
10062SOL     OW31084   5.976   0.357   4.366
10062SOL    HW131085   6.021   0.440   4.334
10062SOL    HW231086   5.903   0.381   4.430
10063SOL     OW31087   1.590   2.994   5.501
10063SOL    HW131088   1.533   2.926   5.547
10063SOL    HW231089   1.649   3.039   5.568
10064SOL     OW31090   2.962   0.007   0.653
10064SOL    HW131091   2.952   0.093   0.703
10064SOL    HW231092   2.986   6.953   0.717
10065SOL     OW31093   1.080   1.720   1.990
10065SOL    HW131094   1.095   1.631   1.947
10065SOL    HW231095   1.091   1.711   2.089
10066SOL     OW31096   6.492   3.556   3.464
10066SOL    HW131097   6.474   3.653   3.477
10066SOL    HW231098   6.578   3.544   3.415
10067SOL     OW31099   6.676   2.559   5.340
10067SOL    HW131100   6.685   2.649   5.383
10067SOL    HW231101   6.630   2.569   5.251
10068SOL     OW31102   1.862   2.976   2.654
10068SOL    HW131103   1.871   2.975   2.554
10068SOL    HW231104   1.953   2.983   2.695
10069SOL     OW31105   2.800   5.153   0.540
10069SOL    HW131106   2.749   5.109   0.613
10069SOL    HW231107   2.758   5.241   0.518
10070SOL     OW31108   3.758   6.657   6.118
10070SOL    HW131109   3.705   6.655   6.203
10070SOL    HW231110   3.852   6.629   6.137
10071SOL     OW31111   6.189   6.861   3.949
10071SOL    HW131112   6.191   6.761   3.943
10071SOL    HW231113   6.282   6.894   3.963
10072SOL     OW31114   6.323   3.112   1.785
10072SOL    HW131115   6.356   3.123   1.691
10072SOL    HW231116   6.327   3.200   1.832
10073SOL     OW31117   6.997   4.516   4.255
10073SOL    HW131118   7.004   4.464   4.170
10073SOL    HW231119   0.069   4.545   4.284
10074SOL     OW31120   1.210   4.847   7.017
10074SOL    HW131121   1.245   4.934   6.984
10074SOL    HW231122   1.139   4.864   0.067
10075SOL     OW31123   1.536   3.197   1.937
10075SOL    HW131124   1.452   3.176   1.988
10075SOL    HW231125   1.593   3.115   1.932
10076SOL     OW31126   4.957   5.595   3.963
10076SOL    HW131127   4.987   5.638   4.048
10076SOL    HW231128   4.966   5.496   3.970
10077SOL     OW31129   4.863   3.563   6.861
10077SOL    HW131130   4.883   3.501   6.785
10077SOL    HW231131   4.857   3.512   6.946
10078SOL     OW31132   6.271   5.999   4.975
10078SOL    HW131133   6.292   6.000   5.072
10078SOL    HW231134   6.176   6.026   4.961
10079SOL     OW31135   4.730   2.854   3.698
10079SOL    HW131136   4.710   2.891   3.789
10079SOL    HW231137   4.771   2.764   3.707
10080SOL     OW31138   4.835   1.450   5.707
10080SOL    HW131139   4.900   1.523   5.686
10080SOL    HW231140   4.794   1.416   5.622
10081SOL     OW31141   1.803   4.118   0.714
10081SOL    HW131142   1.729   4.062   0.677
10081SOL    HW231143   1.840   4.176   0.642
10082SOL     OW31144   1.305   4.930   0.659
10082SOL    HW131145   1.276   4.835   0.675
10082SOL    HW231146   1.403   4.938   0.677
10083SOL     OW31147   3.726   4.857   3.331
10083SOL    HW131148   3.801   4.815   3.282
10083SOL    HW231149   3.654   4.883   3.266
10084SOL     OW31150   1.132   1.202   5.162
10084SOL    HW131151   1.170   1.285   5.122
10084SOL    HW231152   1.181   1.181   5.247
10085SOL     OW31153   5.072   0.098   0.626
10085SOL    HW131154   5.115   0.031   0.566
10085SOL    HW231155   5.004   0.052   0.684
10086SOL     OW31156   6.161   6.370   3.507
10086SOL    HW131157   6.077   6.335   3.547
10086SOL    HW231158   6.195   6.306   3.438
10087SOL     OW31159   0.983   6.875   5.647
10087SOL    HW131160   1.061   6.922   5.687
10087SOL    HW231161   1.000   6.776   5.646
10088SOL     OW31162   0.270   2.523   0.340
10088SOL    HW131163   0.288   2.493   0.246
10088SOL    HW231164   0.251   2.621   0.340
10089SOL     OW31165   3.456   1.362   1.797
10089SOL    HW131166   3.496   1.394   1.883
10089SOL    HW231167   3.525   1.367   1.725
10090SOL     OW31168   2.490   5.870   3.261
10090SOL    HW131169   2.501   5.775   3.293
10090SOL    HW231170   2.398   5.882   3.223
10091SOL     OW31171   6.607   4.161   5.223
10091SOL    HW131172   6.574   4.108   5.144
10091SOL    HW231173   6.706   4.150   5.231
10092SOL     OW31174   0.814   2.069   3.603
10092SOL    HW131175   0.739   2.058   3.537
10092SOL    HW231176   0.824   1.985   3.657
10093SOL     OW31177   4.944   4.224   6.259
10093SOL    HW131178   4.905   4.222   6.167
10093SOL    HW231179   4.992   4.310   6.272
10094SOL     OW31180   3.171   1.908   0.825
10094SOL    HW131181   3.096   1.914   0.890
10094SOL    HW231182   3.252   1.950   0.863
10095SOL     OW31183   4.733   2.779   5.525
10095SOL    HW131184   4.649   2.726   5.513
10095SOL    HW231185   4.722   2.870   5.487
10096SOL     OW31186   6.039   2.747   2.370
10096SOL    HW131187   5.997   2.816   2.310
10096SOL    HW231188   6.047   2.661   2.320
10097SOL     OW31189   0.674   0.902   0.002
10097SOL    HW131190   0.670   0.838   0.078
10097SOL    HW231191   0.739   0.975   0.024
10098SOL     OW31192   2.758   5.381   3.724
10098SOL    HW131193   2.730   5.431   3.806
10098SOL    HW231194   2.677   5.358   3.670
10099SOL     OW31195   0.661   5.427   1.823
10099SOL    HW131196   0.651   5.513   1.772
10099SOL    HW231197   0.570   5.390   1.844
10100SOL     OW31198   4.869   5.326   3.959
10100SOL    HW131199   4.812   5.371   4.027
10100SOL    HW231200   4.819   5.318   3.872
10101SOL     OW31201   0.127   2.860   1.394
10101SOL    HW131202   0.045   2.914   1.414
10101SOL    HW231203   0.110   2.802   1.314
10102SOL     OW31204   6.934   5.196   2.957
10102SOL    HW131205   6.982   5.209   2.870
10102SOL    HW231206   6.990   5.143   3.019
10103SOL     OW31207   6.772   5.872   6.205
10103SOL    HW131208   6.750   5.931   6.127
10103SOL    HW231209   6.801   5.782   6.171
10104SOL     OW31210   2.249   0.536   4.291
10104SOL    HW131211   2.227   0.568   4.199
10104SOL    HW231212   2.348   0.534   4.302
10105SOL     OW31213   3.453   0.763   5.647
10105SOL    HW131214   3.380   0.713   5.693
10105SOL    HW231215   3.413   0.821   5.575
10106SOL     OW31216   5.453   4.819   1.535
10106SOL    HW131217   5.536   4.784   1.492
10106SOL    HW231218   5.471   4.909   1.574
10107SOL     OW31219   5.315   4.605   0.197
10107SOL    HW131220   5.407   4.565   0.190
10107SOL    HW231221   5.249   4.543   0.155
10108SOL     OW31222   1.773   2.600   0.269
10108SOL    HW131223   1.713   2.568   0.196
10108SOL    HW231224   1.751   2.696   0.289
10109SOL     OW31225   1.158   2.185   1.331
10109SOL    HW131226   1.182   2.135   1.415
10109SOL    HW231227   1.069   2.230   1.344
10110SOL     OW31228   5.609   5.880   2.532
10110SOL    HW131229   5.666   5.951   2.573
10110SOL    HW231230   5.605   5.893   2.433
10111SOL     OW31231   1.094   2.583   1.597
10111SOL    HW131232   1.047   2.653   1.650
10111SOL    HW231233   1.061   2.493   1.625
10112SOL     OW31234   0.045   2.159   2.512
10112SOL    HW131235   0.139   2.193   2.517
10112SOL    HW231236   7.008   2.208   2.579
10113SOL     OW31237   6.920   0.974   5.957
10113SOL    HW131238   6.907   1.071   5.940
10113SOL    HW231239   6.849   0.941   6.019
10114SOL     OW31240   5.518   1.963   1.730
10114SOL    HW131241   5.526   2.009   1.642
10114SOL    HW231242   5.536   1.865   1.719
10115SOL     OW31243   3.417   2.786   6.284
10115SOL    HW131244   3.478   2.735   6.345
10115SOL    HW231245   3.454   2.878   6.269
10116SOL     OW31246   6.842   0.441   5.097
10116SOL    HW131247   6.891   0.506   5.039
10116SOL    HW231248   6.858   0.463   5.193
10117SOL     OW31249   6.094   5.109   3.206
10117SOL    HW131250   6.133   5.062   3.127
10117SOL    HW231251   6.168   5.141   3.265
10118SOL     OW31252   4.211   5.113   3.653
10118SOL    HW131253   4.310   5.113   3.640
10118SOL    HW231254   4.173   5.197   3.616
10119SOL     OW31255   6.900   5.961   4.932
10119SOL    HW131256   6.817   5.905   4.933
10119SOL    HW231257   6.906   6.014   5.016
10120SOL     OW31258   1.818   3.131   3.411
10120SOL    HW131259   1.763   3.192   3.354
10120SOL    HW231260   1.870   3.069   3.352
10121SOL     OW31261   6.249   4.910   0.955
10121SOL    HW131262   6.211   4.864   1.035
10121SOL    HW231263   6.321   4.854   0.915
10122SOL     OW31264   1.587   0.150   3.553
10122SOL    HW131265   1.508   0.186   3.503
10122SOL    HW231266   1.670   0.173   3.503
10123SOL     OW31267   6.597   5.432   6.834
10123SOL    HW131268   6.675   5.402   6.779
10123SOL    HW231269   6.605   5.396   6.927
10124SOL     OW31270   2.090   4.991   2.712
10124SOL    HW131271   2.124   4.909   2.667
10124SOL    HW231272   2.167   5.052   2.733
10125SOL     OW31273   2.060   0.980   4.931
10125SOL    HW131274   2.079   1.074   4.960
10125SOL    HW231275   1.972   0.977   4.884
10126SOL     OW31276   6.318   6.339   6.095
10126SOL    HW131277   6.285   6.403   6.025
10126SOL    HW231278   6.332   6.389   6.181
10127SOL     OW31279   2.651   0.072   5.809
10127SOL    HW131280   2.566   0.125   5.805
10127SOL    HW231281   2.641   7.007   5.755
10128SOL     OW31282   2.964   2.781   0.101
10128SOL    HW131283   2.924   2.867   0.132
10128SOL    HW231284   3.025   2.798   0.024
10129SOL     OW31285   6.351   1.621   4.718
10129SOL    HW131286   6.320   1.704   4.673
10129SOL    HW231287   6.385   1.557   4.649
10130SOL     OW31288   1.092   1.023   3.967
10130SOL    HW131289   0.997   0.995   3.969
10130SOL    HW231290   1.099   1.120   3.991
10131SOL     OW31291   1.995   6.236   3.955
10131SOL    HW131292   2.025   6.304   4.021
10131SOL    HW231293   2.034   6.147   3.978
10132SOL     OW31294   6.295   0.017   1.623
10132SOL    HW131295   6.208   0.054   1.655
10132SOL    HW231296   6.305   6.943   1.657
10133SOL     OW31297   5.428   6.190   0.151
10133SOL    HW131298   5.488   6.144   0.084
10133SOL    HW231299   5.445   6.288   0.149
10134SOL     OW31300   6.882   6.742   2.308
10134SOL    HW131301   6.980   6.737   2.328
10134SOL    HW231302   6.843   6.650   2.309
10135SOL     OW31303   6.264   0.171   2.858
10135SOL    HW131304   6.271   0.081   2.814
10135SOL    HW231305   6.338   0.229   2.826
10136SOL     OW31306   5.067   2.062   3.350
10136SOL    HW131307   4.996   1.996   3.375
10136SOL    HW231308   5.037   2.114   3.270
10137SOL     OW31309   6.268   5.109   5.598
10137SOL    HW131310   6.179   5.123   5.556
10137SOL    HW231311   6.288   5.011   5.601
10138SOL     OW31312   0.086   2.715   1.147
10138SOL    HW131313   7.009   2.686   1.146
10138SOL    HW231314   0.144   2.638   1.119
10139SOL     OW31315   2.527   3.108   6.724
10139SOL    HW131316   2.482   3.187   6.683
10139SOL    HW231317   2.528   3.032   6.659
10140SOL     OW31318   0.763   6.690   5.791
10140SOL    HW131319   0.766   6.789   5.806
10140SOL    HW231320   0.843   6.661   5.738
10141SOL     OW31321   2.210   2.505   4.233
10141SOL    HW131322   2.178   2.435   4.298
10141SOL    HW231323   2.196   2.472   4.140
10142SOL     OW31324   4.204   6.494   3.420
10142SOL    HW131325   4.118   6.537   3.393
10142SOL    HW231326   4.200   6.468   3.516
10143SOL     OW31327   5.198   3.039   6.464
10143SOL    HW131328   5.225   2.948   6.496
10143SOL    HW231329   5.105   3.059   6.496
10144SOL     OW31330   3.337   6.397   0.537
10144SOL    HW131331   3.381   6.315   0.572
10144SOL    HW231332   3.294   6.447   0.613
10145SOL     OW31333   5.510   6.778   6.341
10145SOL    HW131334   5.449   6.705   6.310
10145SOL    HW231335   5.473   6.867   6.312
10146SOL     OW31336   0.136   2.868   4.892
10146SOL    HW131337   0.080   2.950   4.883
10146SOL    HW231338   0.102   2.813   4.968
10147SOL     OW31339   4.009   5.731   5.540
10147SOL    HW131340   4.085   5.668   5.522
10147SOL    HW231341   4.026   5.781   5.625
10148SOL     OW31342   0.914   4.220   0.379
10148SOL    HW131343   0.869   4.308   0.394
10148SOL    HW231344   0.922   4.171   0.466
10149SOL     OW31345   4.008   3.567   0.878
10149SOL    HW131346   4.022   3.627   0.957
10149SOL    HW231347   3.912   3.540   0.873
10150SOL     OW31348   4.253   4.460   0.842
10150SOL    HW131349   4.258   4.474   0.743
10150SOL    HW231350   4.159   4.437   0.868
10151SOL     OW31351   6.038   6.964   5.902
10151SOL    HW131352   6.120   6.961   5.845
10151SOL    HW231353   5.957   6.952   5.844
10152SOL     OW31354   4.193   0.138   2.196
10152SOL    HW131355   4.250   0.133   2.114
10152SOL    HW231356   4.208   0.225   2.243
10153SOL     OW31357   4.714   4.426   2.391
10153SOL    HW131358   4.786   4.496   2.393
10153SOL    HW231359   4.720   4.374   2.306
10154SOL     OW31360   4.622   5.702   5.916
10154SOL    HW131361   4.550   5.753   5.963
10154SOL    HW231362   4.594   5.683   5.823
10155SOL     OW31363   4.668   1.628   4.417
10155SOL    HW131364   4.611   1.640   4.498
10155SOL    HW231365   4.612   1.590   4.342
10156SOL     OW31366   4.257   2.129   0.010
10156SOL    HW131367   4.291   2.116   0.103
10156SOL    HW231368   4.334   2.132   6.965
10157SOL     OW31369   0.313   4.254   1.460
10157SOL    HW131370   0.406   4.291   1.470
10157SOL    HW231371   0.316   4.175   1.399
10158SOL     OW31372   5.962   5.118   0.270
10158SOL    HW131373   5.901   5.092   0.195
10158SOL    HW231374   5.951   5.054   0.346
10159SOL     OW31375   3.190   3.030   2.076
10159SOL    HW131376   3.230   3.099   2.016
10159SOL    HW231377   3.136   3.074   2.147
10160SOL     OW31378   0.591   4.799   2.528
10160SOL    HW131379   0.638   4.740   2.593
10160SOL    HW231380   0.646   4.881   2.510
10161SOL     OW31381   5.422   3.214   4.737
10161SOL    HW131382   5.479   3.133   4.757
10161SOL    HW231383   5.399   3.216   4.640
10162SOL     OW31384   1.543   2.473   1.889
10162SOL    HW131385   1.534   2.513   1.980
10162SOL    HW231386   1.473   2.511   1.829
10163SOL     OW31387   2.530   5.828   5.220
10163SOL    HW131388   2.517   5.733   5.251
10163SOL    HW231389   2.457   5.885   5.259
10164SOL     OW31390   1.162   1.719   3.545
10164SOL    HW131391   1.218   1.796   3.575
10164SOL    HW231392   1.221   1.643   3.518
10165SOL     OW31393   0.720   3.581   4.075
10165SOL    HW131394   0.711   3.582   3.975
10165SOL    HW231395   0.739   3.674   4.108
10166SOL     OW31396   2.344   6.995   1.721
10166SOL    HW131397   2.381   0.050   1.664
10166SOL    HW231398   2.377   6.907   1.688
10167SOL     OW31399   2.493   1.470   6.396
10167SOL    HW131400   2.520   1.492   6.302
10167SOL    HW231401   2.401   1.506   6.413
10168SOL     OW31402   6.708   0.276   6.393
10168SOL    HW131403   6.725   0.273   6.491
10168SOL    HW231404   6.617   0.313   6.376
10169SOL     OW31405   4.806   4.106   4.000
10169SOL    HW131406   4.773   4.165   3.926
10169SOL    HW231407   4.854   4.028   3.961
10170SOL     OW31408   5.093   5.386   6.690
10170SOL    HW131409   5.007   5.434   6.709
10170SOL    HW231410   5.088   5.294   6.728
10171SOL     OW31411   1.935   4.921   4.905
10171SOL    HW131412   2.006   4.861   4.869
10171SOL    HW231413   1.975   4.985   4.970
10172SOL     OW31414   6.279   0.559   2.991
10172SOL    HW131415   6.345   0.574   3.064
10172SOL    HW231416   6.207   0.497   3.023
10173SOL     OW31417   3.298   3.944   4.807
10173SOL    HW131418   3.297   3.953   4.707
10173SOL    HW231419   3.234   4.009   4.847
10174SOL     OW31420   4.838   4.970   1.745
10174SOL    HW131421   4.802   4.968   1.839
10174SOL    HW231422   4.861   5.065   1.721
10175SOL     OW31423   0.207   0.473   4.450
10175SOL    HW131424   0.123   0.425   4.427
10175SOL    HW231425   0.213   0.558   4.397
10176SOL     OW31426   6.641   1.581   5.205
10176SOL    HW131427   6.710   1.535   5.262
10176SOL    HW231428   6.570   1.619   5.264
10177SOL     OW31429   2.594   1.138   3.481
10177SOL    HW131430   2.521   1.207   3.483
10177SOL    HW231431   2.680   1.180   3.511
10178SOL     OW31432   0.413   1.827   1.106
10178SOL    HW131433   0.396   1.926   1.104
10178SOL    HW231434   0.445   1.797   1.016
10179SOL     OW31435   1.391   3.788   0.538
10179SOL    HW131436   1.294   3.779   0.515
10179SOL    HW231437   1.439   3.829   0.461
10180SOL     OW31438   4.233   6.563   5.703
10180SOL    HW131439   4.312   6.518   5.662
10180SOL    HW231440   4.150   6.513   5.680
10181SOL     OW31441   5.972   3.022   2.858
10181SOL    HW131442   5.892   3.000   2.914
10181SOL    HW231443   6.034   3.080   2.911
10182SOL     OW31444   4.725   1.143   1.365
10182SOL    HW131445   4.666   1.131   1.445
10182SOL    HW231446   4.676   1.113   1.283
10183SOL     OW31447   6.185   1.168   6.201
10183SOL    HW131448   6.090   1.157   6.232
10183SOL    HW231449   6.246   1.124   6.267
10184SOL     OW31450   5.648   1.804   5.830
10184SOL    HW131451   5.705   1.798   5.747
10184SOL    HW231452   5.574   1.869   5.815
10185SOL     OW31453   3.669   5.551   1.744
10185SOL    HW131454   3.690   5.632   1.689
10185SOL    HW231455   3.689   5.570   1.840
10186SOL     OW31456   3.839   3.416   6.304
10186SOL    HW131457   3.792   3.403   6.392
10186SOL    HW231458   3.917   3.477   6.317
10187SOL     OW31459   2.347   4.721   5.752
10187SOL    HW131460   2.393   4.799   5.794
10187SOL    HW231461   2.295   4.671   5.821
10188SOL     OW31462   3.157   0.232   6.200
10188SOL    HW131463   3.209   0.316   6.214
10188SOL    HW231464   3.117   0.202   6.286
10189SOL     OW31465   1.494   1.804   5.576
10189SOL    HW131466   1.593   1.809   5.563
10189SOL    HW231467   1.473   1.747   5.656
10190SOL     OW31468   4.350   4.686   1.450
10190SOL    HW131469   4.431   4.743   1.438
10190SOL    HW231470   4.287   4.731   1.513
10191SOL     OW31471   5.010   6.757   6.598
10191SOL    HW131472   4.955   6.766   6.681
10191SOL    HW231473   5.102   6.729   6.622
10192SOL     OW31474   1.942   1.272   3.905
10192SOL    HW131475   1.993   1.333   3.844
10192SOL    HW231476   2.006   1.211   3.952
10193SOL     OW31477   3.861   3.522   3.700
10193SOL    HW131478   3.853   3.436   3.750
10193SOL    HW231479   3.814   3.595   3.750
10194SOL     OW31480   3.112   0.482   2.968
10194SOL    HW131481   3.056   0.413   2.923
10194SOL    HW231482   3.200   0.489   2.923
10195SOL     OW31483   4.710   6.718   2.631
10195SOL    HW131484   4.756   6.785   2.690
10195SOL    HW231485   4.716   6.628   2.673
10196SOL     OW31486   5.966   3.197   4.442
10196SOL    HW131487   6.025   3.270   4.475
10196SOL    HW231488   5.914   3.229   4.363
10197SOL     OW31489   5.317   0.759   2.443
10197SOL    HW131490   5.284   0.683   2.500
10197SOL    HW231491   5.309   0.735   2.347
10198SOL     OW31492   2.156   0.317   1.063
10198SOL    HW131493   2.242   0.326   1.013
10198SOL    HW231494   2.173   0.333   1.161
10199SOL     OW31495   1.271   1.577   0.800
10199SOL    HW131496   1.332   1.533   0.865
10199SOL    HW231497   1.326   1.627   0.732
10200SOL     OW31498   5.637   3.883   5.684
10200SOL    HW131499   5.734   3.858   5.685
10200SOL    HW231500   5.622   3.956   5.617
10201SOL     OW31501   1.651   4.884   2.661
10201SOL    HW131502   1.728   4.928   2.615
10201SOL    HW231503   1.586   4.953   2.691
10202SOL     OW31504   0.288   2.524   2.583
10202SOL    HW131505   0.221   2.505   2.511
10202SOL    HW231506   0.378   2.539   2.542
10203SOL     OW31507   1.039   3.185   1.959
10203SOL    HW131508   1.023   3.252   1.886
10203SOL    HW231509   1.137   3.162   1.961
10204SOL     OW31510   3.173   5.310   4.382
10204SOL    HW131511   3.267   5.338   4.403
10204SOL    HW231512   3.175   5.219   4.339
10205SOL     OW31513   4.542   1.130   2.736
10205SOL    HW131514   4.628   1.167   2.772
10205SOL    HW231515   4.548   1.126   2.636
10206SOL     OW31516   4.413   6.983   6.016
10206SOL    HW131517   4.500   6.944   5.987
10206SOL    HW231518   4.372   0.014   5.939
10207SOL     OW31519   4.460   0.691   2.915
10207SOL    HW131520   4.458   0.591   2.920
10207SOL    HW231521   4.386   0.723   2.856
10208SOL     OW31522   6.030   3.833   5.645
10208SOL    HW131523   6.002   3.769   5.716
10208SOL    HW231524   5.999   3.800   5.556
10209SOL     OW31525   5.369   6.946   6.652
10209SOL    HW131526   5.351   6.850   6.671
10209SOL    HW231527   5.467   6.959   6.637
10210SOL     OW31528   5.191   5.803   2.020
10210SOL    HW131529   5.185   5.851   2.107
10210SOL    HW231530   5.183   5.705   2.035
10211SOL     OW31531   3.694   5.515   5.106
10211SOL    HW131532   3.758   5.553   5.039
10211SOL    HW231533   3.641   5.442   5.064
10212SOL     OW31534   5.848   6.246   5.277
10212SOL    HW131535   5.884   6.317   5.217
10212SOL    HW231536   5.749   6.255   5.285
10213SOL     OW31537   5.985   0.530   3.374
10213SOL    HW131538   5.928   0.448   3.366
10213SOL    HW231539   5.935   0.600   3.425
10214SOL     OW31540   6.898   0.115   2.016
10214SOL    HW131541   6.843   0.127   1.934
10214SOL    HW231542   6.955   0.196   2.030
10215SOL     OW31543   3.786   2.949   0.065
10215SOL    HW131544   3.707   2.888   0.070
10215SOL    HW231545   3.869   2.895   0.061
10216SOL     OW31546   5.142   0.338   1.647
10216SOL    HW131547   5.203   0.263   1.620
10216SOL    HW231548   5.050   0.302   1.662
10217SOL     OW31549   3.320   1.269   5.250
10217SOL    HW131550   3.382   1.286   5.173
10217SOL    HW231551   3.365   1.295   5.335
10218SOL     OW31552   1.972   2.758   1.222
10218SOL    HW131553   1.981   2.669   1.177
10218SOL    HW231554   1.875   2.780   1.233
10219SOL     OW31555   0.886   3.758   0.307
10219SOL    HW131556   0.887   3.824   0.232
10219SOL    HW231557   0.792   3.732   0.328
10220SOL     OW31558   4.360   2.064   0.779
10220SOL    HW131559   4.400   2.002   0.846
10220SOL    HW231560   4.270   2.094   0.810
10221SOL     OW31561   3.278   0.591   5.045
10221SOL    HW131562   3.223   0.674   5.047
10221SOL    HW231563   3.328   0.583   5.131
10222SOL     OW31564   1.750   5.609   5.791
10222SOL    HW131565   1.676   5.661   5.834
10222SOL    HW231566   1.823   5.594   5.857
10223SOL     OW31567   6.756   4.632   0.464
10223SOL    HW131568   6.802   4.663   0.381
10223SOL    HW231569   6.732   4.536   0.455
10224SOL     OW31570   1.766   6.807   4.282
10224SOL    HW131571   1.671   6.777   4.290
10224SOL    HW231572   1.769   6.894   4.233
10225SOL     OW31573   5.994   6.066   4.457
10225SOL    HW131574   5.936   6.108   4.387
10225SOL    HW231575   5.981   5.967   4.456
10226SOL     OW31576   0.604   2.088   1.052
10226SOL    HW131577   0.538   2.133   0.992
10226SOL    HW231578   0.695   2.092   1.010
10227SOL     OW31579   5.578   5.694   6.341
10227SOL    HW131580   5.627   5.649   6.266
10227SOL    HW231581   5.580   5.793   6.328
10228SOL     OW31582   0.620   4.504   3.024
10228SOL    HW131583   0.564   4.462   2.952
10228SOL    HW231584   0.701   4.446   3.040
10229SOL     OW31585   1.763   0.570   2.579
10229SOL    HW131586   1.696   0.580   2.653
10229SOL    HW231587   1.844   0.624   2.599
10230SOL     OW31588   6.702   6.906   4.109
10230SOL    HW131589   6.667   6.997   4.086
10230SOL    HW231590   6.739   6.862   4.028
10231SOL     OW31591   5.130   6.872   3.980
10231SOL    HW131592   5.148   6.917   3.893
10231SOL    HW231593   5.130   6.940   4.054
10232SOL     OW31594   3.784   2.154   4.711
10232SOL    HW131595   3.691   2.146   4.748
10232SOL    HW231596   3.820   2.245   4.733
10233SOL     OW31597   4.789   1.016   5.842
10233SOL    HW131598   4.849   1.090   5.813
10233SOL    HW231599   4.768   1.027   5.939
10234SOL     OW31600   5.291   6.437   1.483
10234SOL    HW131601   5.303   6.362   1.549
10234SOL    HW231602   5.359   6.427   1.410
10235SOL     OW31603   5.222   1.135   6.453
10235SOL    HW131604   5.262   1.147   6.362
10235SOL    HW231605   5.198   1.039   6.467
10236SOL     OW31606   2.138   5.880   2.741
10236SOL    HW131607   2.193   5.907   2.662
10236SOL    HW231608   2.192   5.821   2.801
10237SOL     OW31609   6.895   2.667   2.875
10237SOL    HW131610   6.990   2.640   2.889
10237SOL    HW231611   6.835   2.610   2.932
10238SOL     OW31612   4.987   4.736   4.445
10238SOL    HW131613   5.009   4.640   4.427
10238SOL    HW231614   4.921   4.768   4.378
10239SOL     OW31615   0.290   4.022   3.484
10239SOL    HW131616   0.323   3.995   3.394
10239SOL    HW231617   0.368   4.037   3.545
10240SOL     OW31618   0.051   3.835   3.609
10240SOL    HW131619   0.053   3.879   3.520
10240SOL    HW231620   0.131   3.775   3.618
10241SOL     OW31621   2.257   1.174   2.925
10241SOL    HW131622   2.197   1.253   2.913
10241SOL    HW231623   2.347   1.195   2.887
10242SOL     OW31624   0.450   6.279   6.156
10242SOL    HW131625   0.504   6.204   6.118
10242SOL    HW231626   0.503   6.363   6.152
10243SOL     OW31627   1.569   5.815   2.630
10243SOL    HW131628   1.625   5.873   2.571
10243SOL    HW231629   1.562   5.857   2.720
10244SOL     OW31630   2.500   6.573   6.558
10244SOL    HW131631   2.467   6.578   6.652
10244SOL    HW231632   2.475   6.656   6.509
10245SOL     OW31633   1.979   2.509   6.964
10245SOL    HW131634   1.920   2.590   6.972
10245SOL    HW231635   1.928   2.435   6.920
10246SOL     OW31636   4.104   3.589   4.615
10246SOL    HW131637   4.103   3.504   4.562
10246SOL    HW231638   4.059   3.574   4.703
10247SOL     OW31639   1.312   5.613   5.752
10247SOL    HW131640   1.259   5.529   5.737
10247SOL    HW231641   1.337   5.620   5.848
10248SOL     OW31642   4.884   0.271   1.729
10248SOL    HW131643   4.856   0.338   1.798
10248SOL    HW231644   4.803   0.233   1.684
10249SOL     OW31645   3.977   1.206   0.199
10249SOL    HW131646   4.019   1.270   0.263
10249SOL    HW231647   3.957   1.253   0.113
10250SOL     OW31648   6.694   0.482   0.378
10250SOL    HW131649   6.691   0.382   0.379
10250SOL    HW231650   6.634   0.518   0.450
10251SOL     OW31651   3.644   4.491   6.799
10251SOL    HW131652   3.695   4.572   6.827
10251SOL    HW231653   3.689   4.409   6.834
10252SOL     OW31654   6.872   5.157   1.922
10252SOL    HW131655   6.859   5.250   1.885
10252SOL    HW231656   6.892   5.095   1.846
10253SOL     OW31657   3.739   5.133   6.417
10253SOL    HW131658   3.673   5.113   6.489
10253SOL    HW231659   3.828   5.096   6.441
10254SOL     OW31660   2.411   2.233   4.997
10254SOL    HW131661   2.407   2.330   5.020
10254SOL    HW231662   2.465   2.184   5.066
10255SOL     OW31663   2.915   5.409   2.904
10255SOL    HW131664   2.866   5.369   2.827
10255SOL    HW231665   2.851   5.428   2.979
10256SOL     OW31666   5.758   6.379   0.046
10256SOL    HW131667   5.826   6.309   0.024
10256SOL    HW231668   5.775   6.460   7.009
10257SOL     OW31669   1.586   6.146   6.460
10257SOL    HW131670   1.505   6.203   6.448
10257SOL    HW231671   1.668   6.199   6.437
10258SOL     OW31672   4.277   0.795   3.114
10258SOL    HW131673   4.349   0.752   3.059
10258SOL    HW231674   4.236   0.870   3.063
10259SOL     OW31675   0.997   3.879   2.833
10259SOL    HW131676   0.971   3.837   2.920
10259SOL    HW231677   0.980   3.814   2.759
10260SOL     OW31678   0.597   6.763   1.602
10260SOL    HW131679   0.557   6.853   1.622
10260SOL    HW231680   0.658   6.737   1.677
10261SOL     OW31681   1.763   6.960   1.554
10261SOL    HW131682   1.810   0.029   1.562
10261SOL    HW231683   1.827   6.891   1.522
10262SOL     OW31684   1.689   5.403   5.318
10262SOL    HW131685   1.735   5.443   5.397
10262SOL    HW231686   1.593   5.386   5.340
10263SOL     OW31687   6.099   2.315   6.400
10263SOL    HW131688   6.136   2.337   6.490
10263SOL    HW231689   6.023   2.251   6.410
10264SOL     OW31690   0.266   0.084   6.679
10264SOL    HW131691   0.330   0.027   6.731
10264SOL    HW231692   0.172   0.065   6.709
10265SOL     OW31693   4.373   1.653   2.262
10265SOL    HW131694   4.307   1.608   2.203
10265SOL    HW231695   4.326   1.694   2.340
10266SOL     OW31696   3.677   3.912   6.292
10266SOL    HW131697   3.636   4.002   6.285
10266SOL    HW231698   3.759   3.908   6.234
10267SOL     OW31699   6.275   1.855   6.708
10267SOL    HW131700   6.294   1.781   6.772
10267SOL    HW231701   6.255   1.818   6.618
10268SOL     OW31702   6.710   4.871   1.748
10268SOL    HW131703   6.808   4.854   1.764
10268SOL    HW231704   6.657   4.835   1.825
10269SOL     OW31705   3.036   2.855   5.675
10269SOL    HW131706   3.125   2.844   5.630
10269SOL    HW231707   3.049   2.865   5.774
10270SOL     OW31708   2.160   6.093   0.890
10270SOL    HW131709   2.181   6.155   0.815
10270SOL    HW231710   2.186   6.136   0.977
10271SOL     OW31711   4.100   4.862   1.152
10271SOL    HW131712   4.166   4.937   1.163
10271SOL    HW231713   4.149   4.779   1.127
10272SOL     OW31714   0.963   1.123   6.196
10272SOL    HW131715   0.914   1.091   6.277
10272SOL    HW231716   0.929   1.073   6.116
10273SOL     OW31717   4.593   6.188   4.513
10273SOL    HW131718   4.680   6.226   4.543
10273SOL    HW231719   4.569   6.227   4.424
10274SOL     OW31720   1.802   6.333   5.902
10274SOL    HW131721   1.711   6.352   5.938
10274SOL    HW231722   1.870   6.347   5.975
10275SOL     OW31723   1.011   6.449   1.872
10275SOL    HW131724   1.039   6.544   1.869
10275SOL    HW231725   0.942   6.437   1.944
10276SOL     OW31726   6.296   5.676   6.591
10276SOL    HW131727   6.344   5.644   6.509
10276SOL    HW231728   6.346   5.647   6.672
10277SOL     OW31729   1.727   5.578   3.812
10277SOL    HW131730   1.823   5.599   3.792
10277SOL    HW231731   1.712   5.584   3.911
10278SOL     OW31732   5.824   6.968   5.748
10278SOL    HW131733   5.750   6.909   5.718
10278SOL    HW231734   5.800   0.044   5.732
10279SOL     OW31735   3.654   6.735   3.424
10279SOL    HW131736   3.670   6.642   3.457
10279SOL    HW231737   3.628   6.793   3.502
10280SOL     OW31738   2.993   3.556   6.564
10280SOL    HW131739   2.961   3.523   6.476
10280SOL    HW231740   2.965   3.651   6.577
10281SOL     OW31741   4.124   6.869   3.711
10281SOL    HW131742   4.050   6.817   3.752
10281SOL    HW231743   4.211   6.823   3.727
10282SOL     OW31744   0.818   2.187   4.668
10282SOL    HW131745   0.916   2.191   4.687
10282SOL    HW231746   0.776   2.116   4.724
10283SOL     OW31747   0.737   3.697   6.498
10283SOL    HW131748   0.742   3.723   6.594
10283SOL    HW231749   0.805   3.750   6.446
10284SOL     OW31750   5.375   2.990   5.966
10284SOL    HW131751   5.432   3.026   5.892
10284SOL    HW231752   5.428   2.922   6.018
10285SOL     OW31753   6.204   6.902   0.866
10285SOL    HW131754   6.153   6.856   0.793
10285SOL    HW231755   6.191   6.853   0.952
10286SOL     OW31756   4.299   0.818   4.043
10286SOL    HW131757   4.303   0.761   4.125
10286SOL    HW231758   4.392   0.846   4.018
10287SOL     OW31759   2.454   5.564   1.494
10287SOL    HW131760   2.535   5.504   1.498
10287SOL    HW231761   2.439   5.606   1.583
10288SOL     OW31762   5.341   6.487   4.154
10288SOL    HW131763   5.337   6.416   4.085
10288SOL    HW231764   5.437   6.509   4.175
10289SOL     OW31765   2.990   0.954   1.886
10289SOL    HW131766   2.982   0.928   1.790
10289SOL    HW231767   3.029   1.046   1.892
10290SOL     OW31768   3.194   3.653   2.009
10290SOL    HW131769   3.243   3.668   2.095
10290SOL    HW231770   3.111   3.709   2.007
10291SOL     OW31771   3.649   7.006   5.744
10291SOL    HW131772   3.563   0.002   5.695
10291SOL    HW231773   3.635   6.939   5.816
10292SOL     OW31774   0.181   1.391   4.428
10292SOL    HW131775   0.238   1.324   4.476
10292SOL    HW231776   0.170   1.472   4.484
10293SOL     OW31777   2.201   5.886   3.208
10293SOL    HW131778   2.199   5.946   3.128
10293SOL    HW231779   2.207   5.941   3.291
10294SOL     OW31780   5.707   1.542   3.399
10294SOL    HW131781   5.761   1.625   3.385
10294SOL    HW231782   5.764   1.462   3.384
10295SOL     OW31783   0.880   5.520   5.571
10295SOL    HW131784   0.863   5.593   5.504
10295SOL    HW231785   0.817   5.445   5.556
10296SOL     OW31786   6.145   1.852   0.870
10296SOL    HW131787   6.091   1.772   0.895
10296SOL    HW231788   6.087   1.919   0.826
10297SOL     OW31789   1.849   5.214   4.782
10297SOL    HW131790   1.927   5.155   4.763
10297SOL    HW231791   1.795   5.176   4.857
10298SOL     OW31792   5.092   3.344   3.654
10298SOL    HW131793   5.050   3.294   3.578
10298SOL    HW231794   5.189   3.357   3.636
10299SOL     OW31795   4.926   4.937   2.447
10299SOL    HW131796   4.827   4.935   2.453
10299SOL    HW231797   4.965   4.876   2.516
10300SOL     OW31798   1.523   4.696   2.790
10300SOL    HW131799   1.557   4.759   2.720
10300SOL    HW231800   1.463   4.629   2.747
10301SOL     OW31801   5.619   1.105   1.326
10301SOL    HW131802   5.560   1.086   1.248
10301SOL    HW231803   5.687   1.174   1.300
10302SOL     OW31804   1.879   5.424   3.574
10302SOL    HW131805   1.891   5.499   3.508
10302SOL    HW231806   1.952   5.428   3.642
10303SOL     OW31807   3.196   3.013   1.089
10303SOL    HW131808   3.172   3.086   1.025
10303SOL    HW231809   3.284   3.034   1.131
10304SOL     OW31810   6.405   6.511   3.668
10304SOL    HW131811   6.412   6.608   3.691
10304SOL    HW231812   6.313   6.491   3.635
10305SOL     OW31813   1.754   5.624   0.934
10305SOL    HW131814   1.787   5.710   0.895
10305SOL    HW231815   1.754   5.631   1.034
10306SOL     OW31816   4.554   5.735   0.022
10306SOL    HW131817   4.512   5.740   6.950
10306SOL    HW231818   4.513   5.660   0.073
10307SOL     OW31819   2.500   1.288   5.238
10307SOL    HW131820   2.428   1.346   5.199
10307SOL    HW231821   2.459   1.218   5.296
10308SOL     OW31822   3.087   5.775   4.004
10308SOL    HW131823   3.018   5.725   3.951
10308SOL    HW231824   3.167   5.717   4.016
10309SOL     OW31825   0.200   6.397   3.506
10309SOL    HW131826   0.210   6.495   3.491
10309SOL    HW231827   0.286   6.351   3.481
10310SOL     OW31828   4.047   3.153   4.068
10310SOL    HW131829   4.086   3.224   4.126
10310SOL    HW231830   4.117   3.084   4.049
10311SOL     OW31831   7.008   6.088   0.386
10311SOL    HW131832   0.061   6.019   0.380
10311SOL    HW231833   0.010   6.152   0.460
10312SOL     OW31834   2.092   4.754   1.236
10312SOL    HW131835   2.006   4.704   1.249
10312SOL    HW231836   2.169   4.693   1.258
10313SOL     OW31837   5.155   6.390   3.258
10313SOL    HW131838   5.063   6.397   3.219
10313SOL    HW231839   5.179   6.477   3.301
10314SOL     OW31840   6.485   5.928   6.801
10314SOL    HW131841   6.580   5.935   6.771
10314SOL    HW231842   6.443   5.848   6.758
10315SOL     OW31843   6.230   5.641   4.448
10315SOL    HW131844   6.283   5.659   4.365
10315SOL    HW231845   6.180   5.724   4.474
10316SOL     OW31846   7.008   3.743   2.248
10316SOL    HW131847   0.056   3.815   2.268
10316SOL    HW231848   6.974   3.754   2.155
10317SOL     OW31849   3.603   4.780   0.666
10317SOL    HW131850   3.520   4.805   0.616
10317SOL    HW231851   3.580   4.755   0.760
10318SOL     OW31852   6.984   5.801   1.692
10318SOL    HW131853   6.918   5.838   1.757
10318SOL    HW231854   0.058   5.820   1.723
10319SOL     OW31855   5.411   0.024   4.305
10319SOL    HW131856   5.316   0.008   4.276
10319SOL    HW231857   5.466   0.047   4.225
10320SOL     OW31858   5.214   6.664   1.346
10320SOL    HW131859   5.289   6.712   1.302
10320SOL    HW231860   5.246   6.574   1.377
10321SOL     OW31861   3.689   5.989   4.385
10321SOL    HW131862   3.744   5.985   4.301
10321SOL    HW231863   3.593   5.971   4.362
10322SOL     OW31864   6.598   2.892   0.258
10322SOL    HW131865   6.668   2.832   0.221
10322SOL    HW231866   6.508   2.865   0.222
10323SOL     OW31867   5.965   2.603   5.277
10323SOL    HW131868   5.875   2.639   5.304
10323SOL    HW231869   6.024   2.679   5.249
10324SOL     OW31870   2.952   3.687   3.385
10324SOL    HW131871   2.990   3.731   3.304
10324SOL    HW231872   3.022   3.630   3.428
10325SOL     OW31873   0.994   3.741   2.581
10325SOL    HW131874   0.962   3.651   2.551
10325SOL    HW231875   1.090   3.753   2.556
10326SOL     OW31876   5.471   1.619   1.260
10326SOL    HW131877   5.411   1.583   1.332
10326SOL    HW231878   5.518   1.543   1.215
10327SOL     OW31879   6.962   0.576   3.896
10327SOL    HW131880   7.008   0.560   3.808
10327SOL    HW231881   6.961   0.490   3.948
10328SOL     OW31882   6.042   2.606   1.935
10328SOL    HW131883   6.094   2.587   2.018
10328SOL    HW231884   6.056   2.532   1.870
10329SOL     OW31885   4.025   6.299   2.063
10329SOL    HW131886   4.102   6.292   1.999
10329SOL    HW231887   3.954   6.234   2.037
10330SOL     OW31888   3.755   5.131   1.409
10330SOL    HW131889   3.839   5.184   1.423
10330SOL    HW231890   3.676   5.186   1.435
10331SOL     OW31891   5.677   0.489   3.908
10331SOL    HW131892   5.695   0.578   3.867
10331SOL    HW231893   5.754   0.462   3.966
10332SOL     OW31894   0.523   2.252   6.438
10332SOL    HW131895   0.514   2.166   6.388
10332SOL    HW231896   0.540   2.232   6.535
10333SOL     OW31897   4.651   4.298   4.686
10333SOL    HW131898   4.693   4.231   4.747
10333SOL    HW231899   4.552   4.299   4.700
10334SOL     OW31900   1.242   4.563   5.390
10334SOL    HW131901   1.184   4.562   5.309
10334SOL    HW231902   1.203   4.625   5.458
10335SOL     OW31903   1.768   5.687   2.126
10335SOL    HW131904   1.784   5.770   2.073
10335SOL    HW231905   1.803   5.699   2.219
10336SOL     OW31906   4.246   6.814   2.605
10336SOL    HW131907   4.194   6.883   2.555
10336SOL    HW231908   4.271   6.850   2.695
10337SOL     OW31909   0.296   5.333   4.840
10337SOL    HW131910   0.305   5.419   4.790
10337SOL    HW231911   0.310   5.351   4.938
10338SOL     OW31912   3.501   5.304   3.442
10338SOL    HW131913   3.415   5.304   3.390
10338SOL    HW231914   3.513   5.215   3.487
10339SOL     OW31915   3.356   5.624   0.875
10339SOL    HW131916   3.326   5.547   0.819
10339SOL    HW231917   3.407   5.688   0.818
10340SOL     OW31918   2.142   6.860   6.851
10340SOL    HW131919   2.225   6.865   6.794
10340SOL    HW231920   2.115   6.764   6.861
10341SOL     OW31921   1.699   1.227   2.160
10341SOL    HW131922   1.717   1.163   2.234
10341SOL    HW231923   1.642   1.302   2.194
10342SOL     OW31924   2.609   6.661   4.457
10342SOL    HW131925   2.567   6.608   4.383
10342SOL    HW231926   2.538   6.705   4.511
10343SOL     OW31927   2.241   3.063   4.668
10343SOL    HW131928   2.154   3.028   4.701
10343SOL    HW231929   2.225   3.127   4.593
10344SOL     OW31930   4.085   4.468   6.008
10344SOL    HW131931   4.116   4.538   6.073
10344SOL    HW231932   4.092   4.378   6.051
10345SOL     OW31933   1.616   2.030   6.193
10345SOL    HW131934   1.678   2.061   6.265
10345SOL    HW231935   1.670   1.992   6.117
10346SOL     OW31936   5.044   5.517   0.013
10346SOL    HW131937   5.004   5.427   7.017
10346SOL    HW231938   5.028   5.575   6.952
10347SOL     OW31939   5.057   2.140   1.900
10347SOL    HW131940   5.125   2.066   1.899
10347SOL    HW231941   5.019   2.149   1.992
10348SOL     OW31942   6.720   5.069   5.876
10348SOL    HW131943   6.662   4.988   5.887
10348SOL    HW231944   6.674   5.148   5.917
10349SOL     OW31945   0.347   1.572   0.395
10349SOL    HW131946   0.284   1.538   0.464
10349SOL    HW231947   0.340   1.672   0.390
10350SOL     OW31948   2.209   4.053   4.558
10350SOL    HW131949   2.183   4.038   4.653
10350SOL    HW231950   2.300   4.094   4.555
10351SOL     OW31951   4.588   4.604   5.021
10351SOL    HW131952   4.502   4.636   4.981
10351SOL    HW231953   4.659   4.673   5.005
10352SOL     OW31954   5.583   1.433   6.952
10352SOL    HW131955   5.526   1.351   6.942
10352SOL    HW231956   5.531   1.503   7.002
10353SOL     OW31957   6.884   2.599   3.578
10353SOL    HW131958   6.865   2.580   3.482
10353SOL    HW231959   6.859   2.520   3.634
10354SOL     OW31960   7.008   3.162   0.885
10354SOL    HW131961   0.006   3.065   0.902
10354SOL    HW231962   6.910   3.180   0.891
10355SOL     OW31963   0.165   1.650   1.085
10355SOL    HW131964   0.225   1.615   1.012
10355SOL    HW231965   0.090   1.586   1.100
10356SOL     OW31966   5.971   3.470   6.079
10356SOL    HW131967   5.972   3.378   6.119
10356SOL    HW231968   5.876   3.499   6.065
10357SOL     OW31969   1.119   1.561   5.984
10357SOL    HW131970   1.097   1.463   5.990
10357SOL    HW231971   1.178   1.586   6.061
10358SOL     OW31972   0.745   1.653   2.942
10358SOL    HW131973   0.713   1.663   3.036
10358SOL    HW231974   0.837   1.613   2.943
10359SOL     OW31975   6.303   2.436   1.845
10359SOL    HW131976   6.219   2.391   1.813
10359SOL    HW231977   6.371   2.366   1.867
10360SOL     OW31978   6.325   4.624   1.878
10360SOL    HW131979   6.296   4.692   1.811
10360SOL    HW231980   6.325   4.533   1.836
10361SOL     OW31981   0.484   1.293   2.143
10361SOL    HW131982   0.550   1.321   2.073
10361SOL    HW231983   0.392   1.310   2.110
10362SOL     OW31984   1.050   5.722   1.467
10362SOL    HW131985   1.037   5.804   1.411
10362SOL    HW231986   1.146   5.715   1.494
10363SOL     OW31987   5.360   4.282   6.657
10363SOL    HW131988   5.392   4.216   6.589
10363SOL    HW231989   5.380   4.375   6.626
10364SOL     OW31990   6.222   4.602   2.143
10364SOL    HW131991   6.132   4.641   2.164
10364SOL    HW231992   6.241   4.613   2.046
10365SOL     OW31993   5.265   5.517   0.180
10365SOL    HW131994   5.294   5.607   0.210
10365SOL    HW231995   5.179   5.524   0.129
10366SOL     OW31996   2.735   5.967   3.510
10366SOL    HW131997   2.753   6.034   3.583
10366SOL    HW231998   2.689   5.887   3.548
10367SOL     OW31999   5.627   0.043   1.732
10367SOL    HW132000   5.642   0.133   1.773
10367SOL    HW232001   5.667   0.040   1.641
10368SOL     OW32002   1.939   6.292   2.064
10368SOL    HW132003   1.984   6.378   2.088
10368SOL    HW232004   1.857   6.281   2.120
10369SOL     OW32005   2.960   0.283   6.024
10369SOL    HW132006   2.945   0.380   6.041
10369SOL    HW232007   3.029   0.249   6.087
10370SOL     OW32008   0.728   0.623   6.223
10370SOL    HW132009   0.666   0.598   6.297
10370SOL    HW232010   0.713   0.718   6.196
10371SOL     OW32011   4.334   5.322   3.224
10371SOL    HW132012   4.374   5.260   3.292
10371SOL    HW232013   4.235   5.324   3.236
10372SOL     OW32014   2.824   6.211   1.769
10372SOL    HW132015   2.751   6.183   1.705
10372SOL    HW232016   2.902   6.150   1.758
10373SOL     OW32017   0.223   1.595   6.115
10373SOL    HW132018   0.306   1.538   6.119
10373SOL    HW232019   0.193   1.602   6.020
10374SOL     OW32020   4.077   5.483   3.869
10374SOL    HW132021   4.004   5.504   3.804
10374SOL    HW232022   4.133   5.564   3.883
10375SOL     OW32023   2.641   4.293   6.965
10375SOL    HW132024   2.667   4.202   6.932
10375SOL    HW232025   2.673   4.305   0.040
10376SOL     OW32026   1.856   4.467   3.144
10376SOL    HW132027   1.812   4.538   3.089
10376SOL    HW232028   1.823   4.473   3.239
10377SOL     OW32029   1.453   0.655   2.088
10377SOL    HW132030   1.488   0.623   2.176
10377SOL    HW232031   1.492   0.745   2.068
10378SOL     OW32032   0.063   4.745   4.070
10378SOL    HW132033   0.148   4.693   4.080
10378SOL    HW232034   7.010   4.702   4.125
10379SOL     OW32035   1.966   6.152   4.369
10379SOL    HW132036   1.971   6.252   4.364
10379SOL    HW232037   1.950   6.124   4.464
10380SOL     OW32038   2.424   2.312   4.560
10380SOL    HW132039   2.464   2.403   4.574
10380SOL    HW232040   2.497   2.248   4.532
10381SOL     OW32041   4.178   5.451   2.270
10381SOL    HW132042   4.099   5.489   2.221
10381SOL    HW232043   4.192   5.356   2.244
10382SOL     OW32044   4.001   5.773   2.352
10382SOL    HW132045   3.954   5.708   2.291
10382SOL    HW232046   3.961   5.864   2.340
10383SOL     OW32047   1.945   4.194   0.474
10383SOL    HW132048   1.911   4.238   0.391
10383SOL    HW232049   2.037   4.158   0.458
10384SOL     OW32050   5.813   6.615   1.752
10384SOL    HW132051   5.815   6.697   1.809
10384SOL    HW232052   5.722   6.604   1.712
10385SOL     OW32053   4.809   4.942   6.663
10385SOL    HW132054   4.833   4.984   6.576
10385SOL    HW232055   4.746   4.866   6.647
10386SOL     OW32056   6.776   1.111   0.776
10386SOL    HW132057   6.841   1.035   0.783
10386SOL    HW232058   6.691   1.087   0.822
10387SOL     OW32059   5.184   2.907   1.932
10387SOL    HW132060   5.094   2.933   1.898
10387SOL    HW232061   5.255   2.944   1.872
10388SOL     OW32062   2.722   0.695   5.554
10388SOL    HW132063   2.701   0.598   5.543
10388SOL    HW232064   2.647   0.750   5.517
10389SOL     OW32065   0.586   3.674   0.676
10389SOL    HW132066   0.494   3.642   0.654
10389SOL    HW232067   0.608   3.752   0.618
10390SOL     OW32068   2.103   2.404   1.984
10390SOL    HW132069   2.184   2.349   2.004
10390SOL    HW232070   2.122   2.464   1.906
10391SOL     OW32071   5.990   6.685   4.665
10391SOL    HW132072   6.082   6.684   4.628
10391SOL    HW232073   5.966   6.777   4.696
10392SOL     OW32074   6.573   4.411   3.891
10392SOL    HW132075   6.604   4.404   3.797
10392SOL    HW232076   6.495   4.473   3.896
10393SOL     OW32077   1.248   3.737   3.452
10393SOL    HW132078   1.265   3.745   3.354
10393SOL    HW232079   1.255   3.641   3.480
10394SOL     OW32080   3.442   6.299   4.561
10394SOL    HW132081   3.352   6.342   4.559
10394SOL    HW232082   3.433   6.202   4.539
10395SOL     OW32083   0.289   0.037   0.818
10395SOL    HW132084   0.371   7.015   0.859
10395SOL    HW232085   0.288   0.135   0.837
10396SOL     OW32086   3.184   1.862   4.767
10396SOL    HW132087   3.185   1.961   4.761
10396SOL    HW232088   3.109   1.833   4.826
10397SOL     OW32089   3.084   2.172   2.635
10397SOL    HW132090   3.180   2.145   2.631
10397SOL    HW232091   3.063   2.208   2.726
10398SOL     OW32092   6.889   2.546   1.223
10398SOL    HW132093   6.823   2.504   1.161
10398SOL    HW232094   6.915   2.480   1.293
10399SOL     OW32095   6.489   3.579   1.735
10399SOL    HW132096   6.488   3.622   1.825
10399SOL    HW232097   6.395   3.563   1.705
10400SOL     OW32098   4.034   6.865   0.737
10400SOL    HW132099   3.952   6.880   0.792
10400SOL    HW232100   4.009   6.861   0.640
10401SOL     OW32101   0.101   0.679   5.282
10401SOL    HW132102   0.078   0.774   5.259
10401SOL    HW232103   0.154   0.678   5.367
10402SOL     OW32104   6.888   2.844   4.271
10402SOL    HW132105   6.866   2.871   4.365
10402SOL    HW232106   6.987   2.835   4.261
10403SOL     OW32107   2.904   0.549   3.340
10403SOL    HW132108   2.843   0.508   3.273
10403SOL    HW232109   2.925   0.482   3.411
10404SOL     OW32110   0.384   6.169   6.404
10404SOL    HW132111   0.376   6.072   6.379
10404SOL    HW232112   0.402   6.223   6.321
10405SOL     OW32113   6.983   1.268   5.958
10405SOL    HW132114   6.972   1.283   5.860
10405SOL    HW232115   6.930   1.336   6.008
10406SOL     OW32116   3.179   4.764   1.742
10406SOL    HW132117   3.125   4.770   1.659
10406SOL    HW232118   3.121   4.782   1.821
10407SOL     OW32119   3.171   6.695   0.203
10407SOL    HW132120   3.168   6.708   0.302
10407SOL    HW232121   3.248   6.635   0.180
10408SOL     OW32122   4.395   0.230   0.498
10408SOL    HW132123   4.469   0.289   0.531
10408SOL    HW232124   4.339   0.282   0.433
10409SOL     OW32125   5.899   4.959   0.681
10409SOL    HW132126   5.946   5.039   0.717
10409SOL    HW232127   5.947   4.925   0.601
10410SOL     OW32128   5.696   0.805   0.300
10410SOL    HW132129   5.673   0.715   0.262
10410SOL    HW232130   5.768   0.846   0.244
10411SOL     OW32131   2.800   5.186   3.466
10411SOL    HW132132   2.829   5.168   3.560
10411SOL    HW232133   2.702   5.209   3.465
10412SOL     OW32134   6.041   0.566   0.757
10412SOL    HW132135   5.956   0.611   0.784
10412SOL    HW232136   6.117   0.601   0.813
10413SOL     OW32137   6.179   1.883   1.502
10413SOL    HW132138   6.266   1.894   1.455
10413SOL    HW232139   6.104   1.890   1.435
10414SOL     OW32140   5.204   2.320   4.921
10414SOL    HW132141   5.242   2.310   4.829
10414SOL    HW232142   5.110   2.353   4.915
10415SOL     OW32143   0.577   6.058   6.074
10415SOL    HW132144   0.646   6.002   6.119
10415SOL    HW232145   0.609   6.086   5.984
10416SOL     OW32146   5.757   2.825   4.944
10416SOL    HW132147   5.673   2.780   4.914
10416SOL    HW232148   5.759   2.829   5.044
10417SOL     OW32149   2.260   4.692   3.982
10417SOL    HW132150   2.328   4.666   3.914
10417SOL    HW232151   2.262   4.791   3.995
10418SOL     OW32152   0.899   4.342   5.322
10418SOL    HW132153   0.826   4.299   5.376
10418SOL    HW232154   0.980   4.355   5.380
10419SOL     OW32155   0.922   1.301   0.876
10419SOL    HW132156   0.974   1.329   0.956
10419SOL    HW232157   0.966   1.336   0.793
10420SOL     OW32158   6.880   2.667   2.619
10420SOL    HW132159   6.830   2.750   2.596
10420SOL    HW232160   6.882   2.655   2.718
10421SOL     OW32161   1.498   0.629   3.983
10421SOL    HW132162   1.456   0.711   4.020
10421SOL    HW232163   1.558   0.653   3.907
10422SOL     OW32164   6.483   2.434   5.474
10422SOL    HW132165   6.553   2.462   5.409
10422SOL    HW232166   6.518   2.359   5.531
10423SOL     OW32167   4.581   4.923   4.022
10423SOL    HW132168   4.589   4.833   3.979
10423SOL    HW232169   4.671   4.965   4.030
10424SOL     OW32170   5.173   1.558   6.837
10424SOL    HW132171   5.089   1.519   6.874
10424SOL    HW232172   5.156   1.652   6.808
10425SOL     OW32173   1.751   5.633   2.604
10425SOL    HW132174   1.728   5.549   2.654
10425SOL    HW232175   1.671   5.693   2.601
10426SOL     OW32176   6.501   4.290   0.298
10426SOL    HW132177   6.435   4.242   0.355
10426SOL    HW232178   6.498   4.388   0.318
10427SOL     OW32179   5.259   2.095   0.468
10427SOL    HW132180   5.321   2.068   0.394
10427SOL    HW232181   5.278   2.191   0.493
10428SOL     OW32182   4.083   0.640   4.578
10428SOL    HW132183   4.179   0.665   4.575
10428SOL    HW232184   4.038   0.688   4.654
10429SOL     OW32185   6.956   5.892   1.434
10429SOL    HW132186   6.958   5.875   1.533
10429SOL    HW232187   6.877   5.846   1.394
10430SOL     OW32188   4.062   6.297   3.091
10430SOL    HW132189   4.027   6.247   3.012
10430SOL    HW232190   4.162   6.290   3.092
10431SOL     OW32191   2.797   0.342   5.009
10431SOL    HW132192   2.773   0.314   5.102
10431SOL    HW232193   2.862   0.418   5.013
10432SOL     OW32194   5.902   0.774   4.178
10432SOL    HW132195   5.908   0.758   4.080
10432SOL    HW232196   5.821   0.729   4.214
10433SOL     OW32197   1.925   6.707   1.033
10433SOL    HW132198   1.835   6.693   0.991
10433SOL    HW232199   1.928   6.796   1.077
10434SOL     OW32200   3.212   0.065   3.470
10434SOL    HW132201   3.130   0.027   3.513
10434SOL    HW232202   3.223   0.026   3.379
10435SOL     OW32203   5.592   6.574   6.054
10435SOL    HW132204   5.550   6.489   6.021
10435SOL    HW232205   5.653   6.553   6.130
10436SOL     OW32206   1.502   5.178   4.108
10436SOL    HW132207   1.571   5.207   4.041
10436SOL    HW232208   1.421   5.145   4.059
10437SOL     OW32209   6.446   5.013   5.936
10437SOL    HW132210   6.438   5.026   6.034
10437SOL    HW232211   6.391   5.081   5.888
10438SOL     OW32212   5.137   6.656   0.590
10438SOL    HW132213   5.224   6.675   0.635
10438SOL    HW232214   5.065   6.712   0.632
10439SOL     OW32215   3.604   0.394   5.542
10439SOL    HW132216   3.584   0.332   5.467
10439SOL    HW232217   3.520   0.413   5.593
10440SOL     OW32218   1.057   6.755   1.040
10440SOL    HW132219   1.082   6.671   0.992
10440SOL    HW232220   1.136   6.816   1.043
10441SOL     OW32221   5.506   1.678   6.556
10441SOL    HW132222   5.501   1.688   6.655
10441SOL    HW232223   5.505   1.581   6.531
10442SOL     OW32224   3.772   5.170   5.567
10442SOL    HW132225   3.693   5.134   5.518
10442SOL    HW232226   3.793   5.262   5.535
10443SOL     OW32227   6.061   3.670   4.833
10443SOL    HW132228   6.005   3.745   4.868
10443SOL    HW232229   6.019   3.632   4.751
10444SOL     OW32230   3.530   5.387   4.942
10444SOL    HW132231   3.462   5.317   4.921
10444SOL    HW232232   3.565   5.425   4.857
10445SOL     OW32233   6.742   6.047   4.437
10445SOL    HW132234   6.692   5.968   4.471
10445SOL    HW232235   6.684   6.099   4.375
10446SOL     OW32236   0.870   4.685   6.240
10446SOL    HW132237   0.865   4.680   6.339
10446SOL    HW232238   0.965   4.676   6.210
10447SOL     OW32239   6.309   2.332   1.528
10447SOL    HW132240   6.302   2.276   1.610
10447SOL    HW232241   6.219   2.342   1.486
10448SOL     OW32242   3.784   4.083   2.044
10448SOL    HW132243   3.782   4.183   2.047
10448SOL    HW232244   3.879   4.052   2.056
10449SOL     OW32245   2.314   5.342   4.394
10449SOL    HW132246   2.348   5.337   4.300
10449SOL    HW232247   2.216   5.323   4.394
10450SOL     OW32248   6.995   1.741   0.294
10450SOL    HW132249   6.916   1.696   0.336
10450SOL    HW232250   6.964   1.814   0.233
10451SOL     OW32251   2.438   4.369   3.069
10451SOL    HW132252   2.443   4.309   3.149
10451SOL    HW232253   2.530   4.402   3.046
10452SOL     OW32254   0.669   3.028   3.912
10452SOL    HW132255   0.633   3.096   3.976
10452SOL    HW232256   0.737   3.072   3.852
10453SOL     OW32257   5.441   5.790   1.496
10453SOL    HW132258   5.438   5.884   1.463
10453SOL    HW232259   5.351   5.748   1.485
10454SOL     OW32260   5.135   3.092   2.165
10454SOL    HW132261   5.207   3.161   2.170
10454SOL    HW232262   5.155   3.028   2.091
10455SOL     OW32263   0.353   4.926   3.880
10455SOL    HW132264   0.366   4.847   3.820
10455SOL    HW232265   0.427   4.992   3.864
10456SOL     OW32266   3.924   6.148   1.338
10456SOL    HW132267   3.925   6.195   1.426
10456SOL    HW232268   3.888   6.055   1.350
10457SOL     OW32269   4.053   3.652   3.499
10457SOL    HW132270   3.985   3.596   3.545
10457SOL    HW232271   4.107   3.703   3.567
10458SOL     OW32272   1.162   6.536   0.947
10458SOL    HW132273   1.141   6.451   0.899
10458SOL    HW232274   1.251   6.570   0.916
10459SOL     OW32275   6.062   5.309   2.580
10459SOL    HW132276   6.048   5.395   2.629
10459SOL    HW232277   5.989   5.245   2.603
10460SOL     OW32278   2.272   5.050   1.808
10460SOL    HW132279   2.236   5.140   1.832
10460SOL    HW232280   2.284   4.996   1.892
10461SOL     OW32281   3.213   0.540   6.803
10461SOL    HW132282   3.310   0.565   6.802
10461SOL    HW232283   3.158   0.623   6.791
10462SOL     OW32284   6.093   0.531   1.215
10462SOL    HW132285   6.010   0.519   1.161
10462SOL    HW232286   6.161   0.463   1.188
10463SOL     OW32287   2.982   5.068   0.319
10463SOL    HW132288   2.902   5.074   0.380
10463SOL    HW232289   3.003   4.972   0.300
10464SOL     OW32290   5.342   0.504   0.835
10464SOL    HW132291   5.277   0.492   0.760
10464SOL    HW232292   5.361   0.601   0.848
10465SOL     OW32293   6.662   5.181   6.389
10465SOL    HW132294   6.713   5.147   6.309
10465SOL    HW232295   6.665   5.112   6.461
10466SOL     OW32296   4.661   6.234   5.196
10466SOL    HW132297   4.626   6.244   5.103
10466SOL    HW232298   4.721   6.154   5.201
10467SOL     OW32299   2.856   1.671   5.241
10467SOL    HW132300   2.952   1.676   5.269
10467SOL    HW232301   2.840   1.737   5.168
10468SOL     OW32302   3.095   6.789   3.429
10468SOL    HW132303   3.185   6.758   3.462
10468SOL    HW232304   3.026   6.722   3.455
10469SOL     OW32305   1.706   4.376   0.589
10469SOL    HW132306   1.732   4.389   0.685
10469SOL    HW232307   1.767   4.428   0.531
10470SOL     OW32308   3.002   1.555   4.082
10470SOL    HW132309   2.917   1.570   4.133
10470SOL    HW232310   3.059   1.636   4.087
10471SOL     OW32311   3.190   3.639   1.133
10471SOL    HW132312   3.210   3.720   1.079
10471SOL    HW232313   3.116   3.588   1.090
10472SOL     OW32314   3.651   1.068   1.679
10472SOL    HW132315   3.738   1.019   1.685
10472SOL    HW232316   3.666   1.156   1.633
10473SOL     OW32317   5.561   5.832   0.109
10473SOL    HW132318   5.593   5.741   0.085
10473SOL    HW232319   5.471   5.827   0.151
10474SOL     OW32320   3.772   0.559   4.523
10474SOL    HW132321   3.824   0.567   4.438
10474SOL    HW232322   3.826   0.597   4.599
10475SOL     OW32323   4.192   6.942   1.192
10475SOL    HW132324   4.143   6.885   1.126
10475SOL    HW232325   4.191   0.018   1.161
10476SOL     OW32326   0.464   5.402   0.010
10476SOL    HW132327   0.383   5.344   0.019
10476SOL    HW232328   0.499   5.424   0.101
10477SOL     OW32329   5.491   4.062   5.095
10477SOL    HW132330   5.530   3.995   5.033
10477SOL    HW232331   5.468   4.019   5.182
10478SOL     OW32332   0.145   6.353   1.389
10478SOL    HW132333   0.073   6.309   1.336
10478SOL    HW232334   0.122   6.449   1.405
10479SOL     OW32335   1.596   3.292   2.959
10479SOL    HW132336   1.650   3.239   2.894
10479SOL    HW232337   1.551   3.368   2.911
10480SOL     OW32338   5.380   6.705   2.346
10480SOL    HW132339   5.379   6.709   2.446
10480SOL    HW232340   5.314   6.771   2.311
10481SOL     OW32341   1.819   0.738   5.070
10481SOL    HW132342   1.833   0.827   5.027
10481SOL    HW232343   1.721   0.721   5.083
10482SOL     OW32344   1.022   5.942   5.282
10482SOL    HW132345   1.025   5.962   5.184
10482SOL    HW232346   1.040   6.025   5.334
10483SOL     OW32347   0.190   5.337   7.009
10483SOL    HW132348   0.170   5.239   7.015
10483SOL    HW232349   0.175   5.379   0.080
10484SOL     OW32350   6.499   0.955   1.592
10484SOL    HW132351   6.553   0.938   1.674
10484SOL    HW232352   6.410   0.995   1.618
10485SOL     OW32353   3.440   3.894   3.012
10485SOL    HW132354   3.440   3.794   3.015
10485SOL    HW232355   3.347   3.927   2.992
10486SOL     OW32356   5.914   5.982   5.283
10486SOL    HW132357   5.911   6.082   5.288
10486SOL    HW232358   5.835   5.944   5.331
10487SOL     OW32359   4.229   2.096   1.790
10487SOL    HW132360   4.231   2.194   1.812
10487SOL    HW232361   4.187   2.047   1.866
10488SOL     OW32362   6.922   2.172   5.397
10488SOL    HW132363   6.965   2.132   5.317
10488SOL    HW232364   6.945   2.269   5.403
10489SOL     OW32365   5.839   4.584   4.388
10489SOL    HW132366   5.901   4.577   4.466
10489SOL    HW232367   5.749   4.616   4.418
10490SOL     OW32368   5.565   6.344   6.410
10490SOL    HW132369   5.629   6.408   6.369
10490SOL    HW232370   5.604   6.306   6.494
10491SOL     OW32371   1.316   2.839   6.075
10491SOL    HW132372   1.300   2.781   6.155
10491SOL    HW232373   1.292   2.789   5.992
10492SOL     OW32374   4.224   0.369   0.308
10492SOL    HW132375   4.199   0.463   0.285
10492SOL    HW232376   4.172   0.306   0.250
10493SOL     OW32377   4.336   5.607   0.617
10493SOL    HW132378   4.384   5.693   0.597
10493SOL    HW232379   4.396   5.530   0.599
10494SOL     OW32380   0.499   4.249   5.314
10494SOL    HW132381   0.438   4.287   5.383
10494SOL    HW232382   0.463   4.268   5.223
10495SOL     OW32383   0.752   6.199   0.174
10495SOL    HW132384   0.678   6.140   0.205
10495SOL    HW232385   0.818   6.212   0.247
10496SOL     OW32386   0.349   3.998   5.571
10496SOL    HW132387   0.442   4.009   5.535
10496SOL    HW232388   0.330   4.072   5.635
10497SOL     OW32389   2.249   6.730   1.223
10497SOL    HW132390   2.321   6.794   1.199
10497SOL    HW232391   2.200   6.764   1.304
10498SOL     OW32392   4.249   5.267   0.423
10498SOL    HW132393   4.235   5.279   0.522
10498SOL    HW232394   4.167   5.296   0.374
10499SOL     OW32395   5.569   5.306   2.576
10499SOL    HW132396   5.598   5.272   2.486
10499SOL    HW232397   5.584   5.234   2.644
10500SOL     OW32398   6.522   3.646   4.976
10500SOL    HW132399   6.530   3.715   4.904
10500SOL    HW232400   6.608   3.596   4.984
10501SOL     OW32401   2.866   5.005   3.008
10501SOL    HW132402   2.949   5.059   3.019
10501SOL    HW232403   2.885   4.926   2.949
10502SOL     OW32404   3.552   4.110   2.285
10502SOL    HW132405   3.515   4.177   2.348
10502SOL    HW232406   3.650   4.098   2.301
10503SOL     OW32407   5.702   2.361   6.588
10503SOL    HW132408   5.603   2.351   6.597
10503SOL    HW232409   5.723   2.451   6.550
10504SOL     OW32410   1.641   2.716   6.254
10504SOL    HW132411   1.554   2.667   6.253
10504SOL    HW232412   1.639   2.787   6.325
10505SOL     OW32413   6.136   6.750   1.079
10505SOL    HW132414   6.058   6.702   1.040
10505SOL    HW232415   6.116   6.774   1.174
10506SOL     OW32416   1.138   2.523   0.309
10506SOL    HW132417   1.040   2.525   0.330
10506SOL    HW232418   1.187   2.573   0.380
10507SOL     OW32419   1.089   5.232   6.095
10507SOL    HW132420   1.186   5.241   6.115
10507SOL    HW232421   1.076   5.170   6.019
10508SOL     OW32422   1.153   5.243   5.509
10508SOL    HW132423   1.082   5.240   5.439
10508SOL    HW232424   1.179   5.150   5.535
10509SOL     OW32425   4.735   2.604   3.791
10509SOL    HW132426   4.681   2.608   3.875
10509SOL    HW232427   4.777   2.514   3.782
10510SOL     OW32428   5.548   5.401   3.781
10510SOL    HW132429   5.531   5.304   3.759
10510SOL    HW232430   5.491   5.428   3.858
10511SOL     OW32431   3.975   1.809   2.230
10511SOL    HW132432   3.999   1.896   2.188
10511SOL    HW232433   3.971   1.820   2.330
10512SOL     OW32434   4.168   1.135   4.700
10512SOL    HW132435   4.120   1.171   4.780
10512SOL    HW232436   4.132   1.179   4.617
10513SOL     OW32437   5.243   2.988   1.115
10513SOL    HW132438   5.329   2.976   1.166
10513SOL    HW232439   5.226   3.086   1.104
10514SOL     OW32440   0.571   3.279   1.692
10514SOL    HW132441   0.591   3.182   1.704
10514SOL    HW232442   0.553   3.321   1.781
10515SOL     OW32443   2.102   2.650   5.277
10515SOL    HW132444   2.185   2.609   5.239
10515SOL    HW232445   2.105   2.749   5.264
10516SOL     OW32446   4.426   2.433   1.283
10516SOL    HW132447   4.483   2.374   1.225
10516SOL    HW232448   4.383   2.378   1.354
10517SOL     OW32449   0.759   2.302   3.106
10517SOL    HW132450   0.669   2.345   3.097
10517SOL    HW232451   0.751   2.204   3.091
10518SOL     OW32452   0.841   5.023   2.567
10518SOL    HW132453   0.855   4.924   2.573
10518SOL    HW232454   0.892   5.059   2.489
10519SOL     OW32455   3.423   6.103   0.874
10519SOL    HW132456   3.336   6.079   0.917
10519SOL    HW232457   3.415   6.094   0.774
10520SOL     OW32458   6.969   2.251   4.844
10520SOL    HW132459   0.046   2.242   4.818
10520SOL    HW232460   6.963   2.303   4.929
10521SOL     OW32461   6.592   3.035   1.389
10521SOL    HW132462   6.498   3.020   1.357
10521SOL    HW232463   6.590   3.075   1.481
10522SOL     OW32464   5.142   2.491   3.729
10522SOL    HW132465   5.112   2.422   3.664
10522SOL    HW232466   5.226   2.461   3.774
10523SOL     OW32467   0.024   4.228   2.984
10523SOL    HW132468   0.099   4.278   2.941
10523SOL    HW232469   6.983   4.190   2.914
10524SOL     OW32470   6.888   6.438   5.302
10524SOL    HW132471   6.934   6.349   5.304
10524SOL    HW232472   6.953   6.509   5.275
10525SOL     OW32473   5.203   2.121   4.403
10525SOL    HW132474   5.264   2.053   4.363
10525SOL    HW232475   5.160   2.175   4.330
10526SOL     OW32476   1.766   4.961   0.420
10526SOL    HW132477   1.829   4.966   0.498
10526SOL    HW232478   1.687   5.019   0.437
10527SOL     OW32479   0.938   0.044   4.437
10527SOL    HW132480   0.978   0.019   4.348
10527SOL    HW232481   1.011   0.073   4.499
10528SOL     OW32482   1.511   4.018   5.498
10528SOL    HW132483   1.422   4.031   5.455
10528SOL    HW232484   1.580   4.003   5.427
10529SOL     OW32485   0.967   6.097   0.865
10529SOL    HW132486   0.886   6.142   0.902
10529SOL    HW232487   1.039   6.164   0.850
10530SOL     OW32488   0.127   5.827   0.790
10530SOL    HW132489   0.086   5.794   0.704
10530SOL    HW232490   0.189   5.903   0.770
10531SOL     OW32491   2.862   3.283   5.109
10531SOL    HW132492   2.784   3.270   5.048
10531SOL    HW232493   2.839   3.248   5.200
10532SOL     OW32494   5.446   6.146   6.752
10532SOL    HW132495   5.495   6.097   6.825
10532SOL    HW232496   5.431   6.241   6.780
10533SOL     OW32497   3.046   5.709   3.459
10533SOL    HW132498   3.140   5.686   3.437
10533SOL    HW232499   2.986   5.632   3.436
10534SOL     OW32500   1.584   6.166   3.803
10534SOL    HW132501   1.517   6.183   3.875
10534SOL    HW232502   1.559   6.082   3.754
10535SOL     OW32503   3.384   2.082   2.579
10535SOL    HW132504   3.369   1.987   2.606
10535SOL    HW232505   3.380   2.089   2.480
10536SOL     OW32506   5.779   1.481   4.111
10536SOL    HW132507   5.729   1.562   4.081
10536SOL    HW232508   5.767   1.407   4.044
10537SOL     OW32509   4.355   0.209   3.970
10537SOL    HW132510   4.373   0.307   3.961
10537SOL    HW232511   4.312   0.175   3.886
10538SOL     OW32512   6.615   3.478   3.077
10538SOL    HW132513   6.518   3.484   3.102
10538SOL    HW232514   6.637   3.383   3.055
10539SOL     OW32515   6.791   0.489   3.187
10539SOL    HW132516   6.850   0.462   3.111
10539SOL    HW232517   6.733   0.411   3.213
10540SOL     OW32518   2.380   3.463   6.015
10540SOL    HW132519   2.353   3.530   6.084
10540SOL    HW232520   2.460   3.412   6.048
10541SOL     OW32521   3.270   3.083   5.384
10541SOL    HW132522   3.233   3.176   5.376
10541SOL    HW232523   3.195   3.017   5.380
10542SOL     OW32524   5.121   0.036   4.183
10542SOL    HW132525   5.111   0.135   4.195
10542SOL    HW232526   5.042   7.009   4.224
10543SOL     OW32527   0.254   3.850   5.121
10543SOL    HW132528   0.336   3.908   5.122
10543SOL    HW232529   0.200   3.868   5.203
10544SOL     OW32530   1.645   1.103   2.854
10544SOL    HW132531   1.557   1.069   2.889
10544SOL    HW232532   1.681   1.038   2.788
10545SOL     OW32533   1.989   2.296   2.808
10545SOL    HW132534   1.920   2.297   2.736
10545SOL    HW232535   2.070   2.345   2.777
10546SOL     OW32536   2.859   6.927   0.237
10546SOL    HW132537   2.948   6.962   0.267
10546SOL    HW232538   2.796   6.924   0.314
10547SOL     OW32539   4.617   0.324   4.592
10547SOL    HW132540   4.702   0.271   4.586
10547SOL    HW232541   4.589   0.332   4.688
10548SOL     OW32542   0.175   5.093   4.017
10548SOL    HW132543   0.145   5.039   4.096
10548SOL    HW232544   0.244   5.042   3.966
10549SOL     OW32545   0.101   0.881   1.152
10549SOL    HW132546   0.159   0.820   1.097
10549SOL    HW232547   0.075   0.833   1.236
10550SOL     OW32548   4.859   5.651   3.480
10550SOL    HW132549   4.918   5.622   3.555
10550SOL    HW232550   4.883   5.601   3.397
10551SOL     OW32551   2.908   1.876   6.245
10551SOL    HW132552   2.990   1.916   6.204
10551SOL    HW232553   2.846   1.949   6.274
10552SOL     OW32554   2.901   1.289   4.569
10552SOL    HW132555   2.915   1.316   4.473
10552SOL    HW232556   2.989   1.293   4.617
10553SOL     OW32557   0.440   4.660   0.479
10553SOL    HW132558   0.511   4.634   0.544
10553SOL    HW232559   0.443   4.759   0.463
10554SOL     OW32560   6.633   5.710   2.124
10554SOL    HW132561   6.715   5.684   2.176
10554SOL    HW232562   6.558   5.726   2.187
10555SOL     OW32563   3.727   3.024   0.830
10555SOL    HW132564   3.795   3.025   0.756
10555SOL    HW232565   3.771   3.044   0.917
10556SOL     OW32566   2.319   1.585   2.847
10556SOL    HW132567   2.395   1.619   2.792
10556SOL    HW232568   2.246   1.554   2.787
10557SOL     OW32569   2.227   4.069   4.213
10557SOL    HW132570   2.305   4.131   4.221
10557SOL    HW232571   2.156   4.112   4.157
10558SOL     OW32572   2.936   5.300   4.976
10558SOL    HW132573   2.879   5.381   4.994
10558SOL    HW232574   2.898   5.250   4.898
10559SOL     OW32575   4.320   6.352   6.934
10559SOL    HW132576   4.250   6.398   6.879
10559SOL    HW232577   4.354   6.415   7.004
10560SOL     OW32578   5.779   6.822   2.409
10560SOL    HW132579   5.711   6.845   2.339
10560SOL    HW232580   5.751   6.738   2.456
10561SOL     OW32581   5.965   4.369   0.610
10561SOL    HW132582   5.867   4.390   0.615
10561SOL    HW232583   6.018   4.453   0.620
10562SOL     OW32584   3.890   6.240   2.363
10562SOL    HW132585   3.957   6.311   2.341
10562SOL    HW232586   3.800   6.281   2.375
10563SOL     OW32587   0.605   0.352   1.394
10563SOL    HW132588   0.554   0.268   1.411
10563SOL    HW232589   0.700   0.338   1.423
10564SOL     OW32590   5.494   4.962   3.809
10564SOL    HW132591   5.496   4.865   3.831
10564SOL    HW232592   5.445   5.012   3.881
10565SOL     OW32593   0.777   6.613   5.360
10565SOL    HW132594   0.728   6.527   5.375
10565SOL    HW232595   0.745   6.654   5.274
10566SOL     OW32596   2.674   3.493   6.856
10566SOL    HW132597   2.628   3.419   6.906
10566SOL    HW232598   2.625   3.510   6.771
10567SOL     OW32599   1.069   2.180   6.367
10567SOL    HW132600   0.994   2.116   6.386
10567SOL    HW232601   1.033   2.273   6.363
10568SOL     OW32602   5.153   2.437   5.705
10568SOL    HW132603   5.054   2.447   5.693
10568SOL    HW232604   5.201   2.499   5.643
10569SOL     OW32605   5.722   6.458   0.751
10569SOL    HW132606   5.715   6.374   0.698
10569SOL    HW232607   5.814   6.497   0.739
10570SOL     OW32608   1.261   4.739   3.349
10570SOL    HW132609   1.331   4.668   3.349
10570SOL    HW232610   1.305   4.829   3.353
10571SOL     OW32611   6.580   4.352   6.021
10571SOL    HW132612   6.541   4.369   5.931
10571SOL    HW232613   6.665   4.301   6.012
10572SOL     OW32614   5.876   4.454   0.894
10572SOL    HW132615   5.781   4.474   0.917
10572SOL    HW232616   5.890   4.355   0.894
10573SOL     OW32617   5.762   1.308   3.891
10573SOL    HW132618   5.783   1.373   3.818
10573SOL    HW232619   5.705   1.235   3.854
10574SOL     OW32620   6.597   2.618   3.773
10574SOL    HW132621   6.571   2.649   3.682
10574SOL    HW232622   6.685   2.570   3.768
10575SOL     OW32623   6.328   0.174   1.403
10575SOL    HW132624   6.334   0.103   1.474
10575SOL    HW232625   6.300   0.132   1.317
10576SOL     OW32626   1.620   4.737   4.169
10576SOL    HW132627   1.657   4.830   4.171
10576SOL    HW232628   1.693   4.673   4.146
10577SOL     OW32629   4.071   5.560   0.671
10577SOL    HW132630   4.043   5.597   0.760
10577SOL    HW232631   4.167   5.580   0.655
10578SOL     OW32632   6.802   3.710   4.349
10578SOL    HW132633   6.741   3.786   4.371
10578SOL    HW232634   6.856   3.732   4.268
10579SOL     OW32635   1.540   3.551   6.892
10579SOL    HW132636   1.579   3.520   6.979
10579SOL    HW232637   1.549   3.651   6.886
10580SOL     OW32638   6.726   6.834   6.968
10580SOL    HW132639   6.727   6.826   0.049
10580SOL    HW232640   6.813   6.874   6.937
10581SOL     OW32641   5.252   0.004   2.860
10581SOL    HW132642   5.200   0.087   2.878
10581SOL    HW232643   5.338   0.006   2.910
10582SOL     OW32644   5.929   4.503   6.369
10582SOL    HW132645   5.980   4.448   6.302
10582SOL    HW232646   5.968   4.595   6.371
10583SOL     OW32647   3.068   0.809   5.262
10583SOL    HW132648   3.160   0.807   5.299
10583SOL    HW232649   3.071   0.804   5.162
10584SOL     OW32650   0.820   0.145   4.835
10584SOL    HW132651   0.876   0.191   4.766
10584SOL    HW232652   0.871   0.137   4.921
10585SOL     OW32653   0.647   0.000   4.704
10585SOL    HW132654   0.618   0.065   4.634
10585SOL    HW232655   0.707   0.047   4.769
10586SOL     OW32656   4.074   4.278   5.311
10586SOL    HW132657   3.987   4.313   5.276
10586SOL    HW232658   4.146   4.346   5.297
10587SOL     OW32659   2.319   5.980   5.289
10587SOL    HW132660   2.250   5.916   5.255
10587SOL    HW232661   2.279   6.035   5.362
10588SOL     OW32662   0.976   3.790   4.050
10588SOL    HW132663   0.882   3.825   4.055
10588SOL    HW232664   1.010   3.774   4.142
10589SOL     OW32665   5.181   5.920   3.494
10589SOL    HW132666   5.135   5.863   3.425
10589SOL    HW232667   5.156   5.889   3.585
10590SOL     OW32668   0.922   5.581   2.431
10590SOL    HW132669   0.983   5.588   2.509
10590SOL    HW232670   0.955   5.509   2.369
10591SOL     OW32671   0.133   2.411   1.742
10591SOL    HW132672   0.067   2.480   1.712
10591SOL    HW232673   0.117   2.326   1.691
10592SOL     OW32674   6.458   1.965   4.808
10592SOL    HW132675   6.409   2.022   4.742
10592SOL    HW232676   6.403   1.884   4.829
10593SOL     OW32677   3.307   5.744   3.184
10593SOL    HW132678   3.398   5.745   3.224
10593SOL    HW232679   3.283   5.651   3.156
10594SOL     OW32680   2.976   6.962   3.606
10594SOL    HW132681   3.011   6.912   3.527
10594SOL    HW232682   2.885   6.998   3.584
10595SOL     OW32683   6.222   6.743   0.216
10595SOL    HW132684   6.124   6.764   0.220
10595SOL    HW232685   6.268   6.791   0.291
10596SOL     OW32686   5.163   2.841   6.895
10596SOL    HW132687   5.231   2.902   6.855
10596SOL    HW232688   5.189   2.746   6.878
10597SOL     OW32689   2.206   0.975   6.120
10597SOL    HW132690   2.276   1.046   6.120
10597SOL    HW232691   2.201   0.933   6.210
10598SOL     OW32692   2.395   2.481   6.290
10598SOL    HW132693   2.363   2.437   6.207
10598SOL    HW232694   2.483   2.526   6.272
10599SOL     OW32695   6.569   2.567   6.622
10599SOL    HW132696   6.580   2.581   6.524
10599SOL    HW232697   6.528   2.478   6.639
10600SOL     OW32698   2.797   2.067   1.130
10600SOL    HW132699   2.820   2.087   1.225
10600SOL    HW232700   2.799   2.151   1.076
10601SOL     OW32701   0.984   6.750   6.049
10601SOL    HW132702   1.045   6.804   5.991
10601SOL    HW232703   1.036   6.673   6.088
10602SOL     OW32704   6.851   0.129   0.829
10602SOL    HW132705   6.871   0.221   0.862
10602SOL    HW232706   6.897   0.062   0.888
10603SOL     OW32707   5.169   0.505   2.838
10603SOL    HW132708   5.165   0.517   2.937
10603SOL    HW232709   5.210   0.416   2.816
10604SOL     OW32710   5.593   6.222   4.852
10604SOL    HW132711   5.626   6.163   4.925
10604SOL    HW232712   5.647   6.206   4.769
10605SOL     OW32713   2.502   2.155   1.523
10605SOL    HW132714   2.492   2.255   1.524
10605SOL    HW232715   2.420   2.114   1.484
10606SOL     OW32716   6.385   0.764   0.626
10606SOL    HW132717   6.350   0.707   0.700
10606SOL    HW232718   6.309   0.809   0.579
10607SOL     OW32719   3.219   4.498   6.570
10607SOL    HW132720   3.272   4.414   6.566
10607SOL    HW232721   3.122   4.477   6.575
10608SOL     OW32722   5.775   3.904   3.116
10608SOL    HW132723   5.819   3.839   3.055
10608SOL    HW232724   5.682   3.922   3.085
10609SOL     OW32725   4.270   1.661   6.377
10609SOL    HW132726   4.194   1.607   6.415
10609SOL    HW232727   4.353   1.606   6.377
10610SOL     OW32728   0.351   0.448   4.018
10610SOL    HW132729   0.251   0.451   4.015
10610SOL    HW232730   0.387   0.440   3.924
10611SOL     OW32731   3.453   5.360   4.410
10611SOL    HW132732   3.500   5.403   4.486
10611SOL    HW232733   3.506   5.283   4.375
10612SOL     OW32734   5.962   1.739   3.687
10612SOL    HW132735   6.034   1.719   3.621
10612SOL    HW232736   6.003   1.759   3.776
10613SOL     OW32737   4.984   6.550   4.176
10613SOL    HW132738   4.921   6.475   4.160
10613SOL    HW232739   5.040   6.564   4.094
10614SOL     OW32740   4.451   0.566   5.632
10614SOL    HW132741   4.454   0.644   5.695
10614SOL    HW232742   4.524   0.575   5.564
10615SOL     OW32743   1.819   1.517   6.206
10615SOL    HW132744   1.789   1.612   6.199
10615SOL    HW232745   1.742   1.459   6.232
10616SOL     OW32746   2.362   6.752   0.061
10616SOL    HW132747   2.458   6.766   0.084
10616SOL    HW232748   2.309   6.831   0.091
10617SOL     OW32749   2.527   3.332   1.702
10617SOL    HW132750   2.473   3.386   1.766
10617SOL    HW232751   2.533   3.379   1.614
10618SOL     OW32752   1.099   5.180   4.828
10618SOL    HW132753   1.121   5.115   4.756
10618SOL    HW232754   1.096   5.273   4.790
10619SOL     OW32755   1.177   2.251   3.340
10619SOL    HW132756   1.138   2.161   3.355
10619SOL    HW232757   1.125   2.298   3.269
10620SOL     OW32758   3.215   0.995   6.238
10620SOL    HW132759   3.240   1.000   6.141
10620SOL    HW232760   3.124   1.035   6.251
10621SOL     OW32761   0.393   3.651   3.243
10621SOL    HW132762   0.415   3.616   3.152
10621SOL    HW232763   0.297   3.679   3.246
10622SOL     OW32764   4.373   2.497   0.038
10622SOL    HW132765   4.284   2.487   7.012
10622SOL    HW232766   4.445   2.492   6.988
10623SOL     OW32767   5.219   6.009   5.871
10623SOL    HW132768   5.256   6.071   5.803
10623SOL    HW232769   5.156   6.058   5.932
10624SOL     OW32770   0.231   2.453   5.988
10624SOL    HW132771   0.176   2.394   5.929
10624SOL    HW232772   0.322   2.414   5.998
10625SOL     OW32773   5.950   4.709   6.913
10625SOL    HW132774   5.940   4.647   6.835
10625SOL    HW232775   5.971   4.656   6.995
10626SOL     OW32776   5.014   2.968   1.315
10626SOL    HW132777   5.070   2.932   1.240
10626SOL    HW232778   4.923   2.926   1.310
10627SOL     OW32779   5.838   5.606   5.750
10627SOL    HW132780   5.739   5.610   5.739
10627SOL    HW232781   5.870   5.685   5.803
10628SOL     OW32782   3.815   6.642   1.285
10628SOL    HW132783   3.795   6.549   1.254
10628SOL    HW232784   3.850   6.639   1.378
10629SOL     OW32785   2.644   5.019   4.335
10629SOL    HW132786   2.627   5.096   4.397
10629SOL    HW232787   2.557   4.979   4.307
10630SOL     OW32788   3.711   0.337   2.127
10630SOL    HW132789   3.779   0.408   2.148
10630SOL    HW232790   3.621   0.379   2.116
10631SOL     OW32791   4.465   6.426   6.597
10631SOL    HW132792   4.400   6.496   6.568
10631SOL    HW232793   4.531   6.466   6.661
10632SOL     OW32794   4.030   5.647   3.491
10632SOL    HW132795   3.942   5.600   3.504
10632SOL    HW232796   4.016   5.745   3.501
10633SOL     OW32797   1.231   2.891   1.699
10633SOL    HW132798   1.150   2.931   1.654
10633SOL    HW232799   1.202   2.838   1.778
10634SOL     OW32800   0.321   3.418   6.599
10634SOL    HW132801   0.359   3.343   6.654
10634SOL    HW232802   0.395   3.462   6.548
10635SOL     OW32803   2.186   4.178   5.990
10635SOL    HW132804   2.098   4.194   6.034
10635SOL    HW232805   2.177   4.107   5.920
10636SOL     OW32806   6.740   1.858   6.029
10636SOL    HW132807   6.726   1.920   6.107
10636SOL    HW232808   6.836   1.860   6.002
10637SOL     OW32809   3.000   1.216   0.000
10637SOL    HW132810   2.960   1.276   6.950
10637SOL    HW232811   3.089   1.183   6.987
10638SOL     OW32812   0.156   5.217   1.708
10638SOL    HW132813   0.217   5.249   1.781
10638SOL    HW232814   0.074   5.274   1.707
10639SOL     OW32815   1.427   4.525   1.196
10639SOL    HW132816   1.524   4.551   1.200
10639SOL    HW232817   1.419   4.429   1.170
10640SOL     OW32818   4.301   0.071   3.731
10640SOL    HW132819   4.231   0.000   3.729
10640SOL    HW232820   4.391   0.030   3.715
10641SOL     OW32821   1.936   1.037   3.601
10641SOL    HW132822   1.970   0.955   3.648
10641SOL    HW232823   2.013   1.097   3.580
10642SOL     OW32824   5.668   2.108   6.266
10642SOL    HW132825   5.584   2.122   6.213
10642SOL    HW232826   5.646   2.057   6.349
10643SOL     OW32827   1.762   5.018   5.678
10643SOL    HW132828   1.820   5.000   5.599
10643SOL    HW232829   1.668   4.988   5.659
10644SOL     OW32830   6.852   2.439   3.326
10644SOL    HW132831   6.778   2.373   3.331
10644SOL    HW232832   6.839   2.498   3.247
10645SOL     OW32833   2.585   2.365   3.549
10645SOL    HW132834   2.538   2.452   3.562
10645SOL    HW232835   2.519   2.290   3.560
10646SOL     OW32836   4.954   0.948   4.315
10646SOL    HW132837   5.016   1.027   4.317
10646SOL    HW232838   4.917   0.937   4.223
10647SOL     OW32839   3.859   5.030   4.810
10647SOL    HW132840   3.874   5.113   4.863
10647SOL    HW232841   3.783   4.978   4.851
10648SOL     OW32842   5.165   5.509   5.034
10648SOL    HW132843   5.173   5.436   5.103
10648SOL    HW232844   5.160   5.598   5.080
10649SOL     OW32845   6.367   3.099   2.736
10649SOL    HW132846   6.300   3.171   2.721
10649SOL    HW232847   6.356   3.029   2.665
10650SOL     OW32848   0.535   0.591   4.135
10650SOL    HW132849   0.463   0.538   4.092
10650SOL    HW232850   0.574   0.540   4.212
10651SOL     OW32851   3.619   6.375   5.702
10651SOL    HW132852   3.642   6.280   5.682
10651SOL    HW232853   3.660   6.402   5.789
10652SOL     OW32854   1.779   7.009   7.000
10652SOL    HW132855   1.758   0.053   0.055
10652SOL    HW232856   1.855   6.949   0.008
10653SOL     OW32857   4.646   6.530   4.566
10653SOL    HW132858   4.690   6.553   4.479
10653SOL    HW232859   4.707   6.552   4.642
10654SOL     OW32860   6.014   1.632   4.581
10654SOL    HW132861   5.924   1.657   4.615
10654SOL    HW232862   6.021   1.532   4.574
10655SOL     OW32863   0.840   4.972   1.000
10655SOL    HW132864   0.903   4.906   1.040
10655SOL    HW232865   0.797   5.025   1.073
10656SOL     OW32866   6.068   1.093   2.631
10656SOL    HW132867   6.078   1.020   2.699
10656SOL    HW232868   6.111   1.066   2.545
10657SOL     OW32869   5.826   0.212   3.612
10657SOL    HW132870   5.825   0.191   3.710
10657SOL    HW232871   5.781   0.138   3.562
10658SOL     OW32872   6.971   3.342   5.178
10658SOL    HW132873   6.890   3.358   5.122
10658SOL    HW232874   6.990   3.244   5.183
10659SOL     OW32875   1.025   5.274   0.571
10659SOL    HW132876   0.947   5.307   0.516
10659SOL    HW232877   1.069   5.199   0.524
10660SOL     OW32878   6.443   3.516   5.215
10660SOL    HW132879   6.412   3.568   5.294
10660SOL    HW232880   6.460   3.578   5.138
10661SOL     OW32881   1.908   3.928   6.098
10661SOL    HW132882   1.843   3.991   6.056
10661SOL    HW232883   1.952   3.973   6.176
10662SOL     OW32884   2.995   1.568   3.012
10662SOL    HW132885   3.059   1.523   2.950
10662SOL    HW232886   2.954   1.647   2.966
10663SOL     OW32887   1.939   1.934   4.222
10663SOL    HW132888   1.941   1.962   4.318
10663SOL    HW232889   1.852   1.891   4.201
10664SOL     OW32890   1.460   5.119   5.195
10664SOL    HW132891   1.387   5.077   5.141
10664SOL    HW232892   1.427   5.206   5.233
10665SOL     OW32893   2.054   2.377   5.968
10665SOL    HW132894   2.145   2.334   5.965
10665SOL    HW232895   2.058   2.468   5.927
10666SOL     OW32896   3.827   3.514   2.092
10666SOL    HW132897   3.825   3.415   2.102
10666SOL    HW232898   3.919   3.544   2.069
10667SOL     OW32899   5.842   2.527   3.528
10667SOL    HW132900   5.750   2.491   3.510
10667SOL    HW232901   5.903   2.502   3.453
10668SOL     OW32902   3.196   2.175   5.308
10668SOL    HW132903   3.110   2.145   5.350
10668SOL    HW232904   3.180   2.261   5.258
10669SOL     OW32905   6.203   1.323   1.218
10669SOL    HW132906   6.159   1.270   1.291
10669SOL    HW232907   6.133   1.371   1.165
10670SOL     OW32908   5.114   3.513   4.521
10670SOL    HW132909   5.096   3.443   4.452
10670SOL    HW232910   5.176   3.582   4.483
10671SOL     OW32911   1.109   2.362   4.565
10671SOL    HW132912   1.087   2.339   4.660
10671SOL    HW232913   1.063   2.298   4.503
10672SOL     OW32914   5.594   3.331   1.386
10672SOL    HW132915   5.505   3.373   1.368
10672SOL    HW232916   5.655   3.399   1.428
10673SOL     OW32917   2.090   1.218   0.729
10673SOL    HW132918   2.150   1.296   0.744
10673SOL    HW232919   2.088   1.195   0.631
10674SOL     OW32920   3.900   3.944   4.329
10674SOL    HW132921   3.871   3.882   4.256
10674SOL    HW232922   3.958   3.894   4.394
10675SOL     OW32923   3.873   6.640   5.695
10675SOL    HW132924   3.938   6.707   5.730
10675SOL    HW232925   3.923   6.562   5.656
10676SOL     OW32926   1.851   6.360   5.630
10676SOL    HW132927   1.779   6.403   5.576
10676SOL    HW232928   1.820   6.350   5.725
10677SOL     OW32929   0.378   1.326   1.105
10677SOL    HW132930   0.369   1.383   1.024
10677SOL    HW232931   0.290   1.283   1.126
10678SOL     OW32932   4.366   5.548   3.694
10678SOL    HW132933   4.335   5.638   3.725
10678SOL    HW232934   4.443   5.560   3.630
10679SOL     OW32935   3.775   3.834   6.965
10679SOL    HW132936   3.820   3.897   6.902
10679SOL    HW232937   3.827   3.748   6.969
10680SOL     OW32938   3.735   1.167   3.941
10680SOL    HW132939   3.751   1.080   3.896
10680SOL    HW232940   3.697   1.232   3.875
10681SOL     OW32941   0.444   2.953   6.127
10681SOL    HW132942   0.429   2.863   6.087
10681SOL    HW232943   0.542   2.972   6.135
10682SOL     OW32944   5.944   3.034   5.713
10682SOL    HW132945   6.040   3.040   5.685
10682SOL    HW232946   5.892   2.986   5.642
10683SOL     OW32947   3.878   0.589   3.642
10683SOL    HW132948   3.851   0.583   3.546
10683SOL    HW232949   3.921   0.502   3.669
10684SOL     OW32950   4.334   4.447   1.771
10684SOL    HW132951   4.388   4.366   1.794
10684SOL    HW232952   4.319   4.502   1.853
10685SOL     OW32953   1.389   5.961   1.968
10685SOL    HW132954   1.417   6.052   1.999
10685SOL    HW232955   1.312   5.929   2.023
10686SOL     OW32956   2.377   3.599   6.994
10686SOL    HW132957   2.461   3.548   7.011
10686SOL    HW232958   2.305   3.567   0.037
10687SOL     OW32959   0.237   4.586   2.843
10687SOL    HW132960   0.152   4.634   2.820
10687SOL    HW232961   0.315   4.645   2.822
10688SOL     OW32962   5.214   1.832   2.461
10688SOL    HW132963   5.301   1.847   2.414
10688SOL    HW232964   5.177   1.742   2.437
10689SOL     OW32965   0.194   6.884   2.458
10689SOL    HW132966   0.144   6.927   2.383
10689SOL    HW232967   0.291   6.910   2.452
10690SOL     OW32968   6.727   5.625   3.441
10690SOL    HW132969   6.797   5.658   3.379
10690SOL    HW232970   6.685   5.703   3.488
10691SOL     OW32971   3.229   1.869   2.887
10691SOL    HW132972   3.139   1.826   2.895
10691SOL    HW232973   3.270   1.844   2.800
10692SOL     OW32974   2.679   0.917   4.750
10692SOL    HW132975   2.680   0.988   4.680
10692SOL    HW232976   2.593   0.922   4.801
10693SOL     OW32977   1.565   6.072   0.818
10693SOL    HW132978   1.619   6.068   0.733
10693SOL    HW232979   1.627   6.081   0.896
10694SOL     OW32980   4.632   6.184   5.683
10694SOL    HW132981   4.684   6.268   5.698
10694SOL    HW232982   4.601   6.179   5.588
10695SOL     OW32983   0.222   3.325   1.447
10695SOL    HW132984   0.202   3.250   1.384
10695SOL    HW232985   0.147   3.335   1.512
10696SOL     OW32986   6.676   4.348   4.800
10696SOL    HW132987   6.685   4.249   4.809
10696SOL    HW232988   6.697   4.392   4.887
10697SOL     OW32989   0.580   5.882   4.875
10697SOL    HW132990   0.635   5.894   4.793
10697SOL    HW232991   0.565   5.785   4.892
10698SOL     OW32992   4.385   3.717   0.026
10698SOL    HW132993   4.458   3.692   6.981
10698SOL    HW232994   4.426   3.745   0.113
10699SOL     OW32995   3.625   4.492   0.523
10699SOL    HW132996   3.636   4.526   0.430
10699SOL    HW232997   3.553   4.544   0.570
10700SOL     OW32998   5.286   6.674   0.220
10700SOL    HW132999   5.248   6.766   0.208
10700SOL    HW233000   5.214   6.613   0.253
10701SOL     OW33001   2.990   0.372   6.445
10701SOL    HW133002   2.960   0.396   6.537
10701SOL    HW233003   2.920   0.398   6.378
10702SOL     OW33004   5.002   3.296   2.603
10702SOL    HW133005   4.980   3.368   2.668
10702SOL    HW233006   4.931   3.225   2.605
10703SOL     OW33007   2.140   2.286   5.596
10703SOL    HW133008   2.060   2.341   5.618
10703SOL    HW233009   2.190   2.328   5.520
10704SOL     OW33010   0.674   5.878   2.657
10704SOL    HW133011   0.605   5.907   2.724
10704SOL    HW233012   0.640   5.797   2.608
10705SOL     OW33013   5.579   5.356   0.906
10705SOL    HW133014   5.592   5.258   0.925
10705SOL    HW233015   5.612   5.375   0.813
10706SOL     OW33016   4.738   0.111   2.344
10706SOL    HW133017   4.713   0.165   2.424
10706SOL    HW233018   4.812   0.158   2.295
10707SOL     OW33019   6.528   6.972   4.422
10707SOL    HW133020   6.558   6.912   4.496
10707SOL    HW233021   6.530   6.923   4.335
10708SOL     OW33022   4.715   2.727   2.782
10708SOL    HW133023   4.804   2.686   2.806
10708SOL    HW233024   4.642   2.664   2.809
10709SOL     OW33025   5.877   5.657   3.823
10709SOL    HW133026   5.852   5.696   3.734
10709SOL    HW233027   5.902   5.730   3.886
10710SOL     OW33028   5.438   1.010   3.304
10710SOL    HW133029   5.430   1.105   3.273
10710SOL    HW233030   5.461   0.952   3.226
10711SOL     OW33031   3.389   6.513   3.300
10711SOL    HW133032   3.489   6.519   3.303
10711SOL    HW233033   3.361   6.418   3.309
10712SOL     OW33034   3.804   0.435   3.113
10712SOL    HW133035   3.904   0.437   3.122
10712SOL    HW233036   3.775   0.341   3.094
10713SOL     OW33037   0.936   3.452   0.623
10713SOL    HW133038   0.847   3.417   0.593
10713SOL    HW233039   0.944   3.548   0.595
10714SOL     OW33040   3.939   3.332   4.863
10714SOL    HW133041   3.959   3.290   4.774
10714SOL    HW233042   4.012   3.310   4.928
10715SOL     OW33043   5.225   0.274   2.261
10715SOL    HW133044   5.304   0.312   2.309
10715SOL    HW233045   5.159   0.347   2.242
10716SOL     OW33046   6.498   2.676   3.524
10716SOL    HW133047   6.528   2.652   3.431
10716SOL    HW233048   6.405   2.714   3.519
10717SOL     OW33049   1.837   2.952   0.616
10717SOL    HW133050   1.863   3.046   0.597
10717SOL    HW233051   1.746   2.951   0.659
10718SOL     OW33052   0.823   4.292   6.447
10718SOL    HW133053   0.740   4.331   6.487
10718SOL    HW233054   0.863   4.225   6.511
10719SOL     OW33055   5.918   6.176   3.319
10719SOL    HW133056   5.836   6.214   3.276
10719SOL    HW233057   5.925   6.079   3.298
10720SOL     OW33058   5.750   5.349   4.332
10720SOL    HW133059   5.824   5.333   4.397
10720SOL    HW233060   5.780   5.416   4.263
10721SOL     OW33061   5.187   4.097   5.468
10721SOL    HW133062   5.207   4.187   5.428
10721SOL    HW233063   5.093   4.096   5.501
10722SOL     OW33064   6.227   3.861   6.671
10722SOL    HW133065   6.288   3.781   6.669
10722SOL    HW233066   6.139   3.834   6.710
10723SOL     OW33067   0.024   1.630   6.896
10723SOL    HW133068   6.955   1.588   6.873
10723SOL    HW233069   0.075   1.569   6.957
10724SOL     OW33070   0.465   6.936   6.765
10724SOL    HW133071   0.444   6.849   6.809
10724SOL    HW233072   0.521   6.920   6.684
10725SOL     OW33073   2.094   5.802   5.204
10725SOL    HW133074   2.099   5.763   5.112
10725SOL    HW233075   2.053   5.735   5.266
10726SOL     OW33076   4.729   0.883   4.091
10726SOL    HW133077   4.679   0.907   4.174
10726SOL    HW233078   4.735   0.783   4.083
10727SOL     OW33079   0.813   4.822   6.014
10727SOL    HW133080   0.831   4.757   5.940
10727SOL    HW233081   0.822   4.776   6.102
10728SOL     OW33082   0.355   5.215   0.255
10728SOL    HW133083   0.298   5.297   0.266
10728SOL    HW233084   0.429   5.217   0.322
10729SOL     OW33085   5.862   2.117   1.651
10729SOL    HW133086   5.904   2.163   1.573
10729SOL    HW233087   5.934   2.069   1.703
10730SOL     OW33088   3.449   0.392   1.235
10730SOL    HW133089   3.372   0.395   1.171
10730SOL    HW233090   3.440   0.313   1.296
10731SOL     OW33091   3.975   0.849   1.021
10731SOL    HW133092   3.974   0.949   1.016
10731SOL    HW233093   3.891   0.818   1.067
10732SOL     OW33094   0.350   4.894   5.351
10732SOL    HW133095   0.410   4.957   5.402
10732SOL    HW233096   0.323   4.818   5.410
10733SOL     OW33097   5.920   1.271   6.650
10733SOL    HW133098   5.925   1.340   6.579
10733SOL    HW233099   5.825   1.243   6.664
10734SOL     OW33100   0.881   1.896   1.114
10734SOL    HW133101   0.848   1.943   1.032
10734SOL    HW233102   0.803   1.860   1.165
10735SOL     OW33103   0.394   2.465   1.771
10735SOL    HW133104   0.430   2.469   1.865
10735SOL    HW233105   0.295   2.451   1.775
10736SOL     OW33106   1.976   0.275   3.659
10736SOL    HW133107   1.908   0.249   3.591
10736SOL    HW233108   1.992   0.199   3.721
10737SOL     OW33109   0.656   2.176   1.326
10737SOL    HW133110   0.635   2.143   1.234
10737SOL    HW233111   0.579   2.156   1.387
10738SOL     OW33112   3.324   5.731   2.596
10738SOL    HW133113   3.255   5.698   2.660
10738SOL    HW233114   3.412   5.688   2.617
10739SOL     OW33115   1.706   2.990   1.280
10739SOL    HW133116   1.793   2.981   1.329
10739SOL    HW233117   1.687   3.087   1.264
10740SOL     OW33118   6.051   4.783   5.536
10740SOL    HW133119   6.144   4.818   5.524
10740SOL    HW233120   6.051   4.684   5.521
10741SOL     OW33121   4.373   1.322   1.694
10741SOL    HW133122   4.341   1.391   1.760
10741SOL    HW233123   4.456   1.278   1.728
10742SOL     OW33124   6.017   5.385   1.626
10742SOL    HW133125   6.050   5.408   1.718
10742SOL    HW233126   6.045   5.292   1.603
10743SOL     OW33127   1.700   1.969   4.516
10743SOL    HW133128   1.696   1.916   4.431
10743SOL    HW233129   1.786   2.020   4.519
10744SOL     OW33130   3.386   2.013   0.969
10744SOL    HW133131   3.416   2.054   1.056
10744SOL    HW233132   3.405   2.077   0.894
10745SOL     OW33133   0.397   5.327   5.107
10745SOL    HW133134   0.421   5.231   5.121
10745SOL    HW233135   0.460   5.385   5.159
10746SOL     OW33136   1.105   3.579   6.242
10746SOL    HW133137   1.036   3.510   6.220
10746SOL    HW233138   1.173   3.584   6.168
10747SOL     OW33139   2.938   1.021   4.805
10747SOL    HW133140   2.992   1.004   4.722
10747SOL    HW233141   2.850   0.975   4.797
10748SOL     OW33142   6.068   1.510   2.307
10748SOL    HW133143   6.126   1.472   2.379
10748SOL    HW233144   6.020   1.591   2.341
10749SOL     OW33145   1.160   6.440   5.509
10749SOL    HW133146   1.115   6.395   5.432
10749SOL    HW233147   1.210   6.372   5.563
10750SOL     OW33148   3.938   0.269   5.160
10750SOL    HW133149   3.901   0.195   5.216
10750SOL    HW233150   3.863   0.319   5.116
10751SOL     OW33151   2.066   4.680   4.210
10751SOL    HW133152   2.117   4.657   4.127
10751SOL    HW233153   1.995   4.611   4.226
10752SOL     OW33154   5.807   4.187   5.050
10752SOL    HW133155   5.754   4.106   5.025
10752SOL    HW233156   5.744   4.263   5.067
10753SOL     OW33157   0.235   3.899   3.971
10753SOL    HW133158   0.288   3.984   3.976
10753SOL    HW233159   0.296   3.824   3.945
10754SOL     OW33160   1.300   0.309   2.771
10754SOL    HW133161   1.378   0.336   2.828
10754SOL    HW233162   1.330   0.243   2.702
10755SOL     OW33163   6.724   0.126   1.768
10755SOL    HW133164   6.627   0.122   1.790
10755SOL    HW233165   6.755   0.035   1.738
10756SOL     OW33166   6.650   5.491   5.196
10756SOL    HW133167   6.623   5.548   5.119
10756SOL    HW233168   6.711   5.418   5.164
10757SOL     OW33169   2.504   2.915   6.556
10757SOL    HW133170   2.592   2.867   6.559
10757SOL    HW233171   2.431   2.849   6.541
10758SOL     OW33172   0.897   6.091   3.795
10758SOL    HW133173   0.805   6.074   3.758
10758SOL    HW233174   0.965   6.077   3.724
10759SOL     OW33175   1.169   3.287   0.631
10759SOL    HW133176   1.170   3.293   0.731
10759SOL    HW233177   1.078   3.310   0.597
10760SOL     OW33178   5.837   1.071   3.224
10760SOL    HW133179   5.763   1.087   3.158
10760SOL    HW233180   5.915   1.029   3.177
10761SOL     OW33181   1.606   5.299   5.757
10761SOL    HW133182   1.602   5.351   5.671
10761SOL    HW233183   1.624   5.203   5.737
10762SOL     OW33184   2.955   0.177   4.578
10762SOL    HW133185   3.042   0.212   4.612
10762SOL    HW233186   2.892   0.253   4.565
10763SOL     OW33187   4.301   0.221   3.392
10763SOL    HW133188   4.244   0.214   3.474
10763SOL    HW233189   4.342   0.312   3.387
10764SOL     OW33190   5.057   1.763   4.651
10764SOL    HW133191   5.123   1.838   4.660
10764SOL    HW233192   4.969   1.800   4.620
10765SOL     OW33193   5.588   2.874   0.898
10765SOL    HW133194   5.550   2.786   0.869
10765SOL    HW233195   5.634   2.863   0.986
10766SOL     OW33196   4.154   4.855   0.630
10766SOL    HW133197   4.206   4.913   0.567
10766SOL    HW233198   4.126   4.771   0.583
10767SOL     OW33199   2.499   0.458   1.338
10767SOL    HW133200   2.574   0.411   1.292
10767SOL    HW233201   2.522   0.472   1.434
10768SOL     OW33202   6.231   5.261   1.317
10768SOL    HW133203   6.235   5.166   1.286
10768SOL    HW233204   6.310   5.280   1.376
10769SOL     OW33205   1.650   3.476   5.979
10769SOL    HW133206   1.740   3.449   5.944
10769SOL    HW233207   1.659   3.561   6.031
10770SOL     OW33208   5.426   5.458   3.403
10770SOL    HW133209   5.419   5.360   3.391
10770SOL    HW233210   5.508   5.480   3.457
10771SOL     OW33211   4.441   6.946   4.030
10771SOL    HW133212   4.375   6.893   4.084
10771SOL    HW233213   4.455   0.017   4.073
10772SOL     OW33214   6.584   5.810   3.600
10772SOL    HW133215   6.628   5.820   3.689
10772SOL    HW233216   6.490   5.779   3.613
10773SOL     OW33217   5.844   4.238   6.123
10773SOL    HW133218   5.942   4.241   6.145
10773SOL    HW233219   5.832   4.202   6.030
10774SOL     OW33220   1.813   1.164   4.236
10774SOL    HW133221   1.864   1.182   4.320
10774SOL    HW233222   1.794   1.250   4.189
10775SOL     OW33223   0.576   4.129   2.117
10775SOL    HW133224   0.549   4.092   2.206
10775SOL    HW233225   0.594   4.227   2.125
10776SOL     OW33226   1.166   0.300   6.303
10776SOL    HW133227   1.215   0.267   6.221
10776SOL    HW233228   1.092   0.361   6.275
10777SOL     OW33229   3.969   5.165   1.063
10777SOL    HW133230   3.997   5.145   0.968
10777SOL    HW233231   4.051   5.173   1.120
10778SOL     OW33232   5.261   0.314   3.509
10778SOL    HW133233   5.233   0.293   3.415
10778SOL    HW233234   5.329   0.247   3.539
10779SOL     OW33235   5.825   2.906   3.061
10779SOL    HW133236   5.758   2.941   3.127
10779SOL    HW233237   5.784   2.830   3.009
10780SOL     OW33238   1.051   1.328   4.003
10780SOL    HW133239   1.097   1.398   3.949
10780SOL    HW233240   0.952   1.332   3.986
10781SOL     OW33241   3.699   0.699   3.854
10781SOL    HW133242   3.768   0.663   3.791
10781SOL    HW233243   3.630   0.751   3.803
10782SOL     OW33244   6.681   6.794   3.639
10782SOL    HW133245   6.695   6.842   3.725
10782SOL    HW233246   6.586   6.803   3.610
10783SOL     OW33247   0.051   2.501   2.439
10783SOL    HW133248   0.023   2.542   2.526
10783SOL    HW233249   0.020   2.558   2.363
10784SOL     OW33250   2.663   0.799   3.228
10784SOL    HW133251   2.757   0.787   3.258
10784SOL    HW233252   2.646   0.896   3.211
10785SOL     OW33253   1.429   4.009   7.000
10785SOL    HW133254   1.454   4.090   0.035
10785SOL    HW233255   1.358   3.958   0.028
10786SOL     OW33256   6.068   6.001   2.999
10786SOL    HW133257   6.047   6.086   2.950
10786SOL    HW233258   6.071   5.925   2.934
10787SOL     OW33259   0.442   0.496   5.190
10787SOL    HW133260   0.349   0.462   5.182
10787SOL    HW233261   0.475   0.485   5.284
10788SOL     OW33262   1.100   3.676   0.450
10788SOL    HW133263   1.046   3.718   0.377
10788SOL    HW233264   1.181   3.632   0.411
10789SOL     OW33265   6.601   2.933   6.843
10789SOL    HW133266   6.533   3.007   6.849
10789SOL    HW233267   6.681   2.957   6.898
10790SOL     OW33268   0.839   6.319   1.652
10790SOL    HW133269   0.906   6.364   1.711
10790SOL    HW233270   0.765   6.283   1.708
10791SOL     OW33271   6.863   6.092   1.964
10791SOL    HW133272   6.772   6.054   1.978
10791SOL    HW233273   6.913   6.090   2.051
10792SOL     OW33274   3.726   3.741   5.183
10792SOL    HW133275   3.637   3.697   5.185
10792SOL    HW233276   3.753   3.759   5.089
10793SOL     OW33277   5.606   3.430   5.591
10793SOL    HW133278   5.603   3.372   5.509
10793SOL    HW233279   5.517   3.473   5.605
10794SOL     OW33280   3.655   3.752   4.344
10794SOL    HW133281   3.670   3.762   4.442
10794SOL    HW233282   3.562   3.781   4.322
10795SOL     OW33283   0.745   4.873   3.117
10795SOL    HW133284   0.662   4.819   3.132
10795SOL    HW233285   0.741   4.915   3.026
10796SOL     OW33286   6.646   5.987   5.998
10796SOL    HW133287   6.606   5.950   5.914
10796SOL    HW233288   6.601   6.072   6.023
10797SOL     OW33289   3.898   3.031   0.600
10797SOL    HW133290   3.859   3.028   0.508
10797SOL    HW233291   3.942   3.119   0.616
10798SOL     OW33292   2.235   1.888   0.553
10798SOL    HW133293   2.324   1.903   0.597
10798SOL    HW233294   2.162   1.904   0.619
10799SOL     OW33295   4.387   0.200   3.025
10799SOL    HW133296   4.357   0.154   3.108
10799SOL    HW233297   4.487   0.206   3.025
10800SOL     OW33298   0.775   5.900   7.018
10800SOL    HW133299   0.836   5.863   6.949
10800SOL    HW233300   0.706   5.958   6.974
10801SOL     OW33301   1.400   0.590   0.583
10801SOL    HW133302   1.475   0.654   0.598
10801SOL    HW233303   1.393   0.568   0.486
10802SOL     OW33304   6.643   6.605   3.394
10802SOL    HW133305   6.608   6.512   3.404
10802SOL    HW233306   6.598   6.665   3.460
10803SOL     OW33307   1.488   5.960   6.664
10803SOL    HW133308   1.401   6.009   6.676
10803SOL    HW233309   1.542   6.006   6.593
10804SOL     OW33310   0.280   3.093   3.200
10804SOL    HW133311   0.281   2.994   3.214
10804SOL    HW233312   0.372   3.129   3.211
10805SOL     OW33313   5.891   1.143   5.116
10805SOL    HW133314   5.946   1.073   5.162
10805SOL    HW233315   5.952   1.212   5.076
10806SOL     OW33316   2.737   5.154   6.847
10806SOL    HW133317   2.639   5.171   6.851
10806SOL    HW233318   2.755   5.074   6.789
10807SOL     OW33319   1.814   5.836   3.957
10807SOL    HW133320   1.812   5.753   4.012
10807SOL    HW233321   1.738   5.896   3.983
10808SOL     OW33322   0.056   2.643   6.098
10808SOL    HW133323   0.121   2.585   6.049
10808SOL    HW233324   0.070   2.633   6.196
10809SOL     OW33325   2.125   4.340   4.367
10809SOL    HW133326   2.051   4.277   4.346
10809SOL    HW233327   2.096   4.407   4.435
10810SOL     OW33328   6.971   0.343   4.057
10810SOL    HW133329   6.877   0.327   4.084
10810SOL    HW233330   0.005   0.373   4.136
10811SOL     OW33331   5.044   5.118   4.540
10811SOL    HW133332   5.063   5.211   4.572
10811SOL    HW233333   4.959   5.086   4.581
10812SOL     OW33334   6.856   2.990   6.609
10812SOL    HW133335   6.876   3.075   6.656
10812SOL    HW233336   6.758   2.983   6.590
10813SOL     OW33337   0.891   3.721   5.942
10813SOL    HW133338   0.840   3.695   6.025
10813SOL    HW233339   0.963   3.786   5.966
10814SOL     OW33340   2.230   0.119   0.725
10814SOL    HW133341   2.190   0.208   0.706
10814SOL    HW233342   2.314   0.107   0.671
10815SOL     OW33343   4.915   1.817   3.283
10815SOL    HW133344   4.918   1.719   3.263
10815SOL    HW233345   4.908   1.868   3.197
10816SOL     OW33346   3.760   2.921   3.337
10816SOL    HW133347   3.789   3.017   3.337
10816SOL    HW233348   3.782   2.879   3.425
10817SOL     OW33349   3.193   0.028   2.906
10817SOL    HW133350   3.171   6.951   2.886
10817SOL    HW233351   3.268   0.057   2.847
10818SOL     OW33352   5.069   5.292   5.741
10818SOL    HW133353   4.974   5.306   5.769
10818SOL    HW233354   5.129   5.297   5.821
10819SOL     OW33355   6.503   5.383   6.527
10819SOL    HW133356   6.556   5.397   6.611
10819SOL    HW233357   6.525   5.294   6.488
10820SOL     OW33358   0.857   5.754   5.420
10820SOL    HW133359   0.936   5.765   5.361
10820SOL    HW233360   0.880   5.786   5.512
10821SOL     OW33361   4.324   5.426   2.754
10821SOL    HW133362   4.331   5.332   2.722
10821SOL    HW233363   4.328   5.428   2.854
10822SOL     OW33364   4.961   2.741   0.957
10822SOL    HW133365   5.046   2.706   0.996
10822SOL    HW233366   4.980   2.824   0.905
10823SOL     OW33367   0.147   6.793   2.887
10823SOL    HW133368   0.144   6.729   2.964
10823SOL    HW233369   0.136   6.886   2.921
10824SOL     OW33370   1.318   1.005   4.320
10824SOL    HW133371   1.314   0.906   4.307
10824SOL    HW233372   1.373   1.046   4.247
10825SOL     OW33373   1.299   2.222   0.855
10825SOL    HW133374   1.315   2.150   0.923
10825SOL    HW233375   1.373   2.223   0.788
10826SOL     OW33376   0.897   1.987   2.884
10826SOL    HW133377   0.975   1.938   2.923
10826SOL    HW233378   0.929   2.056   2.820
10827SOL     OW33379   6.205   3.904   5.271
10827SOL    HW133380   6.113   3.886   5.307
10827SOL    HW233381   6.207   3.884   5.173
10828SOL     OW33382   6.249   3.506   0.184
10828SOL    HW133383   6.273   3.418   0.223
10828SOL    HW233384   6.260   3.578   0.253
10829SOL     OW33385   4.634   3.718   6.867
10829SOL    HW133386   4.724   3.680   6.888
10829SOL    HW233387   4.613   3.700   6.771
10830SOL     OW33388   4.823   1.755   3.517
10830SOL    HW133389   4.856   1.790   3.430
10830SOL    HW233390   4.886   1.685   3.551
10831SOL     OW33391   3.902   0.891   2.263
10831SOL    HW133392   3.961   0.841   2.326
10831SOL    HW233393   3.807   0.884   2.293
10832SOL     OW33394   6.837   3.103   6.914
10832SOL    HW133395   6.814   3.156   6.996
10832SOL    HW233396   6.890   3.160   6.851
10833SOL     OW33397   0.327   1.979   0.879
10833SOL    HW133398   0.240   1.930   0.883
10833SOL    HW233399   0.309   2.077   0.873
10834SOL     OW33400   6.705   6.795   0.654
10834SOL    HW133401   6.804   6.810   0.646
10834SOL    HW233402   6.658   6.882   0.663
10835SOL     OW33403   5.444   3.314   0.305
10835SOL    HW133404   5.356   3.344   0.268
10835SOL    HW233405   5.508   3.390   0.304
10836SOL     OW33406   1.294   1.017   2.676
10836SOL    HW133407   1.316   0.923   2.652
10836SOL    HW233408   1.209   1.045   2.631
10837SOL     OW33409   6.341   4.821   2.288
10837SOL    HW133410   6.326   4.726   2.258
10837SOL    HW233411   6.262   4.877   2.263
10838SOL     OW33412   5.678   6.029   3.503
10838SOL    HW133413   5.641   6.065   3.417
10838SOL    HW233414   5.645   6.084   3.579
10839SOL     OW33415   4.780   3.646   0.527
10839SOL    HW133416   4.859   3.589   0.549
10839SOL    HW233417   4.750   3.695   0.609
10840SOL     OW33418   2.994   0.304   1.686
10840SOL    HW133419   2.970   0.398   1.711
10840SOL    HW233420   2.995   0.247   1.768
10841SOL     OW33421   0.647   5.564   4.693
10841SOL    HW133422   0.635   5.564   4.792
10841SOL    HW233423   0.558   5.555   4.649
10842SOL     OW33424   4.237   3.489   1.639
10842SOL    HW133425   4.299   3.460   1.566
10842SOL    HW233426   4.166   3.548   1.600
10843SOL     OW33427   2.284   1.544   1.046
10843SOL    HW133428   2.196   1.497   1.054
10843SOL    HW233429   2.283   1.605   0.967
10844SOL     OW33430   1.304   5.860   4.900
10844SOL    HW133431   1.310   5.955   4.930
10844SOL    HW233432   1.209   5.837   4.879
10845SOL     OW33433   4.885   6.255   4.893
10845SOL    HW133434   4.849   6.326   4.953
10845SOL    HW233435   4.865   6.279   4.798
10846SOL     OW33436   5.749   6.849   0.399
10846SOL    HW133437   5.763   6.886   0.491
10846SOL    HW233438   5.670   6.893   0.357
10847SOL     OW33439   2.237   1.662   6.825
10847SOL    HW133440   2.204   1.751   6.857
10847SOL    HW233441   2.316   1.675   6.766
10848SOL     OW33442   1.618   4.025   1.302
10848SOL    HW133443   1.518   4.024   1.312
10848SOL    HW233444   1.654   4.109   1.341
10849SOL     OW33445   2.588   4.948   3.903
10849SOL    HW133446   2.661   5.016   3.901
10849SOL    HW233447   2.624   4.860   3.935
10850SOL     OW33448   4.817   6.371   0.370
10850SOL    HW133449   4.861   6.396   0.456
10850SOL    HW233450   4.805   6.272   0.365
10851SOL     OW33451   2.906   4.416   1.583
10851SOL    HW133452   2.904   4.449   1.677
10851SOL    HW233453   2.882   4.319   1.581
10852SOL     OW33454   1.609   1.587   0.327
10852SOL    HW133455   1.700   1.588   0.369
10852SOL    HW233456   1.615   1.545   0.236
10853SOL     OW33457   2.217   2.727   6.020
10853SOL    HW133458   2.140   2.710   5.959
10853SOL    HW233459   2.300   2.686   5.982
10854SOL     OW33460   3.973   6.238   4.564
10854SOL    HW133461   3.879   6.260   4.539
10854SOL    HW233462   3.993   6.272   4.656
10855SOL     OW33463   3.489   1.286   0.499
10855SOL    HW133464   3.558   1.315   0.565
10855SOL    HW233465   3.483   1.186   0.498
10856SOL     OW33466   6.939   0.654   6.989
10856SOL    HW133467   6.968   0.679   0.062
10856SOL    HW233468   6.867   0.716   6.958
10857SOL     OW33469   0.178   1.741   2.005
10857SOL    HW133470   0.216   1.829   2.035
10857SOL    HW233471   0.250   1.671   2.007
10858SOL     OW33472   2.637   6.051   1.617
10858SOL    HW133473   2.626   5.956   1.646
10858SOL    HW233474   2.656   6.053   1.519
10859SOL     OW33475   0.062   5.016   4.271
10859SOL    HW133476   0.123   5.066   4.333
10859SOL    HW233477   0.077   4.918   4.281
10860SOL     OW33478   6.515   3.146   2.464
10860SOL    HW133479   6.515   3.140   2.564
10860SOL    HW233480   6.470   3.230   2.436
10861SOL     OW33481   3.378   2.892   3.647
10861SOL    HW133482   3.360   2.885   3.549
10861SOL    HW233483   3.420   2.981   3.667
10862SOL     OW33484   2.263   0.431   5.060
10862SOL    HW133485   2.235   0.365   5.130
10862SOL    HW233486   2.285   0.518   5.104
10863SOL     OW33487   2.820   6.291   4.827
10863SOL    HW133488   2.816   6.373   4.771
10863SOL    HW233489   2.915   6.269   4.847
10864SOL     OW33490   3.363   6.878   1.866
10864SOL    HW133491   3.410   6.839   1.946
10864SOL    HW233492   3.395   6.971   1.850
10865SOL     OW33493   5.805   0.935   6.857
10865SOL    HW133494   5.880   0.953   6.920
10865SOL    HW233495   5.764   1.021   6.828
10866SOL     OW33496   5.220   4.334   0.484
10866SOL    HW133497   5.161   4.291   0.552
10866SOL    HW233498   5.227   4.432   0.504
10867SOL     OW33499   3.080   4.558   0.682
10867SOL    HW133500   3.155   4.511   0.728
10867SOL    HW233501   3.056   4.641   0.733
10868SOL     OW33502   4.011   1.362   3.422
10868SOL    HW133503   3.998   1.263   3.426
10868SOL    HW233504   4.060   1.386   3.338
10869NA      NA33505   5.958   2.239   5.885
10870NA      NA33506   4.417   4.636   5.213
10871NA      NA33507   1.954   3.751   1.631
10872NA      NA33508   4.723   3.783   5.520
10873NA      NA33509   4.552   2.307   5.163
10874NA      NA33510   3.812   4.831   1.790
10875NA      NA33511   6.650   5.477   5.471
10876NA      NA33512   3.542   3.451   5.006
10877NA      NA33513   4.942   6.390   6.403
10878NA      NA33514   3.470   6.519   5.571
10879NA      NA33515   6.819   5.081   2.156
10880NA      NA33516   2.499   0.461   3.764
10881NA      NA33517   3.771   5.094   1.171
10882NA      NA33518   3.314   3.450   2.337
   7.01895   7.01895   7.01895
