Generated by trjconv : CNT in water t= 547.00000
33518
    1C        C    1   2.850   2.770   4.748
    1C        C    2   2.900   2.718   4.870
    1C        C    3   2.848   2.774   4.987
    1C        C    4   2.855   2.775   4.261
    1C        C    5   2.904   2.726   4.384
    1C        C    6   2.845   2.767   4.506
    1C        C    7   3.016   2.637   4.629
    1C        C    8   2.900   2.718   4.627
    1C        C    9   3.081   2.603   4.749
    1C        C   10   3.013   2.633   4.870
    1C        C   11   3.185   2.491   4.981
    1C        C   12   3.064   2.561   4.979
    1C        C   13   2.852   2.768   3.772
    1C        C   14   2.902   2.719   3.895
    1C        C   15   2.854   2.772   4.017
    1C        C   16   3.018   2.638   4.140
    1C        C   17   2.907   2.724   4.139
    1C        C   18   3.079   2.606   4.264
    1C        C   19   3.020   2.645   4.385
    1C        C   20   3.209   2.550   4.506
    1C        C   21   3.077   2.600   4.507
    1C        C   22   3.278   2.529   4.627
    1C        C   23   3.212   2.548   4.750
    1C        C   24   3.415   2.480   4.864
    1C        C   25   3.273   2.497   4.868
    1C        C   26   3.490   2.467   4.981
    1C        C   27   2.852   2.765   3.282
    1C        C   28   2.906   2.720   3.405
    1C        C   29   2.858   2.772   3.527
    1C        C   30   3.020   2.638   3.649
    1C        C   31   2.908   2.725   3.650
    1C        C   32   3.078   2.601   3.773
    1C        C   33   3.018   2.637   3.895
    1C        C   34   3.210   2.551   4.018
    1C        C   35   3.079   2.602   4.017
    1C        C   36   3.277   2.528   4.141
    1C        C   37   3.211   2.555   4.262
    1C        C   38   3.418   2.509   4.382
    1C        C   39   3.279   2.533   4.384
    1C        C   40   3.489   2.504   4.504
    1C        C   41   3.417   2.502   4.625
    1C        C   42   3.633   2.480   4.745
    1C        C   43   3.491   2.485   4.744
    1C        C   44   3.706   2.488   4.866
    1C        C   45   3.628   2.480   4.982
    1C        C   46   2.841   2.751   2.793
    1C        C   47   2.895   2.712   2.917
    1C        C   48   2.845   2.762   3.039
    1C        C   49   3.017   2.635   3.161
    1C        C   50   2.901   2.716   3.159
    1C        C   51   3.078   2.597   3.283
    1C        C   52   3.015   2.630   3.405
    1C        C   53   3.207   2.543   3.528
    1C        C   54   3.076   2.595   3.527
    1C        C   55   3.276   2.526   3.651
    1C        C   56   3.209   2.547   3.773
    1C        C   57   3.416   2.503   3.897
    1C        C   58   3.277   2.529   3.896
    1C        C   59   3.487   2.492   4.019
    1C        C   60   3.416   2.499   4.140
    1C        C   61   3.631   2.498   4.261
    1C        C   62   3.489   2.495   4.261
    1C        C   63   3.703   2.502   4.382
    1C        C   64   3.630   2.500   4.503
    1C        C   65   3.838   2.545   4.623
    1C        C   66   3.703   2.504   4.624
    1C        C   67   3.905   2.567   4.745
    1C        C   68   3.840   2.533   4.866
    1C        C   69   4.053   2.586   4.980
    1C        C   70   3.925   2.529   4.977
    1C        C   71   2.823   2.732   2.307
    1C        C   72   2.885   2.693   2.428
    1C        C   73   2.835   2.747   2.548
    1C        C   74   3.007   2.621   2.672
    1C        C   75   2.891   2.703   2.670
    1C        C   76   3.071   2.592   2.795
    1C        C   77   3.013   2.633   2.917
    1C        C   78   3.203   2.537   3.038
    1C        C   79   3.076   2.597   3.038
    1C        C   80   3.273   2.525   3.160
    1C        C   81   3.208   2.543   3.284
    1C        C   82   3.413   2.491   3.403
    1C        C   83   3.275   2.519   3.407
    1C        C   84   3.482   2.484   3.526
    1C        C   85   3.415   2.500   3.649
    1C        C   86   3.623   2.498   3.771
    1C        C   87   3.482   2.495   3.773
    1C        C   88   3.696   2.507   3.892
    1C        C   89   3.628   2.502   4.015
    1C        C   90   3.835   2.548   4.137
    1C        C   91   3.698   2.512   4.138
    1C        C   92   3.903   2.570   4.258
    1C        C   93   3.840   2.539   4.381
    1C        C   94   4.028   2.638   4.497
    1C        C   95   3.908   2.564   4.502
    1C        C   96   4.092   2.670   4.619
    1C        C   97   4.036   2.623   4.740
    1C        C   98   4.199   2.757   4.859
    1C        C   99   4.104   2.650   4.862
    1C        C  100   4.218   2.837   4.973
    1C        C  101   2.819   2.726   2.068
    1C        C  102   2.989   2.590   2.188
    1C        C  103   2.879   2.682   2.186
    1C        C  104   3.064   2.577   2.308
    1C        C  105   3.007   2.621   2.429
    1C        C  106   3.198   2.528   2.550
    1C        C  107   3.069   2.587   2.551
    1C        C  108   3.266   2.513   2.673
    1C        C  109   3.200   2.534   2.796
    1C        C  110   3.410   2.494   2.915
    1C        C  111   3.269   2.509   2.916
    1C        C  112   3.484   2.494   3.036
    1C        C  113   3.412   2.498   3.158
    1C        C  114   3.623   2.499   3.282
    1C        C  115   3.482   2.491   3.280
    1C        C  116   3.692   2.507   3.405
    1C        C  117   3.624   2.491   3.528
    1C        C  118   3.830   2.546   3.645
    1C        C  119   3.694   2.507   3.649
    1C        C  120   3.894   2.573   3.768
    1C        C  121   3.833   2.543   3.892
    1C        C  122   4.024   2.638   4.013
    1C        C  123   3.899   2.573   4.013
    1C        C  124   4.087   2.675   4.134
    1C        C  125   4.026   2.639   4.256
    1C        C  126   4.198   2.766   4.376
    1C        C  127   4.092   2.673   4.376
    1C        C  128   4.248   2.818   4.497
    1C        C  129   4.197   2.764   4.618
    1C        C  130   4.325   2.934   4.739
    1C        C  131   4.247   2.816   4.739
    1C        C  132   4.353   3.004   4.859
    1C        C  133   4.282   2.960   4.971
    1C        C  134   3.172   2.462   2.084
    1C        C  135   3.038   2.503   2.086
    1C        C  136   3.259   2.478   2.192
    1C        C  137   3.194   2.519   2.311
    1C        C  138   3.405   2.478   2.428
    1C        C  139   3.265   2.495   2.430
    1C        C  140   3.478   2.481   2.549
    1C        C  141   3.406   2.492   2.670
    1C        C  142   3.619   2.498   2.793
    1C        C  143   3.478   2.488   2.792
    1C        C  144   3.691   2.510   2.913
    1C        C  145   3.625   2.497   3.037
    1C        C  146   3.830   2.545   3.154
    1C        C  147   3.694   2.505   3.160
    1C        C  148   3.897   2.567   3.277
    1C        C  149   3.828   2.544   3.398
    1C        C  150   4.023   2.625   3.522
    1C        C  151   3.893   2.569   3.521
    1C        C  152   4.080   2.668   3.644
    1C        C  153   4.019   2.640   3.768
    1C        C  154   4.187   2.771   3.886
    1C        C  155   4.078   2.680   3.889
    1C        C  156   4.236   2.820   4.009
    1C        C  157   4.194   2.767   4.133
    1C        C  158   4.340   2.924   4.251
    1C        C  159   4.251   2.815   4.254
    1C        C  160   4.381   2.984   4.372
    1C        C  161   4.335   2.929   4.494
    1C        C  162   4.436   3.114   4.615
    1C        C  163   4.371   2.989   4.617
    1C        C  164   4.464   3.185   4.735
    1C        C  165   4.433   3.121   4.856
    1C        C  166   4.511   3.323   4.976
    1C        C  167   4.474   3.189   4.972
    1C        C  168   3.476   2.439   2.073
    1C        C  169   3.399   2.462   2.188
    1C        C  170   3.618   2.467   2.306
    1C        C  171   3.476   2.461   2.307
    1C        C  172   3.691   2.489   2.425
    1C        C  173   3.619   2.488   2.547
    1C        C  174   3.824   2.541   2.666
    1C        C  175   3.688   2.504   2.669
    1C        C  176   3.894   2.563   2.786
    1C        C  177   3.829   2.542   2.910
    1C        C  178   4.025   2.625   3.031
    1C        C  179   3.896   2.567   3.031
    1C        C  180   4.084   2.666   3.153
    1C        C  181   4.024   2.629   3.276
    1C        C  182   4.191   2.754   3.398
    1C        C  183   4.084   2.661   3.400
    1C        C  184   4.239   2.809   3.519
    1C        C  185   4.185   2.763   3.641
    1C        C  186   4.331   2.920   3.764
    1C        C  187   4.236   2.816   3.762
    1C        C  188   4.375   2.977   3.886
    1C        C  189   4.329   2.926   4.010
    1C        C  190   4.447   3.107   4.127
    1C        C  191   4.375   2.986   4.129
    1C        C  192   4.471   3.174   4.250
    1C        C  193   4.443   3.111   4.373
    1C        C  194   4.506   3.314   4.495
    1C        C  195   4.470   3.178   4.494
    1C        C  196   4.522   3.389   4.613
    1C        C  197   4.509   3.320   4.735
    1C        C  198   4.553   3.534   4.851
    1C        C  199   4.527   3.393   4.856
    1C        C  200   4.582   3.622   4.960
    1C        C  201   3.614   2.416   2.075
    1C        C  202   3.826   2.513   2.183
    1C        C  203   3.694   2.458   2.186
    1C        C  204   3.897   2.544   2.302
    1C        C  205   3.828   2.522   2.424
    1C        C  206   4.019   2.622   2.542
    1C        C  207   3.894   2.557   2.544
    1C        C  208   4.082   2.660   2.663
    1C        C  209   4.021   2.626   2.785
    1C        C  210   4.195   2.747   2.907
    1C        C  211   4.080   2.665   2.907
    1C        C  212   4.248   2.794   3.029
    1C        C  213   4.196   2.751   3.153
    1C        C  214   4.336   2.909   3.271
    1C        C  215   4.244   2.801   3.276
    1C        C  216   4.369   2.971   3.393
    1C        C  217   4.330   2.917   3.518
    1C        C  218   4.434   3.101   3.641
    1C        C  219   4.370   2.976   3.640
    1C        C  220   4.465   3.168   3.762
    1C        C  221   4.439   3.103   3.884
    1C        C  222   4.505   3.309   4.004
    1C        C  223   4.469   3.172   4.004
    1C        C  224   4.511   3.380   4.126
    1C        C  225   4.504   3.312   4.249
    1C        C  226   4.522   3.523   4.367
    1C        C  227   4.515   3.382   4.371
    1C        C  228   4.518   3.598   4.487
    1C        C  229   4.532   3.530   4.610
    1C        C  230   4.503   3.744   4.727
    1C        C  231   4.536   3.606   4.729
    1C        C  232   4.492   3.821   4.845
    1C        C  233   4.537   3.755   4.961
    1C        C  234   4.020   2.611   2.061
    1C        C  235   3.899   2.543   2.067
    1C        C  236   4.086   2.647   2.179
    1C        C  237   4.024   2.607   2.300
    1C        C  238   4.200   2.732   2.421
    1C        C  239   4.084   2.650   2.420
    1C        C  240   4.254   2.782   2.541
    1C        C  241   4.197   2.743   2.664
    1C        C  242   4.338   2.904   2.783
    1C        C  243   4.248   2.795   2.785
    1C        C  244   4.378   2.960   2.907
    1C        C  245   4.340   2.901   3.029
    1C        C  246   4.445   3.089   3.150
    1C        C  247   4.384   2.962   3.149
    1C        C  248   4.463   3.158   3.272
    1C        C  249   4.432   3.098   3.396
    1C        C  250   4.498   3.301   3.514
    1C        C  251   4.456   3.166   3.517
    1C        C  252   4.511   3.373   3.635
    1C        C  253   4.502   3.304   3.758
    1C        C  254   4.521   3.515   3.882
    1C        C  255   4.521   3.374   3.880
    1C        C  256   4.516   3.590   4.001
    1C        C  257   4.515   3.521   4.124
    1C        C  258   4.487   3.733   4.241
    1C        C  259   4.513   3.594   4.245
    1C        C  260   4.470   3.803   4.363
    1C        C  261   4.488   3.736   4.486
    1C        C  262   4.425   3.942   4.601
    1C        C  263   4.473   3.810   4.606
    1C        C  264   4.400   4.012   4.721
    1C        C  265   4.429   3.947   4.843
    1C        C  266   4.323   4.136   4.959
    1C        C  267   4.393   4.016   4.959
    1C        C  268   4.261   2.777   2.062
    1C        C  269   4.200   2.731   2.179
    1C        C  270   4.344   2.890   2.300
    1C        C  271   4.257   2.778   2.299
    1C        C  272   4.382   2.953   2.420
    1C        C  273   4.342   2.893   2.542
    1C        C  274   4.445   3.085   2.661
    1C        C  275   4.381   2.959   2.660
    1C        C  276   4.472   3.148   2.784
    1C        C  277   4.441   3.086   2.907
    1C        C  278   4.506   3.291   3.026
    1C        C  279   4.472   3.154   3.028
    1C        C  280   4.508   3.365   3.146
    1C        C  281   4.500   3.294   3.269
    1C        C  282   4.515   3.507   3.392
    1C        C  283   4.514   3.365   3.390
    1C        C  284   4.513   3.580   3.512
    1C        C  285   4.520   3.514   3.636
    1C        C  286   4.486   3.723   3.753
    1C        C  287   4.515   3.585   3.759
    1C        C  288   4.470   3.794   3.874
    1C        C  289   4.487   3.729   3.997
    1C        C  290   4.421   3.932   4.116
    1C        C  291   4.472   3.800   4.118
    1C        C  292   4.395   4.000   4.237
    1C        C  293   4.424   3.936   4.360
    1C        C  294   4.330   4.131   4.477
    1C        C  295   4.399   4.008   4.479
    1C        C  296   4.285   4.190   4.597
    1C        C  297   4.325   4.133   4.720
    1C        C  298   4.196   4.311   4.839
    1C        C  299   4.283   4.198   4.840
    1C        C  300   4.165   4.400   4.948
    1C        C  301   4.350   2.884   2.065
    1C        C  302   4.466   3.073   2.175
    1C        C  303   4.394   2.950   2.180
    1C        C  304   4.484   3.143   2.298
    1C        C  305   4.448   3.078   2.418
    1C        C  306   4.512   3.284   2.538
    1C        C  307   4.474   3.149   2.538
    1C        C  308   4.514   3.356   2.659
    1C        C  309   4.505   3.286   2.782
    1C        C  310   4.523   3.499   2.898
    1C        C  311   4.519   3.358   2.902
    1C        C  312   4.513   3.571   3.019
    1C        C  313   4.510   3.506   3.145
    1C        C  314   4.484   3.714   3.265
    1C        C  315   4.506   3.575   3.268
    1C        C  316   4.470   3.786   3.386
    1C        C  317   4.489   3.720   3.510
    1C        C  318   4.423   3.924   3.627
    1C        C  319   4.464   3.789   3.630
    1C        C  320   4.393   3.990   3.748
    1C        C  321   4.423   3.928   3.871
    1C        C  322   4.316   4.113   3.991
    1C        C  323   4.392   3.994   3.992
    1C        C  324   4.271   4.171   4.111
    1C        C  325   4.321   4.120   4.234
    1C        C  326   4.186   4.286   4.351
    1C        C  327   4.283   4.183   4.354
    1C        C  328   4.137   4.340   4.472
    1C        C  329   4.190   4.295   4.595
    1C        C  330   4.027   4.437   4.714
    1C        C  331   4.142   4.352   4.715
    1C        C  332   3.969   4.489   4.832
    1C        C  333   4.049   4.478   4.946
    1C        C  334   4.563   3.269   2.063
    1C        C  335   4.536   3.131   2.065
    1C        C  336   4.540   3.351   2.174
    1C        C  337   4.518   3.281   2.294
    1C        C  338   4.530   3.494   2.412
    1C        C  339   4.526   3.353   2.415
    1C        C  340   4.520   3.567   2.533
    1C        C  341   4.520   3.497   2.655
    1C        C  342   4.488   3.708   2.775
    1C        C  343   4.518   3.570   2.776
    1C        C  344   4.469   3.776   2.898
    1C        C  345   4.487   3.710   3.021
    1C        C  346   4.419   3.914   3.138
    1C        C  347   4.470   3.782   3.142
    1C        C  348   4.388   3.980   3.259
    1C        C  349   4.422   3.918   3.382
    1C        C  350   4.319   4.105   3.503
    1C        C  351   4.398   3.988   3.503
    1C        C  352   4.274   4.165   3.622
    1C        C  353   4.317   4.109   3.744
    1C        C  354   4.176   4.267   3.865
    1C        C  355   4.274   4.165   3.866
    1C        C  356   4.122   4.318   3.985
    1C        C  357   4.174   4.273   4.108
    1C        C  358   4.008   4.404   4.231
    1C        C  359   4.126   4.326   4.230
    1C        C  360   3.951   4.446   4.354
    1C        C  361   4.021   4.421   4.474
    1C        C  362   3.827   4.512   4.595
    1C        C  363   3.960   4.464   4.593
    1C        C  364   3.759   4.543   4.715
    1C        C  365   3.837   4.540   4.832
    1C        C  366   3.626   4.595   4.950
    1C        C  367   3.764   4.573   4.947
    1C        C  368   4.511   3.564   2.052
    1C        C  369   4.522   3.492   2.171
    1C        C  370   4.502   3.706   2.290
    1C        C  371   4.521   3.566   2.291
    1C        C  372   4.480   3.776   2.411
    1C        C  373   4.489   3.705   2.533
    1C        C  374   4.423   3.910   2.649
    1C        C  375   4.469   3.776   2.653
    1C        C  376   4.394   3.975   2.771
    1C        C  377   4.423   3.910   2.893
    1C        C  378   4.317   4.096   3.012
    1C        C  379   4.388   3.974   3.014
    1C        C  380   4.273   4.156   3.132
    1C        C  381   4.317   4.101   3.255
    1C        C  382   4.177   4.258   3.376
    1C        C  383   4.275   4.156   3.378
    1C        C  384   4.125   4.310   3.496
    1C        C  385   4.176   4.267   3.621
    1C        C  386   4.006   4.394   3.743
    1C        C  387   4.124   4.316   3.743
    1C        C  388   3.946   4.434   3.864
    1C        C  389   4.007   4.401   3.987
    1C        C  390   3.819   4.498   4.108
    1C        C  391   3.949   4.443   4.109
    1C        C  392   3.753   4.517   4.231
    1C        C  393   3.822   4.501   4.354
    1C        C  394   3.617   4.560   4.477
    1C        C  395   3.755   4.530   4.475
    1C        C  396   3.543   4.567   4.597
    1C        C  397   3.619   4.559   4.716
    1C        C  398   3.407   4.550   4.840
    1C        C  399   3.547   4.572   4.837
    1C        C  400   3.339   4.508   4.955
    1C        C  401   4.506   3.703   2.053
    1C        C  402   4.449   3.914   2.166
    1C        C  403   4.491   3.779   2.170
    1C        C  404   4.409   3.976   2.286
    1C        C  405   4.433   3.909   2.408
    1C        C  406   4.326   4.098   2.525
    1C        C  407   4.400   3.977   2.527
    1C        C  408   4.275   4.151   2.646
    1C        C  409   4.318   4.094   2.768
    1C        C  410   4.176   4.251   2.887
    1C        C  411   4.279   4.155   2.889
    1C        C  412   4.123   4.301   3.009
    1C        C  413   4.178   4.261   3.133
    1C        C  414   4.001   4.379   3.253
    1C        C  415   4.122   4.305   3.255
    1C        C  416   3.941   4.413   3.376
    1C        C  417   4.007   4.388   3.498
    1C        C  418   3.815   4.478   3.618
    1C        C  419   3.945   4.424   3.620
    1C        C  420   3.750   4.508   3.740
    1C        C  421   3.818   4.494   3.863
    1C        C  422   3.611   4.533   3.986
    1C        C  423   3.752   4.517   3.985
    1C        C  424   3.543   4.538   4.110
    1C        C  425   3.613   4.538   4.232
    1C        C  426   3.404   4.546   4.356
    1C        C  427   3.545   4.552   4.355
    1C        C  428   3.330   4.545   4.477
    1C        C  429   3.403   4.555   4.598
    1C        C  430   3.193   4.518   4.721
    1C        C  431   3.332   4.547   4.720
    1C        C  432   3.123   4.493   4.842
    1C        C  433   3.201   4.492   4.958
    1C        C  434   4.385   4.124   2.051
    1C        C  435   4.442   3.996   2.053
    1C        C  436   4.302   4.162   2.161
    1C        C  437   4.336   4.098   2.283
    1C        C  438   4.187   4.256   2.400
    1C        C  439   4.287   4.156   2.402
    1C        C  440   4.129   4.300   2.521
    1C        C  441   4.176   4.250   2.645
    1C        C  442   4.005   4.379   2.764
    1C        C  443   4.122   4.299   2.766
    1C        C  444   3.945   4.413   2.887
    1C        C  445   4.006   4.379   3.010
    1C        C  446   3.813   4.475   3.130
    1C        C  447   3.941   4.415   3.130
    1C        C  448   3.749   4.504   3.252
    1C        C  449   3.815   4.478   3.375
    1C        C  450   3.608   4.529   3.498
    1C        C  451   3.746   4.500   3.496
    1C        C  452   3.539   4.538   3.621
    1C        C  453   3.610   4.532   3.743
    1C        C  454   3.398   4.541   3.865
    1C        C  455   3.540   4.543   3.865
    1C        C  456   3.332   4.534   3.989
    1C        C  457   3.402   4.538   4.112
    1C        C  458   3.196   4.495   4.238
    1C        C  459   3.333   4.530   4.235
    1C        C  460   3.125   4.483   4.359
    1C        C  461   3.193   4.512   4.480
    1C        C  462   2.993   4.438   4.603
    1C        C  463   3.124   4.491   4.601
    1C        C  464   2.927   4.404   4.723
    1C        C  465   2.988   4.445   4.845
    1C        C  466   2.807   4.332   4.960
    1C        C  467   2.905   4.432   4.960
    1C        C  468   4.131   4.295   2.038
    1C        C  469   4.191   4.252   2.158
    1C        C  470   4.012   4.377   2.277
    1C        C  471   4.132   4.300   2.278
    1C        C  472   3.944   4.405   2.398
    1C        C  473   4.009   4.374   2.520
    1C        C  474   3.814   4.462   2.642
    1C        C  475   3.945   4.411   2.640
    1C        C  476   3.746   4.488   2.763
    1C        C  477   3.816   4.470   2.885
    1C        C  478   3.608   4.517   3.008
    1C        C  479   3.748   4.496   3.006
    1C        C  480   3.538   4.527   3.130
    1C        C  481   3.610   4.525   3.252
    1C        C  482   3.398   4.533   3.377
    1C        C  483   3.540   4.532   3.375
    1C        C  484   3.327   4.527   3.498
    1C        C  485   3.398   4.539   3.620
    1C        C  486   3.192   4.495   3.745
    1C        C  487   3.327   4.535   3.743
    1C        C  488   3.130   4.472   3.870
    1C        C  489   3.197   4.494   3.993
    1C        C  490   3.002   4.412   4.116
    1C        C  491   3.129   4.474   4.115
    1C        C  492   2.938   4.383   4.239
    1C        C  493   2.997   4.424   4.361
    1C        C  494   2.827   4.299   4.484
    1C        C  495   2.934   4.392   4.483
    1C        C  496   2.777   4.251   4.607
    1C        C  497   2.816   4.316   4.726
    1C        C  498   2.664   4.165   4.847
    1C        C  499   2.749   4.278   4.844
    1C        C  500   2.602   4.112   4.961
    1C        C  501   4.005   4.354   2.037
    1C        C  502   3.816   4.457   2.155
    1C        C  503   3.946   4.401   2.155
    1C        C  504   3.745   4.475   2.276
    1C        C  505   3.812   4.455   2.399
    1C        C  506   3.607   4.512   2.519
    1C        C  507   3.744   4.481   2.520
    1C        C  508   3.535   4.518   2.640
    1C        C  509   3.607   4.513   2.762
    1C        C  510   3.398   4.526   2.887
    1C        C  511   3.539   4.526   2.885
    1C        C  512   3.325   4.519   3.008
    1C        C  513   3.397   4.527   3.130
    1C        C  514   3.193   4.485   3.257
    1C        C  515   3.330   4.521   3.254
    1C        C  516   3.125   4.467   3.379
    1C        C  517   3.189   4.495   3.502
    1C        C  518   2.996   4.408   3.627
    1C        C  519   3.123   4.471   3.624
    1C        C  520   2.940   4.368   3.750
    1C        C  521   3.004   4.408   3.869
    1C        C  522   2.834   4.286   3.994
    1C        C  523   2.946   4.371   3.993
    1C        C  524   2.786   4.237   4.118
    1C        C  525   2.828   4.294   4.240
    1C        C  526   2.687   4.138   4.363
    1C        C  527   2.774   4.249   4.363
    1C        C  528   2.651   4.078   4.486
    1C        C  529   2.689   4.140   4.607
    1C        C  530   2.586   3.958   4.732
    1C        C  531   2.643   4.089   4.730
    1C        C  532   2.541   3.900   4.854
    1C        C  533   2.527   3.994   4.961
    1C        C  534   3.619   4.553   2.037
    1C        C  535   3.750   4.505   2.042
    1C        C  536   3.538   4.527   2.152
    1C        C  537   3.607   4.509   2.274
    1C        C  538   3.395   4.516   2.397
    1C        C  539   3.536   4.514   2.396
    1C        C  540   3.323   4.511   2.519
    1C        C  541   3.394   4.519   2.640
    1C        C  542   3.189   4.484   2.767
    1C        C  543   3.328   4.510   2.765
    1C        C  544   3.124   4.459   2.890
    1C        C  545   3.190   4.479   3.013
    1C        C  546   2.999   4.393   3.135
    1C        C  547   3.126   4.454   3.136
    1C        C  548   2.938   4.363   3.259
    1C        C  549   2.998   4.404   3.380
    1C        C  550   2.831   4.279   3.504
    1C        C  551   2.938   4.371   3.503
    1C        C  552   2.781   4.228   3.625
    1C        C  553   2.831   4.278   3.748
    1C        C  554   2.700   4.120   3.876
    1C        C  555   2.783   4.234   3.873
    1C        C  556   2.658   4.065   4.000
    1C        C  557   2.696   4.128   4.121
    1C        C  558   2.590   3.946   4.245
    1C        C  559   2.654   4.072   4.243
    1C        C  560   2.562   3.883   4.368
    1C        C  561   2.589   3.951   4.489
    1C        C  562   2.527   3.752   4.613
    1C        C  563   2.560   3.889   4.612
    1C        C  564   2.512   3.682   4.735
    1C        C  565   2.518   3.759   4.855
    1C        C  566   2.530   3.545   4.980
    1C        C  567   2.531   3.683   4.972
    1C        C  568   3.328   4.471   2.041
    1C        C  569   3.397   4.509   2.156
    1C        C  570   3.184   4.477   2.281
    1C        C  571   3.321   4.512   2.277
    1C        C  572   3.117   4.454   2.404
    1C        C  573   3.187   4.473   2.525
    1C        C  574   2.989   4.400   2.648
    1C        C  575   3.118   4.458   2.647
    1C        C  576   2.928   4.366   2.771
    1C        C  577   2.998   4.396   2.890
    1C        C  578   2.829   4.267   3.016
    1C        C  579   2.938   4.357   3.012
    1C        C  580   2.779   4.218   3.139
    1C        C  581   2.833   4.268   3.259
    1C        C  582   2.692   4.115   3.385
    1C        C  583   2.784   4.222   3.383
    1C        C  584   2.651   4.060   3.508
    1C        C  585   2.693   4.118   3.630
    1C        C  586   2.591   3.937   3.758
    1C        C  587   2.656   4.062   3.755
    1C        C  588   2.564   3.873   3.881
    1C        C  589   2.593   3.940   4.002
    1C        C  590   2.529   3.740   4.127
    1C        C  591   2.563   3.877   4.125
    1C        C  592   2.523   3.672   4.251
    1C        C  593   2.532   3.745   4.371
    1C        C  594   2.514   3.535   4.498
    1C        C  595   2.520   3.676   4.494
    1C        C  596   2.518   3.465   4.621
    1C        C  597   2.514   3.540   4.741
    1C        C  598   2.536   3.328   4.862
    1C        C  599   2.530   3.469   4.862
    1C        C  600   2.538   3.250   4.978
    1C        C  601   3.193   4.442   2.043
    1C        C  602   2.984   4.389   2.162
    1C        C  603   3.117   4.442   2.161
    1C        C  604   2.926   4.352   2.286
    1C        C  605   2.988   4.397   2.405
    1C        C  606   2.820   4.268   2.530
    1C        C  607   2.927   4.360   2.527
    1C        C  608   2.767   4.221   2.653
    1C        C  609   2.821   4.274   2.772
    1C        C  610   2.685   4.111   2.894
    1C        C  611   2.773   4.221   2.895
    1C        C  612   2.646   4.053   3.017
    1C        C  613   2.686   4.111   3.140
    1C        C  614   2.579   3.934   3.267
    1C        C  615   2.644   4.059   3.264
    1C        C  616   2.558   3.868   3.391
    1C        C  617   2.590   3.933   3.513
    1C        C  618   2.528   3.732   3.639
    1C        C  619   2.568   3.868   3.636
    1C        C  620   2.513   3.666   3.763
    1C        C  621   2.530   3.736   3.885
    1C        C  622   2.504   3.525   4.011
    1C        C  623   2.515   3.666   4.007
    1C        C  624   2.510   3.457   4.134
    1C        C  625   2.515   3.531   4.254
    1C        C  626   2.544   3.323   4.380
    1C        C  627   2.517   3.462   4.378
    1C        C  628   2.559   3.253   4.501
    1C        C  629   2.540   3.326   4.621
    1C        C  630   2.605   3.121   4.745
    1C        C  631   2.556   3.255   4.743
    1C        C  632   2.627   3.049   4.866
    1C        C  633   2.566   3.113   4.979
    1C        C  634   2.783   4.302   2.053
    1C        C  635   2.895   4.387   2.050
    1C        C  636   2.746   4.232   2.168
    1C        C  637   2.807   4.274   2.288
    1C        C  638   2.678   4.106   2.409
    1C        C  639   2.764   4.218   2.411
    1C        C  640   2.638   4.049   2.532
    1C        C  641   2.681   4.109   2.652
    1C        C  642   2.581   3.921   2.775
    1C        C  643   2.646   4.047   2.774
    1C        C  644   2.558   3.858   2.899
    1C        C  645   2.582   3.928   3.020
    1C        C  646   2.519   3.731   3.148
    1C        C  647   2.556   3.867   3.145
    1C        C  648   2.507   3.661   3.270
    1C        C  649   2.521   3.732   3.392
    1C        C  650   2.514   3.523   3.518
    1C        C  651   2.516   3.664   3.516
    1C        C  652   2.513   3.455   3.642
    1C        C  653   2.506   3.525   3.764
    1C        C  654   2.544   3.319   3.891
    1C        C  655   2.513   3.457   3.887
    1C        C  656   2.561   3.251   4.014
    1C        C  657   2.538   3.318   4.136
    1C        C  658   2.616   3.122   4.260
    1C        C  659   2.560   3.252   4.259
    1C        C  660   2.648   3.058   4.382
    1C        C  661   2.606   3.120   4.502
    1C        C  662   2.716   2.940   4.627
    1C        C  663   2.636   3.056   4.624
    1C        C  664   2.757   2.877   4.747
    1C        C  665   2.705   2.929   4.868
    1C        C  666   2.748   2.871   4.988
    1C        C  667   2.693   4.018   2.056
    1C        C  668   2.687   4.104   2.166
    1C        C  669   2.586   3.915   2.291
    1C        C  670   2.646   4.043   2.287
    1C        C  671   2.557   3.849   2.413
    1C        C  672   2.582   3.919   2.533
    1C        C  673   2.514   3.718   2.658
    1C        C  674   2.551   3.854   2.654
    1C        C  675   2.504   3.649   2.781
    1C        C  676   2.524   3.721   2.900
    1C        C  677   2.507   3.517   3.031
    1C        C  678   2.511   3.658   3.026
    1C        C  679   2.512   3.447   3.154
    1C        C  680   2.505   3.520   3.274
    1C        C  681   2.536   3.312   3.403
    1C        C  682   2.509   3.451   3.397
    1C        C  683   2.556   3.245   3.526
    1C        C  684   2.535   3.315   3.646
    1C        C  685   2.616   3.119   3.773
    1C        C  686   2.563   3.250   3.769
    1C        C  687   2.646   3.054   3.895
    1C        C  688   2.617   3.122   4.015
    1C        C  689   2.721   2.938   4.138
    1C        C  690   2.647   3.059   4.138
    1C        C  691   2.764   2.883   4.261
    1C        C  692   2.725   2.940   4.384
    1C        C  693   2.761   2.880   4.507
    1C        C  694   2.628   3.894   2.055
    1C        C  695   2.527   3.707   2.176
    1C        C  696   2.575   3.839   2.172
    1C        C  697   2.503   3.639   2.297
    1C        C  698   2.516   3.714   2.417
    1C        C  699   2.489   3.503   2.544
    1C        C  700   2.501   3.644   2.539
    1C        C  701   2.500   3.433   2.666
    1C        C  702   2.497   3.508   2.786
    1C        C  703   2.536   3.304   2.912
    1C        C  704   2.506   3.442   2.911
    1C        C  705   2.555   3.238   3.035
    1C        C  706   2.541   3.309   3.157
    1C        C  707   2.610   3.113   3.282
    1C        C  708   2.559   3.245   3.281
    1C        C  709   2.642   3.050   3.405
    1C        C  710   2.612   3.115   3.527
    1C        C  711   2.720   2.935   3.649
    1C        C  712   2.646   3.056   3.650
    1C        C  713   2.765   2.879   3.770
    1C        C  714   2.723   2.935   3.893
    1C        C  715   2.762   2.878   4.016
    1C        C  716   2.448   3.499   2.066
    1C        C  717   2.495   3.631   2.062
    1C        C  718   2.464   3.421   2.184
    1C        C  719   2.483   3.499   2.302
    1C        C  720   2.519   3.291   2.427
    1C        C  721   2.487   3.428   2.424
    1C        C  722   2.540   3.221   2.549
    1C        C  723   2.526   3.295   2.669
    1C        C  724   2.596   3.097   2.793
    1C        C  725   2.549   3.230   2.792
    1C        C  726   2.628   3.035   2.916
    1C        C  727   2.603   3.105   3.036
    1C        C  728   2.713   2.928   3.162
    1C        C  729   2.636   3.047   3.160
    1C        C  730   2.764   2.876   3.283
    1C        C  731   2.722   2.934   3.405
    1C        C  732   2.763   2.877   3.527
    1C        C  733   2.491   3.195   2.074
    1C        C  734   2.487   3.280   2.186
    1C        C  735   2.590   3.089   2.306
    1C        C  736   2.532   3.219   2.306
    1C        C  737   2.621   3.024   2.427
    1C        C  738   2.589   3.089   2.548
    1C        C  739   2.699   2.910   2.673
    1C        C  740   2.622   3.028   2.672
    1C        C  741   2.743   2.853   2.795
    1C        C  742   2.704   2.916   2.915
    1C        C  743   2.754   2.871   3.039
    1C        C  744   2.540   3.065   2.078
    1C        C  745   2.688   2.897   2.185
    1C        C  746   2.609   3.013   2.189
    1C        C  747   2.730   2.840   2.307
    1C        C  748   2.694   2.903   2.429
    1C        C  749   2.739   2.851   2.552
    1C        C  750   2.740   2.841   2.067
    1C        C  751   3.642   2.299   1.988
    1C        O  752   3.603   2.183   2.016
    1C        O  753   3.691   2.304   1.857
    1C        C  754   4.603   3.047   1.963
    1C        O  755   4.590   3.082   1.842
    1C        O  756   4.722   2.984   2.001
    1C        C  757   4.464   4.206   1.956
    1C        O  758   4.517   4.311   2.002
    1C        O  759   4.407   4.242   1.833
    1C        C  760   3.600   4.677   1.958
    1C        O  761   3.693   4.761   1.945
    1C        O  762   3.540   4.674   1.831
    1C        C  763   2.887   4.509   1.967
    1C        O  764   2.898   4.494   1.842
    1C        O  765   2.850   4.635   2.016
    1C        C  766   2.337   3.489   1.968
    1C        O  767   2.357   3.422   1.864
    1C        O  768   2.205   3.470   2.011
    1C        C  769   4.697   3.605   5.052
    1C        O  770   4.686   3.609   5.178
    1C        O  771   4.820   3.666   5.025
    1C        C  772   4.273   4.454   5.034
    1C        O  773   4.266   4.468   5.159
    1C        O  774   4.358   4.552   4.980
    1C        C  775   4.130   2.540   5.097
    1C        O  776   4.203   2.437   5.094
    1C        O  777   4.095   2.551   5.232
    1C        C  778   2.894   4.541   5.060
    1C        O  779   2.807   4.631   5.048
    1C        O  780   2.947   4.534   5.189
    1C        C  781   2.477   3.032   5.064
    1C        O  782   2.365   2.982   5.035
    1C        O  783   2.504   3.009   5.199
    1C        C  784   2.422   3.994   5.065
    1C        O  785   2.302   3.998   5.027
    1C        O  786   2.444   3.984   5.203
    1C        C  787   2.938   2.413   2.022
    1C        O  788   2.937   2.405   1.896
    1C        O  789   2.871   2.314   2.092
    1C        C  790   3.190   2.380   5.079
    1C        O  791   3.175   2.260   5.046
    1C        O  792   3.234   2.407   5.210
    1C        H  793   4.259   3.029   5.050
    1C        H  794   4.153   2.823   5.057
    1C        H  795   4.493   3.122   5.054
    1C        H  796   4.563   3.356   5.063
    1C        H  797   4.494   3.785   5.054
    1C        H  798   4.442   3.983   5.048
    1C        H  799   4.268   4.167   5.046
    1C        H  800   4.037   4.550   5.025
    1C        H  801   3.803   4.541   5.041
    1C        H  802   3.585   4.664   5.020
    1C        H  803   3.375   4.561   5.041
    1C        H  804   3.162   4.437   5.041
    1C        H  805   3.875   2.526   5.072
    1C        H  806   3.676   2.445   5.071
    1C        H  807   3.015   2.576   5.073
    1C        H  808   3.437   2.442   5.071
    1C        H  809   2.911   2.777   5.073
    1C        H  810   2.714   2.905   5.084
    1C        H  811   2.470   3.284   5.054
    1C        H  812   2.514   3.498   5.075
    1C        H  813   2.569   3.735   5.058
    1C        H  814   2.643   4.136   5.057
    1C        H  815   2.782   4.293   5.057
    1C        H  816   2.695   2.861   1.973
    1C        H  817   2.783   2.651   2.000
    1C        H  818   3.216   2.471   1.986
    1C        H  819   3.431   2.446   1.976
    1C        H  820   3.882   2.471   1.990
    1C        H  821   4.058   2.636   1.964
    1C        H  822   4.256   2.721   1.971
    1C        H  823   4.391   2.910   1.969
    1C        H  824   4.638   3.303   1.995
    1C        H  825   4.458   3.514   1.974
    1C        H  826   4.547   3.754   1.968
    1C        H  827   3.816   4.526   1.960
    1C        H  828   3.940   4.315   1.961
    1C        H  829   4.196   4.330   1.961
    1C        H  830   4.505   3.967   1.971
    1C        H  831   2.669   3.829   1.981
    1C        H  832   2.777   4.023   1.990
    1C        H  833   2.733   4.281   1.960
    1C        H  834   3.380   4.423   1.960
    1C        H  835   3.148   4.397   1.957
    1C        H  836   2.538   3.008   1.988
    1C        H  837   2.466   3.232   1.977
    1C        H  838   2.524   3.663   1.964
    2V3OU   H29  839   2.805   3.549   6.028
    2V3OU   C27  840   2.784   3.501   6.127
    2V3OU   H27  841   2.727   3.568   6.195
    2V3OU   H28  842   2.729   3.404   6.112
    2V3OU   O11  843   2.906   3.477   6.197
    2V3OU   C15  844   2.920   3.398   6.309
    2V3OU   C13  845   3.051   3.377   6.356
    2V3OU   C14  846   3.074   3.274   6.448
    2V3OU   C16  847   2.970   3.193   6.492
    2V3OU    H6  848   2.990   3.101   6.550
    2V3OU   C12  849   3.210   3.235   6.492
    2V3OU    O2  850   3.236   3.128   6.550
    2V3OU   C10  851   3.323   3.309   6.434
    2V3OU    C8  852   3.454   3.271   6.464
    2V3OU   O10  853   3.486   3.151   6.522
    2V3OU   H26  854   3.397   3.116   6.538
    2V3OU    C6  855   3.564   3.350   6.419
    2V3OU    C5  856   3.540   3.470   6.353
    2V3OU    C4  857   3.703   3.297   6.431
    2V3OU    H4  858   3.721   3.229   6.519
    2V3OU    H5  859   3.711   3.228   6.342
    2V3OU    C2  860   3.816   3.400   6.420
    2V3OU    O6  861   3.803   3.474   6.541
    2V3OU   H21  862   3.769   3.559   6.510
    2V3OU    C3  863   3.786   3.494   6.302
    2V3OU    H2  864   3.868   3.569   6.291
    2V3OU    H3  865   3.785   3.434   6.207
    2V3OU   C25  866   3.951   3.331   6.403
    2V3OU    O7  867   3.997   3.301   6.293
    2V3OU   C26  868   4.025   3.292   6.530
    2V3OU   H22  869   4.067   3.386   6.575
    2V3OU   H23  870   4.115   3.231   6.506
    2V3OU    O8  871   3.959   3.202   6.617
    2V3OU   H24  872   3.929   3.262   6.687
    2V3OU    C1  873   3.652   3.563   6.319
    2V3OU    H1  874   3.629   3.623   6.225
    2V3OU    O3  875   3.663   3.656   6.427
    2V3OU   C19  876   3.620   3.793   6.423
    2V3OU    H9  877   3.520   3.810   6.373
    2V3OU    O4  878   3.717   3.852   6.340
    2V3OU   C20  879   3.846   3.869   6.400
    2V3OU   H10  880   3.894   3.767   6.404
    2V3OU   C24  881   3.612   3.856   6.562
    2V3OU   H16  882   3.538   3.794   6.620
    2V3OU   H17  883   3.571   3.959   6.546
    2V3OU   C23  884   3.749   3.869   6.628
    2V3OU   H15  885   3.790   3.766   6.653
    2V3OU    N1  886   3.735   3.948   6.749
    2V3OU   H19  887   3.805   3.916   6.814
    2V3OU   H20  888   3.649   3.929   6.797
    2V3OU   C21  889   3.848   3.944   6.533
    2V3OU   H11  890   3.954   3.924   6.566
    2V3OU    O5  891   3.824   4.084   6.532
    2V3OU   H18  892   3.778   4.105   6.615
    2V3OU   C22  893   3.913   3.951   6.290
    2V3OU   H12  894   3.857   4.047   6.279
    2V3OU   H13  895   3.911   3.890   6.196
    2V3OU   H14  896   4.021   3.960   6.317
    2V3OU   C11  897   3.161   3.470   6.327
    2V3OU    O1  898   3.134   3.586   6.290
    2V3OU    C9  899   3.299   3.426   6.357
    2V3OU    C7  900   3.406   3.507   6.320
    2V3OU    O9  901   3.391   3.620   6.243
    2V3OU   H25  902   3.295   3.631   6.228
    2V3OU   C17  903   2.819   3.309   6.353
    2V3OU    H7  904   2.718   3.342   6.329
    2V3OU   C18  905   2.840   3.206   6.444
    2V3OU    H8  906   2.751   3.155   6.483
    3SOL     OW  907   3.405   2.920   4.114
    3SOL    HW1  908   3.382   2.903   4.018
    3SOL    HW2  909   3.326   2.959   4.161
    4SOL     OW  910   0.306   6.584   0.833
    4SOL    HW1  911   0.363   6.575   0.751
    4SOL    HW2  912   0.243   6.506   0.837
    5SOL     OW  913   4.021   2.334   0.699
    5SOL    HW1  914   4.083   2.272   0.747
    5SOL    HW2  915   3.928   2.321   0.732
    6SOL     OW  916   3.744   1.583   2.585
    6SOL    HW1  917   3.829   1.594   2.636
    6SOL    HW2  918   3.739   1.651   2.512
    7SOL     OW  919   2.285   2.802   4.693
    7SOL    HW1  920   2.338   2.754   4.623
    7SOL    HW2  921   2.189   2.803   4.668
    8SOL     OW  922   1.236   2.244   5.867
    8SOL    HW1  923   1.328   2.241   5.908
    8SOL    HW2  924   1.236   2.306   5.789
    9SOL     OW  925   1.155   2.204   6.519
    9SOL    HW1  926   1.119   2.178   6.429
    9SOL    HW2  927   1.247   2.166   6.530
   10SOL     OW  928   5.342   5.082   1.690
   10SOL    HW1  929   5.327   5.157   1.755
   10SOL    HW2  930   5.436   5.085   1.657
   11SOL     OW  931   2.775   1.907   0.564
   11SOL    HW1  932   2.802   1.813   0.580
   11SOL    HW2  933   2.708   1.910   0.490
   12SOL     OW  934   4.845   5.527   1.748
   12SOL    HW1  935   4.944   5.521   1.732
   12SOL    HW2  936   4.814   5.446   1.797
   13SOL     OW  937   5.643   5.910   2.465
   13SOL    HW1  938   5.614   5.981   2.530
   13SOL    HW2  939   5.735   5.929   2.433
   14SOL     OW  940   3.922   6.319   0.503
   14SOL    HW1  941   3.871   6.373   0.570
   14SOL    HW2  942   3.912   6.361   0.413
   15SOL     OW  943   0.409   6.220   6.722
   15SOL    HW1  944   0.484   6.187   6.780
   15SOL    HW2  945   0.447   6.266   6.642
   16SOL     OW  946   2.079   5.625   4.727
   16SOL    HW1  947   2.059   5.551   4.663
   16SOL    HW2  948   2.055   5.713   4.686
   17SOL     OW  949   0.153   1.680   3.603
   17SOL    HW1  950   0.171   1.773   3.635
   17SOL    HW2  951   0.228   1.620   3.631
   18SOL     OW  952   3.026   1.591   5.383
   18SOL    HW1  953   3.064   1.542   5.461
   18SOL    HW2  954   2.934   1.625   5.405
   19SOL     OW  955   2.950   6.031   3.025
   19SOL    HW1  956   2.948   6.093   2.946
   19SOL    HW2  957   2.867   6.045   3.079
   20SOL     OW  958   7.004   1.815   5.656
   20SOL    HW1  959   0.078   1.792   5.658
   20SOL    HW2  960   6.993   1.913   5.643
   21SOL     OW  961   1.776   3.761   1.984
   21SOL    HW1  962   1.794   3.815   1.902
   21SOL    HW2  963   1.863   3.730   2.023
   22SOL     OW  964   0.512   0.990   0.144
   22SOL    HW1  965   0.498   0.891   0.146
   22SOL    HW2  966   0.507   1.027   0.236
   23SOL     OW  967   6.879   5.323   6.947
   23SOL    HW1  968   6.950   5.321   7.017
   23SOL    HW2  969   6.816   5.247   6.961
   24SOL     OW  970   5.306   1.138   6.643
   24SOL    HW1  971   5.350   1.183   6.566
   24SOL    HW2  972   5.345   1.047   6.656
   25SOL     OW  973   1.272   0.972   4.726
   25SOL    HW1  974   1.209   0.896   4.710
   25SOL    HW2  975   1.264   1.039   4.652
   26SOL     OW  976   2.028   0.316   6.489
   26SOL    HW1  977   1.980   0.382   6.432
   26SOL    HW2  978   1.984   0.310   6.578
   27SOL     OW  979   0.068   0.034   2.186
   27SOL    HW1  980   0.145   0.071   2.133
   27SOL    HW2  981   7.022   0.000   2.124
   28SOL     OW  982   1.733   1.023   5.909
   28SOL    HW1  983   1.826   0.996   5.883
   28SOL    HW2  984   1.670   0.949   5.887
   29SOL     OW  985   5.424   1.022   1.152
   29SOL    HW1  986   5.454   0.931   1.184
   29SOL    HW2  987   5.391   1.075   1.231
   30SOL     OW  988   4.940   0.421   5.085
   30SOL    HW1  989   4.892   0.362   5.019
   30SOL    HW2  990   4.997   0.487   5.035
   31SOL     OW  991   6.514   4.811   4.578
   31SOL    HW1  992   6.426   4.768   4.556
   31SOL    HW2  993   6.503   4.910   4.581
   32SOL     OW  994   3.050   1.185   1.104
   32SOL    HW1  995   3.081   1.174   1.009
   32SOL    HW2  996   2.957   1.220   1.105
   33SOL     OW  997   1.798   5.056   5.387
   33SOL    HW1  998   1.879   5.109   5.412
   33SOL    HW2  999   1.774   4.993   5.460
   34SOL     OW 1000   2.134   6.141   5.468
   34SOL    HW1 1001   2.184   6.215   5.512
   34SOL    HW2 1002   2.199   6.073   5.434
   35SOL     OW 1003   1.113   3.037   4.326
   35SOL    HW1 1004   1.153   2.970   4.263
   35SOL    HW2 1005   1.181   3.108   4.346
   36SOL     OW 1006   6.052   1.365   3.684
   36SOL    HW1 1007   5.983   1.421   3.730
   36SOL    HW2 1008   6.121   1.336   3.751
   37SOL     OW 1009   1.562   6.267   4.745
   37SOL    HW1 1010   1.620   6.319   4.682
   37SOL    HW2 1011   1.590   6.286   4.839
   38SOL     OW 1012   0.889   3.244   1.105
   38SOL    HW1 1013   0.907   3.240   1.203
   38SOL    HW2 1014   0.790   3.242   1.089
   39SOL     OW 1015   6.490   4.987   1.182
   39SOL    HW1 1016   6.543   4.903   1.182
   39SOL    HW2 1017   6.420   4.982   1.111
   40SOL     OW 1018   3.929   0.909   6.703
   40SOL    HW1 1019   4.006   0.973   6.697
   40SOL    HW2 1020   3.866   0.924   6.627
   41SOL     OW 1021   5.544   4.008   1.776
   41SOL    HW1 1022   5.624   4.024   1.717
   41SOL    HW2 1023   5.468   3.975   1.721
   42SOL     OW 1024   2.617   3.819   6.998
   42SOL    HW1 1025   2.586   3.836   0.068
   42SOL    HW2 1026   2.710   3.855   6.988
   43SOL     OW 1027   4.885   6.680   4.889
   43SOL    HW1 1028   4.959   6.736   4.852
   43SOL    HW2 1029   4.919   6.589   4.909
   44SOL     OW 1030   6.818   0.573   6.644
   44SOL    HW1 1031   6.843   0.652   6.700
   44SOL    HW2 1032   6.719   0.571   6.632
   45SOL     OW 1033   2.938   4.265   6.031
   45SOL    HW1 1034   2.966   4.208   6.108
   45SOL    HW2 1035   2.840   4.281   6.035
   46SOL     OW 1036   0.847   4.794   4.341
   46SOL    HW1 1037   0.908   4.775   4.419
   46SOL    HW2 1038   0.861   4.724   4.271
   47SOL     OW 1039   6.114   4.329   6.795
   47SOL    HW1 1040   6.018   4.306   6.817
   47SOL    HW2 1041   6.147   4.397   6.860
   48SOL     OW 1042   0.297   3.871   0.173
   48SOL    HW1 1043   0.241   3.817   0.110
   48SOL    HW2 1044   0.323   3.957   0.129
   49SOL     OW 1045   3.257   2.527   6.701
   49SOL    HW1 1046   3.296   2.587   6.632
   49SOL    HW2 1047   3.161   2.551   6.717
   50SOL     OW 1048   4.981   2.179   0.126
   50SOL    HW1 1049   4.933   2.267   0.131
   50SOL    HW2 1050   5.012   2.163   0.032
   51SOL     OW 1051   1.066   6.153   2.159
   51SOL    HW1 1052   1.059   6.233   2.218
   51SOL    HW2 1053   1.138   6.092   2.192
   52SOL     OW 1054   5.956   1.768   2.435
   52SOL    HW1 1055   5.891   1.700   2.402
   52SOL    HW2 1056   5.953   1.849   2.376
   53SOL     OW 1057   4.535   1.006   0.584
   53SOL    HW1 1058   4.628   0.970   0.591
   53SOL    HW2 1059   4.512   1.020   0.487
   54SOL     OW 1060   6.490   0.603   6.668
   54SOL    HW1 1061   6.395   0.602   6.638
   54SOL    HW2 1062   6.498   0.658   6.752
   55SOL     OW 1063   1.606   3.917   5.489
   55SOL    HW1 1064   1.514   3.905   5.451
   55SOL    HW2 1065   1.627   3.840   5.550
   56SOL     OW 1066   0.619   2.680   6.761
   56SOL    HW1 1067   0.666   2.592   6.772
   56SOL    HW2 1068   0.580   2.708   6.849
   57SOL     OW 1069   4.010   6.055   1.559
   57SOL    HW1 1070   4.065   5.993   1.503
   57SOL    HW2 1071   4.062   6.079   1.642
   58SOL     OW 1072   0.763   0.715   6.801
   58SOL    HW1 1073   0.723   0.765   6.724
   58SOL    HW2 1074   0.693   0.655   6.841
   59SOL     OW 1075   4.084   2.988   6.921
   59SOL    HW1 1076   4.001   3.042   6.908
   59SOL    HW2 1077   4.110   2.946   6.834
   60SOL     OW 1078   6.762   3.191   2.725
   60SOL    HW1 1079   6.852   3.233   2.713
   60SOL    HW2 1080   6.694   3.262   2.740
   61SOL     OW 1081   1.565   5.658   3.107
   61SOL    HW1 1082   1.600   5.596   3.177
   61SOL    HW2 1083   1.495   5.611   3.053
   62SOL     OW 1084   5.291   2.783   2.891
   62SOL    HW1 1085   5.347   2.813   2.813
   62SOL    HW2 1086   5.348   2.731   2.955
   63SOL     OW 1087   3.812   0.131   6.569
   63SOL    HW1 1088   3.761   0.200   6.517
   63SOL    HW2 1089   3.760   0.108   6.651
   64SOL     OW 1090   1.886   2.260   6.810
   64SOL    HW1 1091   1.863   2.237   6.716
   64SOL    HW2 1092   1.937   2.347   6.812
   65SOL     OW 1093   0.844   5.039   5.537
   65SOL    HW1 1094   0.937   5.061   5.506
   65SOL    HW2 1095   0.844   5.030   5.637
   66SOL     OW 1096   4.567   1.105   1.409
   66SOL    HW1 1097   4.491   1.097   1.345
   66SOL    HW2 1098   4.630   1.176   1.378
   67SOL     OW 1099   0.166   3.449   1.190
   67SOL    HW1 1100   0.077   3.422   1.155
   67SOL    HW2 1101   0.195   3.387   1.262
   68SOL     OW 1102   0.463   1.051   6.156
   68SOL    HW1 1103   0.471   1.130   6.218
   68SOL    HW2 1104   0.522   1.065   6.077
   69SOL     OW 1105   1.722   0.039   6.446
   69SOL    HW1 1106   1.682   0.046   6.537
   69SOL    HW2 1107   1.699   0.121   6.393
   70SOL     OW 1108   4.803   4.752   3.363
   70SOL    HW1 1109   4.752   4.834   3.337
   70SOL    HW2 1110   4.801   4.686   3.289
   71SOL     OW 1111   4.679   1.997   5.359
   71SOL    HW1 1112   4.689   1.922   5.293
   71SOL    HW2 1113   4.615   2.064   5.323
   72SOL     OW 1114   6.810   1.047   2.325
   72SOL    HW1 1115   6.870   1.121   2.355
   72SOL    HW2 1116   6.741   1.029   2.396
   73SOL     OW 1117   2.837   0.890   1.317
   73SOL    HW1 1118   2.899   0.961   1.350
   73SOL    HW2 1119   2.890   0.812   1.285
   74SOL     OW 1120   2.305   1.208   7.014
   74SOL    HW1 1121   2.231   1.192   6.950
   74SOL    HW2 1122   2.348   1.121   0.015
   75SOL     OW 1123   2.865   2.640   1.297
   75SOL    HW1 1124   2.902   2.700   1.227
   75SOL    HW2 1125   2.796   2.689   1.350
   76SOL     OW 1126   3.690   5.370   6.251
   76SOL    HW1 1127   3.700   5.419   6.164
   76SOL    HW2 1128   3.769   5.387   6.309
   77SOL     OW 1129   0.068   5.233   4.460
   77SOL    HW1 1130   0.155   5.282   4.472
   77SOL    HW2 1131   0.076   5.142   4.500
   78SOL     OW 1132   5.530   1.382   1.456
   78SOL    HW1 1133   5.529   1.367   1.555
   78SOL    HW2 1134   5.479   1.309   1.411
   79SOL     OW 1135   1.564   4.719   4.270
   79SOL    HW1 1136   1.537   4.716   4.366
   79SOL    HW2 1137   1.496   4.771   4.218
   80SOL     OW 1138   3.727   1.992   5.391
   80SOL    HW1 1139   3.807   1.945   5.354
   80SOL    HW2 1140   3.714   2.079   5.343
   81SOL     OW 1141   3.308   4.953   2.881
   81SOL    HW1 1142   3.325   5.048   2.857
   81SOL    HW2 1143   3.388   4.916   2.928
   82SOL     OW 1144   3.312   0.306   1.901
   82SOL    HW1 1145   3.245   0.323   1.974
   82SOL    HW2 1146   3.280   0.349   1.817
   83SOL     OW 1147   5.362   1.214   3.767
   83SOL    HW1 1148   5.389   1.230   3.672
   83SOL    HW2 1149   5.407   1.281   3.826
   84SOL     OW 1150   5.595   2.467   2.812
   84SOL    HW1 1151   5.563   2.481   2.719
   84SOL    HW2 1152   5.569   2.376   2.844
   85SOL     OW 1153   2.560   5.357   3.452
   85SOL    HW1 1154   2.553   5.443   3.401
   85SOL    HW2 1155   2.474   5.339   3.500
   86SOL     OW 1156   5.038   1.304   0.557
   86SOL    HW1 1157   4.976   1.262   0.491
   86SOL    HW2 1158   5.058   1.240   0.631
   87SOL     OW 1159   3.011   3.241   6.802
   87SOL    HW1 1160   2.950   3.320   6.797
   87SOL    HW2 1161   3.096   3.261   6.754
   88SOL     OW 1162   1.592   2.486   0.939
   88SOL    HW1 1163   1.501   2.476   0.899
   88SOL    HW2 1164   1.635   2.569   0.903
   89SOL     OW 1165   3.352   4.158   4.917
   89SOL    HW1 1166   3.366   4.252   4.885
   89SOL    HW2 1167   3.340   4.158   5.016
   90SOL     OW 1168   6.621   3.865   1.970
   90SOL    HW1 1169   6.689   3.811   1.921
   90SOL    HW2 1170   6.629   3.961   1.943
   91SOL     OW 1171   4.631   5.664   0.838
   91SOL    HW1 1172   4.609   5.599   0.910
   91SOL    HW2 1173   4.556   5.666   0.771
   92SOL     OW 1174   5.470   5.398   0.149
   92SOL    HW1 1175   5.411   5.358   0.078
   92SOL    HW2 1176   5.486   5.330   0.221
   93SOL     OW 1177   3.015   3.720   2.080
   93SOL    HW1 1178   3.084   3.677   2.138
   93SOL    HW2 1179   2.989   3.808   2.119
   94SOL     OW 1180   2.776   1.445   4.323
   94SOL    HW1 1181   2.793   1.472   4.418
   94SOL    HW2 1182   2.751   1.525   4.269
   95SOL     OW 1183   1.065   6.168   3.824
   95SOL    HW1 1184   1.128   6.139   3.896
   95SOL    HW2 1185   0.974   6.184   3.863
   96SOL     OW 1186   0.127   6.217   0.096
   96SOL    HW1 1187   0.120   6.195   7.022
   96SOL    HW2 1188   0.064   6.160   0.148
   97SOL     OW 1189   3.924   4.661   5.412
   97SOL    HW1 1190   3.892   4.567   5.407
   97SOL    HW2 1191   3.846   4.724   5.415
   98SOL     OW 1192   1.057   3.029   4.633
   98SOL    HW1 1193   1.092   2.936   4.646
   98SOL    HW2 1194   1.105   3.073   4.557
   99SOL     OW 1195   4.264   4.782   4.935
   99SOL    HW1 1196   4.300   4.692   4.960
   99SOL    HW2 1197   4.244   4.784   4.837
  100SOL     OW 1198   1.640   1.189   5.183
  100SOL    HW1 1199   1.597   1.103   5.157
  100SOL    HW2 1200   1.696   1.175   5.265
  101SOL     OW 1201   5.385   3.171   2.856
  101SOL    HW1 1202   5.310   3.161   2.921
  101SOL    HW2 1203   5.444   3.245   2.885
  102SOL     OW 1204   3.631   0.044   0.153
  102SOL    HW1 1205   3.558   0.061   0.086
  102SOL    HW2 1206   3.600   0.071   0.244
  103SOL     OW 1207   1.699   1.943   1.387
  103SOL    HW1 1208   1.782   1.940   1.330
  103SOL    HW2 1209   1.724   1.965   1.481
  104SOL     OW 1210   0.550   4.627   1.446
  104SOL    HW1 1211   0.570   4.617   1.544
  104SOL    HW2 1212   0.478   4.564   1.420
  105SOL     OW 1213   6.654   1.488   5.066
  105SOL    HW1 1214   6.740   1.469   5.115
  105SOL    HW2 1215   6.598   1.550   5.120
  106SOL     OW 1216   4.658   3.289   1.708
  106SOL    HW1 1217   4.606   3.270   1.625
  106SOL    HW2 1218   4.623   3.231   1.782
  107SOL     OW 1219   4.245   6.581   2.448
  107SOL    HW1 1220   4.302   6.648   2.402
  107SOL    HW2 1221   4.165   6.561   2.392
  108SOL     OW 1222   3.384   1.358   4.663
  108SOL    HW1 1223   3.423   1.376   4.754
  108SOL    HW2 1224   3.383   1.443   4.610
  109SOL     OW 1225   1.881   1.656   5.086
  109SOL    HW1 1226   1.796   1.665   5.138
  109SOL    HW2 1227   1.875   1.576   5.026
  110SOL     OW 1228   4.304   4.666   5.634
  110SOL    HW1 1229   4.268   4.590   5.580
  110SOL    HW2 1230   4.339   4.632   5.721
  111SOL     OW 1231   5.987   3.047   1.403
  111SOL    HW1 1232   5.976   3.142   1.430
  111SOL    HW2 1233   6.080   3.033   1.369
  112SOL     OW 1234   4.542   6.578   4.992
  112SOL    HW1 1235   4.582   6.638   4.922
  112SOL    HW2 1236   4.532   6.629   5.078
  113SOL     OW 1237   1.049   5.011   2.010
  113SOL    HW1 1238   1.048   5.108   2.033
  113SOL    HW2 1239   1.137   4.987   1.969
  114SOL     OW 1240   6.765   1.609   2.223
  114SOL    HW1 1241   6.813   1.671   2.285
  114SOL    HW2 1242   6.807   1.613   2.132
  115SOL     OW 1243   4.372   1.135   2.950
  115SOL    HW1 1244   4.293   1.157   3.009
  115SOL    HW2 1245   4.340   1.093   2.866
  116SOL     OW 1246   6.174   5.701   0.844
  116SOL    HW1 1247   6.109   5.687   0.769
  116SOL    HW2 1248   6.201   5.797   0.848
  117SOL     OW 1249   2.524   1.686   0.475
  117SOL    HW1 1250   2.470   1.710   0.555
  117SOL    HW2 1251   2.592   1.617   0.499
  118SOL     OW 1252   6.912   2.415   2.291
  118SOL    HW1 1253   6.966   2.340   2.253
  118SOL    HW2 1254   6.973   2.490   2.318
  119SOL     OW 1255   6.012   5.882   5.172
  119SOL    HW1 1256   5.925   5.872   5.220
  119SOL    HW2 1257   6.046   5.792   5.145
  120SOL     OW 1258   4.519   1.603   4.809
  120SOL    HW1 1259   4.609   1.644   4.803
  120SOL    HW2 1260   4.450   1.669   4.779
  121SOL     OW 1261   6.829   5.480   5.887
  121SOL    HW1 1262   6.910   5.423   5.904
  121SOL    HW2 1263   6.856   5.576   5.887
  122SOL     OW 1264   0.034   4.955   5.717
  122SOL    HW1 1265   0.055   4.873   5.665
  122SOL    HW2 1266   6.959   4.964   5.728
  123SOL     OW 1267   1.208   2.768   0.779
  123SOL    HW1 1268   1.250   2.753   0.690
  123SOL    HW2 1269   1.153   2.852   0.776
  124SOL     OW 1270   2.115   3.848   6.528
  124SOL    HW1 1271   2.178   3.780   6.564
  124SOL    HW2 1272   2.055   3.806   6.460
  125SOL     OW 1273   4.383   2.304   0.382
  125SOL    HW1 1274   4.454   2.237   0.405
  125SOL    HW2 1275   4.295   2.257   0.373
  126SOL     OW 1276   3.913   3.527   4.853
  126SOL    HW1 1277   3.973   3.447   4.855
  126SOL    HW2 1278   3.963   3.605   4.815
  127SOL     OW 1279   0.113   5.099   6.086
  127SOL    HW1 1280   0.069   5.183   6.056
  127SOL    HW2 1281   0.058   5.020   6.057
  128SOL     OW 1282   4.605   4.151   5.930
  128SOL    HW1 1283   4.547   4.187   5.856
  128SOL    HW2 1284   4.670   4.085   5.892
  129SOL     OW 1285   0.720   4.344   1.302
  129SOL    HW1 1286   0.758   4.408   1.234
  129SOL    HW2 1287   0.795   4.299   1.350
  130SOL     OW 1288   6.417   3.786   5.111
  130SOL    HW1 1289   6.337   3.760   5.165
  130SOL    HW2 1290   6.411   3.883   5.086
  131SOL     OW 1291   1.055   3.828   2.493
  131SOL    HW1 1292   1.133   3.825   2.431
  131SOL    HW2 1293   1.082   3.796   2.584
  132SOL     OW 1294   4.017   2.554   1.707
  132SOL    HW1 1295   3.927   2.533   1.668
  132SOL    HW2 1296   4.056   2.471   1.747
  133SOL     OW 1297   4.193   4.564   5.999
  133SOL    HW1 1298   4.275   4.551   5.943
  133SOL    HW2 1299   4.156   4.655   5.983
  134SOL     OW 1300   6.271   1.981   6.797
  134SOL    HW1 1301   6.174   1.987   6.775
  134SOL    HW2 1302   6.295   1.886   6.818
  135SOL     OW 1303   4.589   4.468   3.698
  135SOL    HW1 1304   4.564   4.464   3.795
  135SOL    HW2 1305   4.665   4.406   3.680
  136SOL     OW 1306   3.967   6.647   6.203
  136SOL    HW1 1307   4.018   6.607   6.279
  136SOL    HW2 1308   3.993   6.601   6.118
  137SOL     OW 1309   1.456   4.260   6.908
  137SOL    HW1 1310   1.462   4.165   6.877
  137SOL    HW2 1311   1.381   4.306   6.861
  138SOL     OW 1312   1.125   5.624   0.295
  138SOL    HW1 1313   1.078   5.537   0.281
  138SOL    HW2 1314   1.069   5.684   0.352
  139SOL     OW 1315   0.690   1.345   0.979
  139SOL    HW1 1316   0.619   1.363   0.911
  139SOL    HW2 1317   0.686   1.250   1.007
  140SOL     OW 1318   3.865   0.225   2.095
  140SOL    HW1 1319   3.843   0.181   2.181
  140SOL    HW2 1320   3.939   0.292   2.109
  141SOL     OW 1321   1.208   1.749   0.155
  141SOL    HW1 1322   1.293   1.801   0.153
  141SOL    HW2 1323   1.211   1.677   0.085
  142SOL     OW 1324   1.994   4.037   0.109
  142SOL    HW1 1325   1.921   4.095   0.074
  142SOL    HW2 1326   2.080   4.088   0.109
  143SOL     OW 1327   5.428   5.746   1.969
  143SOL    HW1 1328   5.478   5.756   2.055
  143SOL    HW2 1329   5.348   5.687   1.984
  144SOL     OW 1330   3.229   5.341   3.040
  144SOL    HW1 1331   3.157   5.282   3.076
  144SOL    HW2 1332   3.288   5.288   2.980
  145SOL     OW 1333   0.157   5.914   3.422
  145SOL    HW1 1334   0.240   5.939   3.373
  145SOL    HW2 1335   0.130   5.988   3.483
  146SOL     OW 1336   0.511   0.830   5.815
  146SOL    HW1 1337   0.539   0.899   5.881
  146SOL    HW2 1338   0.583   0.760   5.808
  147SOL     OW 1339   5.735   1.043   5.059
  147SOL    HW1 1340   5.678   1.103   5.003
  147SOL    HW2 1341   5.832   1.058   5.037
  148SOL     OW 1342   1.830   6.770   1.911
  148SOL    HW1 1343   1.870   6.847   1.961
  148SOL    HW2 1344   1.890   6.744   1.835
  149SOL     OW 1345   1.552   2.742   4.947
  149SOL    HW1 1346   1.613   2.801   4.893
  149SOL    HW2 1347   1.485   2.700   4.886
  150SOL     OW 1348   5.074   3.246   5.358
  150SOL    HW1 1349   5.113   3.332   5.390
  150SOL    HW2 1350   5.146   3.188   5.321
  151SOL     OW 1351   6.499   2.780   1.700
  151SOL    HW1 1352   6.402   2.785   1.674
  151SOL    HW2 1353   6.509   2.805   1.796
  152SOL     OW 1354   7.001   2.894   0.135
  152SOL    HW1 1355   6.910   2.872   0.171
  152SOL    HW2 1356   6.999   2.985   0.094
  153SOL     OW 1357   1.773   1.855   3.979
  153SOL    HW1 1358   1.760   1.756   3.983
  153SOL    HW2 1359   1.822   1.879   3.895
  154SOL     OW 1360   0.232   1.254   3.845
  154SOL    HW1 1361   0.272   1.220   3.930
  154SOL    HW2 1362   0.139   1.287   3.863
  155SOL     OW 1363   5.653   4.507   3.184
  155SOL    HW1 1364   5.694   4.420   3.209
  155SOL    HW2 1365   5.678   4.576   3.253
  156SOL     OW 1366   4.305   0.410   1.276
  156SOL    HW1 1367   4.243   0.387   1.202
  156SOL    HW2 1368   4.290   0.349   1.354
  157SOL     OW 1369   5.130   6.864   1.176
  157SOL    HW1 1370   5.209   6.825   1.128
  157SOL    HW2 1371   5.135   6.963   1.172
  158SOL     OW 1372   0.862   3.299   4.291
  158SOL    HW1 1373   0.803   3.375   4.262
  158SOL    HW2 1374   0.805   3.222   4.319
  159SOL     OW 1375   6.602   5.041   0.061
  159SOL    HW1 1376   6.682   5.045   0.121
  159SOL    HW2 1377   6.526   5.090   0.104
  160SOL     OW 1378   4.142   0.327   1.064
  160SOL    HW1 1379   4.133   0.401   0.998
  160SOL    HW2 1380   4.176   0.245   1.017
  161SOL     OW 1381   0.144   0.356   0.400
  161SOL    HW1 1382   0.115   0.374   0.495
  161SOL    HW2 1383   0.194   0.270   0.397
  162SOL     OW 1384   4.117   6.875   5.268
  162SOL    HW1 1385   4.124   6.786   5.223
  162SOL    HW2 1386   4.202   6.893   5.318
  163SOL     OW 1387   0.778   3.749   2.645
  163SOL    HW1 1388   0.872   3.741   2.678
  163SOL    HW2 1389   0.776   3.803   2.561
  164SOL     OW 1390   2.257   2.107   2.635
  164SOL    HW1 1391   2.330   2.158   2.590
  164SOL    HW2 1392   2.294   2.022   2.673
  165SOL     OW 1393   0.265   6.405   4.134
  165SOL    HW1 1394   0.233   6.318   4.174
  165SOL    HW2 1395   0.197   6.476   4.152
  166SOL     OW 1396   0.610   4.691   3.392
  166SOL    HW1 1397   0.631   4.611   3.448
  166SOL    HW2 1398   0.658   4.685   3.304
  167SOL     OW 1399   1.030   1.098   3.020
  167SOL    HW1 1400   1.074   1.088   3.109
  167SOL    HW2 1401   0.970   1.179   3.022
  168SOL     OW 1402   3.309   3.650   3.154
  168SOL    HW1 1403   3.257   3.684   3.232
  168SOL    HW2 1404   3.373   3.720   3.122
  169SOL     OW 1405   5.346   2.617   6.780
  169SOL    HW1 1406   5.286   2.577   6.710
  169SOL    HW2 1407   5.412   2.547   6.809
  170SOL     OW 1408   0.076   4.995   2.230
  170SOL    HW1 1409   0.004   4.954   2.174
  170SOL    HW2 1410   0.134   4.923   2.268
  171SOL     OW 1411   2.981   2.249   0.742
  171SOL    HW1 1412   2.937   2.217   0.826
  171SOL    HW2 1413   3.070   2.206   0.732
  172SOL     OW 1414   1.410   1.146   6.917
  172SOL    HW1 1415   1.426   1.122   7.013
  172SOL    HW2 1416   1.464   1.087   6.858
  173SOL     OW 1417   5.928   0.499   5.077
  173SOL    HW1 1418   5.931   0.461   5.170
  173SOL    HW2 1419   5.905   0.596   5.082
  174SOL     OW 1420   6.462   3.676   5.539
  174SOL    HW1 1421   6.499   3.612   5.606
  174SOL    HW2 1422   6.452   3.630   5.450
  175SOL     OW 1423   0.703   6.264   2.952
  175SOL    HW1 1424   0.657   6.348   2.922
  175SOL    HW2 1425   0.802   6.275   2.943
  176SOL     OW 1426   6.604   3.849   0.929
  176SOL    HW1 1427   6.550   3.859   0.846
  176SOL    HW2 1428   6.578   3.920   0.995
  177SOL     OW 1429   6.720   2.842   3.568
  177SOL    HW1 1430   6.710   2.868   3.472
  177SOL    HW2 1431   6.805   2.791   3.581
  178SOL     OW 1432   1.738   5.772   4.995
  178SOL    HW1 1433   1.731   5.681   4.953
  178SOL    HW2 1434   1.825   5.779   5.044
  179SOL     OW 1435   3.593   4.120   2.102
  179SOL    HW1 1436   3.520   4.055   2.125
  179SOL    HW2 1437   3.595   4.193   2.170
  180SOL     OW 1438   5.094   1.218   6.254
  180SOL    HW1 1439   5.065   1.249   6.163
  180SOL    HW2 1440   5.033   1.256   6.323
  181SOL     OW 1441   3.551   0.407   5.630
  181SOL    HW1 1442   3.472   0.399   5.570
  181SOL    HW2 1443   3.603   0.321   5.628
  182SOL     OW 1444   2.949   3.150   5.690
  182SOL    HW1 1445   2.941   3.116   5.597
  182SOL    HW2 1446   2.904   3.238   5.698
  183SOL     OW 1447   3.315   1.373   3.714
  183SOL    HW1 1448   3.328   1.308   3.639
  183SOL    HW2 1449   3.402   1.416   3.736
  184SOL     OW 1450   4.669   5.880   3.444
  184SOL    HW1 1451   4.686   5.948   3.373
  184SOL    HW2 1452   4.743   5.813   3.445
  185SOL     OW 1453   0.236   6.896   5.026
  185SOL    HW1 1454   0.242   6.835   4.947
  185SOL    HW2 1455   0.148   6.943   5.027
  186SOL     OW 1456   2.594   5.768   6.029
  186SOL    HW1 1457   2.593   5.678   5.984
  186SOL    HW2 1458   2.507   5.814   6.013
  187SOL     OW 1459   3.799   5.418   0.858
  187SOL    HW1 1460   3.710   5.436   0.816
  187SOL    HW2 1461   3.863   5.491   0.834
  188SOL     OW 1462   1.568   3.899   3.669
  188SOL    HW1 1463   1.661   3.911   3.703
  188SOL    HW2 1464   1.562   3.814   3.616
  189SOL     OW 1465   5.471   4.735   6.076
  189SOL    HW1 1466   5.373   4.753   6.076
  189SOL    HW2 1467   5.491   4.659   6.139
  190SOL     OW 1468   5.967   6.415   0.686
  190SOL    HW1 1469   5.869   6.432   0.698
  190SOL    HW2 1470   6.018   6.480   0.742
  191SOL     OW 1471   2.096   3.153   5.761
  191SOL    HW1 1472   2.162   3.225   5.784
  191SOL    HW2 1473   2.057   3.171   5.671
  192SOL     OW 1474   6.805   6.847   1.138
  192SOL    HW1 1475   6.710   6.830   1.165
  192SOL    HW2 1476   6.863   6.773   1.172
  193SOL     OW 1477   3.169   0.261   1.489
  193SOL    HW1 1478   3.217   0.296   1.409
  193SOL    HW2 1479   3.166   0.161   1.485
  194SOL     OW 1480   4.122   5.972   3.193
  194SOL    HW1 1481   4.087   6.062   3.166
  194SOL    HW2 1482   4.220   5.967   3.173
  195SOL     OW 1483   2.797   0.691   0.898
  195SOL    HW1 1484   2.757   0.748   0.826
  195SOL    HW2 1485   2.793   0.741   0.985
  196SOL     OW 1486   4.230   2.553   1.415
  196SOL    HW1 1487   4.155   2.487   1.411
  196SOL    HW2 1488   4.196   2.641   1.448
  197SOL     OW 1489   1.387   5.967   1.146
  197SOL    HW1 1490   1.371   5.940   1.051
  197SOL    HW2 1491   1.478   5.934   1.175
  198SOL     OW 1492   5.439   6.889   6.365
  198SOL    HW1 1493   5.438   6.951   6.287
  198SOL    HW2 1494   5.531   6.883   6.402
  199SOL     OW 1495   2.089   0.953   3.300
  199SOL    HW1 1496   1.999   0.970   3.260
  199SOL    HW2 1497   2.127   0.869   3.262
  200SOL     OW 1498   1.232   3.553   4.146
  200SOL    HW1 1499   1.269   3.477   4.093
  200SOL    HW2 1500   1.171   3.518   4.217
  201SOL     OW 1501   4.809   1.528   0.021
  201SOL    HW1 1502   4.889   1.481   7.007
  201SOL    HW2 1503   4.829   1.558   0.115
  202SOL     OW 1504   4.315   0.240   3.289
  202SOL    HW1 1505   4.373   0.256   3.369
  202SOL    HW2 1506   4.302   0.325   3.239
  203SOL     OW 1507   5.719   2.472   0.054
  203SOL    HW1 1508   5.814   2.454   0.079
  203SOL    HW2 1509   5.662   2.472   0.136
  204SOL     OW 1510   1.901   5.980   1.022
  204SOL    HW1 1511   1.813   5.969   1.066
  204SOL    HW2 1512   1.974   5.968   1.089
  205SOL     OW 1513   5.356   0.403   1.428
  205SOL    HW1 1514   5.270   0.402   1.478
  205SOL    HW2 1515   5.338   0.389   1.331
  206SOL     OW 1516   0.160   6.385   1.361
  206SOL    HW1 1517   0.187   6.481   1.370
  206SOL    HW2 1518   0.222   6.339   1.297
  207SOL     OW 1519   6.392   2.126   5.537
  207SOL    HW1 1520   6.325   2.160   5.471
  207SOL    HW2 1521   6.395   2.026   5.533
  208SOL     OW 1522   4.165   3.899   6.762
  208SOL    HW1 1523   4.225   3.868   6.836
  208SOL    HW2 1524   4.143   3.995   6.775
  209SOL     OW 1525   0.128   6.687   3.846
  209SOL    HW1 1526   0.109   6.767   3.790
  209SOL    HW2 1527   0.097   6.605   3.797
  210SOL     OW 1528   4.070   2.061   0.843
  210SOL    HW1 1529   4.105   1.973   0.874
  210SOL    HW2 1530   3.971   2.056   0.832
  211SOL     OW 1531   1.036   3.069   1.790
  211SOL    HW1 1532   1.082   2.982   1.807
  211SOL    HW2 1533   0.951   3.072   1.843
  212SOL     OW 1534   1.110   5.220   5.192
  212SOL    HW1 1535   1.035   5.285   5.202
  212SOL    HW2 1536   1.130   5.178   5.280
  213SOL     OW 1537   3.755   2.460   0.893
  213SOL    HW1 1538   3.718   2.398   0.962
  213SOL    HW2 1539   3.835   2.507   0.930
  214SOL     OW 1540   1.571   6.079   3.662
  214SOL    HW1 1541   1.553   6.015   3.736
  214SOL    HW2 1542   1.507   6.062   3.587
  215SOL     OW 1543   3.384   3.939   3.091
  215SOL    HW1 1544   3.432   4.006   3.148
  215SOL    HW2 1545   3.335   3.987   3.017
  216SOL     OW 1546   3.295   0.456   5.518
  216SOL    HW1 1547   3.221   0.459   5.586
  216SOL    HW2 1548   3.340   0.545   5.515
  217SOL     OW 1549   0.185   2.181   5.119
  217SOL    HW1 1550   0.112   2.135   5.068
  217SOL    HW2 1551   0.184   2.149   5.214
  218SOL     OW 1552   2.730   3.968   5.868
  218SOL    HW1 1553   2.738   4.022   5.785
  218SOL    HW2 1554   2.672   4.016   5.934
  219SOL     OW 1555   2.566   5.593   6.483
  219SOL    HW1 1556   2.630   5.524   6.449
  219SOL    HW2 1557   2.501   5.550   6.546
  220SOL     OW 1558   1.314   5.200   0.346
  220SOL    HW1 1559   1.228   5.163   0.310
  220SOL    HW2 1560   1.301   5.229   0.441
  221SOL     OW 1561   5.910   2.705   4.921
  221SOL    HW1 1562   5.899   2.778   4.989
  221SOL    HW2 1563   5.858   2.728   4.839
  222SOL     OW 1564   2.165   6.806   4.211
  222SOL    HW1 1565   2.261   6.784   4.227
  222SOL    HW2 1566   2.118   6.814   4.299
  223SOL     OW 1567   5.488   4.855   2.334
  223SOL    HW1 1568   5.455   4.761   2.341
  223SOL    HW2 1569   5.572   4.864   2.389
  224SOL     OW 1570   4.824   2.421   2.445
  224SOL    HW1 1571   4.828   2.517   2.471
  224SOL    HW2 1572   4.850   2.411   2.349
  225SOL     OW 1573   4.839   6.306   1.399
  225SOL    HW1 1574   4.896   6.388   1.396
  225SOL    HW2 1575   4.896   6.227   1.418
  226SOL     OW 1576   0.560   5.837   2.139
  226SOL    HW1 1577   0.565   5.903   2.214
  226SOL    HW2 1578   0.540   5.886   2.054
  227SOL     OW 1579   1.280   3.783   3.324
  227SOL    HW1 1580   1.223   3.744   3.252
  227SOL    HW2 1581   1.367   3.812   3.285
  228SOL     OW 1582   3.991   6.529   2.841
  228SOL    HW1 1583   3.925   6.457   2.860
  228SOL    HW2 1584   4.082   6.489   2.830
  229SOL     OW 1585   6.708   5.606   3.207
  229SOL    HW1 1586   6.743   5.617   3.300
  229SOL    HW2 1587   6.692   5.696   3.166
  230SOL     OW 1588   0.782   4.499   6.187
  230SOL    HW1 1589   0.848   4.535   6.253
  230SOL    HW2 1590   0.830   4.442   6.120
  231SOL     OW 1591   0.420   2.211   6.337
  231SOL    HW1 1592   0.472   2.217   6.422
  231SOL    HW2 1593   0.479   2.175   6.264
  232SOL     OW 1594   1.219   4.252   5.888
  232SOL    HW1 1595   1.172   4.340   5.885
  232SOL    HW2 1596   1.259   4.239   5.979
  233SOL     OW 1597   3.361   0.281   6.786
  233SOL    HW1 1598   3.312   0.208   6.739
  233SOL    HW2 1599   3.299   0.359   6.801
  234SOL     OW 1600   2.068   4.896   6.842
  234SOL    HW1 1601   2.055   4.845   6.757
  234SOL    HW2 1602   1.983   4.943   6.866
  235SOL     OW 1603   3.719   3.381   5.977
  235SOL    HW1 1604   3.697   3.285   5.999
  235SOL    HW2 1605   3.638   3.425   5.938
  236SOL     OW 1606   0.086   1.668   5.969
  236SOL    HW1 1607   0.139   1.716   5.898
  236SOL    HW2 1608   0.145   1.647   6.047
  237SOL     OW 1609   6.738   6.491   1.983
  237SOL    HW1 1610   6.701   6.412   1.935
  237SOL    HW2 1611   6.672   6.565   1.981
  238SOL     OW 1612   6.906   2.011   2.437
  238SOL    HW1 1613   6.951   2.083   2.490
  238SOL    HW2 1614   6.933   2.018   2.341
  239SOL     OW 1615   6.201   5.248   0.603
  239SOL    HW1 1616   6.231   5.304   0.679
  239SOL    HW2 1617   6.101   5.255   0.593
  240SOL     OW 1618   0.062   2.458   5.124
  240SOL    HW1 1619   0.155   2.480   5.153
  240SOL    HW2 1620   0.047   2.360   5.131
  241SOL     OW 1621   5.480   1.913   5.067
  241SOL    HW1 1622   5.514   1.913   4.973
  241SOL    HW2 1623   5.490   1.822   5.106
  242SOL     OW 1624   2.911   2.138   4.366
  242SOL    HW1 1625   2.841   2.068   4.353
  242SOL    HW2 1626   2.992   2.115   4.311
  243SOL     OW 1627   5.074   1.159   6.752
  243SOL    HW1 1628   5.039   1.065   6.753
  243SOL    HW2 1629   5.172   1.158   6.735
  244SOL     OW 1630   0.523   1.963   5.856
  244SOL    HW1 1631   0.582   2.010   5.790
  244SOL    HW2 1632   0.538   1.864   5.850
  245SOL     OW 1633   4.698   2.749   3.933
  245SOL    HW1 1634   4.758   2.815   3.887
  245SOL    HW2 1635   4.711   2.757   4.032
  246SOL     OW 1636   5.076   3.274   4.027
  246SOL    HW1 1637   5.138   3.300   3.954
  246SOL    HW2 1638   5.121   3.209   4.088
  247SOL     OW 1639   3.158   0.466   2.862
  247SOL    HW1 1640   3.251   0.473   2.824
  247SOL    HW2 1641   3.163   0.435   2.957
  248SOL     OW 1642   0.389   2.379   2.543
  248SOL    HW1 1643   0.303   2.423   2.568
  248SOL    HW2 1644   0.466   2.428   2.585
  249SOL     OW 1645   1.842   5.682   5.308
  249SOL    HW1 1646   1.752   5.662   5.269
  249SOL    HW2 1647   1.849   5.641   5.399
  250SOL     OW 1648   5.256   2.404   0.185
  250SOL    HW1 1649   5.247   2.423   0.087
  250SOL    HW2 1650   5.169   2.422   0.230
  251SOL     OW 1651   2.024   0.997   1.177
  251SOL    HW1 1652   2.100   1.007   1.112
  251SOL    HW2 1653   1.968   0.919   1.149
  252SOL     OW 1654   0.649   2.142   6.875
  252SOL    HW1 1655   0.669   2.092   6.791
  252SOL    HW2 1656   0.565   2.106   6.916
  253SOL     OW 1657   1.743   4.532   6.567
  253SOL    HW1 1658   1.775   4.518   6.474
  253SOL    HW2 1659   1.731   4.444   6.612
  254SOL     OW 1660   4.951   3.948   6.354
  254SOL    HW1 1661   4.974   4.035   6.397
  254SOL    HW2 1662   4.852   3.944   6.339
  255SOL     OW 1663   4.307   1.998   2.285
  255SOL    HW1 1664   4.312   2.072   2.218
  255SOL    HW2 1665   4.389   1.942   2.279
  256SOL     OW 1666   6.625   6.014   1.506
  256SOL    HW1 1667   6.555   6.062   1.453
  256SOL    HW2 1668   6.711   6.013   1.455
  257SOL     OW 1669   3.125   5.785   5.515
  257SOL    HW1 1670   3.219   5.819   5.520
  257SOL    HW2 1671   3.089   5.773   5.608
  258SOL     OW 1672   4.057   5.333   4.123
  258SOL    HW1 1673   4.016   5.246   4.148
  258SOL    HW2 1674   4.009   5.371   4.044
  259SOL     OW 1675   0.643   1.463   2.674
  259SOL    HW1 1676   0.736   1.426   2.672
  259SOL    HW2 1677   0.639   1.540   2.738
  260SOL     OW 1678   6.255   6.996   5.022
  260SOL    HW1 1679   6.280   6.933   5.095
  260SOL    HW2 1680   6.271   0.066   5.052
  261SOL     OW 1681   0.560   0.504   4.594
  261SOL    HW1 1682   0.635   0.438   4.602
  261SOL    HW2 1683   0.597   0.594   4.570
  262SOL     OW 1684   1.488   5.470   1.732
  262SOL    HW1 1685   1.494   5.570   1.725
  262SOL    HW2 1686   1.413   5.438   1.674
  263SOL     OW 1687   0.519   4.340   4.102
  263SOL    HW1 1688   0.565   4.267   4.154
  263SOL    HW2 1689   0.440   4.373   4.155
  264SOL     OW 1690   3.070   4.098   0.398
  264SOL    HW1 1691   3.138   4.093   0.471
  264SOL    HW2 1692   3.085   4.180   0.343
  265SOL     OW 1693   3.965   5.534   3.537
  265SOL    HW1 1694   3.983   5.436   3.529
  265SOL    HW2 1695   4.019   5.571   3.613
  266SOL     OW 1696   4.202   3.578   6.802
  266SOL    HW1 1697   4.185   3.624   6.714
  266SOL    HW2 1698   4.286   3.613   6.842
  267SOL     OW 1699   2.399   2.701   5.702
  267SOL    HW1 1700   2.301   2.680   5.710
  267SOL    HW2 1701   2.410   2.791   5.659
  268SOL     OW 1702   2.219   4.532   3.586
  268SOL    HW1 1703   2.206   4.630   3.577
  268SOL    HW2 1704   2.153   4.496   3.652
  269SOL     OW 1705   3.018   1.750   5.854
  269SOL    HW1 1706   2.999   1.653   5.872
  269SOL    HW2 1707   3.092   1.781   5.913
  270SOL     OW 1708   5.226   6.223   4.842
  270SOL    HW1 1709   5.182   6.234   4.753
  270SOL    HW2 1710   5.321   6.253   4.836
  271SOL     OW 1711   2.195   1.854   0.423
  271SOL    HW1 1712   2.264   1.896   0.364
  271SOL    HW2 1713   2.107   1.850   0.374
  272SOL     OW 1714   4.424   5.510   0.239
  272SOL    HW1 1715   4.487   5.488   0.165
  272SOL    HW2 1716   4.382   5.426   0.273
  273SOL     OW 1717   1.682   6.140   4.027
  273SOL    HW1 1718   1.709   6.138   4.123
  273SOL    HW2 1719   1.688   6.048   3.988
  274SOL     OW 1720   5.982   2.438   2.165
  274SOL    HW1 1721   5.953   2.380   2.242
  274SOL    HW2 1722   5.902   2.484   2.126
  275SOL     OW 1723   5.804   5.577   5.691
  275SOL    HW1 1724   5.760   5.511   5.753
  275SOL    HW2 1725   5.903   5.562   5.691
  276SOL     OW 1726   1.077   0.229   4.341
  276SOL    HW1 1727   1.085   0.138   4.300
  276SOL    HW2 1728   1.004   0.228   4.409
  277SOL     OW 1729   3.778   2.826   5.237
  277SOL    HW1 1730   3.705   2.817   5.304
  277SOL    HW2 1731   3.739   2.826   5.145
  278SOL     OW 1732   5.792   4.441   2.719
  278SOL    HW1 1733   5.839   4.485   2.643
  278SOL    HW2 1734   5.749   4.511   2.777
  279SOL     OW 1735   0.201   4.031   3.685
  279SOL    HW1 1736   0.132   3.973   3.730
  279SOL    HW2 1737   0.290   3.985   3.688
  280SOL     OW 1738   4.262   2.055   3.672
  280SOL    HW1 1739   4.219   1.976   3.716
  280SOL    HW2 1740   4.246   2.136   3.727
  281SOL     OW 1741   5.092   5.499   5.101
  281SOL    HW1 1742   5.159   5.460   5.039
  281SOL    HW2 1743   5.127   5.495   5.195
  282SOL     OW 1744   0.663   2.486   0.034
  282SOL    HW1 1745   0.580   2.433   0.050
  282SOL    HW2 1746   0.709   2.451   6.976
  283SOL     OW 1747   5.987   3.997   3.491
  283SOL    HW1 1748   6.007   3.908   3.532
  283SOL    HW2 1749   5.915   4.042   3.544
  284SOL     OW 1750   5.728   6.551   3.156
  284SOL    HW1 1751   5.788   6.492   3.102
  284SOL    HW2 1752   5.669   6.604   3.095
  285SOL     OW 1753   4.203   6.144   5.990
  285SOL    HW1 1754   4.271   6.075   6.018
  285SOL    HW2 1755   4.249   6.221   5.947
  286SOL     OW 1756   2.792   4.808   5.550
  286SOL    HW1 1757   2.769   4.710   5.551
  286SOL    HW2 1758   2.863   4.825   5.618
  287SOL     OW 1759   3.317   5.985   0.558
  287SOL    HW1 1760   3.257   6.025   0.626
  287SOL    HW2 1761   3.278   5.996   0.467
  288SOL     OW 1762   4.538   1.434   0.027
  288SOL    HW1 1763   4.623   1.484   0.009
  288SOL    HW2 1764   4.518   1.437   0.125
  289SOL     OW 1765   5.224   5.118   4.724
  289SOL    HW1 1766   5.151   5.052   4.739
  289SOL    HW2 1767   5.186   5.201   4.683
  290SOL     OW 1768   3.900   0.529   5.150
  290SOL    HW1 1769   3.904   0.597   5.077
  290SOL    HW2 1770   3.805   0.507   5.170
  291SOL     OW 1771   5.609   0.803   5.079
  291SOL    HW1 1772   5.661   0.888   5.074
  291SOL    HW2 1773   5.660   0.729   5.034
  292SOL     OW 1774   3.276   0.525   3.776
  292SOL    HW1 1775   3.243   0.619   3.764
  292SOL    HW2 1776   3.198   0.464   3.785
  293SOL     OW 1777   5.395   0.562   2.632
  293SOL    HW1 1778   5.463   0.615   2.682
  293SOL    HW2 1779   5.401   0.582   2.534
  294SOL     OW 1780   6.648   1.628   6.139
  294SOL    HW1 1781   6.579   1.697   6.159
  294SOL    HW2 1782   6.639   1.553   6.205
  295SOL     OW 1783   0.667   0.257   4.898
  295SOL    HW1 1784   0.613   0.252   4.982
  295SOL    HW2 1785   0.764   0.262   4.921
  296SOL     OW 1786   0.900   1.820   1.668
  296SOL    HW1 1787   0.989   1.822   1.623
  296SOL    HW2 1788   0.832   1.782   1.607
  297SOL     OW 1789   5.293   3.219   3.359
  297SOL    HW1 1790   5.294   3.315   3.331
  297SOL    HW2 1791   5.200   3.183   3.355
  298SOL     OW 1792   4.369   0.423   5.295
  298SOL    HW1 1793   4.377   0.454   5.390
  298SOL    HW2 1794   4.416   0.487   5.235
  299SOL     OW 1795   0.533   1.280   5.879
  299SOL    HW1 1796   0.585   1.211   5.929
  299SOL    HW2 1797   0.503   1.351   5.942
  300SOL     OW 1798   4.577   5.985   4.121
  300SOL    HW1 1799   4.520   6.015   4.044
  300SOL    HW2 1800   4.632   5.907   4.093
  301SOL     OW 1801   0.157   6.211   5.435
  301SOL    HW1 1802   0.131   6.181   5.527
  301SOL    HW2 1803   0.078   6.204   5.374
  302SOL     OW 1804   0.034   6.428   2.045
  302SOL    HW1 1805   0.094   6.477   1.983
  302SOL    HW2 1806   6.965   6.427   2.008
  303SOL     OW 1807   5.364   5.453   2.271
  303SOL    HW1 1808   5.408   5.542   2.282
  303SOL    HW2 1809   5.393   5.391   2.343
  304SOL     OW 1810   1.804   0.146   3.849
  304SOL    HW1 1811   1.756   0.061   3.868
  304SOL    HW2 1812   1.754   0.222   3.891
  305SOL     OW 1813   1.927   1.939   1.204
  305SOL    HW1 1814   1.924   2.008   1.131
  305SOL    HW2 1815   2.022   1.912   1.221
  306SOL     OW 1816   0.593   0.243   2.243
  306SOL    HW1 1817   0.617   0.339   2.258
  306SOL    HW2 1818   0.511   0.238   2.185
  307SOL     OW 1819   3.608   4.023   3.890
  307SOL    HW1 1820   3.619   3.949   3.824
  307SOL    HW2 1821   3.677   4.015   3.962
  308SOL     OW 1822   5.991   1.530   2.106
  308SOL    HW1 1823   5.895   1.552   2.124
  308SOL    HW2 1824   6.048   1.610   2.125
  309SOL     OW 1825   1.437   4.825   0.336
  309SOL    HW1 1826   1.441   4.738   0.286
  309SOL    HW2 1827   1.395   4.809   0.426
  310SOL     OW 1828   4.475   6.703   5.234
  310SOL    HW1 1829   4.532   6.656   5.301
  310SOL    HW2 1830   4.509   6.797   5.221
  311SOL     OW 1831   1.487   6.785   2.107
  311SOL    HW1 1832   1.467   6.790   2.009
  311SOL    HW2 1833   1.569   6.839   2.127
  312SOL     OW 1834   3.467   0.437   4.453
  312SOL    HW1 1835   3.552   0.411   4.409
  312SOL    HW2 1836   3.452   0.535   4.443
  313SOL     OW 1837   3.128   3.100   2.956
  313SOL    HW1 1838   3.065   3.177   2.948
  313SOL    HW2 1839   3.180   3.107   3.041
  314SOL     OW 1840   2.804   5.048   6.377
  314SOL    HW1 1841   2.711   5.082   6.363
  314SOL    HW2 1842   2.864   5.125   6.401
  315SOL     OW 1843   6.363   0.645   4.598
  315SOL    HW1 1844   6.445   0.596   4.629
  315SOL    HW2 1845   6.383   0.743   4.594
  316SOL     OW 1846   3.916   1.446   5.773
  316SOL    HW1 1847   3.998   1.390   5.785
  316SOL    HW2 1848   3.934   1.516   5.704
  317SOL     OW 1849   0.687   2.212   1.288
  317SOL    HW1 1850   0.720   2.142   1.352
  317SOL    HW2 1851   0.632   2.168   1.217
  318SOL     OW 1852   0.938   0.388   2.869
  318SOL    HW1 1853   0.873   0.423   2.936
  318SOL    HW2 1854   1.031   0.394   2.906
  319SOL     OW 1855   1.110   0.532   2.365
  319SOL    HW1 1856   1.025   0.579   2.341
  319SOL    HW2 1857   1.132   0.551   2.461
  320SOL     OW 1858   5.059   1.362   6.969
  320SOL    HW1 1859   5.056   1.296   6.894
  320SOL    HW2 1860   5.121   1.328   0.016
  321SOL     OW 1861   4.564   3.143   1.008
  321SOL    HW1 1862   4.474   3.146   1.051
  321SOL    HW2 1863   4.615   3.225   1.031
  322SOL     OW 1864   3.224   2.607   0.032
  322SOL    HW1 1865   3.131   2.614   0.068
  322SOL    HW2 1866   3.246   2.512   0.012
  323SOL     OW 1867   1.240   3.540   2.053
  323SOL    HW1 1868   1.291   3.492   2.124
  323SOL    HW2 1869   1.300   3.606   2.008
  324SOL     OW 1870   0.205   0.782   3.811
  324SOL    HW1 1871   0.268   0.763   3.735
  324SOL    HW2 1872   0.158   0.698   3.837
  325SOL     OW 1873   6.020   3.549   1.025
  325SOL    HW1 1874   6.061   3.499   1.101
  325SOL    HW2 1875   5.942   3.602   1.057
  326SOL     OW 1876   6.744   5.575   7.009
  326SOL    HW1 1877   6.658   5.616   6.977
  326SOL    HW2 1878   6.753   5.483   6.971
  327SOL     OW 1879   4.033   6.174   6.383
  327SOL    HW1 1880   4.123   6.168   6.424
  327SOL    HW2 1881   3.984   6.252   6.421
  328SOL     OW 1882   1.291   4.869   3.305
  328SOL    HW1 1883   1.347   4.840   3.383
  328SOL    HW2 1884   1.219   4.931   3.337
  329SOL     OW 1885   3.525   2.915   1.761
  329SOL    HW1 1886   3.426   2.903   1.761
  329SOL    HW2 1887   3.568   2.840   1.710
  330SOL     OW 1888   2.606   3.387   6.710
  330SOL    HW1 1889   2.558   3.457   6.763
  330SOL    HW2 1890   2.564   3.298   6.727
  331SOL     OW 1891   5.093   4.954   4.455
  331SOL    HW1 1892   5.041   4.992   4.532
  331SOL    HW2 1893   5.139   4.870   4.485
  332SOL     OW 1894   5.586   1.520   2.789
  332SOL    HW1 1895   5.668   1.559   2.746
  332SOL    HW2 1896   5.604   1.507   2.887
  333SOL     OW 1897   4.068   6.587   3.811
  333SOL    HW1 1898   4.064   6.685   3.830
  333SOL    HW2 1899   3.989   6.559   3.757
  334SOL     OW 1900   3.611   3.622   4.335
  334SOL    HW1 1901   3.620   3.684   4.257
  334SOL    HW2 1902   3.528   3.645   4.386
  335SOL     OW 1903   3.633   0.886   0.852
  335SOL    HW1 1904   3.555   0.922   0.903
  335SOL    HW2 1905   3.646   0.789   0.875
  336SOL     OW 1906   4.113   2.216   5.015
  336SOL    HW1 1907   4.020   2.196   5.045
  336SOL    HW2 1908   4.147   2.297   5.063
  337SOL     OW 1909   0.053   1.114   4.998
  337SOL    HW1 1910   7.023   1.122   5.083
  337SOL    HW2 1911   0.092   1.023   4.992
  338SOL     OW 1912   4.894   0.919   1.806
  338SOL    HW1 1913   4.913   0.979   1.728
  338SOL    HW2 1914   4.887   0.973   1.889
  339SOL     OW 1915   4.307   5.344   5.747
  339SOL    HW1 1916   4.325   5.247   5.761
  339SOL    HW2 1917   4.248   5.378   5.820
  340SOL     OW 1918   4.845   3.254   5.008
  340SOL    HW1 1919   4.943   3.254   4.986
  340SOL    HW2 1920   4.804   3.169   4.976
  341SOL     OW 1921   6.935   0.232   1.970
  341SOL    HW1 1922   6.914   0.174   2.048
  341SOL    HW2 1923   6.946   0.175   1.888
  342SOL     OW 1924   4.738   1.232   1.765
  342SOL    HW1 1925   4.820   1.288   1.748
  342SOL    HW2 1926   4.750   1.182   1.851
  343SOL     OW 1927   5.192   0.091   1.101
  343SOL    HW1 1928   5.197   0.181   1.144
  343SOL    HW2 1929   5.169   0.101   1.004
  344SOL     OW 1930   6.531   3.024   1.527
  344SOL    HW1 1931   6.510   3.018   1.625
  344SOL    HW2 1932   6.585   3.106   1.509
  345SOL     OW 1933   0.184   2.128   4.516
  345SOL    HW1 1934   0.228   2.093   4.599
  345SOL    HW2 1935   0.247   2.189   4.468
  346SOL     OW 1936   2.103   5.892   2.802
  346SOL    HW1 1937   2.104   5.955   2.724
  346SOL    HW2 1938   2.134   5.802   2.771
  347SOL     OW 1939   2.361   4.950   1.293
  347SOL    HW1 1940   2.391   4.909   1.207
  347SOL    HW2 1941   2.437   4.946   1.359
  348SOL     OW 1942   5.343   4.774   1.692
  348SOL    HW1 1943   5.300   4.758   1.780
  348SOL    HW2 1944   5.322   4.867   1.661
  349SOL     OW 1945   5.711   4.847   1.123
  349SOL    HW1 1946   5.697   4.851   1.024
  349SOL    HW2 1947   5.627   4.818   1.168
  350SOL     OW 1948   2.406   1.890   0.611
  350SOL    HW1 1949   2.445   1.976   0.580
  350SOL    HW2 1950   2.321   1.872   0.560
  351SOL     OW 1951   3.756   4.024   1.292
  351SOL    HW1 1952   3.834   4.063   1.244
  351SOL    HW2 1953   3.684   4.093   1.302
  352SOL     OW 1954   4.056   6.527   2.259
  352SOL    HW1 1955   4.017   6.436   2.246
  352SOL    HW2 1956   4.047   6.580   2.174
  353SOL     OW 1957   1.894   6.902   0.618
  353SOL    HW1 1958   1.802   6.865   0.626
  353SOL    HW2 1959   1.940   6.860   0.539
  354SOL     OW 1960   1.703   2.292   0.702
  354SOL    HW1 1961   1.615   2.249   0.684
  354SOL    HW2 1962   1.692   2.360   0.775
  355SOL     OW 1963   0.433   2.895   3.353
  355SOL    HW1 1964   0.349   2.845   3.371
  355SOL    HW2 1965   0.512   2.836   3.369
  356SOL     OW 1966   2.871   1.094   5.532
  356SOL    HW1 1967   2.822   1.015   5.496
  356SOL    HW2 1968   2.955   1.108   5.481
  357SOL     OW 1969   5.963   6.118   4.127
  357SOL    HW1 1970   5.905   6.195   4.099
  357SOL    HW2 1971   5.937   6.089   4.219
  358SOL     OW 1972   3.215   6.161   6.812
  358SOL    HW1 1973   3.213   6.188   6.716
  358SOL    HW2 1974   3.201   6.242   6.870
  359SOL     OW 1975   1.293   1.954   2.020
  359SOL    HW1 1976   1.202   1.933   1.982
  359SOL    HW2 1977   1.326   2.040   1.980
  360SOL     OW 1978   2.130   3.748   3.330
  360SOL    HW1 1979   2.105   3.708   3.418
  360SOL    HW2 1980   2.204   3.814   3.342
  361SOL     OW 1981   0.224   1.897   2.438
  361SOL    HW1 1982   0.238   1.986   2.482
  361SOL    HW2 1983   0.194   1.831   2.507
  362SOL     OW 1984   4.056   3.876   2.470
  362SOL    HW1 1985   4.107   3.867   2.555
  362SOL    HW2 1986   3.958   3.869   2.489
  363SOL     OW 1987   4.578   5.441   0.564
  363SOL    HW1 1988   4.538   5.529   0.540
  363SOL    HW2 1989   4.675   5.442   0.543
  364SOL     OW 1990   1.106   0.436   0.400
  364SOL    HW1 1991   1.033   0.487   0.446
  364SOL    HW2 1992   1.162   0.500   0.347
  365SOL     OW 1993   5.752   0.869   4.177
  365SOL    HW1 1994   5.705   0.855   4.264
  365SOL    HW2 1995   5.851   0.874   4.193
  366SOL     OW 1996   5.097   1.646   6.985
  366SOL    HW1 1997   5.178   1.673   0.013
  366SOL    HW2 1998   5.108   1.552   6.953
  367SOL     OW 1999   5.512   0.960   0.021
  367SOL    HW1 2000   5.598   0.955   0.072
  367SOL    HW2 2001   5.505   1.049   7.000
  368SOL     OW 2002   2.415   1.804   6.409
  368SOL    HW1 2003   2.424   1.903   6.397
  368SOL    HW2 2004   2.434   1.758   6.322
  369SOL     OW 2005   5.603   4.748   0.355
  369SOL    HW1 2006   5.639   4.819   0.415
  369SOL    HW2 2007   5.563   4.790   0.273
  370SOL     OW 2008   2.120   2.487   3.322
  370SOL    HW1 2009   2.049   2.504   3.390
  370SOL    HW2 2010   2.105   2.545   3.243
  371SOL     OW 2011   1.876   5.685   0.189
  371SOL    HW1 2012   1.822   5.764   0.159
  371SOL    HW2 2013   1.815   5.614   0.224
  372SOL     OW 2014   2.187   5.968   6.097
  372SOL    HW1 2015   2.257   5.930   6.157
  372SOL    HW2 2016   2.173   5.907   6.019
  373SOL     OW 2017   6.315   4.847   3.100
  373SOL    HW1 2018   6.383   4.815   3.166
  373SOL    HW2 2019   6.344   4.821   3.008
  374SOL     OW 2020   2.842   2.244   2.364
  374SOL    HW1 2021   2.830   2.148   2.340
  374SOL    HW2 2022   2.838   2.300   2.281
  375SOL     OW 2023   0.751   5.929   4.132
  375SOL    HW1 2024   0.752   6.029   4.133
  375SOL    HW2 2025   0.770   5.897   4.039
  376SOL     OW 2026   4.473   0.298   3.514
  376SOL    HW1 2027   4.421   0.240   3.576
  376SOL    HW2 2028   4.497   0.384   3.560
  377SOL     OW 2029   2.723   2.302   6.399
  377SOL    HW1 2030   2.633   2.294   6.441
  377SOL    HW2 2031   2.714   2.291   6.300
  378SOL     OW 2032   4.141   1.248   2.276
  378SOL    HW1 2033   4.116   1.213   2.366
  378SOL    HW2 2034   4.097   1.192   2.205
  379SOL     OW 2035   3.884   2.939   6.641
  379SOL    HW1 2036   3.916   3.028   6.607
  379SOL    HW2 2037   3.947   2.867   6.609
  380SOL     OW 2038   4.581   2.118   0.432
  380SOL    HW1 2039   4.653   2.172   0.474
  380SOL    HW2 2040   4.620   2.035   0.391
  381SOL     OW 2041   1.969   4.327   2.877
  381SOL    HW1 2042   1.969   4.364   2.784
  381SOL    HW2 2043   2.063   4.325   2.912
  382SOL     OW 2044   6.126   6.934   0.494
  382SOL    HW1 2045   6.142   0.009   0.492
  382SOL    HW2 2046   6.042   6.915   0.544
  383SOL     OW 2047   4.374   3.678   0.461
  383SOL    HW1 2048   4.443   3.614   0.496
  383SOL    HW2 2049   4.397   3.771   0.490
  384SOL     OW 2050   0.570   3.205   5.324
  384SOL    HW1 2051   0.608   3.180   5.234
  384SOL    HW2 2052   0.609   3.292   5.353
  385SOL     OW 2053   4.548   2.327   7.000
  385SOL    HW1 2054   4.558   2.327   6.900
  385SOL    HW2 2055   4.639   2.325   0.019
  386SOL     OW 2056   4.235   6.567   4.865
  386SOL    HW1 2057   4.166   6.605   4.926
  386SOL    HW2 2058   4.212   6.471   4.845
  387SOL     OW 2059   2.887   6.005   4.487
  387SOL    HW1 2060   2.900   6.099   4.456
  387SOL    HW2 2061   2.855   5.949   4.411
  388SOL     OW 2062   1.454   5.082   5.833
  388SOL    HW1 2063   1.432   5.138   5.913
  388SOL    HW2 2064   1.482   4.991   5.863
  389SOL     OW 2065   2.836   3.639   1.406
  389SOL    HW1 2066   2.853   3.721   1.353
  389SOL    HW2 2067   2.742   3.641   1.441
  390SOL     OW 2068   2.702   0.912   4.904
  390SOL    HW1 2069   2.668   0.998   4.866
  390SOL    HW2 2070   2.794   0.894   4.872
  391SOL     OW 2071   1.612   2.159   6.830
  391SOL    HW1 2072   1.707   2.186   6.816
  391SOL    HW2 2073   1.571   2.215   6.902
  392SOL     OW 2074   3.427   5.615   4.761
  392SOL    HW1 2075   3.365   5.683   4.722
  392SOL    HW2 2076   3.374   5.551   4.817
  393SOL     OW 2077   6.073   4.513   5.596
  393SOL    HW1 2078   6.019   4.431   5.615
  393SOL    HW2 2079   6.076   4.570   5.679
  394SOL     OW 2080   2.033   1.368   6.274
  394SOL    HW1 2081   1.989   1.278   6.280
  394SOL    HW2 2082   2.130   1.359   6.300
  395SOL     OW 2083   6.885   2.972   0.598
  395SOL    HW1 2084   6.901   2.889   0.544
  395SOL    HW2 2085   6.787   2.989   0.606
  396SOL     OW 2086   3.543   3.096   5.276
  396SOL    HW1 2087   3.474   3.141   5.333
  396SOL    HW2 2088   3.572   3.011   5.320
  397SOL     OW 2089   4.298   1.471   6.542
  397SOL    HW1 2090   4.309   1.407   6.466
  397SOL    HW2 2091   4.386   1.514   6.562
  398SOL     OW 2092   0.480   4.236   2.341
  398SOL    HW1 2093   0.475   4.181   2.257
  398SOL    HW2 2094   0.575   4.261   2.358
  399SOL     OW 2095   4.795   4.889   2.061
  399SOL    HW1 2096   4.728   4.907   1.989
  399SOL    HW2 2097   4.829   4.796   2.052
  400SOL     OW 2098   2.222   4.669   4.488
  400SOL    HW1 2099   2.272   4.707   4.566
  400SOL    HW2 2100   2.149   4.610   4.522
  401SOL     OW 2101   5.752   1.569   0.738
  401SOL    HW1 2102   5.837   1.518   0.744
  401SOL    HW2 2103   5.696   1.552   0.820
  402SOL     OW 2104   7.021   4.374   0.847
  402SOL    HW1 2105   6.948   4.432   0.883
  402SOL    HW2 2106   6.984   4.315   0.775
  403SOL     OW 2107   4.678   4.747   0.862
  403SOL    HW1 2108   4.630   4.833   0.880
  403SOL    HW2 2109   4.760   4.742   0.919
  404SOL     OW 2110   0.349   6.011   4.596
  404SOL    HW1 2111   0.418   5.983   4.528
  404SOL    HW2 2112   0.341   5.942   4.667
  405SOL     OW 2113   0.916   2.496   1.331
  405SOL    HW1 2114   0.849   2.569   1.342
  405SOL    HW2 2115   0.906   2.455   1.240
  406SOL     OW 2116   1.205   2.529   3.820
  406SOL    HW1 2117   1.296   2.507   3.854
  406SOL    HW2 2118   1.194   2.494   3.727
  407SOL     OW 2119   3.423   2.119   4.267
  407SOL    HW1 2120   3.522   2.129   4.265
  407SOL    HW2 2121   3.390   2.126   4.361
  408SOL     OW 2122   2.719   0.710   3.980
  408SOL    HW1 2123   2.633   0.739   4.020
  408SOL    HW2 2124   2.740   0.616   4.010
  409SOL     OW 2125   6.798   3.617   4.160
  409SOL    HW1 2126   6.883   3.653   4.122
  409SOL    HW2 2127   6.765   3.677   4.232
  410SOL     OW 2128   2.955   6.958   6.264
  410SOL    HW1 2129   3.041   6.908   6.271
  410SOL    HW2 2130   2.973   0.029   6.239
  411SOL     OW 2131   0.443   3.469   4.823
  411SOL    HW1 2132   0.463   3.523   4.741
  411SOL    HW2 2133   0.463   3.524   4.904
  412SOL     OW 2134   4.581   6.991   2.258
  412SOL    HW1 2135   4.679   6.979   2.274
  412SOL    HW2 2136   4.562   0.064   2.242
  413SOL     OW 2137   2.099   0.625   2.562
  413SOL    HW1 2138   2.045   0.608   2.645
  413SOL    HW2 2139   2.184   0.572   2.566
  414SOL     OW 2140   4.730   4.459   0.846
  414SOL    HW1 2141   4.806   4.405   0.809
  414SOL    HW2 2142   4.750   4.556   0.834
  415SOL     OW 2143   3.864   6.681   2.390
  415SOL    HW1 2144   3.915   6.622   2.328
  415SOL    HW2 2145   3.836   6.764   2.341
  416SOL     OW 2146   3.544   5.582   0.207
  416SOL    HW1 2147   3.574   5.498   0.252
  416SOL    HW2 2148   3.587   5.587   0.116
  417SOL     OW 2149   4.924   5.115   1.714
  417SOL    HW1 2150   4.824   5.109   1.722
  417SOL    HW2 2151   4.965   5.097   1.803
  418SOL     OW 2152   6.633   5.225   6.415
  418SOL    HW1 2153   6.623   5.321   6.390
  418SOL    HW2 2154   6.652   5.217   6.513
  419SOL     OW 2155   5.528   5.884   0.809
  419SOL    HW1 2156   5.494   5.855   0.898
  419SOL    HW2 2157   5.455   5.931   0.759
  420SOL     OW 2158   5.111   3.952   6.922
  420SOL    HW1 2159   5.128   3.861   6.884
  420SOL    HW2 2160   5.196   4.004   6.924
  421SOL     OW 2161   1.539   6.666   6.583
  421SOL    HW1 2162   1.528   6.765   6.584
  421SOL    HW2 2163   1.454   6.623   6.551
  422SOL     OW 2164   5.741   4.286   6.742
  422SOL    HW1 2165   5.708   4.376   6.768
  422SOL    HW2 2166   5.772   4.237   6.823
  423SOL     OW 2167   1.284   3.303   6.124
  423SOL    HW1 2168   1.278   3.402   6.119
  423SOL    HW2 2169   1.282   3.265   6.032
  424SOL     OW 2170   2.022   4.041   0.370
  424SOL    HW1 2171   2.032   4.137   0.395
  424SOL    HW2 2172   2.005   4.033   0.272
  425SOL     OW 2173   3.034   6.915   0.226
  425SOL    HW1 2174   3.088   6.888   0.306
  425SOL    HW2 2175   2.948   6.864   0.225
  426SOL     OW 2176   6.532   4.071   6.099
  426SOL    HW1 2177   6.463   4.104   6.162
  426SOL    HW2 2178   6.508   3.979   6.067
  427SOL     OW 2179   4.495   3.114   0.725
  427SOL    HW1 2180   4.538   3.078   0.642
  427SOL    HW2 2181   4.546   3.081   0.805
  428SOL     OW 2182   3.695   1.751   5.983
  428SOL    HW1 2183   3.741   1.704   5.907
  428SOL    HW2 2184   3.597   1.753   5.966
  429SOL     OW 2185   2.960   6.525   0.712
  429SOL    HW1 2186   2.986   6.579   0.792
  429SOL    HW2 2187   2.954   6.585   0.632
  430SOL     OW 2188   2.818   6.959   4.163
  430SOL    HW1 2189   2.852   6.927   4.252
  430SOL    HW2 2190   2.873   6.919   4.090
  431SOL     OW 2191   3.466   1.588   6.712
  431SOL    HW1 2192   3.554   1.613   6.669
  431SOL    HW2 2193   3.436   1.500   6.677
  432SOL     OW 2194   6.914   1.571   1.187
  432SOL    HW1 2195   6.982   1.538   1.253
  432SOL    HW2 2196   6.824   1.535   1.212
  433SOL     OW 2197   2.817   5.836   4.698
  433SOL    HW1 2198   2.833   5.927   4.661
  433SOL    HW2 2199   2.901   5.801   4.740
  434SOL     OW 2200   6.027   3.351   1.456
  434SOL    HW1 2201   6.077   3.378   1.538
  434SOL    HW2 2202   6.086   3.363   1.376
  435SOL     OW 2203   3.597   3.219   1.092
  435SOL    HW1 2204   3.663   3.144   1.096
  435SOL    HW2 2205   3.605   3.265   1.003
  436SOL     OW 2206   2.780   0.562   0.564
  436SOL    HW1 2207   2.788   0.657   0.594
  436SOL    HW2 2208   2.701   0.552   0.505
  437SOL     OW 2209   6.428   0.423   5.400
  437SOL    HW1 2210   6.494   0.375   5.343
  437SOL    HW2 2211   6.369   0.357   5.446
  438SOL     OW 2212   1.972   3.410   1.374
  438SOL    HW1 2213   2.026   3.333   1.341
  438SOL    HW2 2214   1.989   3.490   1.316
  439SOL     OW 2215   6.170   4.151   1.891
  439SOL    HW1 2216   6.142   4.203   1.971
  439SOL    HW2 2217   6.194   4.058   1.918
  440SOL     OW 2218   1.594   3.289   3.007
  440SOL    HW1 2219   1.632   3.379   3.027
  440SOL    HW2 2220   1.520   3.269   3.072
  441SOL     OW 2221   0.791   0.686   3.469
  441SOL    HW1 2222   0.754   0.603   3.426
  441SOL    HW2 2223   0.770   0.765   3.412
  442SOL     OW 2224   0.027   4.671   6.595
  442SOL    HW1 2225   6.993   4.595   6.565
  442SOL    HW2 2226   7.018   4.704   6.684
  443SOL     OW 2227   0.841   3.988   5.508
  443SOL    HW1 2228   0.795   3.999   5.596
  443SOL    HW2 2229   0.893   4.071   5.487
  444SOL     OW 2230   5.024   2.872   6.733
  444SOL    HW1 2231   5.020   2.967   6.700
  444SOL    HW2 2232   5.096   2.823   6.683
  445SOL     OW 2233   1.801   4.566   3.257
  445SOL    HW1 2234   1.898   4.584   3.242
  445SOL    HW2 2235   1.759   4.646   3.301
  446SOL     OW 2236   3.133   4.843   4.245
  446SOL    HW1 2237   3.204   4.837   4.175
  446SOL    HW2 2238   3.172   4.881   4.329
  447SOL     OW 2239   6.997   6.040   0.214
  447SOL    HW1 2240   0.016   5.986   0.141
  447SOL    HW2 2241   6.900   6.016   0.220
  448SOL     OW 2242   4.579   0.806   5.978
  448SOL    HW1 2243   4.480   0.807   5.963
  448SOL    HW2 2244   4.617   0.718   5.949
  449SOL     OW 2245   5.525   6.997   4.177
  449SOL    HW1 2246   5.566   6.914   4.140
  449SOL    HW2 2247   5.572   7.022   4.262
  450SOL     OW 2248   6.624   6.002   3.566
  450SOL    HW1 2249   6.678   5.997   3.650
  450SOL    HW2 2250   6.543   5.943   3.574
  451SOL     OW 2251   6.084   2.519   3.526
  451SOL    HW1 2252   6.124   2.509   3.617
  451SOL    HW2 2253   5.984   2.511   3.532
  452SOL     OW 2254   6.809   5.164   6.162
  452SOL    HW1 2255   6.731   5.163   6.225
  452SOL    HW2 2256   6.800   5.087   6.098
  453SOL     OW 2257   3.005   1.478   5.648
  453SOL    HW1 2258   3.051   1.410   5.704
  453SOL    HW2 2259   2.918   1.504   5.690
  454SOL     OW 2260   0.881   6.426   0.548
  454SOL    HW1 2261   0.880   6.468   0.639
  454SOL    HW2 2262   0.796   6.448   0.501
  455SOL     OW 2263   5.103   0.623   4.968
  455SOL    HW1 2264   5.038   0.687   4.928
  455SOL    HW2 2265   5.192   0.668   4.979
  456SOL     OW 2266   4.402   5.492   6.787
  456SOL    HW1 2267   4.356   5.404   6.797
  456SOL    HW2 2268   4.487   5.479   6.736
  457SOL     OW 2269   0.784   4.398   1.997
  457SOL    HW1 2270   0.862   4.335   1.997
  457SOL    HW2 2271   0.749   4.409   1.904
  458SOL     OW 2272   6.934   6.709   5.670
  458SOL    HW1 2273   6.912   6.611   5.669
  458SOL    HW2 2274   6.998   6.729   5.596
  459SOL     OW 2275   1.903   0.638   3.833
  459SOL    HW1 2276   1.820   0.630   3.778
  459SOL    HW2 2277   1.903   0.727   3.879
  460SOL     OW 2278   6.756   1.733   3.886
  460SOL    HW1 2279   6.752   1.825   3.847
  460SOL    HW2 2280   6.668   1.712   3.930
  461SOL     OW 2281   5.045   5.571   5.587
  461SOL    HW1 2282   4.985   5.549   5.664
  461SOL    HW2 2283   5.041   5.670   5.569
  462SOL     OW 2284   2.937   2.540   6.824
  462SOL    HW1 2285   2.866   2.481   6.785
  462SOL    HW2 2286   2.960   2.508   6.916
  463SOL     OW 2287   0.144   6.059   1.836
  463SOL    HW1 2288   0.123   5.972   1.881
  463SOL    HW2 2289   0.074   6.079   1.766
  464SOL     OW 2290   1.847   1.694   5.862
  464SOL    HW1 2291   1.877   1.642   5.942
  464SOL    HW2 2292   1.926   1.710   5.803
  465SOL     OW 2293   0.098   3.100   5.543
  465SOL    HW1 2294   0.057   3.152   5.617
  465SOL    HW2 2295   0.193   3.130   5.530
  466SOL     OW 2296   2.913   0.558   3.273
  466SOL    HW1 2297   2.893   0.510   3.358
  466SOL    HW2 2298   2.850   0.526   3.201
  467SOL     OW 2299   1.612   1.658   5.188
  467SOL    HW1 2300   1.544   1.718   5.230
  467SOL    HW2 2301   1.567   1.575   5.155
  468SOL     OW 2302   3.291   3.949   2.098
  468SOL    HW1 2303   3.322   3.939   2.193
  468SOL    HW2 2304   3.193   3.968   2.097
  469SOL     OW 2305   2.825   5.453   0.359
  469SOL    HW1 2306   2.902   5.392   0.347
  469SOL    HW2 2307   2.819   5.480   0.455
  470SOL     OW 2308   4.086   0.371   2.894
  470SOL    HW1 2309   4.078   0.352   2.992
  470SOL    HW2 2310   4.179   0.401   2.873
  471SOL     OW 2311   2.878   1.982   4.720
  471SOL    HW1 2312   2.793   1.962   4.672
  471SOL    HW2 2313   2.898   2.080   4.715
  472SOL     OW 2314   4.097   4.296   5.305
  472SOL    HW1 2315   4.038   4.269   5.229
  472SOL    HW2 2316   4.178   4.343   5.270
  473SOL     OW 2317   1.231   4.189   4.017
  473SOL    HW1 2318   1.240   4.110   4.078
  473SOL    HW2 2319   1.322   4.220   3.991
  474SOL     OW 2320   4.681   4.737   5.112
  474SOL    HW1 2321   4.685   4.777   5.204
  474SOL    HW2 2322   4.689   4.810   5.044
  475SOL     OW 2323   1.241   6.756   6.758
  475SOL    HW1 2324   1.182   6.675   6.764
  475SOL    HW2 2325   1.209   6.814   6.683
  476SOL     OW 2326   0.633   5.257   1.819
  476SOL    HW1 2327   0.581   5.331   1.862
  476SOL    HW2 2328   0.612   5.171   1.864
  477SOL     OW 2329   1.801   5.102   3.874
  477SOL    HW1 2330   1.726   5.042   3.901
  477SOL    HW2 2331   1.791   5.191   3.919
  478SOL     OW 2332   1.921   5.435   3.068
  478SOL    HW1 2333   1.966   5.379   3.138
  478SOL    HW2 2334   1.845   5.486   3.109
  479SOL     OW 2335   3.466   1.425   1.501
  479SOL    HW1 2336   3.399   1.459   1.435
  479SOL    HW2 2337   3.418   1.388   1.581
  480SOL     OW 2338   1.571   6.372   2.580
  480SOL    HW1 2339   1.578   6.367   2.680
  480SOL    HW2 2340   1.516   6.295   2.546
  481SOL     OW 2341   2.878   6.567   1.784
  481SOL    HW1 2342   2.817   6.645   1.799
  481SOL    HW2 2343   2.826   6.492   1.744
  482SOL     OW 2344   5.396   5.379   1.110
  482SOL    HW1 2345   5.351   5.394   1.198
  482SOL    HW2 2346   5.339   5.415   1.037
  483SOL     OW 2347   5.770   1.744   1.225
  483SOL    HW1 2348   5.815   1.777   1.308
  483SOL    HW2 2349   5.796   1.803   1.148
  484SOL     OW 2350   6.861   2.730   4.844
  484SOL    HW1 2351   6.867   2.631   4.860
  484SOL    HW2 2352   6.781   2.749   4.786
  485SOL     OW 2353   3.761   5.903   2.301
  485SOL    HW1 2354   3.733   5.853   2.219
  485SOL    HW2 2355   3.856   5.931   2.293
  486SOL     OW 2356   0.426   0.185   6.449
  486SOL    HW1 2357   0.326   0.180   6.450
  486SOL    HW2 2358   0.455   0.280   6.440
  487SOL     OW 2359   6.423   3.039   6.458
  487SOL    HW1 2360   6.325   3.054   6.442
  487SOL    HW2 2361   6.435   2.978   6.537
  488SOL     OW 2362   0.666   3.390   2.222
  488SOL    HW1 2363   0.648   3.458   2.151
  488SOL    HW2 2364   0.762   3.361   2.217
  489SOL     OW 2365   3.483   6.160   5.915
  489SOL    HW1 2366   3.483   6.234   5.848
  489SOL    HW2 2367   3.550   6.091   5.889
  490SOL     OW 2368   5.583   5.950   4.392
  490SOL    HW1 2369   5.530   5.898   4.325
  490SOL    HW2 2370   5.526   5.969   4.472
  491SOL     OW 2371   0.338   2.151   3.258
  491SOL    HW1 2372   0.396   2.115   3.332
  491SOL    HW2 2373   0.386   2.226   3.212
  492SOL     OW 2374   2.080   1.101   4.676
  492SOL    HW1 2375   2.126   1.027   4.725
  492SOL    HW2 2376   1.996   1.066   4.635
  493SOL     OW 2377   6.101   3.992   4.214
  493SOL    HW1 2378   6.182   3.985   4.157
  493SOL    HW2 2379   6.096   4.084   4.254
  494SOL     OW 2380   6.214   1.862   0.039
  494SOL    HW1 2381   6.123   1.822   0.024
  494SOL    HW2 2382   6.283   1.791   0.029
  495SOL     OW 2383   4.236   4.555   0.967
  495SOL    HW1 2384   4.188   4.610   0.899
  495SOL    HW2 2385   4.328   4.533   0.934
  496SOL     OW 2386   5.980   2.776   2.872
  496SOL    HW1 2387   6.058   2.770   2.810
  496SOL    HW2 2388   5.938   2.686   2.882
  497SOL     OW 2389   3.906   6.803   4.508
  497SOL    HW1 2390   4.004   6.784   4.495
  497SOL    HW2 2391   3.884   6.796   4.605
  498SOL     OW 2392   0.957   3.223   2.506
  498SOL    HW1 2393   1.056   3.233   2.508
  498SOL    HW2 2394   0.923   3.248   2.415
  499SOL     OW 2395   3.432   1.332   4.940
  499SOL    HW1 2396   3.409   1.427   4.963
  499SOL    HW2 2397   3.531   1.320   4.942
  500SOL     OW 2398   1.437   4.213   2.310
  500SOL    HW1 2399   1.452   4.125   2.264
  500SOL    HW2 2400   1.371   4.200   2.385
  501SOL     OW 2401   1.404   5.223   0.055
  501SOL    HW1 2402   1.400   5.174   6.991
  501SOL    HW2 2403   1.378   5.162   0.129
  502SOL     OW 2404   3.441   5.362   6.363
  502SOL    HW1 2405   3.428   5.274   6.407
  502SOL    HW2 2406   3.533   5.367   6.324
  503SOL     OW 2407   5.719   5.807   5.270
  503SOL    HW1 2408   5.740   5.719   5.227
  503SOL    HW2 2409   5.759   5.809   5.362
  504SOL     OW 2410   2.020   5.446   4.541
  504SOL    HW1 2411   2.027   5.359   4.589
  504SOL    HW2 2412   1.927   5.457   4.506
  505SOL     OW 2413   3.754   6.534   5.153
  505SOL    HW1 2414   3.698   6.453   5.170
  505SOL    HW2 2415   3.701   6.616   5.174
  506SOL     OW 2416   2.174   3.804   0.050
  506SOL    HW1 2417   2.097   3.867   0.052
  506SOL    HW2 2418   2.237   3.828   7.000
  507SOL     OW 2419   3.662   1.833   4.074
  507SOL    HW1 2420   3.657   1.734   4.085
  507SOL    HW2 2421   3.666   1.877   4.164
  508SOL     OW 2422   6.303   4.006   4.019
  508SOL    HW1 2423   6.322   3.908   4.008
  508SOL    HW2 2424   6.385   4.059   3.998
  509SOL     OW 2425   4.514   2.559   1.370
  509SOL    HW1 2426   4.581   2.522   1.306
  509SOL    HW2 2427   4.425   2.565   1.325
  510SOL     OW 2428   0.772   3.664   4.401
  510SOL    HW1 2429   0.812   3.718   4.475
  510SOL    HW2 2430   0.845   3.630   4.342
  511SOL     OW 2431   0.465   6.571   1.359
  511SOL    HW1 2432   0.521   6.494   1.388
  511SOL    HW2 2433   0.500   6.655   1.401
  512SOL     OW 2434   0.856   3.907   6.595
  512SOL    HW1 2435   0.914   3.948   6.525
  512SOL    HW2 2436   0.913   3.861   6.663
  513SOL     OW 2437   0.550   5.246   4.422
  513SOL    HW1 2438   0.515   5.163   4.466
  513SOL    HW2 2439   0.558   5.230   4.323
  514SOL     OW 2440   6.352   1.831   3.165
  514SOL    HW1 2441   6.434   1.810   3.113
  514SOL    HW2 2442   6.271   1.810   3.110
  515SOL     OW 2443   1.788   5.924   7.017
  515SOL    HW1 2444   1.887   5.934   7.006
  515SOL    HW2 2445   1.749   6.012   0.022
  516SOL     OW 2446   0.974   5.536   2.602
  516SOL    HW1 2447   0.992   5.534   2.503
  516SOL    HW2 2448   0.957   5.443   2.635
  517SOL     OW 2449   4.944   0.514   6.759
  517SOL    HW1 2450   4.928   0.545   6.666
  517SOL    HW2 2451   5.043   0.508   6.776
  518SOL     OW 2452   2.868   1.660   0.690
  518SOL    HW1 2453   2.867   1.678   0.789
  518SOL    HW2 2454   2.798   1.592   0.668
  519SOL     OW 2455   0.817   0.155   1.017
  519SOL    HW1 2456   0.900   0.206   1.000
  519SOL    HW2 2457   0.803   0.087   0.945
  520SOL     OW 2458   6.879   4.258   4.611
  520SOL    HW1 2459   6.958   4.197   4.607
  520SOL    HW2 2460   6.870   4.307   4.524
  521SOL     OW 2461   5.983   0.663   0.949
  521SOL    HW1 2462   5.913   0.714   0.998
  521SOL    HW2 2463   6.026   0.597   1.010
  522SOL     OW 2464   3.516   3.753   5.692
  522SOL    HW1 2465   3.586   3.801   5.744
  522SOL    HW2 2466   3.433   3.744   5.748
  523SOL     OW 2467   6.669   6.773   4.788
  523SOL    HW1 2468   6.578   6.796   4.753
  523SOL    HW2 2469   6.693   6.835   4.863
  524SOL     OW 2470   4.544   1.445   6.086
  524SOL    HW1 2471   4.475   1.467   6.155
  524SOL    HW2 2472   4.587   1.357   6.108
  525SOL     OW 2473   2.698   2.997   6.844
  525SOL    HW1 2474   2.774   2.996   6.908
  525SOL    HW2 2475   2.700   2.914   6.789
  526SOL     OW 2476   4.260   5.626   4.869
  526SOL    HW1 2477   4.345   5.579   4.844
  526SOL    HW2 2478   4.247   5.620   4.968
  527SOL     OW 2479   1.006   1.920   0.197
  527SOL    HW1 2480   0.933   1.893   0.134
  527SOL    HW2 2481   1.082   1.856   0.190
  528SOL     OW 2482   2.258   0.971   5.744
  528SOL    HW1 2483   2.255   0.905   5.819
  528SOL    HW2 2484   2.352   0.981   5.712
  529SOL     OW 2485   6.642   4.285   4.324
  529SOL    HW1 2486   6.562   4.332   4.287
  529SOL    HW2 2487   6.718   4.349   4.332
  530SOL     OW 2488   0.789   2.098   5.195
  530SOL    HW1 2489   0.881   2.092   5.156
  530SOL    HW2 2490   0.726   2.043   5.140
  531SOL     OW 2491   0.138   0.823   0.507
  531SOL    HW1 2492   0.178   0.895   0.450
  531SOL    HW2 2493   0.106   0.748   0.449
  532SOL     OW 2494   1.880   0.225   5.779
  532SOL    HW1 2495   1.912   0.225   5.873
  532SOL    HW2 2496   1.954   0.194   5.719
  533SOL     OW 2497   5.135   0.047   4.719
  533SOL    HW1 2498   5.056   0.105   4.699
  533SOL    HW2 2499   5.194   0.094   4.784
  534SOL     OW 2500   3.320   5.241   2.564
  534SOL    HW1 2501   3.220   5.237   2.566
  534SOL    HW2 2502   3.351   5.249   2.469
  535SOL     OW 2503   6.105   4.483   2.886
  535SOL    HW1 2504   6.040   4.477   2.962
  535SOL    HW2 2505   6.111   4.577   2.854
  536SOL     OW 2506   0.549   6.373   0.859
  536SOL    HW1 2507   0.480   6.317   0.813
  536SOL    HW2 2508   0.510   6.413   0.942
  537SOL     OW 2509   2.007   0.554   3.500
  537SOL    HW1 2510   1.985   0.474   3.556
  537SOL    HW2 2511   2.020   0.525   3.405
  538SOL     OW 2512   1.425   4.769   4.038
  538SOL    HW1 2513   1.345   4.795   3.984
  538SOL    HW2 2514   1.462   4.683   4.004
  539SOL     OW 2515   1.098   5.534   1.363
  539SOL    HW1 2516   1.124   5.614   1.310
  539SOL    HW2 2517   1.038   5.476   1.309
  540SOL     OW 2518   1.434   2.740   1.597
  540SOL    HW1 2519   1.426   2.704   1.504
  540SOL    HW2 2520   1.484   2.676   1.655
  541SOL     OW 2521   3.608   4.750   5.262
  541SOL    HW1 2522   3.517   4.761   5.221
  541SOL    HW2 2523   3.672   4.815   5.219
  542SOL     OW 2524   5.854   6.371   6.676
  542SOL    HW1 2525   5.757   6.364   6.652
  542SOL    HW2 2526   5.862   6.390   6.774
  543SOL     OW 2527   6.624   6.039   0.719
  543SOL    HW1 2528   6.531   6.050   0.683
  543SOL    HW2 2529   6.622   6.045   0.819
  544SOL     OW 2530   1.189   6.008   0.514
  544SOL    HW1 2531   1.100   6.021   0.471
  544SOL    HW2 2532   1.226   5.919   0.487
  545SOL     OW 2533   3.356   1.785   3.928
  545SOL    HW1 2534   3.404   1.764   3.843
  545SOL    HW2 2535   3.393   1.869   3.968
  546SOL     OW 2536   1.562   3.299   0.245
  546SOL    HW1 2537   1.588   3.208   0.210
  546SOL    HW2 2538   1.470   3.321   0.214
  547SOL     OW 2539   2.707   2.379   0.010
  547SOL    HW1 2540   2.675   2.302   6.978
  547SOL    HW2 2541   2.629   2.425   0.052
  548SOL     OW 2542   3.102   3.090   5.053
  548SOL    HW1 2543   3.102   3.036   5.138
  548SOL    HW2 2544   3.175   3.056   4.993
  549SOL     OW 2545   0.940   3.869   1.373
  549SOL    HW1 2546   1.032   3.902   1.393
  549SOL    HW2 2547   0.921   3.881   1.276
  550SOL     OW 2548   6.866   3.194   1.326
  550SOL    HW1 2549   6.854   3.095   1.328
  550SOL    HW2 2550   6.959   3.217   1.358
  551SOL     OW 2551   0.265   1.684   6.896
  551SOL    HW1 2552   0.356   1.703   6.931
  551SOL    HW2 2553   0.196   1.717   6.960
  552SOL     OW 2554   4.761   4.861   0.391
  552SOL    HW1 2555   4.833   4.818   0.336
  552SOL    HW2 2556   4.717   4.792   0.449
  553SOL     OW 2557   1.400   2.238   1.277
  553SOL    HW1 2558   1.384   2.179   1.356
  553SOL    HW2 2559   1.372   2.190   1.194
  554SOL     OW 2560   4.901   5.267   4.767
  554SOL    HW1 2561   4.896   5.360   4.802
  554SOL    HW2 2562   4.909   5.270   4.667
  555SOL     OW 2563   1.724   4.289   4.911
  555SOL    HW1 2564   1.668   4.208   4.894
  555SOL    HW2 2565   1.818   4.272   4.883
  556SOL     OW 2566   5.813   3.460   2.580
  556SOL    HW1 2567   5.740   3.398   2.607
  556SOL    HW2 2568   5.777   3.553   2.573
  557SOL     OW 2569   0.261   5.469   6.509
  557SOL    HW1 2570   0.203   5.478   6.428
  557SOL    HW2 2571   0.208   5.428   6.583
  558SOL     OW 2572   4.513   3.629   5.479
  558SOL    HW1 2573   4.543   3.556   5.542
  558SOL    HW2 2574   4.484   3.588   5.393
  559SOL     OW 2575   5.790   5.771   6.031
  559SOL    HW1 2576   5.859   5.800   5.964
  559SOL    HW2 2577   5.793   5.672   6.040
  560SOL     OW 2578   4.230   6.640   0.075
  560SOL    HW1 2579   4.283   6.557   0.096
  560SOL    HW2 2580   4.285   6.721   0.095
  561SOL     OW 2581   5.599   6.854   1.847
  561SOL    HW1 2582   5.546   6.877   1.766
  561SOL    HW2 2583   5.551   6.885   1.929
  562SOL     OW 2584   6.608   0.765   0.120
  562SOL    HW1 2585   6.516   0.801   0.107
  562SOL    HW2 2586   6.609   0.706   0.201
  563SOL     OW 2587   3.281   0.489   5.024
  563SOL    HW1 2588   3.256   0.559   4.957
  563SOL    HW2 2589   3.380   0.475   5.023
  564SOL     OW 2590   0.542   1.862   6.238
  564SOL    HW1 2591   0.538   1.940   6.176
  564SOL    HW2 2592   0.634   1.822   6.236
  565SOL     OW 2593   4.454   4.458   5.382
  565SOL    HW1 2594   4.445   4.442   5.480
  565SOL    HW2 2595   4.364   4.453   5.339
  566SOL     OW 2596   5.761   4.897   2.066
  566SOL    HW1 2597   5.730   4.842   1.988
  566SOL    HW2 2598   5.790   4.836   2.140
  567SOL     OW 2599   3.608   4.149   4.510
  567SOL    HW1 2600   3.682   4.208   4.539
  567SOL    HW2 2601   3.608   4.065   4.564
  568SOL     OW 2602   2.009   1.314   5.719
  568SOL    HW1 2603   1.996   1.367   5.803
  568SOL    HW2 2604   1.935   1.336   5.655
  569SOL     OW 2605   2.308   3.675   6.635
  569SOL    HW1 2606   2.275   3.611   6.706
  569SOL    HW2 2607   2.370   3.627   6.573
  570SOL     OW 2608   0.177   6.303   0.852
  570SOL    HW1 2609   0.243   6.291   0.777
  570SOL    HW2 2610   0.210   6.255   0.933
  571SOL     OW 2611   3.909   5.517   3.044
  571SOL    HW1 2612   3.948   5.606   3.065
  571SOL    HW2 2613   3.832   5.498   3.105
  572SOL     OW 2614   1.802   4.080   4.684
  572SOL    HW1 2615   1.740   4.062   4.761
  572SOL    HW2 2616   1.758   4.053   4.598
  573SOL     OW 2617   3.569   2.462   0.321
  573SOL    HW1 2618   3.508   2.444   0.398
  573SOL    HW2 2619   3.606   2.554   0.329
  574SOL     OW 2620   2.430   1.480   4.405
  574SOL    HW1 2621   2.334   1.463   4.427
  574SOL    HW2 2622   2.488   1.436   4.473
  575SOL     OW 2623   5.587   2.479   6.593
  575SOL    HW1 2624   5.654   2.553   6.596
  575SOL    HW2 2625   5.600   2.420   6.673
  576SOL     OW 2626   0.894   2.891   2.884
  576SOL    HW1 2627   0.991   2.890   2.910
  576SOL    HW2 2628   0.886   2.923   2.789
  577SOL     OW 2629   3.695   2.080   4.271
  577SOL    HW1 2630   3.699   2.095   4.369
  577SOL    HW2 2631   3.784   2.099   4.230
  578SOL     OW 2632   0.372   3.452   4.437
  578SOL    HW1 2633   0.287   3.420   4.480
  578SOL    HW2 2634   0.378   3.416   4.344
  579SOL     OW 2635   3.855   3.384   0.785
  579SOL    HW1 2636   3.869   3.457   0.718
  579SOL    HW2 2637   3.767   3.398   0.831
  580SOL     OW 2638   0.780   6.390   0.016
  580SOL    HW1 2639   0.717   6.340   0.076
  580SOL    HW2 2640   0.862   6.335   0.001
  581SOL     OW 2641   4.047   3.317   2.502
  581SOL    HW1 2642   4.078   3.397   2.451
  581SOL    HW2 2643   4.027   3.242   2.438
  582SOL     OW 2644   6.882   4.498   1.386
  582SOL    HW1 2645   6.913   4.520   1.479
  582SOL    HW2 2646   6.952   4.445   1.339
  583SOL     OW 2647   2.427   5.966   6.673
  583SOL    HW1 2648   2.447   5.903   6.748
  583SOL    HW2 2649   2.493   6.041   6.674
  584SOL     OW 2650   0.586   5.537   5.000
  584SOL    HW1 2651   0.500   5.509   5.041
  584SOL    HW2 2652   0.609   5.475   4.925
  585SOL     OW 2653   6.206   0.877   5.594
  585SOL    HW1 2654   6.254   0.936   5.529
  585SOL    HW2 2655   6.242   0.894   5.686
  586SOL     OW 2656   2.653   5.880   1.457
  586SOL    HW1 2657   2.691   5.874   1.365
  586SOL    HW2 2658   2.719   5.844   1.523
  587SOL     OW 2659   1.397   3.894   5.708
  587SOL    HW1 2660   1.414   3.886   5.610
  587SOL    HW2 2661   1.413   3.805   5.752
  588SOL     OW 2662   2.152   0.279   1.529
  588SOL    HW1 2663   2.140   0.321   1.619
  588SOL    HW2 2664   2.145   0.349   1.458
  589SOL     OW 2665   4.472   5.269   2.198
  589SOL    HW1 2666   4.429   5.197   2.253
  589SOL    HW2 2667   4.557   5.234   2.158
  590SOL     OW 2668   6.424   2.724   2.078
  590SOL    HW1 2669   6.368   2.656   2.031
  590SOL    HW2 2670   6.520   2.709   2.056
  591SOL     OW 2671   2.702   6.698   2.972
  591SOL    HW1 2672   2.790   6.699   3.020
  591SOL    HW2 2673   2.628   6.718   3.037
  592SOL     OW 2674   5.200   6.898   6.180
  592SOL    HW1 2675   5.175   6.910   6.276
  592SOL    HW2 2676   5.222   6.986   6.139
  593SOL     OW 2677   6.257   1.370   4.704
  593SOL    HW1 2678   6.330   1.365   4.772
  593SOL    HW2 2679   6.289   1.424   4.626
  594SOL     OW 2680   5.393   2.487   1.422
  594SOL    HW1 2681   5.437   2.485   1.512
  594SOL    HW2 2682   5.364   2.395   1.397
  595SOL     OW 2683   4.495   6.654   4.031
  595SOL    HW1 2684   4.426   6.667   3.961
  595SOL    HW2 2685   4.586   6.653   3.989
  596SOL     OW 2686   0.714   3.733   1.801
  596SOL    HW1 2687   0.728   3.635   1.812
  596SOL    HW2 2688   0.796   3.775   1.762
  597SOL     OW 2689   4.383   2.608   5.944
  597SOL    HW1 2690   4.299   2.566   5.976
  597SOL    HW2 2691   4.405   2.575   5.852
  598SOL     OW 2692   3.315   4.202   1.315
  598SOL    HW1 2693   3.234   4.261   1.316
  598SOL    HW2 2694   3.296   4.121   1.259
  599SOL     OW 2695   6.782   6.371   3.827
  599SOL    HW1 2696   6.878   6.397   3.832
  599SOL    HW2 2697   6.724   6.451   3.842
  600SOL     OW 2698   2.830   1.622   1.359
  600SOL    HW1 2699   2.741   1.628   1.315
  600SOL    HW2 2700   2.834   1.683   1.438
  601SOL     OW 2701   2.217   5.058   3.197
  601SOL    HW1 2702   2.306   5.016   3.180
  601SOL    HW2 2703   2.205   5.071   3.296
  602SOL     OW 2704   6.742   0.631   2.062
  602SOL    HW1 2705   6.660   0.612   2.116
  602SOL    HW2 2706   6.823   0.599   2.110
  603SOL     OW 2707   3.772   1.842   3.386
  603SOL    HW1 2708   3.859   1.792   3.386
  603SOL    HW2 2709   3.787   1.933   3.424
  604SOL     OW 2710   1.085   3.652   6.220
  604SOL    HW1 2711   1.009   3.656   6.155
  604SOL    HW2 2712   1.167   3.622   6.173
  605SOL     OW 2713   6.025   0.087   4.792
  605SOL    HW1 2714   6.008   0.177   4.834
  605SOL    HW2 2715   6.004   0.015   4.858
  606SOL     OW 2716   3.855   6.946   2.828
  606SOL    HW1 2717   3.946   6.985   2.812
  606SOL    HW2 2718   3.841   6.868   2.767
  607SOL     OW 2719   4.244   0.662   4.238
  607SOL    HW1 2720   4.214   0.748   4.279
  607SOL    HW2 2721   4.272   0.599   4.310
  608SOL     OW 2722   5.875   2.697   1.472
  608SOL    HW1 2723   5.843   2.723   1.563
  608SOL    HW2 2724   5.852   2.601   1.455
  609SOL     OW 2725   2.971   3.909   4.879
  609SOL    HW1 2726   2.886   3.962   4.876
  609SOL    HW2 2727   2.971   3.851   4.961
  610SOL     OW 2728   6.031   1.658   4.367
  610SOL    HW1 2729   5.963   1.670   4.295
  610SOL    HW2 2730   6.102   1.728   4.358
  611SOL     OW 2731   5.604   6.713   0.305
  611SOL    HW1 2732   5.695   6.691   0.340
  611SOL    HW2 2733   5.589   6.666   0.218
  612SOL     OW 2734   2.296   5.386   5.641
  612SOL    HW1 2735   2.235   5.395   5.720
  612SOL    HW2 2736   2.244   5.352   5.563
  613SOL     OW 2737   3.962   1.384   6.512
  613SOL    HW1 2738   4.002   1.299   6.477
  613SOL    HW2 2739   4.013   1.462   6.475
  614SOL     OW 2740   5.311   3.047   1.195
  614SOL    HW1 2741   5.305   2.950   1.217
  614SOL    HW2 2742   5.262   3.100   1.264
  615SOL     OW 2743   4.960   6.531   0.638
  615SOL    HW1 2744   4.875   6.581   0.655
  615SOL    HW2 2745   5.009   6.574   0.562
  616SOL     OW 2746   4.852   0.525   4.659
  616SOL    HW1 2747   4.821   0.550   4.751
  616SOL    HW2 2748   4.810   0.439   4.632
  617SOL     OW 2749   0.044   6.416   5.159
  617SOL    HW1 2750   0.034   6.317   5.142
  617SOL    HW2 2751   0.112   6.430   5.231
  618SOL     OW 2752   5.454   4.815   0.919
  618SOL    HW1 2753   5.392   4.755   0.868
  618SOL    HW2 2754   5.476   4.774   1.007
  619SOL     OW 2755   2.165   6.066   5.836
  619SOL    HW1 2756   2.068   6.089   5.844
  619SOL    HW2 2757   2.218   6.123   5.898
  620SOL     OW 2758   4.580   1.899   2.279
  620SOL    HW1 2759   4.595   1.847   2.194
  620SOL    HW2 2760   4.564   1.835   2.354
  621SOL     OW 2761   3.212   0.746   6.864
  621SOL    HW1 2762   3.245   0.736   6.770
  621SOL    HW2 2763   3.235   0.664   6.916
  622SOL     OW 2764   0.326   3.596   5.899
  622SOL    HW1 2765   0.230   3.593   5.873
  622SOL    HW2 2766   0.383   3.589   5.817
  623SOL     OW 2767   0.009   0.518   2.905
  623SOL    HW1 2768   0.013   0.457   2.825
  623SOL    HW2 2769   6.938   0.540   2.926
  624SOL     OW 2770   6.151   1.652   6.000
  624SOL    HW1 2771   6.128   1.564   6.042
  624SOL    HW2 2772   6.083   1.674   5.930
  625SOL     OW 2773   3.550   1.060   1.392
  625SOL    HW1 2774   3.594   1.107   1.468
  625SOL    HW2 2775   3.509   1.127   1.330
  626SOL     OW 2776   0.945   5.884   3.510
  626SOL    HW1 2777   0.905   5.935   3.586
  626SOL    HW2 2778   0.939   5.937   3.426
  627SOL     OW 2779   6.603   5.345   6.683
  627SOL    HW1 2780   6.634   5.277   6.749
  627SOL    HW2 2781   6.565   5.423   6.731
  628SOL     OW 2782   3.740   5.075   6.379
  628SOL    HW1 2783   3.810   5.087   6.308
  628SOL    HW2 2784   3.720   4.977   6.389
  629SOL     OW 2785   0.977   6.758   0.095
  629SOL    HW1 2786   0.991   6.797   0.186
  629SOL    HW2 2787   0.889   6.710   0.093
  630SOL     OW 2788   6.715   1.861   1.347
  630SOL    HW1 2789   6.791   1.846   1.410
  630SOL    HW2 2790   6.749   1.864   1.253
  631SOL     OW 2791   2.058   2.889   3.302
  631SOL    HW1 2792   2.029   2.818   3.366
  631SOL    HW2 2793   2.020   2.977   3.330
  632SOL     OW 2794   2.808   4.160   1.211
  632SOL    HW1 2795   2.857   4.200   1.288
  632SOL    HW2 2796   2.868   4.093   1.165
  633SOL     OW 2797   1.384   5.826   0.878
  633SOL    HW1 2798   1.465   5.844   0.822
  633SOL    HW2 2799   1.305   5.871   0.836
  634SOL     OW 2800   2.975   3.242   4.857
  634SOL    HW1 2801   2.885   3.255   4.899
  634SOL    HW2 2802   3.037   3.200   4.924
  635SOL     OW 2803   5.712   6.911   6.454
  635SOL    HW1 2804   5.711   6.820   6.414
  635SOL    HW2 2805   5.747   6.906   6.548
  636SOL     OW 2806   2.364   0.906   4.686
  636SOL    HW1 2807   2.372   0.831   4.751
  636SOL    HW2 2808   2.411   0.987   4.722
  637SOL     OW 2809   0.287   1.490   2.261
  637SOL    HW1 2810   0.330   1.464   2.347
  637SOL    HW2 2811   0.263   1.407   2.210
  638SOL     OW 2812   0.165   3.542   4.834
  638SOL    HW1 2813   0.069   3.514   4.838
  638SOL    HW2 2814   0.223   3.461   4.843
  639SOL     OW 2815   6.072   3.235   1.902
  639SOL    HW1 2816   6.091   3.283   1.816
  639SOL    HW2 2817   6.003   3.165   1.887
  640SOL     OW 2818   7.012   3.399   2.708
  640SOL    HW1 2819   0.064   3.457   2.678
  640SOL    HW2 2820   6.925   3.443   2.686
  641SOL     OW 2821   2.332   5.233   4.584
  641SOL    HW1 2822   2.237   5.224   4.614
  641SOL    HW2 2823   2.356   5.329   4.579
  642SOL     OW 2824   0.692   5.334   4.826
  642SOL    HW1 2825   0.730   5.319   4.735
  642SOL    HW2 2826   0.626   5.261   4.846
  643SOL     OW 2827   4.111   5.520   0.421
  643SOL    HW1 2828   4.051   5.590   0.458
  643SOL    HW2 2829   4.138   5.456   0.493
  644SOL     OW 2830   6.814   6.530   4.973
  644SOL    HW1 2831   6.898   6.538   5.027
  644SOL    HW2 2832   6.744   6.592   5.010
  645SOL     OW 2833   4.554   6.099   2.272
  645SOL    HW1 2834   4.652   6.116   2.282
  645SOL    HW2 2835   4.504   6.151   2.341
  646SOL     OW 2836   3.194   1.853   5.056
  646SOL    HW1 2837   3.233   1.940   5.087
  646SOL    HW2 2838   3.173   1.858   4.958
  647SOL     OW 2839   3.076   2.556   0.328
  647SOL    HW1 2840   3.028   2.486   0.276
  647SOL    HW2 2841   3.026   2.643   0.322
  648SOL     OW 2842   6.260   1.375   3.890
  648SOL    HW1 2843   6.275   1.278   3.910
  648SOL    HW2 2844   6.239   1.423   3.975
  649SOL     OW 2845   2.755   5.542   0.628
  649SOL    HW1 2846   2.663   5.563   0.660
  649SOL    HW2 2847   2.821   5.601   0.676
  650SOL     OW 2848   1.312   3.061   0.597
  650SOL    HW1 2849   1.349   2.969   0.608
  650SOL    HW2 2850   1.387   3.127   0.587
  651SOL     OW 2851   0.458   0.953   3.645
  651SOL    HW1 2852   0.380   0.973   3.704
  651SOL    HW2 2853   0.516   0.883   3.688
  652SOL     OW 2854   3.900   5.676   0.520
  652SOL    HW1 2855   3.822   5.733   0.493
  652SOL    HW2 2856   3.904   5.670   0.619
  653SOL     OW 2857   1.555   6.771   2.623
  653SOL    HW1 2858   1.591   6.735   2.537
  653SOL    HW2 2859   1.523   6.864   2.609
  654SOL     OW 2860   1.018   6.621   5.699
  654SOL    HW1 2861   1.008   6.535   5.649
  654SOL    HW2 2862   1.014   6.698   5.635
  655SOL     OW 2863   0.951   3.206   0.843
  655SOL    HW1 2864   0.882   3.246   0.783
  655SOL    HW2 2865   0.945   3.249   0.933
  656SOL     OW 2866   2.657   6.780   6.503
  656SOL    HW1 2867   2.633   6.810   6.411
  656SOL    HW2 2868   2.602   6.700   6.527
  657SOL     OW 2869   3.774   3.660   3.864
  657SOL    HW1 2870   3.727   3.740   3.826
  657SOL    HW2 2871   3.865   3.688   3.895
  658SOL     OW 2872   1.373   1.069   4.292
  658SOL    HW1 2873   1.386   0.981   4.335
  658SOL    HW2 2874   1.287   1.069   4.241
  659SOL     OW 2875   1.446   5.613   6.360
  659SOL    HW1 2876   1.400   5.698   6.338
  659SOL    HW2 2877   1.516   5.594   6.290
  660SOL     OW 2878   6.023   4.232   2.733
  660SOL    HW1 2879   5.949   4.298   2.721
  660SOL    HW2 2880   6.096   4.274   2.787
  661SOL     OW 2881   4.339   5.097   3.759
  661SOL    HW1 2882   4.361   5.058   3.848
  661SOL    HW2 2883   4.423   5.127   3.713
  662SOL     OW 2884   5.090   3.887   0.343
  662SOL    HW1 2885   5.105   3.788   0.348
  662SOL    HW2 2886   5.115   3.929   0.430
  663SOL     OW 2887   0.242   4.550   6.726
  663SOL    HW1 2888   0.318   4.500   6.683
  663SOL    HW2 2889   0.202   4.613   6.659
  664SOL     OW 2890   1.715   6.889   6.239
  664SOL    HW1 2891   1.684   6.797   6.263
  664SOL    HW2 2892   1.719   6.945   6.322
  665SOL     OW 2893   2.494   4.500   2.914
  665SOL    HW1 2894   2.459   4.593   2.925
  665SOL    HW2 2895   2.500   4.478   2.817
  666SOL     OW 2896   3.072   1.336   6.997
  666SOL    HW1 2897   3.131   1.398   6.945
  666SOL    HW2 2898   3.064   1.249   6.949
  667SOL     OW 2899   1.316   3.182   2.172
  667SOL    HW1 2900   1.269   3.206   2.088
  667SOL    HW2 2901   1.284   3.093   2.205
  668SOL     OW 2902   5.097   0.131   0.826
  668SOL    HW1 2903   5.146   0.114   0.740
  668SOL    HW2 2904   5.021   0.193   0.809
  669SOL     OW 2905   0.536   5.424   2.839
  669SOL    HW1 2906   0.504   5.469   2.922
  669SOL    HW2 2907   0.515   5.481   2.760
  670SOL     OW 2908   4.046   3.710   2.974
  670SOL    HW1 2909   4.059   3.790   2.915
  670SOL    HW2 2910   4.058   3.738   3.070
  671SOL     OW 2911   1.817   0.809   6.419
  671SOL    HW1 2912   1.860   0.873   6.355
  671SOL    HW2 2913   1.863   0.815   6.508
  672SOL     OW 2914   1.467   2.269   2.867
  672SOL    HW1 2915   1.429   2.255   2.958
  672SOL    HW2 2916   1.486   2.366   2.853
  673SOL     OW 2917   4.744   0.250   6.836
  673SOL    HW1 2918   4.841   0.267   6.818
  673SOL    HW2 2919   4.710   0.317   6.902
  674SOL     OW 2920   0.298   2.396   4.673
  674SOL    HW1 2921   0.227   2.430   4.734
  674SOL    HW2 2922   0.302   2.454   4.591
  675SOL     OW 2923   6.310   6.294   3.775
  675SOL    HW1 2924   6.252   6.280   3.855
  675SOL    HW2 2925   6.296   6.385   3.738
  676SOL     OW 2926   2.832   5.577   4.534
  676SOL    HW1 2927   2.832   5.645   4.608
  676SOL    HW2 2928   2.757   5.512   4.548
  677SOL     OW 2929   4.183   6.533   0.402
  677SOL    HW1 2930   4.150   6.625   0.423
  677SOL    HW2 2931   4.232   6.497   0.482
  678SOL     OW 2932   2.264   1.302   5.377
  678SOL    HW1 2933   2.209   1.231   5.423
  678SOL    HW2 2934   2.347   1.318   5.430
  679SOL     OW 2935   6.298   0.398   2.050
  679SOL    HW1 2936   6.302   0.354   2.140
  679SOL    HW2 2937   6.364   0.473   2.047
  680SOL     OW 2938   5.498   4.043   4.341
  680SOL    HW1 2939   5.466   3.993   4.261
  680SOL    HW2 2940   5.423   4.053   4.406
  681SOL     OW 2941   0.961   6.723   1.834
  681SOL    HW1 2942   1.040   6.784   1.825
  681SOL    HW2 2943   0.969   6.671   1.919
  682SOL     OW 2944   0.280   0.212   6.055
  682SOL    HW1 2945   0.308   0.268   6.133
  682SOL    HW2 2946   0.180   0.217   6.045
  683SOL     OW 2947   4.768   1.276   1.358
  683SOL    HW1 2948   4.828   1.242   1.285
  683SOL    HW2 2949   4.781   1.374   1.370
  684SOL     OW 2950   7.023   6.057   6.299
  684SOL    HW1 2951   0.079   6.012   6.338
  684SOL    HW2 2952   6.953   6.069   6.370
  685SOL     OW 2953   6.466   0.845   6.558
  685SOL    HW1 2954   6.392   0.876   6.618
  685SOL    HW2 2955   6.487   0.750   6.578
  686SOL     OW 2956   5.401   5.068   2.529
  686SOL    HW1 2957   5.407   5.004   2.452
  686SOL    HW2 2958   5.439   5.156   2.502
  687SOL     OW 2959   5.580   1.944   5.506
  687SOL    HW1 2960   5.597   2.040   5.487
  687SOL    HW2 2961   5.484   1.923   5.488
  688SOL     OW 2962   6.416   3.603   4.920
  688SOL    HW1 2963   6.331   3.550   4.910
  688SOL    HW2 2964   6.406   3.666   4.997
  689SOL     OW 2965   5.937   4.251   4.291
  689SOL    HW1 2966   5.859   4.267   4.352
  689SOL    HW2 2967   6.022   4.261   4.343
  690SOL     OW 2968   0.152   3.273   4.049
  690SOL    HW1 2969   0.130   3.360   4.006
  690SOL    HW2 2970   0.194   3.212   3.982
  691SOL     OW 2971   0.184   3.177   6.422
  691SOL    HW1 2972   0.122   3.122   6.367
  691SOL    HW2 2973   0.145   3.192   6.513
  692SOL     OW 2974   2.402   0.139   3.255
  692SOL    HW1 2975   2.377   0.213   3.316
  692SOL    HW2 2976   2.377   0.163   3.161
  693SOL     OW 2977   6.546   1.421   2.820
  693SOL    HW1 2978   6.508   1.488   2.882
  693SOL    HW2 2979   6.472   1.367   2.778
  694SOL     OW 2980   1.494   0.457   2.038
  694SOL    HW1 2981   1.477   0.429   2.133
  694SOL    HW2 2982   1.507   0.556   2.035
  695SOL     OW 2983   4.703   5.521   6.738
  695SOL    HW1 2984   4.693   5.507   6.640
  695SOL    HW2 2985   4.687   5.617   6.760
  696SOL     OW 2986   5.119   6.468   2.393
  696SOL    HW1 2987   5.136   6.540   2.461
  696SOL    HW2 2988   5.068   6.506   2.316
  697SOL     OW 2989   1.475   3.785   3.911
  697SOL    HW1 2990   1.538   3.742   3.975
  697SOL    HW2 2991   1.527   3.822   3.833
  698SOL     OW 2992   5.141   5.687   4.119
  698SOL    HW1 2993   5.093   5.600   4.110
  698SOL    HW2 2994   5.171   5.698   4.214
  699SOL     OW 2995   1.102   4.376   6.204
  699SOL    HW1 2996   1.059   4.437   6.270
  699SOL    HW2 2997   1.052   4.290   6.199
  700SOL     OW 2998   1.913   1.766   4.637
  700SOL    HW1 2999   1.885   1.687   4.582
  700SOL    HW2 3000   1.965   1.829   4.580
  701SOL     OW 3001   0.802   4.637   5.560
  701SOL    HW1 3002   0.785   4.539   5.553
  701SOL    HW2 3003   0.778   4.669   5.651
  702SOL     OW 3004   5.334   5.878   5.167
  702SOL    HW1 3005   5.374   5.835   5.249
  702SOL    HW2 3006   5.246   5.920   5.192
  703SOL     OW 3007   4.910   4.359   6.195
  703SOL    HW1 3008   4.826   4.383   6.243
  703SOL    HW2 3009   4.989   4.386   6.250
  704SOL     OW 3010   2.335   6.979   1.726
  704SOL    HW1 3011   2.242   6.950   1.703
  704SOL    HW2 3012   2.358   0.038   1.675
  705SOL     OW 3013   0.402   1.876   3.709
  705SOL    HW1 3014   0.463   1.914   3.778
  705SOL    HW2 3015   0.321   1.934   3.701
  706SOL     OW 3016   4.879   3.057   3.650
  706SOL    HW1 3017   4.873   3.095   3.742
  706SOL    HW2 3018   4.911   3.127   3.587
  707SOL     OW 3019   4.711   2.263   2.627
  707SOL    HW1 3020   4.630   2.262   2.569
  707SOL    HW2 3021   4.780   2.323   2.586
  708SOL     OW 3022   4.087   0.692   2.666
  708SOL    HW1 3023   4.018   0.627   2.696
  708SOL    HW2 3024   4.155   0.645   2.610
  709SOL     OW 3025   0.818   5.324   6.989
  709SOL    HW1 3026   0.739   5.295   0.019
  709SOL    HW2 3027   0.804   5.299   6.893
  710SOL     OW 3028   3.608   3.747   3.017
  710SOL    HW1 3029   3.576   3.827   2.968
  710SOL    HW2 3030   3.688   3.771   3.073
  711SOL     OW 3031   0.589   0.718   5.208
  711SOL    HW1 3032   0.527   0.781   5.160
  711SOL    HW2 3033   0.616   0.645   5.146
  712SOL     OW 3034   0.951   3.599   2.341
  712SOL    HW1 3035   1.001   3.627   2.423
  712SOL    HW2 3036   0.876   3.663   2.324
  713SOL     OW 3037   2.973   3.750   4.273
  713SOL    HW1 3038   2.982   3.819   4.345
  713SOL    HW2 3039   2.877   3.731   4.257
  714SOL     OW 3040   4.985   4.541   5.124
  714SOL    HW1 3041   4.983   4.636   5.091
  714SOL    HW2 3042   4.942   4.535   5.213
  715SOL     OW 3043   5.874   0.131   6.074
  715SOL    HW1 3044   5.805   0.143   6.145
  715SOL    HW2 3045   5.870   0.207   6.010
  716SOL     OW 3046   6.740   5.140   1.520
  716SOL    HW1 3047   6.757   5.041   1.519
  716SOL    HW2 3048   6.645   5.157   1.492
  717SOL     OW 3049   6.457   3.025   6.073
  717SOL    HW1 3050   6.504   2.993   6.155
  717SOL    HW2 3051   6.495   3.112   6.044
  718SOL     OW 3052   2.469   3.116   6.808
  718SOL    HW1 3053   2.455   3.106   6.710
  718SOL    HW2 3054   2.552   3.067   6.835
  719SOL     OW 3055   5.138   5.098   0.455
  719SOL    HW1 3056   5.188   5.013   0.472
  719SOL    HW2 3057   5.067   5.109   0.525
  720SOL     OW 3058   3.450   1.018   6.073
  720SOL    HW1 3059   3.416   0.968   6.152
  720SOL    HW2 3060   3.510   1.092   6.105
  721SOL     OW 3061   1.380   6.626   5.553
  721SOL    HW1 3062   1.409   6.655   5.462
  721SOL    HW2 3063   1.392   6.702   5.617
  722SOL     OW 3064   4.219   6.619   5.199
  722SOL    HW1 3065   4.208   6.520   5.196
  722SOL    HW2 3066   4.316   6.641   5.210
  723SOL     OW 3067   1.537   3.372   1.864
  723SOL    HW1 3068   1.547   3.311   1.785
  723SOL    HW2 3069   1.457   3.431   1.850
  724SOL     OW 3070   6.790   1.101   4.882
  724SOL    HW1 3071   6.852   1.059   4.948
  724SOL    HW2 3072   6.708   1.135   4.928
  725SOL     OW 3073   2.504   5.062   1.750
  725SOL    HW1 3074   2.458   5.119   1.682
  725SOL    HW2 3075   2.452   5.063   1.835
  726SOL     OW 3076   4.852   6.601   5.491
  726SOL    HW1 3077   4.943   6.577   5.525
  726SOL    HW2 3078   4.859   6.677   5.427
  727SOL     OW 3079   2.084   4.214   3.957
  727SOL    HW1 3080   2.134   4.136   3.996
  727SOL    HW2 3081   1.996   4.184   3.922
  728SOL     OW 3082   0.004   3.474   5.598
  728SOL    HW1 3083   0.098   3.456   5.568
  728SOL    HW2 3084   6.974   3.506   5.520
  729SOL     OW 3085   3.470   1.336   0.707
  729SOL    HW1 3086   3.477   1.432   0.732
  729SOL    HW2 3087   3.407   1.326   0.630
  730SOL     OW 3088   5.408   1.176   4.770
  730SOL    HW1 3089   5.320   1.184   4.725
  730SOL    HW2 3090   5.461   1.103   4.726
  731SOL     OW 3091   6.798   2.398   4.182
  731SOL    HW1 3092   6.763   2.423   4.092
  731SOL    HW2 3093   6.845   2.476   4.224
  732SOL     OW 3094   0.208   3.491   3.502
  732SOL    HW1 3095   0.256   3.572   3.468
  732SOL    HW2 3096   0.275   3.419   3.524
  733SOL     OW 3097   4.519   5.213   4.695
  733SOL    HW1 3098   4.485   5.248   4.783
  733SOL    HW2 3099   4.575   5.283   4.651
  734SOL     OW 3100   0.605   5.900   6.711
  734SOL    HW1 3101   0.563   5.873   6.798
  734SOL    HW2 3102   0.637   5.819   6.662
  735SOL     OW 3103   3.215   4.519   0.155
  735SOL    HW1 3104   3.209   4.593   0.222
  735SOL    HW2 3105   3.165   4.545   0.072
  736SOL     OW 3106   5.640   0.735   2.782
  736SOL    HW1 3107   5.665   0.638   2.790
  736SOL    HW2 3108   5.713   0.791   2.821
  737SOL     OW 3109   5.471   4.113   0.516
  737SOL    HW1 3110   5.379   4.140   0.488
  737SOL    HW2 3111   5.469   4.086   0.613
  738SOL     OW 3112   0.658   4.539   2.678
  738SOL    HW1 3113   0.571   4.511   2.638
  738SOL    HW2 3114   0.722   4.563   2.605
  739SOL     OW 3115   4.718   6.371   6.315
  739SOL    HW1 3116   4.672   6.326   6.238
  739SOL    HW2 3117   4.796   6.316   6.344
  740SOL     OW 3118   5.087   0.123   0.138
  740SOL    HW1 3119   5.182   0.154   0.138
  740SOL    HW2 3120   5.037   0.169   0.212
  741SOL     OW 3121   3.096   0.407   3.962
  741SOL    HW1 3122   3.144   0.324   3.932
  741SOL    HW2 3123   3.146   0.450   4.037
  742SOL     OW 3124   0.961   6.532   2.025
  742SOL    HW1 3125   1.027   6.473   1.977
  742SOL    HW2 3126   0.912   6.478   2.093
  743SOL     OW 3127   1.564   3.145   4.130
  743SOL    HW1 3128   1.588   3.174   4.038
  743SOL    HW2 3129   1.465   3.131   4.137
  744SOL     OW 3130   6.938   4.950   0.641
  744SOL    HW1 3131   7.022   4.996   0.611
  744SOL    HW2 3132   6.935   4.947   0.741
  745SOL     OW 3133   1.684   5.801   3.475
  745SOL    HW1 3134   1.609   5.867   3.466
  745SOL    HW2 3135   1.753   5.838   3.537
  746SOL     OW 3136   3.057   0.388   3.656
  746SOL    HW1 3137   3.014   0.436   3.579
  746SOL    HW2 3138   3.005   0.407   3.740
  747SOL     OW 3139   6.500   3.589   0.837
  747SOL    HW1 3140   6.557   3.530   0.780
  747SOL    HW2 3141   6.553   3.671   0.862
  748SOL     OW 3142   3.710   2.893   2.697
  748SOL    HW1 3143   3.619   2.887   2.657
  748SOL    HW2 3144   3.773   2.932   2.630
  749SOL     OW 3145   6.403   2.763   5.162
  749SOL    HW1 3146   6.377   2.761   5.065
  749SOL    HW2 3147   6.406   2.670   5.198
  750SOL     OW 3148   3.154   3.262   1.856
  750SOL    HW1 3149   3.199   3.294   1.772
  750SOL    HW2 3150   3.222   3.256   1.929
  751SOL     OW 3151   5.335   1.538   0.733
  751SOL    HW1 3152   5.385   1.612   0.777
  751SOL    HW2 3153   5.390   1.454   0.736
  752SOL     OW 3154   4.490   0.802   1.830
  752SOL    HW1 3155   4.549   0.827   1.753
  752SOL    HW2 3156   4.475   0.704   1.830
  753SOL     OW 3157   3.035   1.097   3.006
  753SOL    HW1 3158   3.109   1.115   3.070
  753SOL    HW2 3159   2.949   1.088   3.056
  754SOL     OW 3160   5.297   5.624   0.462
  754SOL    HW1 3161   5.259   5.535   0.435
  754SOL    HW2 3162   5.268   5.693   0.396
  755SOL     OW 3163   6.501   5.751   2.883
  755SOL    HW1 3164   6.594   5.721   2.905
  755SOL    HW2 3165   6.436   5.706   2.944
  756SOL     OW 3166   3.534   6.236   3.915
  756SOL    HW1 3167   3.445   6.272   3.943
  756SOL    HW2 3168   3.523   6.182   3.832
  757SOL     OW 3169   6.472   1.346   4.100
  757SOL    HW1 3170   6.545   1.287   4.067
  757SOL    HW2 3171   6.388   1.293   4.111
  758SOL     OW 3172   4.580   2.168   1.327
  758SOL    HW1 3173   4.505   2.174   1.261
  758SOL    HW2 3174   4.658   2.122   1.285
  759SOL     OW 3175   1.865   0.787   1.075
  759SOL    HW1 3176   1.884   0.703   1.024
  759SOL    HW2 3177   1.785   0.832   1.037
  760SOL     OW 3178   4.535   2.139   5.750
  760SOL    HW1 3179   4.564   2.072   5.682
  760SOL    HW2 3180   4.508   2.092   5.834
  761SOL     OW 3181   5.436   1.449   6.771
  761SOL    HW1 3182   5.530   1.482   6.769
  761SOL    HW2 3183   5.394   1.473   6.859
  762SOL     OW 3184   2.004   5.004   4.521
  762SOL    HW1 3185   1.962   4.961   4.441
  762SOL    HW2 3186   1.976   4.955   4.603
  763SOL     OW 3187   5.855   5.434   6.967
  763SOL    HW1 3188   5.833   5.436   6.870
  763SOL    HW2 3189   5.940   5.483   6.983
  764SOL     OW 3190   5.156   0.847   2.649
  764SOL    HW1 3191   5.204   0.888   2.572
  764SOL    HW2 3192   5.221   0.826   2.722
  765SOL     OW 3193   6.986   6.832   3.183
  765SOL    HW1 3194   6.989   6.845   3.084
  765SOL    HW2 3195   0.022   6.898   3.228
  766SOL     OW 3196   0.070   6.673   0.271
  766SOL    HW1 3197   0.138   6.653   0.342
  766SOL    HW2 3198   0.099   6.753   0.219
  767SOL     OW 3199   6.145   6.495   1.253
  767SOL    HW1 3200   6.060   6.443   1.247
  767SOL    HW2 3201   6.223   6.433   1.253
  768SOL     OW 3202   3.261   6.556   3.877
  768SOL    HW1 3203   3.330   6.509   3.823
  768SOL    HW2 3204   3.221   6.493   3.944
  769SOL     OW 3205   3.242   0.876   0.079
  769SOL    HW1 3206   3.272   0.949   0.018
  769SOL    HW2 3207   3.225   0.793   0.026
  770SOL     OW 3208   3.086   4.878   3.852
  770SOL    HW1 3209   3.182   4.875   3.823
  770SOL    HW2 3210   3.079   4.924   3.940
  771SOL     OW 3211   0.778   5.614   4.612
  771SOL    HW1 3212   0.745   5.599   4.519
  771SOL    HW2 3213   0.859   5.558   4.629
  772SOL     OW 3214   6.979   4.530   5.367
  772SOL    HW1 3215   6.906   4.481   5.320
  772SOL    HW2 3216   6.988   4.622   5.330
  773SOL     OW 3217   0.090   3.409   1.920
  773SOL    HW1 3218   0.067   3.312   1.920
  773SOL    HW2 3219   0.036   3.456   1.990
  774SOL     OW 3220   1.336   1.191   1.582
  774SOL    HW1 3221   1.365   1.144   1.666
  774SOL    HW2 3222   1.392   1.160   1.505
  775SOL     OW 3223   1.186   2.618   4.353
  775SOL    HW1 3224   1.159   2.528   4.319
  775SOL    HW2 3225   1.230   2.608   4.442
  776SOL     OW 3226   2.371   0.032   5.663
  776SOL    HW1 3227   2.363   0.114   5.720
  776SOL    HW2 3228   2.290   6.999   5.675
  777SOL     OW 3229   4.449   0.246   0.219
  777SOL    HW1 3230   4.388   0.266   0.142
  777SOL    HW2 3231   4.404   0.182   0.282
  778SOL     OW 3232   4.165   5.663   5.139
  778SOL    HW1 3233   4.247   5.673   5.196
  778SOL    HW2 3234   4.122   5.752   5.126
  779SOL     OW 3235   1.237   0.201   3.152
  779SOL    HW1 3236   1.253   0.232   3.058
  779SOL    HW2 3237   1.215   0.103   3.151
  780SOL     OW 3238   5.107   3.287   4.969
  780SOL    HW1 3239   5.162   3.303   5.051
  780SOL    HW2 3240   5.150   3.215   4.914
  781SOL     OW 3241   0.948   2.413   6.492
  781SOL    HW1 3242   0.857   2.373   6.480
  781SOL    HW2 3243   1.015   2.356   6.443
  782SOL     OW 3244   0.416   4.372   0.318
  782SOL    HW1 3245   0.495   4.314   0.338
  782SOL    HW2 3246   0.443   4.468   0.323
  783SOL     OW 3247   2.404   4.518   0.257
  783SOL    HW1 3248   2.456   4.552   0.335
  783SOL    HW2 3249   2.446   4.434   0.222
  784SOL     OW 3250   5.007   5.323   3.849
  784SOL    HW1 3251   5.063   5.406   3.848
  784SOL    HW2 3252   4.921   5.341   3.802
  785SOL     OW 3253   6.257   2.062   4.002
  785SOL    HW1 3254   6.164   2.026   3.997
  785SOL    HW2 3255   6.323   1.988   3.989
  786SOL     OW 3256   6.310   6.792   0.329
  786SOL    HW1 3257   6.390   6.849   0.311
  786SOL    HW2 3258   6.239   6.848   0.372
  787SOL     OW 3259   4.512   1.193   6.873
  787SOL    HW1 3260   4.513   1.287   6.907
  787SOL    HW2 3261   4.437   1.143   6.917
  788SOL     OW 3262   0.660   4.576   2.978
  788SOL    HW1 3263   0.662   4.566   2.878
  788SOL    HW2 3264   0.568   4.600   3.007
  789SOL     OW 3265   5.613   3.130   1.247
  789SOL    HW1 3266   5.692   3.082   1.286
  789SOL    HW2 3267   5.560   3.066   1.191
  790SOL     OW 3268   3.510   0.351   4.125
  790SOL    HW1 3269   3.572   0.399   4.187
  790SOL    HW2 3270   3.513   0.395   4.035
  791SOL     OW 3271   3.655   1.655   4.769
  791SOL    HW1 3272   3.663   1.558   4.794
  791SOL    HW2 3273   3.604   1.703   4.840
  792SOL     OW 3274   5.126   0.398   3.639
  792SOL    HW1 3275   5.199   0.358   3.584
  792SOL    HW2 3276   5.044   0.343   3.631
  793SOL     OW 3277   0.180   0.165   6.743
  793SOL    HW1 3278   0.165   0.098   6.670
  793SOL    HW2 3279   0.216   0.118   6.824
  794SOL     OW 3280   3.852   4.965   4.675
  794SOL    HW1 3281   3.811   5.051   4.643
  794SOL    HW2 3282   3.787   4.917   4.733
  795SOL     OW 3283   4.962   5.117   6.700
  795SOL    HW1 3284   4.992   5.164   6.617
  795SOL    HW2 3285   4.944   5.183   6.772
  796SOL     OW 3286   0.257   1.725   5.691
  796SOL    HW1 3287   0.253   1.635   5.734
  796SOL    HW2 3288   0.316   1.720   5.610
  797SOL     OW 3289   6.137   2.846   5.233
  797SOL    HW1 3290   6.227   2.802   5.234
  797SOL    HW2 3291   6.135   2.919   5.301
  798SOL     OW 3292   6.581   0.608   5.126
  798SOL    HW1 3293   6.526   0.561   5.058
  798SOL    HW2 3294   6.522   0.658   5.190
  799SOL     OW 3295   6.669   3.328   3.599
  799SOL    HW1 3296   6.651   3.262   3.672
  799SOL    HW2 3297   6.586   3.340   3.544
  800SOL     OW 3298   6.822   1.656   1.943
  800SOL    HW1 3299   6.856   1.590   1.876
  800SOL    HW2 3300   6.740   1.700   1.907
  801SOL     OW 3301   0.629   2.279   3.483
  801SOL    HW1 3302   0.583   2.368   3.490
  801SOL    HW2 3303   0.706   2.287   3.419
  802SOL     OW 3304   5.995   1.534   1.140
  802SOL    HW1 3305   5.994   1.620   1.088
  802SOL    HW2 3306   5.971   1.553   1.236
  803SOL     OW 3307   1.403   0.248   4.798
  803SOL    HW1 3308   1.351   0.164   4.804
  803SOL    HW2 3309   1.474   0.249   4.869
  804SOL     OW 3310   6.532   6.660   0.738
  804SOL    HW1 3311   6.620   6.698   0.765
  804SOL    HW2 3312   6.466   6.734   0.726
  805SOL     OW 3313   1.354   2.870   5.313
  805SOL    HW1 3314   1.321   2.907   5.226
  805SOL    HW2 3315   1.419   2.935   5.355
  806SOL     OW 3316   4.806   0.262   0.503
  806SOL    HW1 3317   4.716   0.225   0.528
  806SOL    HW2 3318   4.793   0.340   0.441
  807SOL     OW 3319   1.310   6.766   2.910
  807SOL    HW1 3320   1.215   6.797   2.906
  807SOL    HW2 3321   1.371   6.845   2.905
  808SOL     OW 3322   6.205   3.663   5.225
  808SOL    HW1 3323   6.118   3.661   5.177
  808SOL    HW2 3324   6.194   3.709   5.313
  809SOL     OW 3325   0.641   5.625   5.999
  809SOL    HW1 3326   0.700   5.544   6.006
  809SOL    HW2 3327   0.568   5.608   5.934
  810SOL     OW 3328   6.527   4.867   6.226
  810SOL    HW1 3329   6.557   4.930   6.154
  810SOL    HW2 3330   6.509   4.918   6.310
  811SOL     OW 3331   4.206   5.432   3.299
  811SOL    HW1 3332   4.159   5.518   3.281
  811SOL    HW2 3333   4.141   5.356   3.292
  812SOL     OW 3334   0.311   0.386   2.166
  812SOL    HW1 3335   0.346   0.421   2.253
  812SOL    HW2 3336   0.211   0.398   2.164
  813SOL     OW 3337   5.818   5.687   2.195
  813SOL    HW1 3338   5.892   5.634   2.237
  813SOL    HW2 3339   5.731   5.640   2.211
  814SOL     OW 3340   5.361   5.577   1.492
  814SOL    HW1 3341   5.376   5.524   1.576
  814SOL    HW2 3342   5.288   5.535   1.438
  815SOL     OW 3343   0.515   1.213   0.395
  815SOL    HW1 3344   0.578   1.288   0.415
  815SOL    HW2 3345   0.421   1.246   0.403
  816SOL     OW 3346   5.661   0.273   1.143
  816SOL    HW1 3347   5.589   0.213   1.177
  816SOL    HW2 3348   5.646   0.366   1.176
  817SOL     OW 3349   0.789   2.084   1.519
  817SOL    HW1 3350   0.715   2.061   1.583
  817SOL    HW2 3351   0.873   2.100   1.570
  818SOL     OW 3352   5.890   1.318   2.450
  818SOL    HW1 3353   5.968   1.379   2.464
  818SOL    HW2 3354   5.911   1.253   2.377
  819SOL     OW 3355   0.349   5.236   2.184
  819SOL    HW1 3356   0.412   5.176   2.231
  819SOL    HW2 3357   0.308   5.300   2.249
  820SOL     OW 3358   1.543   3.105   4.544
  820SOL    HW1 3359   1.485   3.024   4.559
  820SOL    HW2 3360   1.509   3.156   4.465
  821SOL     OW 3361   1.232   4.045   0.235
  821SOL    HW1 3362   1.145   4.094   0.230
  821SOL    HW2 3363   1.218   3.958   0.283
  822SOL     OW 3364   1.390   3.574   4.753
  822SOL    HW1 3365   1.361   3.478   4.753
  822SOL    HW2 3366   1.487   3.580   4.730
  823SOL     OW 3367   3.445   3.618   1.528
  823SOL    HW1 3368   3.379   3.638   1.601
  823SOL    HW2 3369   3.520   3.684   1.532
  824SOL     OW 3370   6.010   2.487   5.823
  824SOL    HW1 3371   5.924   2.437   5.826
  824SOL    HW2 3372   5.991   2.585   5.818
  825SOL     OW 3373   1.160   3.735   1.820
  825SOL    HW1 3374   1.087   3.724   1.752
  825SOL    HW2 3375   1.184   3.832   1.829
  826SOL     OW 3376   1.203   4.037   5.398
  826SOL    HW1 3377   1.190   4.036   5.497
  826SOL    HW2 3378   1.124   4.081   5.355
  827SOL     OW 3379   3.577   5.130   0.646
  827SOL    HW1 3380   3.600   5.105   0.740
  827SOL    HW2 3381   3.514   5.208   0.646
  828SOL     OW 3382   6.546   0.399   5.789
  828SOL    HW1 3383   6.573   0.317   5.737
  828SOL    HW2 3384   6.564   0.480   5.734
  829SOL     OW 3385   3.556   3.076   4.827
  829SOL    HW1 3386   3.469   3.125   4.834
  829SOL    HW2 3387   3.555   3.018   4.745
  830SOL     OW 3388   4.392   3.553   6.069
  830SOL    HW1 3389   4.327   3.568   5.995
  830SOL    HW2 3390   4.442   3.637   6.088
  831SOL     OW 3391   6.036   0.024   4.543
  831SOL    HW1 3392   6.011   0.040   4.638
  831SOL    HW2 3393   5.970   0.068   4.483
  832SOL     OW 3394   2.311   1.892   5.692
  832SOL    HW1 3395   2.400   1.889   5.647
  832SOL    HW2 3396   2.244   1.842   5.637
  833SOL     OW 3397   0.921   0.398   5.430
  833SOL    HW1 3398   0.833   0.352   5.435
  833SOL    HW2 3399   0.993   0.332   5.411
  834SOL     OW 3400   3.578   4.400   5.997
  834SOL    HW1 3401   3.511   4.327   6.011
  834SOL    HW2 3402   3.566   4.471   6.066
  835SOL     OW 3403   4.840   0.909   3.383
  835SOL    HW1 3404   4.931   0.870   3.378
  835SOL    HW2 3405   4.772   0.837   3.368
  836SOL     OW 3406   2.487   0.603   6.811
  836SOL    HW1 3407   2.449   0.592   6.902
  836SOL    HW2 3408   2.553   0.679   6.812
  837SOL     OW 3409   4.210   1.599   4.817
  837SOL    HW1 3410   4.132   1.591   4.879
  837SOL    HW2 3411   4.245   1.508   4.794
  838SOL     OW 3412   0.715   5.735   2.445
  838SOL    HW1 3413   0.758   5.745   2.355
  838SOL    HW2 3414   0.765   5.790   2.512
  839SOL     OW 3415   3.315   1.330   1.725
  839SOL    HW1 3416   3.319   1.396   1.800
  839SOL    HW2 3417   3.225   1.287   1.725
  840SOL     OW 3418   0.645   1.351   5.635
  840SOL    HW1 3419   0.692   1.267   5.608
  840SOL    HW2 3420   0.633   1.352   5.735
  841SOL     OW 3421   0.363   3.275   0.703
  841SOL    HW1 3422   0.431   3.241   0.638
  841SOL    HW2 3423   0.409   3.309   0.784
  842SOL     OW 3424   3.352   5.224   3.712
  842SOL    HW1 3425   3.259   5.258   3.697
  842SOL    HW2 3426   3.392   5.270   3.792
  843SOL     OW 3427   0.021   4.006   2.123
  843SOL    HW1 3428   0.046   4.066   2.199
  843SOL    HW2 3429   0.018   4.059   2.038
  844SOL     OW 3430   5.592   5.320   6.854
  844SOL    HW1 3431   5.660   5.252   6.880
  844SOL    HW2 3432   5.526   5.331   6.928
  845SOL     OW 3433   1.644   5.294   5.076
  845SOL    HW1 3434   1.545   5.300   5.072
  845SOL    HW2 3435   1.674   5.307   5.171
  846SOL     OW 3436   4.736   3.033   6.861
  846SOL    HW1 3437   4.710   3.104   6.926
  846SOL    HW2 3438   4.808   3.068   6.801
  847SOL     OW 3439   5.298   3.944   2.028
  847SOL    HW1 3440   5.339   4.034   2.012
  847SOL    HW2 3441   5.369   3.874   2.025
  848SOL     OW 3442   6.213   0.258   5.180
  848SOL    HW1 3443   6.307   0.248   5.212
  848SOL    HW2 3444   6.196   0.353   5.155
  849SOL     OW 3445   1.179   5.954   3.991
  849SOL    HW1 3446   1.169   5.961   4.091
  849SOL    HW2 3447   1.109   5.894   3.954
  850SOL     OW 3448   4.043   0.380   3.669
  850SOL    HW1 3449   4.080   0.472   3.656
  850SOL    HW2 3450   3.958   0.385   3.721
  851SOL     OW 3451   0.047   0.789   5.460
  851SOL    HW1 3452   7.003   0.849   5.416
  851SOL    HW2 3453   0.118   0.764   5.393
  852SOL     OW 3454   2.959   4.258   5.533
  852SOL    HW1 3455   2.910   4.344   5.547
  852SOL    HW2 3456   3.024   4.245   5.607
  853SOL     OW 3457   1.125   3.796   0.471
  853SOL    HW1 3458   1.153   3.883   0.510
  853SOL    HW2 3459   1.040   3.766   0.513
  854SOL     OW 3460   6.433   4.848   1.496
  854SOL    HW1 3461   6.490   4.768   1.514
  854SOL    HW2 3462   6.446   4.876   1.401
  855SOL     OW 3463   5.174   0.748   0.510
  855SOL    HW1 3464   5.181   0.706   0.420
  855SOL    HW2 3465   5.209   0.842   0.507
  856SOL     OW 3466   1.239   0.694   4.623
  856SOL    HW1 3467   1.178   0.647   4.559
  856SOL    HW2 3468   1.295   0.626   4.671
  857SOL     OW 3469   5.929   3.612   1.449
  857SOL    HW1 3470   5.949   3.626   1.546
  857SOL    HW2 3471   5.945   3.516   1.425
  858SOL     OW 3472   3.732   3.484   1.941
  858SOL    HW1 3473   3.695   3.400   1.981
  858SOL    HW2 3474   3.830   3.490   1.962
  859SOL     OW 3475   6.671   4.267   0.966
  859SOL    HW1 3476   6.660   4.246   0.869
  859SOL    HW2 3477   6.742   4.337   0.976
  860SOL     OW 3478   1.656   4.443   7.023
  860SOL    HW1 3479   1.603   4.378   6.967
  860SOL    HW2 3480   1.703   4.393   0.072
  861SOL     OW 3481   3.363   4.178   5.981
  861SOL    HW1 3482   3.330   4.096   5.934
  861SOL    HW2 3483   3.366   4.161   6.080
  862SOL     OW 3484   4.844   4.039   3.318
  862SOL    HW1 3485   4.825   4.033   3.220
  862SOL    HW2 3486   4.783   4.106   3.359
  863SOL     OW 3487   5.981   2.154   0.829
  863SOL    HW1 3488   6.043   2.230   0.849
  863SOL    HW2 3489   5.920   2.141   0.907
  864SOL     OW 3490   6.934   5.018   2.797
  864SOL    HW1 3491   6.878   4.947   2.841
  864SOL    HW2 3492   6.953   5.091   2.863
  865SOL     OW 3493   2.179   0.859   3.785
  865SOL    HW1 3494   2.124   0.919   3.843
  865SOL    HW2 3495   2.268   0.903   3.768
  866SOL     OW 3496   4.604   1.281   0.650
  866SOL    HW1 3497   4.610   1.203   0.712
  866SOL    HW2 3498   4.667   1.268   0.574
  867SOL     OW 3499   2.662   1.683   6.496
  867SOL    HW1 3500   2.726   1.753   6.528
  867SOL    HW2 3501   2.568   1.712   6.516
  868SOL     OW 3502   5.171   2.076   3.261
  868SOL    HW1 3503   5.157   2.000   3.198
  868SOL    HW2 3504   5.236   2.141   3.222
  869SOL     OW 3505   6.628   3.840   1.340
  869SOL    HW1 3506   6.715   3.890   1.339
  869SOL    HW2 3507   6.566   3.883   1.406
  870SOL     OW 3508   6.541   2.512   0.288
  870SOL    HW1 3509   6.555   2.538   0.193
  870SOL    HW2 3510   6.527   2.414   0.294
  871SOL     OW 3511   5.767   3.971   0.862
  871SOL    HW1 3512   5.732   3.924   0.782
  871SOL    HW2 3513   5.811   4.056   0.835
  872SOL     OW 3514   6.920   2.345   1.858
  872SOL    HW1 3515   6.939   2.249   1.875
  872SOL    HW2 3516   6.827   2.367   1.889
  873SOL     OW 3517   3.494   6.581   4.898
  873SOL    HW1 3518   3.491   6.505   4.834
  873SOL    HW2 3519   3.564   6.647   4.869
  874SOL     OW 3520   0.249   4.140   6.906
  874SOL    HW1 3521   0.154   4.167   6.921
  874SOL    HW2 3522   0.290   4.112   6.993
  875SOL     OW 3523   6.020   5.397   6.273
  875SOL    HW1 3524   5.969   5.311   6.279
  875SOL    HW2 3525   5.984   5.453   6.198
  876SOL     OW 3526   1.405   1.924   0.787
  876SOL    HW1 3527   1.392   1.885   0.696
  876SOL    HW2 3528   1.451   1.856   0.846
  877SOL     OW 3529   5.002   5.523   0.293
  877SOL    HW1 3530   4.924   5.522   0.231
  877SOL    HW2 3531   5.064   5.597   0.267
  878SOL     OW 3532   3.662   2.799   1.050
  878SOL    HW1 3533   3.659   2.842   0.959
  878SOL    HW2 3534   3.584   2.736   1.060
  879SOL     OW 3535   4.670   2.411   2.872
  879SOL    HW1 3536   4.739   2.388   2.942
  879SOL    HW2 3537   4.698   2.374   2.784
  880SOL     OW 3538   4.521   5.328   1.692
  880SOL    HW1 3539   4.600   5.310   1.749
  880SOL    HW2 3540   4.526   5.421   1.655
  881SOL     OW 3541   5.118   4.836   3.422
  881SOL    HW1 3542   5.057   4.761   3.397
  881SOL    HW2 3543   5.071   4.923   3.407
  882SOL     OW 3544   0.528   1.990   4.386
  882SOL    HW1 3545   0.436   1.950   4.392
  882SOL    HW2 3546   0.522   2.089   4.394
  883SOL     OW 3547   3.194   4.979   0.307
  883SOL    HW1 3548   3.133   4.993   0.229
  883SOL    HW2 3549   3.288   4.996   0.279
  884SOL     OW 3550   3.940   3.964   1.770
  884SOL    HW1 3551   3.873   3.939   1.840
  884SOL    HW2 3552   3.898   4.027   1.705
  885SOL     OW 3553   4.668   6.476   5.330
  885SOL    HW1 3554   4.726   6.495   5.409
  885SOL    HW2 3555   4.721   6.428   5.259
  886SOL     OW 3556   4.012   2.175   6.453
  886SOL    HW1 3557   3.992   2.099   6.390
  886SOL    HW2 3558   3.988   2.147   6.546
  887SOL     OW 3559   5.713   6.044   5.133
  887SOL    HW1 3560   5.720   5.964   5.193
  887SOL    HW2 3561   5.617   6.059   5.108
  888SOL     OW 3562   6.340   0.283   3.453
  888SOL    HW1 3563   6.393   0.199   3.460
  888SOL    HW2 3564   6.366   0.345   3.526
  889SOL     OW 3565   0.885   0.083   4.536
  889SOL    HW1 3566   0.913   0.080   4.632
  889SOL    HW2 3567   0.798   0.035   4.525
  890SOL     OW 3568   1.734   4.208   1.821
  890SOL    HW1 3569   1.744   4.306   1.799
  890SOL    HW2 3570   1.814   4.159   1.786
  891SOL     OW 3571   5.564   3.653   6.503
  891SOL    HW1 3572   5.564   3.559   6.469
  891SOL    HW2 3573   5.507   3.710   6.444
  892SOL     OW 3574   2.307   5.245   1.918
  892SOL    HW1 3575   2.337   5.207   2.006
  892SOL    HW2 3576   2.373   5.314   1.887
  893SOL     OW 3577   1.942   6.995   2.061
  893SOL    HW1 3578   1.935   0.067   2.032
  893SOL    HW2 3579   2.022   6.985   2.120
  894SOL     OW 3580   1.390   5.646   4.220
  894SOL    HW1 3581   1.407   5.727   4.164
  894SOL    HW2 3582   1.460   5.577   4.202
  895SOL     OW 3583   2.505   0.875   4.456
  895SOL    HW1 3584   2.450   0.888   4.538
  895SOL    HW2 3585   2.599   0.854   4.482
  896SOL     OW 3586   5.202   6.758   3.971
  896SOL    HW1 3587   5.138   6.769   3.894
  896SOL    HW2 3588   5.231   6.848   4.002
  897SOL     OW 3589   5.243   1.452   6.064
  897SOL    HW1 3590   5.202   1.477   6.152
  897SOL    HW2 3591   5.177   1.398   6.010
  898SOL     OW 3592   5.689   6.698   3.828
  898SOL    HW1 3593   5.605   6.648   3.850
  898SOL    HW2 3594   5.666   6.787   3.788
  899SOL     OW 3595   1.238   4.472   6.884
  899SOL    HW1 3596   1.149   4.433   6.863
  899SOL    HW2 3597   1.294   4.473   6.801
  900SOL     OW 3598   0.553   5.590   3.440
  900SOL    HW1 3599   0.459   5.581   3.473
  900SOL    HW2 3600   0.604   5.507   3.463
  901SOL     OW 3601   5.629   1.988   3.802
  901SOL    HW1 3602   5.575   1.920   3.752
  901SOL    HW2 3603   5.576   2.021   3.880
  902SOL     OW 3604   0.966   6.830   0.352
  902SOL    HW1 3605   0.948   6.919   0.393
  902SOL    HW2 3606   1.045   6.789   0.397
  903SOL     OW 3607   0.756   4.981   6.613
  903SOL    HW1 3608   0.825   4.908   6.607
  903SOL    HW2 3609   0.701   4.983   6.530
  904SOL     OW 3610   1.949   1.168   4.197
  904SOL    HW1 3611   1.892   1.177   4.116
  904SOL    HW2 3612   2.033   1.220   4.185
  905SOL     OW 3613   6.153   2.088   4.366
  905SOL    HW1 3614   6.198   2.135   4.441
  905SOL    HW2 3615   6.064   2.054   4.397
  906SOL     OW 3616   6.427   4.222   5.347
  906SOL    HW1 3617   6.480   4.291   5.298
  906SOL    HW2 3618   6.461   4.213   5.440
  907SOL     OW 3619   0.427   3.170   2.262
  907SOL    HW1 3620   0.505   3.222   2.227
  907SOL    HW2 3621   0.361   3.234   2.302
  908SOL     OW 3622   2.864   1.003   3.488
  908SOL    HW1 3623   2.841   0.981   3.583
  908SOL    HW2 3624   2.887   0.919   3.440
  909SOL     OW 3625   4.267   6.856   1.355
  909SOL    HW1 3626   4.327   6.825   1.429
  909SOL    HW2 3627   4.193   6.790   1.342
  910SOL     OW 3628   1.666   1.089   1.989
  910SOL    HW1 3629   1.669   1.059   1.894
  910SOL    HW2 3630   1.748   1.143   2.009
  911SOL     OW 3631   0.473   3.363   0.924
  911SOL    HW1 3632   0.518   3.451   0.942
  911SOL    HW2 3633   0.521   3.290   0.972
  912SOL     OW 3634   1.490   0.702   6.582
  912SOL    HW1 3635   1.508   0.769   6.653
  912SOL    HW2 3636   1.399   0.662   6.596
  913SOL     OW 3637   2.285   1.161   2.386
  913SOL    HW1 3638   2.198   1.184   2.341
  913SOL    HW2 3639   2.347   1.239   2.378
  914SOL     OW 3640   2.823   6.052   1.884
  914SOL    HW1 3641   2.840   5.968   1.935
  914SOL    HW2 3642   2.736   6.044   1.835
  915SOL     OW 3643   2.005   2.254   0.444
  915SOL    HW1 3644   1.926   2.194   0.439
  915SOL    HW2 3645   2.089   2.200   0.455
  916SOL     OW 3646   1.223   2.907   2.274
  916SOL    HW1 3647   1.133   2.876   2.303
  916SOL    HW2 3648   1.291   2.884   2.344
  917SOL     OW 3649   3.984   1.156   6.366
  917SOL    HW1 3650   4.016   1.106   6.446
  917SOL    HW2 3651   4.000   1.101   6.284
  918SOL     OW 3652   0.310   1.953   4.693
  918SOL    HW1 3653   0.292   1.879   4.759
  918SOL    HW2 3654   0.288   1.921   4.601
  919SOL     OW 3655   1.861   0.382   0.979
  919SOL    HW1 3656   1.896   0.313   0.916
  919SOL    HW2 3657   1.786   0.344   1.033
  920SOL     OW 3658   1.938   1.099   2.660
  920SOL    HW1 3659   1.994   1.086   2.742
  920SOL    HW2 3660   1.967   1.034   2.589
  921SOL     OW 3661   3.835   3.966   0.873
  921SOL    HW1 3662   3.878   3.930   0.956
  921SOL    HW2 3663   3.779   3.894   0.830
  922SOL     OW 3664   2.373   5.703   6.818
  922SOL    HW1 3665   2.405   5.661   6.733
  922SOL    HW2 3666   2.448   5.705   6.885
  923SOL     OW 3667   4.057   1.225   6.826
  923SOL    HW1 3668   3.966   1.226   6.867
  923SOL    HW2 3669   4.098   1.316   6.834
  924SOL     OW 3670   6.263   5.195   2.744
  924SOL    HW1 3671   6.228   5.244   2.824
  924SOL    HW2 3672   6.326   5.123   2.774
  925SOL     OW 3673   6.937   1.643   2.693
  925SOL    HW1 3674   6.873   1.566   2.693
  925SOL    HW2 3675   6.948   1.677   2.599
  926SOL     OW 3676   3.817   5.801   1.233
  926SOL    HW1 3677   3.734   5.745   1.239
  926SOL    HW2 3678   3.799   5.891   1.273
  927SOL     OW 3679   4.659   5.792   4.832
  927SOL    HW1 3680   4.697   5.829   4.747
  927SOL    HW2 3681   4.572   5.837   4.852
  928SOL     OW 3682   0.164   1.763   1.563
  928SOL    HW1 3683   0.184   1.768   1.661
  928SOL    HW2 3684   0.152   1.667   1.536
  929SOL     OW 3685   6.924   2.017   2.157
  929SOL    HW1 3686   6.980   2.098   2.139
  929SOL    HW2 3687   6.956   1.941   2.099
  930SOL     OW 3688   5.937   5.119   2.338
  930SOL    HW1 3689   6.035   5.102   2.356
  930SOL    HW2 3690   5.927   5.169   2.253
  931SOL     OW 3691   1.522   2.866   1.950
  931SOL    HW1 3692   1.597   2.876   2.015
  931SOL    HW2 3693   1.438   2.842   2.000
  932SOL     OW 3694   4.536   6.072   1.394
  932SOL    HW1 3695   4.612   6.040   1.337
  932SOL    HW2 3696   4.481   6.137   1.341
  933SOL     OW 3697   1.344   6.740   3.758
  933SOL    HW1 3698   1.346   6.645   3.726
  933SOL    HW2 3699   1.396   6.747   3.843
  934SOL     OW 3700   3.218   1.149   5.633
  934SOL    HW1 3701   3.139   1.175   5.690
  934SOL    HW2 3702   3.302   1.184   5.675
  935SOL     OW 3703   1.646   3.454   4.729
  935SOL    HW1 3704   1.732   3.456   4.679
  935SOL    HW2 3705   1.662   3.482   4.824
  936SOL     OW 3706   1.179   1.626   1.678
  936SOL    HW1 3707   1.266   1.591   1.644
  936SOL    HW2 3708   1.147   1.699   1.617
  937SOL     OW 3709   4.994   2.241   3.430
  937SOL    HW1 3710   5.045   2.191   3.360
  937SOL    HW2 3711   5.058   2.296   3.484
  938SOL     OW 3712   0.564   1.163   6.567
  938SOL    HW1 3713   0.569   1.208   6.478
  938SOL    HW2 3714   0.468   1.147   6.590
  939SOL     OW 3715   6.290   1.114   5.371
  939SOL    HW1 3716   6.355   1.044   5.403
  939SOL    HW2 3717   6.336   1.203   5.369
  940SOL     OW 3718   6.983   0.406   4.298
  940SOL    HW1 3719   0.054   0.379   4.285
  940SOL    HW2 3720   6.929   0.327   4.326
  941SOL     OW 3721   6.012   2.332   5.246
  941SOL    HW1 3722   6.037   2.379   5.161
  941SOL    HW2 3723   5.967   2.396   5.308
  942SOL     OW 3724   4.372   0.217   5.140
  942SOL    HW1 3725   4.364   0.290   5.208
  942SOL    HW2 3726   4.426   0.249   5.062
  943SOL     OW 3727   5.275   2.297   0.481
  943SOL    HW1 3728   5.298   2.320   0.387
  943SOL    HW2 3729   5.181   2.262   0.485
  944SOL     OW 3730   4.851   4.194   4.434
  944SOL    HW1 3731   4.912   4.262   4.393
  944SOL    HW2 3732   4.893   4.154   4.514
  945SOL     OW 3733   5.579   3.362   6.469
  945SOL    HW1 3734   5.494   3.358   6.522
  945SOL    HW2 3735   5.576   3.293   6.396
  946SOL     OW 3736   5.651   3.718   6.759
  946SOL    HW1 3737   5.599   3.691   6.678
  946SOL    HW2 3738   5.688   3.810   6.745
  947SOL     OW 3739   0.668   2.541   5.695
  947SOL    HW1 3740   0.767   2.553   5.688
  947SOL    HW2 3741   0.626   2.560   5.606
  948SOL     OW 3742   3.658   1.609   0.679
  948SOL    HW1 3743   3.647   1.600   0.580
  948SOL    HW2 3744   3.569   1.605   0.723
  949SOL     OW 3745   5.605   6.341   6.559
  949SOL    HW1 3746   5.642   6.256   6.520
  949SOL    HW2 3747   5.596   6.409   6.486
  950SOL     OW 3748   3.853   5.383   1.184
  950SOL    HW1 3749   3.755   5.365   1.190
  950SOL    HW2 3750   3.878   5.400   1.089
  951SOL     OW 3751   1.055   2.935   3.791
  951SOL    HW1 3752   1.083   2.970   3.702
  951SOL    HW2 3753   1.028   2.839   3.783
  952SOL     OW 3754   4.768   1.580   1.295
  952SOL    HW1 3755   4.729   1.626   1.375
  952SOL    HW2 3756   4.701   1.580   1.221
  953SOL     OW 3757   3.881   6.619   5.866
  953SOL    HW1 3758   3.883   6.541   5.928
  953SOL    HW2 3759   3.871   6.587   5.772
  954SOL     OW 3760   6.620   0.849   1.324
  954SOL    HW1 3761   6.635   0.752   1.306
  954SOL    HW2 3762   6.685   0.880   1.393
  955SOL     OW 3763   0.645   6.126   2.711
  955SOL    HW1 3764   0.632   6.172   2.799
  955SOL    HW2 3765   0.732   6.078   2.711
  956SOL     OW 3766   1.588   2.600   0.615
  956SOL    HW1 3767   1.528   2.522   0.598
  956SOL    HW2 3768   1.591   2.619   0.713
  957SOL     OW 3769   2.019   6.446   4.930
  957SOL    HW1 3770   1.996   6.349   4.917
  957SOL    HW2 3771   2.001   6.471   5.025
  958SOL     OW 3772   4.731   2.762   6.987
  958SOL    HW1 3773   4.743   2.851   6.942
  958SOL    HW2 3774   4.816   2.709   6.981
  959SOL     OW 3775   1.498   3.611   1.103
  959SOL    HW1 3776   1.466   3.582   1.013
  959SOL    HW2 3777   1.567   3.547   1.137
  960SOL     OW 3778   1.699   4.900   5.599
  960SOL    HW1 3779   1.644   4.827   5.560
  960SOL    HW2 3780   1.762   4.862   5.667
  961SOL     OW 3781   3.544   6.938   6.815
  961SOL    HW1 3782   3.556   0.002   6.862
  961SOL    HW2 3783   3.455   6.899   6.839
  962SOL     OW 3784   1.285   6.566   3.284
  962SOL    HW1 3785   1.213   6.609   3.338
  962SOL    HW2 3786   1.334   6.500   3.340
  963SOL     OW 3787   5.856   0.348   1.565
  963SOL    HW1 3788   5.929   0.354   1.632
  963SOL    HW2 3789   5.774   0.310   1.607
  964SOL     OW 3790   5.691   3.428   1.945
  964SOL    HW1 3791   5.738   3.397   1.862
  964SOL    HW2 3792   5.657   3.521   1.931
  965SOL     OW 3793   1.679   1.264   0.202
  965SOL    HW1 3794   1.734   1.275   0.120
  965SOL    HW2 3795   1.737   1.276   0.283
  966SOL     OW 3796   6.594   2.497   2.259
  966SOL    HW1 3797   6.542   2.566   2.209
  966SOL    HW2 3798   6.690   2.525   2.266
  967SOL     OW 3799   1.258   5.993   2.195
  967SOL    HW1 3800   1.198   5.914   2.211
  967SOL    HW2 3801   1.351   5.971   2.225
  968SOL     OW 3802   7.004   4.213   0.622
  968SOL    HW1 3803   7.007   4.115   0.642
  968SOL    HW2 3804   0.068   4.243   0.585
  969SOL     OW 3805   4.146   6.812   6.492
  969SOL    HW1 3806   4.156   6.838   6.396
  969SOL    HW2 3807   4.049   6.809   6.516
  970SOL     OW 3808   5.206   3.239   5.667
  970SOL    HW1 3809   5.269   3.166   5.641
  970SOL    HW2 3810   5.113   3.213   5.641
  971SOL     OW 3811   0.553   3.234   6.922
  971SOL    HW1 3812   0.511   3.314   6.881
  971SOL    HW2 3813   0.617   3.263   6.993
  972SOL     OW 3814   4.795   6.726   0.668
  972SOL    HW1 3815   4.709   6.764   0.701
  972SOL    HW2 3816   4.863   6.799   0.659
  973SOL     OW 3817   6.063   2.902   5.682
  973SOL    HW1 3818   6.076   2.919   5.780
  973SOL    HW2 3819   6.100   2.812   5.659
  974SOL     OW 3820   2.324   0.269   4.622
  974SOL    HW1 3821   2.265   0.195   4.589
  974SOL    HW2 3822   2.374   0.307   4.545
  975SOL     OW 3823   2.888   0.172   5.119
  975SOL    HW1 3824   2.833   0.209   5.193
  975SOL    HW2 3825   2.897   0.073   5.130
  976SOL     OW 3826   0.381   4.645   3.649
  976SOL    HW1 3827   0.451   4.577   3.627
  976SOL    HW2 3828   0.371   4.651   3.749
  977SOL     OW 3829   0.868   2.414   2.118
  977SOL    HW1 3830   0.884   2.399   2.215
  977SOL    HW2 3831   0.882   2.328   2.068
  978SOL     OW 3832   5.783   3.242   4.470
  978SOL    HW1 3833   5.775   3.216   4.373
  978SOL    HW2 3834   5.827   3.331   4.476
  979SOL     OW 3835   5.658   1.561   3.146
  979SOL    HW1 3836   5.577   1.608   3.111
  979SOL    HW2 3837   5.701   1.616   3.217
  980SOL     OW 3838   0.113   0.327   5.364
  980SOL    HW1 3839   0.169   0.280   5.295
  980SOL    HW2 3840   0.168   0.397   5.409
  981SOL     OW 3841   6.334   2.840   5.920
  981SOL    HW1 3842   6.363   2.901   5.994
  981SOL    HW2 3843   6.413   2.818   5.862
  982SOL     OW 3844   1.287   3.880   1.091
  982SOL    HW1 3845   1.368   3.885   1.033
  982SOL    HW2 3846   1.314   3.877   1.187
  983SOL     OW 3847   5.161   1.863   3.103
  983SOL    HW1 3848   5.234   1.803   3.136
  983SOL    HW2 3849   5.079   1.810   3.084
  984SOL     OW 3850   5.062   2.848   5.546
  984SOL    HW1 3851   5.047   2.855   5.447
  984SOL    HW2 3852   4.978   2.876   5.594
  985SOL     OW 3853   1.706   4.627   0.626
  985SOL    HW1 3854   1.779   4.629   0.557
  985SOL    HW2 3855   1.694   4.718   0.664
  986SOL     OW 3856   4.653   4.161   6.747
  986SOL    HW1 3857   4.751   4.142   6.753
  986SOL    HW2 3858   4.638   4.251   6.707
  987SOL     OW 3859   3.818   6.745   2.662
  987SOL    HW1 3860   3.809   6.740   2.562
  987SOL    HW2 3861   3.911   6.720   2.688
  988SOL     OW 3862   3.483   2.636   1.596
  988SOL    HW1 3863   3.552   2.633   1.669
  988SOL    HW2 3864   3.401   2.681   1.629
  989SOL     OW 3865   0.768   0.338   4.555
  989SOL    HW1 3866   0.767   0.239   4.568
  989SOL    HW2 3867   0.778   0.359   4.458
  990SOL     OW 3868   5.338   6.395   2.006
  990SOL    HW1 3869   5.314   6.298   2.004
  990SOL    HW2 3870   5.371   6.419   2.098
  991SOL     OW 3871   5.821   1.876   5.139
  991SOL    HW1 3872   5.899   1.819   5.112
  991SOL    HW2 3873   5.772   1.832   5.215
  992SOL     OW 3874   7.015   2.814   1.321
  992SOL    HW1 3875   6.934   2.865   1.292
  992SOL    HW2 3876   6.986   2.728   1.364
  993SOL     OW 3877   3.681   6.375   4.751
  993SOL    HW1 3878   3.647   6.302   4.810
  993SOL    HW2 3879   3.775   6.355   4.724
  994SOL     OW 3880   3.300   3.269   2.518
  994SOL    HW1 3881   3.204   3.290   2.532
  994SOL    HW2 3882   3.310   3.207   2.440
  995SOL     OW 3883   0.235   1.187   4.826
  995SOL    HW1 3884   0.243   1.108   4.766
  995SOL    HW2 3885   0.154   1.178   4.884
  996SOL     OW 3886   0.800   3.528   0.381
  996SOL    HW1 3887   0.863   3.451   0.371
  996SOL    HW2 3888   0.709   3.501   0.348
  997SOL     OW 3889   0.330   1.844   0.851
  997SOL    HW1 3890   0.264   1.896   0.797
  997SOL    HW2 3891   0.287   1.816   0.937
  998SOL     OW 3892   5.038   6.817   3.409
  998SOL    HW1 3893   5.095   6.778   3.481
  998SOL    HW2 3894   4.999   6.903   3.439
  999SOL     OW 3895   5.954   5.590   1.414
  999SOL    HW1 3896   6.050   5.583   1.384
  999SOL    HW2 3897   5.925   5.686   1.406
 1000SOL     OW 3898   4.573   2.362   4.563
 1000SOL    HW1 3899   4.568   2.430   4.636
 1000SOL    HW2 3900   4.609   2.405   4.480
 1001SOL     OW 3901   4.591   1.415   5.545
 1001SOL    HW1 3902   4.592   1.402   5.446
 1001SOL    HW2 3903   4.518   1.479   5.570
 1002SOL     OW 3904   0.232   1.430   0.141
 1002SOL    HW1 3905   0.144   1.440   0.093
 1002SOL    HW2 3906   0.219   1.373   0.222
 1003SOL     OW 3907   4.471   5.076   2.728
 1003SOL    HW1 3908   4.468   5.015   2.808
 1003SOL    HW2 3909   4.500   5.024   2.648
 1004SOL     OW 3910   6.077   5.714   0.588
 1004SOL    HW1 3911   6.147   5.655   0.547
 1004SOL    HW2 3912   5.989   5.667   0.586
 1005SOL     OW 3913   6.700   5.647   3.714
 1005SOL    HW1 3914   6.697   5.577   3.785
 1005SOL    HW2 3915   6.752   5.726   3.747
 1006SOL     OW 3916   2.383   4.268   6.901
 1006SOL    HW1 3917   2.327   4.224   6.830
 1006SOL    HW2 3918   2.417   4.355   6.867
 1007SOL     OW 3919   1.041   0.909   3.266
 1007SOL    HW1 3920   0.950   0.901   3.307
 1007SOL    HW2 3921   1.045   0.853   3.183
 1008SOL     OW 3922   2.741   2.331   4.874
 1008SOL    HW1 3923   2.710   2.244   4.912
 1008SOL    HW2 3924   2.829   2.355   4.914
 1009SOL     OW 3925   2.730   5.913   5.825
 1009SOL    HW1 3926   2.684   5.876   5.906
 1009SOL    HW2 3927   2.782   5.840   5.780
 1010SOL     OW 3928   5.214   0.360   5.678
 1010SOL    HW1 3929   5.134   0.308   5.648
 1010SOL    HW2 3930   5.295   0.303   5.674
 1011SOL     OW 3931   3.290   5.927   4.061
 1011SOL    HW1 3932   3.299   5.849   4.123
 1011SOL    HW2 3933   3.367   5.927   3.997
 1012SOL     OW 3934   3.668   5.759   0.678
 1012SOL    HW1 3935   3.634   5.851   0.701
 1012SOL    HW2 3936   3.660   5.745   0.579
 1013SOL     OW 3937   0.477   0.732   0.095
 1013SOL    HW1 3938   0.428   0.668   0.155
 1013SOL    HW2 3939   0.509   0.683   0.014
 1014SOL     OW 3940   6.037   6.941   6.109
 1014SOL    HW1 3941   5.985   0.001   6.094
 1014SOL    HW2 3942   6.134   6.962   6.114
 1015SOL     OW 3943   3.015   0.437   4.858
 1015SOL    HW1 3944   3.024   0.426   4.759
 1015SOL    HW2 3945   3.005   0.534   4.880
 1016SOL     OW 3946   4.730   2.488   1.961
 1016SOL    HW1 3947   4.715   2.586   1.945
 1016SOL    HW2 3948   4.717   2.438   1.876
 1017SOL     OW 3949   4.865   0.806   6.183
 1017SOL    HW1 3950   4.913   0.848   6.260
 1017SOL    HW2 3951   4.814   0.877   6.133
 1018SOL     OW 3952   1.553   2.434   1.515
 1018SOL    HW1 3953   1.593   2.374   1.445
 1018SOL    HW2 3954   1.627   2.473   1.570
 1019SOL     OW 3955   5.999   1.409   0.714
 1019SOL    HW1 3956   5.963   1.338   0.655
 1019SOL    HW2 3957   6.074   1.457   0.668
 1020SOL     OW 3958   3.263   2.067   1.633
 1020SOL    HW1 3959   3.337   2.112   1.684
 1020SOL    HW2 3960   3.180   2.067   1.689
 1021SOL     OW 3961   6.489   1.447   0.643
 1021SOL    HW1 3962   6.566   1.509   0.654
 1021SOL    HW2 3963   6.403   1.496   0.661
 1022SOL     OW 3964   3.437   2.747   0.141
 1022SOL    HW1 3965   3.357   2.694   0.114
 1022SOL    HW2 3966   3.454   2.734   0.239
 1023SOL     OW 3967   6.633   0.448   4.327
 1023SOL    HW1 3968   6.686   0.483   4.404
 1023SOL    HW2 3969   6.657   0.352   4.310
 1024SOL     OW 3970   6.752   2.120   4.018
 1024SOL    HW1 3971   6.703   2.132   3.932
 1024SOL    HW2 3972   6.796   2.205   4.045
 1025SOL     OW 3973   3.631   4.491   1.444
 1025SOL    HW1 3974   3.570   4.565   1.417
 1025SOL    HW2 3975   3.623   4.476   1.543
 1026SOL     OW 3976   0.711   2.737   6.264
 1026SOL    HW1 3977   0.696   2.768   6.358
 1026SOL    HW2 3978   0.711   2.637   6.261
 1027SOL     OW 3979   1.965   4.571   1.155
 1027SOL    HW1 3980   1.897   4.540   1.089
 1027SOL    HW2 3981   2.056   4.564   1.114
 1028SOL     OW 3982   0.140   5.119   0.584
 1028SOL    HW1 3983   0.073   5.154   0.518
 1028SOL    HW2 3984   0.185   5.196   0.629
 1029SOL     OW 3985   3.688   0.769   5.488
 1029SOL    HW1 3986   3.728   0.714   5.562
 1029SOL    HW2 3987   3.686   0.865   5.515
 1030SOL     OW 3988   4.122   4.723   5.239
 1030SOL    HW1 3989   4.060   4.686   5.308
 1030SOL    HW2 3990   4.179   4.649   5.202
 1031SOL     OW 3991   2.290   5.409   0.754
 1031SOL    HW1 3992   2.263   5.326   0.706
 1031SOL    HW2 3993   2.219   5.479   0.742
 1032SOL     OW 3994   1.354   1.352   4.802
 1032SOL    HW1 3995   1.327   1.441   4.840
 1032SOL    HW2 3996   1.454   1.347   4.795
 1033SOL     OW 3997   2.283   6.862   2.629
 1033SOL    HW1 3998   2.199   6.840   2.679
 1033SOL    HW2 3999   2.351   6.897   2.693
 1034SOL     OW 4000   1.306   0.268   1.601
 1034SOL    HW1 4001   1.345   0.274   1.509
 1034SOL    HW2 4002   1.377   0.291   1.668
 1035SOL     OW 4003   3.604   1.143   2.901
 1035SOL    HW1 4004   3.633   1.076   2.969
 1035SOL    HW2 4005   3.509   1.169   2.917
 1036SOL     OW 4006   5.017   6.724   6.979
 1036SOL    HW1 4007   4.970   6.644   7.016
 1036SOL    HW2 4008   5.087   6.694   6.914
 1037SOL     OW 4009   3.406   1.752   6.287
 1037SOL    HW1 4010   3.412   1.657   6.255
 1037SOL    HW2 4011   3.432   1.813   6.213
 1038SOL     OW 4012   2.390   1.468   5.129
 1038SOL    HW1 4013   2.413   1.565   5.138
 1038SOL    HW2 4014   2.355   1.434   5.216
 1039SOL     OW 4015   4.331   1.981   3.351
 1039SOL    HW1 4016   4.345   2.067   3.302
 1039SOL    HW2 4017   4.311   2.000   3.447
 1040SOL     OW 4018   5.547   3.689   4.309
 1040SOL    HW1 4019   5.512   3.780   4.331
 1040SOL    HW2 4020   5.572   3.687   4.212
 1041SOL     OW 4021   1.522   6.713   4.328
 1041SOL    HW1 4022   1.562   6.803   4.314
 1041SOL    HW2 4023   1.589   6.652   4.369
 1042SOL     OW 4024   4.488   3.799   0.857
 1042SOL    HW1 4025   4.407   3.760   0.901
 1042SOL    HW2 4026   4.562   3.732   0.860
 1043SOL     OW 4027   3.835   0.588   6.711
 1043SOL    HW1 4028   3.842   0.632   6.621
 1043SOL    HW2 4029   3.741   0.561   6.729
 1044SOL     OW 4030   4.130   3.591   2.340
 1044SOL    HW1 4031   4.175   3.566   2.254
 1044SOL    HW2 4032   4.122   3.691   2.346
 1045SOL     OW 4033   4.331   1.049   3.222
 1045SOL    HW1 4034   4.368   1.101   3.299
 1045SOL    HW2 4035   4.405   1.004   3.173
 1046SOL     OW 4036   3.803   0.656   2.142
 1046SOL    HW1 4037   3.754   0.703   2.216
 1046SOL    HW2 4038   3.834   0.724   2.075
 1047SOL     OW 4039   0.569   5.846   1.639
 1047SOL    HW1 4040   0.493   5.794   1.600
 1047SOL    HW2 4041   0.655   5.799   1.620
 1048SOL     OW 4042   6.584   4.390   5.210
 1048SOL    HW1 4043   6.618   4.471   5.257
 1048SOL    HW2 4044   6.592   4.403   5.111
 1049SOL     OW 4045   0.751   3.247   5.654
 1049SOL    HW1 4046   0.765   3.159   5.609
 1049SOL    HW2 4047   0.820   3.312   5.623
 1050SOL     OW 4048   2.410   0.659   0.645
 1050SOL    HW1 4049   2.336   0.606   0.687
 1050SOL    HW2 4050   2.383   0.754   0.636
 1051SOL     OW 4051   4.972   4.567   2.286
 1051SOL    HW1 4052   4.935   4.532   2.373
 1051SOL    HW2 4053   5.009   4.659   2.300
 1052SOL     OW 4054   3.788   0.215   4.596
 1052SOL    HW1 4055   3.820   0.310   4.589
 1052SOL    HW2 4056   3.809   0.167   4.511
 1053SOL     OW 4057   3.429   4.924   3.509
 1053SOL    HW1 4058   3.419   5.007   3.454
 1053SOL    HW2 4059   3.524   4.894   3.507
 1054SOL     OW 4060   4.393   5.895   4.932
 1054SOL    HW1 4061   4.419   5.809   4.977
 1054SOL    HW2 4062   4.300   5.919   4.958
 1055SOL     OW 4063   3.597   4.887   4.088
 1055SOL    HW1 4064   3.607   4.863   4.185
 1055SOL    HW2 4065   3.506   4.859   4.056
 1056SOL     OW 4066   2.355   5.878   6.288
 1056SOL    HW1 4067   2.439   5.926   6.314
 1056SOL    HW2 4068   2.334   5.809   6.358
 1057SOL     OW 4069   3.912   3.790   1.179
 1057SOL    HW1 4070   3.915   3.698   1.142
 1057SOL    HW2 4071   4.005   3.825   1.192
 1058SOL     OW 4072   3.017   6.566   2.389
 1058SOL    HW1 4073   2.961   6.556   2.307
 1058SOL    HW2 4074   3.107   6.603   2.364
 1059SOL     OW 4075   3.404   0.715   0.310
 1059SOL    HW1 4076   3.470   0.767   0.365
 1059SOL    HW2 4077   3.326   0.773   0.288
 1060SOL     OW 4078   2.935   1.244   4.321
 1060SOL    HW1 4079   2.964   1.208   4.231
 1060SOL    HW2 4080   2.875   1.322   4.307
 1061SOL     OW 4081   2.949   5.936   1.134
 1061SOL    HW1 4082   3.008   5.899   1.062
 1061SOL    HW2 4083   2.856   5.901   1.121
 1062SOL     OW 4084   4.826   4.660   4.574
 1062SOL    HW1 4085   4.915   4.698   4.549
 1062SOL    HW2 4086   4.837   4.563   4.596
 1063SOL     OW 4087   2.687   2.273   6.123
 1063SOL    HW1 4088   2.653   2.323   6.043
 1063SOL    HW2 4089   2.702   2.177   6.098
 1064SOL     OW 4090   0.637   2.908   1.636
 1064SOL    HW1 4091   0.621   2.811   1.650
 1064SOL    HW2 4092   0.552   2.958   1.652
 1065SOL     OW 4093   4.380   5.073   5.491
 1065SOL    HW1 4094   4.315   5.036   5.424
 1065SOL    HW2 4095   4.379   5.016   5.573
 1066SOL     OW 4096   4.445   6.909   3.699
 1066SOL    HW1 4097   4.519   6.891   3.634
 1066SOL    HW2 4098   4.411   6.822   3.736
 1067SOL     OW 4099   2.842   3.449   0.976
 1067SOL    HW1 4100   2.894   3.450   1.061
 1067SOL    HW2 4101   2.752   3.490   0.991
 1068SOL     OW 4102   0.269   4.470   0.906
 1068SOL    HW1 4103   0.330   4.456   0.828
 1068SOL    HW2 4104   0.174   4.466   0.875
 1069SOL     OW 4105   3.879   2.965   2.482
 1069SOL    HW1 4106   3.902   2.869   2.496
 1069SOL    HW2 4107   3.935   3.003   2.409
 1070SOL     OW 4108   2.509   6.909   0.733
 1070SOL    HW1 4109   2.487   6.834   0.794
 1070SOL    HW2 4110   2.503   6.996   0.782
 1071SOL     OW 4111   5.095   5.127   4.015
 1071SOL    HW1 4112   5.015   5.128   4.075
 1071SOL    HW2 4113   5.094   5.208   3.957
 1072SOL     OW 4114   3.628   5.324   2.970
 1072SOL    HW1 4115   3.697   5.318   3.043
 1072SOL    HW2 4116   3.674   5.329   2.881
 1073SOL     OW 4117   2.958   5.849   3.453
 1073SOL    HW1 4118   2.987   5.916   3.385
 1073SOL    HW2 4119   3.038   5.809   3.497
 1074SOL     OW 4120   1.797   5.495   2.799
 1074SOL    HW1 4121   1.826   5.457   2.886
 1074SOL    HW2 4122   1.877   5.512   2.741
 1075SOL     OW 4123   1.016   4.417   2.759
 1075SOL    HW1 4124   0.981   4.326   2.739
 1075SOL    HW2 4125   1.023   4.430   2.858
 1076SOL     OW 4126   6.543   3.982   2.828
 1076SOL    HW1 4127   6.553   4.071   2.784
 1076SOL    HW2 4128   6.486   3.991   2.910
 1077SOL     OW 4129   5.101   0.172   1.746
 1077SOL    HW1 4130   5.050   0.116   1.681
 1077SOL    HW2 4131   5.037   0.224   1.802
 1078SOL     OW 4132   0.377   3.040   1.672
 1078SOL    HW1 4133   0.388   3.006   1.765
 1078SOL    HW2 4134   0.283   3.023   1.642
 1079SOL     OW 4135   2.140   5.109   3.443
 1079SOL    HW1 4136   2.193   5.140   3.522
 1079SOL    HW2 4137   2.076   5.180   3.416
 1080SOL     OW 4138   1.754   5.343   3.965
 1080SOL    HW1 4139   1.686   5.368   4.034
 1080SOL    HW2 4140   1.777   5.423   3.910
 1081SOL     OW 4141   1.681   0.514   0.535
 1081SOL    HW1 4142   1.622   0.483   0.460
 1081SOL    HW2 4143   1.634   0.500   0.622
 1082SOL     OW 4144   2.093   6.826   0.779
 1082SOL    HW1 4145   2.052   6.767   0.848
 1082SOL    HW2 4146   2.022   6.863   0.720
 1083SOL     OW 4147   3.453   2.234   1.717
 1083SOL    HW1 4148   3.385   2.307   1.721
 1083SOL    HW2 4149   3.513   2.240   1.796
 1084SOL     OW 4150   6.890   3.613   0.722
 1084SOL    HW1 4151   6.981   3.640   0.689
 1084SOL    HW2 4152   6.869   3.664   0.805
 1085SOL     OW 4153   1.512   5.119   3.418
 1085SOL    HW1 4154   1.533   5.172   3.336
 1085SOL    HW2 4155   1.413   5.120   3.434
 1086SOL     OW 4156   3.008   5.526   2.662
 1086SOL    HW1 4157   3.001   5.621   2.633
 1086SOL    HW2 4158   3.001   5.521   2.762
 1087SOL     OW 4159   4.078   3.272   4.864
 1087SOL    HW1 4160   4.008   3.202   4.874
 1087SOL    HW2 4161   4.162   3.242   4.909
 1088SOL     OW 4162   6.942   4.416   2.741
 1088SOL    HW1 4163   6.897   4.327   2.731
 1088SOL    HW2 4164   0.016   4.406   2.723
 1089SOL     OW 4165   6.826   6.843   3.451
 1089SOL    HW1 4166   6.845   6.821   3.355
 1089SOL    HW2 4167   6.846   6.764   3.508
 1090SOL     OW 4168   2.021   1.926   6.387
 1090SOL    HW1 4169   1.922   1.930   6.400
 1090SOL    HW2 4170   2.064   2.000   6.439
 1091SOL     OW 4171   0.928   2.516   5.677
 1091SOL    HW1 4172   0.982   2.600   5.686
 1091SOL    HW2 4173   0.963   2.462   5.600
 1092SOL     OW 4174   2.286   4.526   1.147
 1092SOL    HW1 4175   2.345   4.606   1.137
 1092SOL    HW2 4176   2.256   4.496   1.056
 1093SOL     OW 4177   6.926   2.916   1.708
 1093SOL    HW1 4178   6.882   3.006   1.711
 1093SOL    HW2 4179   6.874   2.851   1.763
 1094SOL     OW 4180   0.948   6.704   2.351
 1094SOL    HW1 4181   0.937   6.621   2.297
 1094SOL    HW2 4182   0.861   6.754   2.353
 1095SOL     OW 4183   0.358   3.742   6.148
 1095SOL    HW1 4184   0.338   3.675   6.077
 1095SOL    HW2 4185   0.340   3.703   6.238
 1096SOL     OW 4186   3.620   3.177   1.799
 1096SOL    HW1 4187   3.592   3.086   1.769
 1096SOL    HW2 4188   3.548   3.218   1.854
 1097SOL     OW 4189   2.530   4.511   6.099
 1097SOL    HW1 4190   2.430   4.507   6.111
 1097SOL    HW2 4191   2.552   4.571   6.023
 1098SOL     OW 4192   3.932   0.326   2.688
 1098SOL    HW1 4193   3.994   0.359   2.759
 1098SOL    HW2 4194   3.880   0.403   2.650
 1099SOL     OW 4195   3.502   0.195   2.601
 1099SOL    HW1 4196   3.431   0.126   2.589
 1099SOL    HW2 4197   3.590   0.151   2.617
 1100SOL     OW 4198   6.337   1.212   6.712
 1100SOL    HW1 4199   6.437   1.220   6.717
 1100SOL    HW2 4200   6.297   1.246   6.797
 1101SOL     OW 4201   5.232   3.188   1.474
 1101SOL    HW1 4202   5.260   3.097   1.505
 1101SOL    HW2 4203   5.190   3.238   1.550
 1102SOL     OW 4204   7.003   3.727   4.036
 1102SOL    HW1 4205   0.048   3.729   4.109
 1102SOL    HW2 4206   6.970   3.819   4.018
 1103SOL     OW 4207   0.092   3.222   6.661
 1103SOL    HW1 4208   0.170   3.260   6.711
 1103SOL    HW2 4209   0.009   3.271   6.687
 1104SOL     OW 4210   2.443   5.190   5.973
 1104SOL    HW1 4211   2.448   5.218   5.877
 1104SOL    HW2 4212   2.501   5.250   6.028
 1105SOL     OW 4213   3.925   5.116   1.036
 1105SOL    HW1 4214   3.933   5.133   0.938
 1105SOL    HW2 4215   3.850   5.170   1.074
 1106SOL     OW 4216   1.198   0.846   6.363
 1106SOL    HW1 4217   1.103   0.816   6.358
 1106SOL    HW2 4218   1.258   0.771   6.336
 1107SOL     OW 4219   6.854   0.650   1.272
 1107SOL    HW1 4220   6.916   0.681   1.345
 1107SOL    HW2 4221   6.908   0.621   1.193
 1108SOL     OW 4222   1.488   0.930   6.774
 1108SOL    HW1 4223   1.562   0.900   6.833
 1108SOL    HW2 4224   1.401   0.922   6.822
 1109SOL     OW 4225   4.579   0.741   3.900
 1109SOL    HW1 4226   4.652   0.809   3.908
 1109SOL    HW2 4227   4.549   0.713   3.991
 1110SOL     OW 4228   3.351   2.958   2.846
 1110SOL    HW1 4229   3.260   2.982   2.880
 1110SOL    HW2 4230   3.343   2.911   2.758
 1111SOL     OW 4231   4.372   6.940   0.291
 1111SOL    HW1 4232   4.292   6.999   0.292
 1111SOL    HW2 4233   4.401   6.925   0.197
 1112SOL     OW 4234   0.913   1.423   2.699
 1112SOL    HW1 4235   0.940   1.329   2.682
 1112SOL    HW2 4236   0.963   1.484   2.637
 1113SOL     OW 4237   6.321   3.669   1.358
 1113SOL    HW1 4238   6.257   3.741   1.333
 1113SOL    HW2 4239   6.396   3.667   1.292
 1114SOL     OW 4240   5.887   0.988   5.308
 1114SOL    HW1 4241   5.790   0.978   5.282
 1114SOL    HW2 4242   5.893   1.032   5.397
 1115SOL     OW 4243   2.476   4.744   1.111
 1115SOL    HW1 4244   2.488   4.795   1.025
 1115SOL    HW2 4245   2.556   4.756   1.169
 1116SOL     OW 4246   3.478   6.350   6.477
 1116SOL    HW1 4247   3.451   6.446   6.480
 1116SOL    HW2 4248   3.568   6.339   6.519
 1117SOL     OW 4249   2.341   3.088   0.886
 1117SOL    HW1 4250   2.269   3.154   0.906
 1117SOL    HW2 4251   2.397   3.073   0.967
 1118SOL     OW 4252   1.865   3.251   1.553
 1118SOL    HW1 4253   1.772   3.269   1.585
 1118SOL    HW2 4254   1.888   3.315   1.480
 1119SOL     OW 4255   2.907   3.490   3.079
 1119SOL    HW1 4256   2.825   3.443   3.111
 1119SOL    HW2 4257   2.907   3.584   3.113
 1120SOL     OW 4258   4.371   0.903   3.886
 1120SOL    HW1 4259   4.457   0.856   3.865
 1120SOL    HW2 4260   4.301   0.834   3.907
 1121SOL     OW 4261   5.531   3.066   3.151
 1121SOL    HW1 4262   5.572   3.105   3.234
 1121SOL    HW2 4263   5.590   2.994   3.116
 1122SOL     OW 4264   4.676   5.240   6.408
 1122SOL    HW1 4265   4.684   5.339   6.397
 1122SOL    HW2 4266   4.741   5.193   6.349
 1123SOL     OW 4267   4.061   1.284   1.837
 1123SOL    HW1 4268   4.068   1.324   1.745
 1123SOL    HW2 4269   3.968   1.296   1.872
 1124SOL     OW 4270   1.510   5.251   4.485
 1124SOL    HW1 4271   1.514   5.304   4.569
 1124SOL    HW2 4272   1.593   5.267   4.430
 1125SOL     OW 4273   3.106   3.490   4.774
 1125SOL    HW1 4274   3.036   3.422   4.791
 1125SOL    HW2 4275   3.195   3.454   4.802
 1126SOL     OW 4276   6.488   0.288   2.549
 1126SOL    HW1 4277   6.506   0.382   2.521
 1126SOL    HW2 4278   6.506   0.278   2.647
 1127SOL     OW 4279   1.999   5.770   6.253
 1127SOL    HW1 4280   1.937   5.766   6.332
 1127SOL    HW2 4281   2.016   5.865   6.230
 1128SOL     OW 4282   2.227   2.332   4.426
 1128SOL    HW1 4283   2.260   2.249   4.381
 1128SOL    HW2 4284   2.135   2.353   4.392
 1129SOL     OW 4285   4.480   6.619   6.084
 1129SOL    HW1 4286   4.555   6.644   6.023
 1129SOL    HW2 4287   4.487   6.671   6.169
 1130SOL     OW 4288   0.090   5.669   5.725
 1130SOL    HW1 4289   0.143   5.729   5.666
 1130SOL    HW2 4290   0.097   5.575   5.692
 1131SOL     OW 4291   0.260   5.443   5.662
 1131SOL    HW1 4292   0.280   5.367   5.723
 1131SOL    HW2 4293   0.247   5.409   5.569
 1132SOL     OW 4294   5.561   6.446   5.032
 1132SOL    HW1 4295   5.569   6.432   5.131
 1132SOL    HW2 4296   5.629   6.513   5.002
 1133SOL     OW 4297   6.848   2.625   6.881
 1133SOL    HW1 4298   6.889   2.710   6.849
 1133SOL    HW2 4299   6.793   2.643   6.963
 1134SOL     OW 4300   6.899   2.278   5.839
 1134SOL    HW1 4301   6.967   2.345   5.811
 1134SOL    HW2 4302   6.844   2.316   5.914
 1135SOL     OW 4303   6.333   1.650   4.798
 1135SOL    HW1 4304   6.367   1.587   4.727
 1135SOL    HW2 4305   6.407   1.711   4.826
 1136SOL     OW 4306   3.608   5.171   4.051
 1136SOL    HW1 4307   3.571   5.231   3.980
 1136SOL    HW2 4308   3.587   5.076   4.029
 1137SOL     OW 4309   1.570   0.789   6.240
 1137SOL    HW1 4310   1.608   0.756   6.326
 1137SOL    HW2 4311   1.495   0.730   6.211
 1138SOL     OW 4312   1.005   3.855   5.854
 1138SOL    HW1 4313   1.070   3.863   5.929
 1138SOL    HW2 4314   1.049   3.885   5.769
 1139SOL     OW 4315   1.007   6.973   2.297
 1139SOL    HW1 4316   1.093   7.021   2.315
 1139SOL    HW2 4317   1.024   6.874   2.296
 1140SOL     OW 4318   3.499   2.053   3.332
 1140SOL    HW1 4319   3.502   2.093   3.240
 1140SOL    HW2 4320   3.587   2.067   3.377
 1141SOL     OW 4321   6.714   6.172   5.918
 1141SOL    HW1 4322   6.715   6.090   5.860
 1141SOL    HW2 4323   6.702   6.253   5.860
 1142SOL     OW 4324   6.808   0.540   4.540
 1142SOL    HW1 4325   6.843   0.453   4.573
 1142SOL    HW2 4326   6.771   0.593   4.617
 1143SOL     OW 4327   4.652   1.728   1.500
 1143SOL    HW1 4328   4.646   1.779   1.585
 1143SOL    HW2 4329   4.560   1.711   1.464
 1144SOL     OW 4330   0.813   6.647   5.344
 1144SOL    HW1 4331   0.905   6.665   5.308
 1144SOL    HW2 4332   0.758   6.602   5.274
 1145SOL     OW 4333   1.934   4.619   4.867
 1145SOL    HW1 4334   1.835   4.626   4.882
 1145SOL    HW2 4335   1.972   4.550   4.928
 1146SOL     OW 4336   5.818   1.831   0.965
 1146SOL    HW1 4337   5.748   1.760   0.957
 1146SOL    HW2 4338   5.900   1.803   0.915
 1147SOL     OW 4339   6.609   3.566   2.164
 1147SOL    HW1 4340   6.635   3.617   2.245
 1147SOL    HW2 4341   6.578   3.474   2.190
 1148SOL     OW 4342   5.723   0.936   6.546
 1148SOL    HW1 4343   5.794   1.002   6.522
 1148SOL    HW2 4344   5.705   0.876   6.468
 1149SOL     OW 4345   5.355   2.263   3.176
 1149SOL    HW1 4346   5.382   2.283   3.082
 1149SOL    HW2 4347   5.321   2.346   3.219
 1150SOL     OW 4348   1.142   5.423   5.573
 1150SOL    HW1 4349   1.241   5.415   5.563
 1150SOL    HW2 4350   1.097   5.358   5.511
 1151SOL     OW 4351   2.515   5.142   0.344
 1151SOL    HW1 4352   2.500   5.208   0.271
 1151SOL    HW2 4353   2.568   5.185   0.418
 1152SOL     OW 4354   0.753   0.703   4.045
 1152SOL    HW1 4355   0.744   0.801   4.028
 1152SOL    HW2 4356   0.729   0.683   4.140
 1153SOL     OW 4357   2.523   4.507   2.643
 1153SOL    HW1 4358   2.525   4.582   2.577
 1153SOL    HW2 4359   2.585   4.434   2.612
 1154SOL     OW 4360   1.844   4.023   2.249
 1154SOL    HW1 4361   1.818   3.931   2.279
 1154SOL    HW2 4362   1.762   4.080   2.241
 1155SOL     OW 4363   4.094   6.819   2.565
 1155SOL    HW1 4364   4.146   6.749   2.516
 1155SOL    HW2 4365   4.034   6.866   2.501
 1156SOL     OW 4366   1.688   1.568   4.028
 1156SOL    HW1 4367   1.628   1.542   3.952
 1156SOL    HW2 4368   1.631   1.597   4.106
 1157SOL     OW 4369   1.556   2.820   4.320
 1157SOL    HW1 4370   1.482   2.786   4.378
 1157SOL    HW2 4371   1.640   2.826   4.374
 1158SOL     OW 4372   4.362   5.907   6.073
 1158SOL    HW1 4373   4.341   5.844   5.999
 1158SOL    HW2 4374   4.461   5.919   6.080
 1159SOL     OW 4375   6.214   4.664   2.438
 1159SOL    HW1 4376   6.129   4.711   2.459
 1159SOL    HW2 4377   6.210   4.626   2.346
 1160SOL     OW 4378   2.791   3.060   1.262
 1160SOL    HW1 4379   2.742   3.138   1.224
 1160SOL    HW2 4380   2.846   3.017   1.190
 1161SOL     OW 4381   4.191   0.739   3.987
 1161SOL    HW1 4382   4.142   0.664   3.942
 1161SOL    HW2 4383   4.241   0.703   4.066
 1162SOL     OW 4384   3.614   5.086   1.486
 1162SOL    HW1 4385   3.543   5.154   1.505
 1162SOL    HW2 4386   3.704   5.129   1.492
 1163SOL     OW 4387   5.266   0.116   2.380
 1163SOL    HW1 4388   5.358   0.082   2.398
 1163SOL    HW2 4389   5.253   0.203   2.426
 1164SOL     OW 4390   6.344   3.527   4.334
 1164SOL    HW1 4391   6.280   3.514   4.258
 1164SOL    HW2 4392   6.380   3.620   4.332
 1165SOL     OW 4393   0.857   4.935   2.327
 1165SOL    HW1 4394   0.836   5.013   2.267
 1165SOL    HW2 4395   0.809   4.854   2.294
 1166SOL     OW 4396   3.329   1.968   6.881
 1166SOL    HW1 4397   3.376   1.941   6.798
 1166SOL    HW2 4398   3.367   1.918   6.959
 1167SOL     OW 4399   3.902   1.838   5.008
 1167SOL    HW1 4400   3.910   1.844   4.909
 1167SOL    HW2 4401   3.809   1.812   5.033
 1168SOL     OW 4402   5.960   6.862   3.457
 1168SOL    HW1 4403   6.021   6.914   3.517
 1168SOL    HW2 4404   5.961   6.766   3.483
 1169SOL     OW 4405   1.469   3.070   1.042
 1169SOL    HW1 4406   1.489   2.980   1.001
 1169SOL    HW2 4407   1.378   3.069   1.082
 1170SOL     OW 4408   2.955   0.687   1.163
 1170SOL    HW1 4409   3.032   0.662   1.222
 1170SOL    HW2 4410   2.936   0.613   1.099
 1171SOL     OW 4411   2.917   0.778   0.316
 1171SOL    HW1 4412   2.895   0.717   0.392
 1171SOL    HW2 4413   2.833   0.822   0.283
 1172SOL     OW 4414   3.544   3.488   5.282
 1172SOL    HW1 4415   3.585   3.567   5.327
 1172SOL    HW2 4416   3.468   3.453   5.337
 1173SOL     OW 4417   5.506   0.050   6.175
 1173SOL    HW1 4418   5.589   0.066   6.229
 1173SOL    HW2 4419   5.516   0.092   6.085
 1174SOL     OW 4420   3.649   5.778   6.535
 1174SOL    HW1 4421   3.586   5.704   6.555
 1174SOL    HW2 4422   3.602   5.849   6.482
 1175SOL     OW 4423   0.112   4.975   4.540
 1175SOL    HW1 4424   0.130   4.912   4.615
 1175SOL    HW2 4425   0.177   4.959   4.466
 1176SOL     OW 4426   6.408   2.694   1.203
 1176SOL    HW1 4427   6.400   2.694   1.104
 1176SOL    HW2 4428   6.385   2.604   1.239
 1177SOL     OW 4429   5.995   3.758   6.796
 1177SOL    HW1 4430   5.925   3.725   6.858
 1177SOL    HW2 4431   5.969   3.738   6.702
 1178SOL     OW 4432   5.568   4.377   2.492
 1178SOL    HW1 4433   5.568   4.289   2.539
 1178SOL    HW2 4434   5.662   4.410   2.483
 1179SOL     OW 4435   1.804   5.612   6.090
 1179SOL    HW1 4436   1.897   5.577   6.081
 1179SOL    HW2 4437   1.739   5.548   6.049
 1180SOL     OW 4438   1.879   0.894   3.985
 1180SOL    HW1 4439   1.799   0.943   4.020
 1180SOL    HW2 4440   1.957   0.956   3.981
 1181SOL     OW 4441   1.809   4.460   2.480
 1181SOL    HW1 4442   1.768   4.488   2.566
 1181SOL    HW2 4443   1.859   4.537   2.440
 1182SOL     OW 4444   1.473   4.035   4.217
 1182SOL    HW1 4445   1.407   3.971   4.176
 1182SOL    HW2 4446   1.565   3.997   4.209
 1183SOL     OW 4447   4.519   5.904   1.014
 1183SOL    HW1 4448   4.525   5.996   0.978
 1183SOL    HW2 4449   4.553   5.839   0.946
 1184SOL     OW 4450   3.364   2.982   6.308
 1184SOL    HW1 4451   3.441   2.939   6.261
 1184SOL    HW2 4452   3.331   3.059   6.254
 1185SOL     OW 4453   2.680   1.175   6.601
 1185SOL    HW1 4454   2.671   1.105   6.530
 1185SOL    HW2 4455   2.672   1.132   6.691
 1186SOL     OW 4456   3.596   0.984   4.983
 1186SOL    HW1 4457   3.512   1.023   5.021
 1186SOL    HW2 4458   3.674   1.014   5.037
 1187SOL     OW 4459   1.038   2.067   4.784
 1187SOL    HW1 4460   1.047   2.051   4.883
 1187SOL    HW2 4461   0.947   2.039   4.754
 1188SOL     OW 4462   1.591   0.759   5.010
 1188SOL    HW1 4463   1.676   0.731   4.965
 1188SOL    HW2 4464   1.526   0.683   5.008
 1189SOL     OW 4465   0.134   1.172   1.591
 1189SOL    HW1 4466   0.182   1.215   1.667
 1189SOL    HW2 4467   0.043   1.212   1.582
 1190SOL     OW 4468   4.154   5.486   1.841
 1190SOL    HW1 4469   4.199   5.499   1.753
 1190SOL    HW2 4470   4.170   5.393   1.873
 1191SOL     OW 4471   2.634   4.627   1.447
 1191SOL    HW1 4472   2.631   4.592   1.540
 1191SOL    HW2 4473   2.541   4.640   1.413
 1192SOL     OW 4474   4.241   5.174   2.650
 1192SOL    HW1 4475   4.331   5.143   2.680
 1192SOL    HW2 4476   4.170   5.120   2.696
 1193SOL     OW 4477   3.788   0.110   4.343
 1193SOL    HW1 4478   3.725   0.165   4.289
 1193SOL    HW2 4479   3.841   0.051   4.283
 1194SOL     OW 4480   5.981   1.562   1.421
 1194SOL    HW1 4481   5.941   1.499   1.488
 1194SOL    HW2 4482   5.945   1.654   1.436
 1195SOL     OW 4483   2.882   6.419   0.082
 1195SOL    HW1 4484   2.876   6.515   0.109
 1195SOL    HW2 4485   2.843   6.408   7.014
 1196SOL     OW 4486   1.306   5.291   3.345
 1196SOL    HW1 4487   1.308   5.375   3.290
 1196SOL    HW2 4488   1.223   5.240   3.325
 1197SOL     OW 4489   3.402   4.988   7.010
 1197SOL    HW1 4490   3.486   4.989   6.955
 1197SOL    HW2 4491   3.381   4.894   0.012
 1198SOL     OW 4492   3.361   0.812   2.548
 1198SOL    HW1 4493   3.266   0.785   2.562
 1198SOL    HW2 4494   3.395   0.857   2.630
 1199SOL     OW 4495   3.178   3.516   3.864
 1199SOL    HW1 4496   3.117   3.504   3.786
 1199SOL    HW2 4497   3.259   3.459   3.851
 1200SOL     OW 4498   5.065   3.569   1.296
 1200SOL    HW1 4499   5.007   3.514   1.234
 1200SOL    HW2 4500   5.112   3.639   1.243
 1201SOL     OW 4501   1.523   1.857   4.947
 1201SOL    HW1 4502   1.553   1.941   4.992
 1201SOL    HW2 4503   1.525   1.781   5.012
 1202SOL     OW 4504   6.507   0.479   4.768
 1202SOL    HW1 4505   6.419   0.432   4.759
 1202SOL    HW2 4506   6.555   0.444   4.848
 1203SOL     OW 4507   6.302   6.474   2.428
 1203SOL    HW1 4508   6.228   6.407   2.429
 1203SOL    HW2 4509   6.378   6.438   2.374
 1204SOL     OW 4510   1.263   6.973   0.257
 1204SOL    HW1 4511   1.237   6.933   0.170
 1204SOL    HW2 4512   1.201   0.025   0.280
 1205SOL     OW 4513   0.859   3.027   5.466
 1205SOL    HW1 4514   0.846   2.980   5.553
 1205SOL    HW2 4515   0.785   3.002   5.403
 1206SOL     OW 4516   0.078   1.563   4.528
 1206SOL    HW1 4517   0.008   1.533   4.464
 1206SOL    HW2 4518   0.084   1.498   4.604
 1207SOL     OW 4519   6.114   6.611   6.861
 1207SOL    HW1 4520   6.158   6.699   6.841
 1207SOL    HW2 4521   6.080   6.611   6.955
 1208SOL     OW 4522   3.740   3.515   2.980
 1208SOL    HW1 4523   3.687   3.599   2.980
 1208SOL    HW2 4524   3.705   3.452   2.911
 1209SOL     OW 4525   6.855   4.204   4.875
 1209SOL    HW1 4526   6.887   4.218   4.782
 1209SOL    HW2 4527   6.931   4.174   4.933
 1210SOL     OW 4528   2.402   6.941   2.850
 1210SOL    HW1 4529   2.405   7.023   2.907
 1210SOL    HW2 4530   2.343   6.873   2.893
 1211SOL     OW 4531   1.142   3.033   3.191
 1211SOL    HW1 4532   1.092   3.077   3.116
 1211SOL    HW2 4533   1.080   2.976   3.245
 1212SOL     OW 4534   0.938   4.553   3.669
 1212SOL    HW1 4535   1.032   4.585   3.674
 1212SOL    HW2 4536   0.876   4.630   3.686
 1213SOL     OW 4537   5.972   3.575   5.158
 1213SOL    HW1 4538   5.948   3.568   5.061
 1213SOL    HW2 4539   5.890   3.559   5.214
 1214SOL     OW 4540   1.457   1.696   1.524
 1214SOL    HW1 4541   1.545   1.668   1.563
 1214SOL    HW2 4542   1.409   1.617   1.487
 1215SOL     OW 4543   0.443   5.416   1.995
 1215SOL    HW1 4544   0.411   5.337   2.047
 1215SOL    HW2 4545   0.431   5.499   2.049
 1216SOL     OW 4546   2.442   0.104   1.338
 1216SOL    HW1 4547   2.529   0.106   1.387
 1216SOL    HW2 4548   2.444   0.171   1.263
 1217SOL     OW 4549   2.170   2.365   2.899
 1217SOL    HW1 4550   2.128   2.421   2.828
 1217SOL    HW2 4551   2.136   2.271   2.892
 1218SOL     OW 4552   0.579   3.220   3.367
 1218SOL    HW1 4553   0.528   3.187   3.288
 1218SOL    HW2 4554   0.614   3.142   3.419
 1219SOL     OW 4555   2.842   5.496   3.480
 1219SOL    HW1 4556   2.770   5.517   3.547
 1219SOL    HW2 4557   2.809   5.425   3.418
 1220SOL     OW 4558   6.439   4.795   2.090
 1220SOL    HW1 4559   6.493   4.719   2.126
 1220SOL    HW2 4560   6.356   4.806   2.145
 1221SOL     OW 4561   4.857   4.767   5.673
 1221SOL    HW1 4562   4.863   4.740   5.577
 1221SOL    HW2 4563   4.926   4.837   5.692
 1222SOL     OW 4564   6.339   4.606   1.265
 1222SOL    HW1 4565   6.413   4.568   1.209
 1222SOL    HW2 4566   6.279   4.662   1.208
 1223SOL     OW 4567   7.011   4.799   5.205
 1223SOL    HW1 4568   6.981   4.851   5.284
 1223SOL    HW2 4569   6.974   4.840   5.122
 1224SOL     OW 4570   4.089   4.715   0.808
 1224SOL    HW1 4571   3.991   4.697   0.809
 1224SOL    HW2 4572   4.107   4.801   0.760
 1225SOL     OW 4573   4.136   1.504   6.774
 1225SOL    HW1 4574   4.195   1.532   6.850
 1225SOL    HW2 4575   4.191   1.491   6.692
 1226SOL     OW 4576   5.918   5.654   1.088
 1226SOL    HW1 4577   5.899   5.701   1.001
 1226SOL    HW2 4578   5.834   5.617   1.126
 1227SOL     OW 4579   4.998   4.620   6.947
 1227SOL    HW1 4580   5.018   4.713   6.916
 1227SOL    HW2 4581   4.900   4.609   6.959
 1228SOL     OW 4582   3.784   3.992   4.132
 1228SOL    HW1 4583   3.836   3.939   4.199
 1228SOL    HW2 4584   3.728   4.060   4.179
 1229SOL     OW 4585   2.490   5.405   3.046
 1229SOL    HW1 4586   2.589   5.418   3.048
 1229SOL    HW2 4587   2.453   5.441   2.960
 1230SOL     OW 4588   4.325   4.854   0.998
 1230SOL    HW1 4589   4.291   4.946   1.020
 1230SOL    HW2 4590   4.247   4.791   0.991
 1231SOL     OW 4591   2.043   1.525   0.272
 1231SOL    HW1 4592   2.053   1.432   0.238
 1231SOL    HW2 4593   2.131   1.559   0.304
 1232SOL     OW 4594   2.721   1.618   5.400
 1232SOL    HW1 4595   2.723   1.526   5.360
 1232SOL    HW2 4596   2.688   1.684   5.332
 1233SOL     OW 4597   0.197   5.276   4.778
 1233SOL    HW1 4598   0.221   5.312   4.688
 1233SOL    HW2 4599   0.175   5.352   4.839
 1234SOL     OW 4600   6.266   4.719   6.876
 1234SOL    HW1 4601   6.263   4.623   6.905
 1234SOL    HW2 4602   6.300   4.725   6.782
 1235SOL     OW 4603   5.973   4.817   1.223
 1235SOL    HW1 4604   5.978   4.916   1.233
 1235SOL    HW2 4605   5.893   4.793   1.169
 1236SOL     OW 4606   1.000   1.148   2.593
 1236SOL    HW1 4607   1.089   1.163   2.638
 1236SOL    HW2 4608   0.978   1.051   2.594
 1237SOL     OW 4609   1.165   0.349   4.096
 1237SOL    HW1 4610   1.149   0.298   4.181
 1237SOL    HW2 4611   1.232   0.422   4.113
 1238SOL     OW 4612   0.770   0.370   4.261
 1238SOL    HW1 4613   0.671   0.361   4.263
 1238SOL    HW2 4614   0.808   0.307   4.193
 1239SOL     OW 4615   5.071   4.390   4.111
 1239SOL    HW1 4616   5.008   4.430   4.045
 1239SOL    HW2 4617   5.035   4.401   4.204
 1240SOL     OW 4618   0.483   3.568   0.599
 1240SOL    HW1 4619   0.396   3.519   0.609
 1240SOL    HW2 4620   0.485   3.645   0.663
 1241SOL     OW 4621   3.909   5.478   5.919
 1241SOL    HW1 4622   3.864   5.396   5.883
 1241SOL    HW2 4623   3.843   5.533   5.970
 1242SOL     OW 4624   1.957   5.010   0.466
 1242SOL    HW1 4625   1.900   5.091   0.457
 1242SOL    HW2 4626   2.042   5.034   0.513
 1243SOL     OW 4627   1.303   3.856   3.595
 1243SOL    HW1 4628   1.396   3.883   3.622
 1243SOL    HW2 4629   1.304   3.830   3.498
 1244SOL     OW 4630   6.414   6.888   4.765
 1244SOL    HW1 4631   6.351   6.936   4.704
 1244SOL    HW2 4632   6.419   6.936   4.853
 1245SOL     OW 4633   4.577   6.631   1.182
 1245SOL    HW1 4634   4.617   6.575   1.108
 1245SOL    HW2 4635   4.512   6.695   1.143
 1246SOL     OW 4636   5.919   1.818   1.462
 1246SOL    HW1 4637   5.840   1.817   1.524
 1246SOL    HW2 4638   5.961   1.908   1.463
 1247SOL     OW 4639   5.338   0.043   2.740
 1247SOL    HW1 4640   5.339   0.090   2.829
 1247SOL    HW2 4641   5.269   6.995   2.742
 1248SOL     OW 4642   0.545   6.841   4.626
 1248SOL    HW1 4643   0.456   6.876   4.654
 1248SOL    HW2 4644   0.613   6.863   4.696
 1249SOL     OW 4645   5.787   6.460   0.055
 1249SOL    HW1 4646   5.877   6.475   0.097
 1249SOL    HW2 4647   5.736   6.546   0.056
 1250SOL     OW 4648   0.527   4.668   4.783
 1250SOL    HW1 4649   0.529   4.569   4.768
 1250SOL    HW2 4650   0.432   4.700   4.779
 1251SOL     OW 4651   3.088   0.220   2.645
 1251SOL    HW1 4652   3.123   0.146   2.703
 1251SOL    HW2 4653   3.032   0.180   2.572
 1252SOL     OW 4654   2.550   5.387   6.109
 1252SOL    HW1 4655   2.548   5.450   6.032
 1252SOL    HW2 4656   2.629   5.408   6.167
 1253SOL     OW 4657   2.526   6.195   0.070
 1253SOL    HW1 4658   2.600   6.186   0.137
 1253SOL    HW2 4659   2.442   6.223   0.117
 1254SOL     OW 4660   6.444   1.318   3.706
 1254SOL    HW1 4661   6.374   1.351   3.769
 1254SOL    HW2 4662   6.413   1.329   3.612
 1255SOL     OW 4663   6.015   2.027   5.703
 1255SOL    HW1 4664   6.090   2.040   5.768
 1255SOL    HW2 4665   6.000   2.111   5.651
 1256SOL     OW 4666   0.163   5.924   5.117
 1256SOL    HW1 4667   0.252   5.955   5.086
 1256SOL    HW2 4668   0.170   5.892   5.211
 1257SOL     OW 4669   0.040   6.340   3.428
 1257SOL    HW1 4670   6.981   6.325   3.373
 1257SOL    HW2 4671   0.119   6.349   3.368
 1258SOL     OW 4672   4.351   5.921   6.518
 1258SOL    HW1 4673   4.289   5.886   6.589
 1258SOL    HW2 4674   4.364   6.019   6.530
 1259SOL     OW 4675   5.713   6.620   5.274
 1259SOL    HW1 4676   5.731   6.638   5.177
 1259SOL    HW2 4677   5.627   6.664   5.301
 1260SOL     OW 4678   3.053   1.378   0.555
 1260SOL    HW1 4679   2.999   1.444   0.502
 1260SOL    HW2 4680   3.140   1.361   0.508
 1261SOL     OW 4681   6.897   4.415   4.355
 1261SOL    HW1 4682   6.985   4.368   4.347
 1261SOL    HW2 4683   6.911   4.507   4.392
 1262SOL     OW 4684   3.915   5.589   1.613
 1262SOL    HW1 4685   3.889   5.513   1.672
 1262SOL    HW2 4686   3.834   5.643   1.590
 1263SOL     OW 4687   6.928   1.777   0.998
 1263SOL    HW1 4688   6.929   1.718   1.078
 1263SOL    HW2 4689   7.001   1.845   1.006
 1264SOL     OW 4690   6.520   2.665   4.862
 1264SOL    HW1 4691   6.545   2.592   4.798
 1264SOL    HW2 4692   6.555   2.752   4.829
 1265SOL     OW 4693   6.026   5.690   4.589
 1265SOL    HW1 4694   6.073   5.683   4.677
 1265SOL    HW2 4695   5.992   5.783   4.576
 1266SOL     OW 4696   3.449   0.792   3.988
 1266SOL    HW1 4697   3.375   0.833   3.935
 1266SOL    HW2 4698   3.425   0.793   4.085
 1267SOL     OW 4699   0.056   4.487   2.440
 1267SOL    HW1 4700   0.069   4.582   2.467
 1267SOL    HW2 4701   0.084   4.427   2.514
 1268SOL     OW 4702   5.942   4.557   6.872
 1268SOL    HW1 4703   5.895   4.531   6.956
 1268SOL    HW2 4704   5.993   4.642   6.887
 1269SOL     OW 4705   6.769   4.930   6.700
 1269SOL    HW1 4706   6.850   4.886   6.741
 1269SOL    HW2 4707   6.764   4.907   6.603
 1270SOL     OW 4708   1.367   1.720   4.090
 1270SOL    HW1 4709   1.304   1.782   4.137
 1270SOL    HW2 4710   1.353   1.727   3.992
 1271SOL     OW 4711   4.914   2.490   3.687
 1271SOL    HW1 4712   4.833   2.496   3.746
 1271SOL    HW2 4713   4.890   2.518   3.594
 1272SOL     OW 4714   6.068   6.367   0.414
 1272SOL    HW1 4715   6.124   6.450   0.404
 1272SOL    HW2 4716   6.062   6.342   0.511
 1273SOL     OW 4717   2.601   6.939   5.783
 1273SOL    HW1 4718   2.565   6.850   5.812
 1273SOL    HW2 4719   2.526   6.997   5.751
 1274SOL     OW 4720   5.970   2.101   2.359
 1274SOL    HW1 4721   5.958   2.084   2.262
 1274SOL    HW2 4722   6.066   2.088   2.385
 1275SOL     OW 4723   4.218   1.751   3.677
 1275SOL    HW1 4724   4.243   1.659   3.648
 1275SOL    HW2 4725   4.149   1.746   3.749
 1276SOL     OW 4726   6.486   0.014   2.465
 1276SOL    HW1 4727   6.558   6.980   2.503
 1276SOL    HW2 4728   6.464   0.086   2.531
 1277SOL     OW 4729   1.145   1.503   4.259
 1277SOL    HW1 4730   1.059   1.554   4.249
 1277SOL    HW2 4731   1.222   1.566   4.258
 1278SOL     OW 4732   3.123   1.332   5.858
 1278SOL    HW1 4733   3.136   1.243   5.901
 1278SOL    HW2 4734   3.103   1.401   5.929
 1279SOL     OW 4735   2.086   4.842   0.244
 1279SOL    HW1 4736   2.045   4.883   0.326
 1279SOL    HW2 4737   2.185   4.856   0.245
 1280SOL     OW 4738   1.585   5.699   2.728
 1280SOL    HW1 4739   1.661   5.670   2.786
 1280SOL    HW2 4740   1.606   5.788   2.688
 1281SOL     OW 4741   0.805   6.736   4.163
 1281SOL    HW1 4742   0.743   6.720   4.240
 1281SOL    HW2 4743   0.858   6.653   4.145
 1282SOL     OW 4744   1.243   6.485   2.536
 1282SOL    HW1 4745   1.205   6.577   2.527
 1282SOL    HW2 4746   1.311   6.484   2.609
 1283SOL     OW 4747   4.911   4.085   5.033
 1283SOL    HW1 4748   5.010   4.074   5.024
 1283SOL    HW2 4749   4.883   4.168   4.985
 1284SOL     OW 4750   3.015   1.966   3.186
 1284SOL    HW1 4751   2.917   1.944   3.187
 1284SOL    HW2 4752   3.033   2.036   3.255
 1285SOL     OW 4753   5.761   2.944   5.679
 1285SOL    HW1 4754   5.750   2.896   5.592
 1285SOL    HW2 4755   5.859   2.950   5.701
 1286SOL     OW 4756   6.009   6.129   1.889
 1286SOL    HW1 4757   5.976   6.129   1.795
 1286SOL    HW2 4758   6.005   6.037   1.926
 1287SOL     OW 4759   6.310   4.366   5.717
 1287SOL    HW1 4760   6.404   4.348   5.687
 1287SOL    HW2 4761   6.269   4.437   5.659
 1288SOL     OW 4762   6.471   2.766   4.021
 1288SOL    HW1 4763   6.400   2.742   4.087
 1288SOL    HW2 4764   6.429   2.790   3.934
 1289SOL     OW 4765   0.190   4.998   2.851
 1289SOL    HW1 4766   0.172   5.052   2.934
 1289SOL    HW2 4767   0.103   4.972   2.809
 1290SOL     OW 4768   0.407   0.375   0.970
 1290SOL    HW1 4769   0.398   0.359   0.872
 1290SOL    HW2 4770   0.497   0.414   0.990
 1291SOL     OW 4771   1.608   6.904   0.941
 1291SOL    HW1 4772   1.679   6.866   1.001
 1291SOL    HW2 4773   1.518   6.881   0.978
 1292SOL     OW 4774   0.842   5.891   6.392
 1292SOL    HW1 4775   0.802   5.807   6.430
 1292SOL    HW2 4776   0.801   5.970   6.437
 1293SOL     OW 4777   6.029   2.650   6.126
 1293SOL    HW1 4778   5.936   2.614   6.115
 1293SOL    HW2 4779   6.035   2.741   6.085
 1294SOL     OW 4780   0.646   1.775   3.446
 1294SOL    HW1 4781   0.566   1.797   3.502
 1294SOL    HW2 4782   0.639   1.682   3.412
 1295SOL     OW 4783   5.180   3.522   1.559
 1295SOL    HW1 4784   5.123   3.513   1.477
 1295SOL    HW2 4785   5.177   3.437   1.612
 1296SOL     OW 4786   3.821   2.287   0.415
 1296SOL    HW1 4787   3.781   2.273   0.506
 1296SOL    HW2 4788   3.846   2.383   0.404
 1297SOL     OW 4789   6.794   0.853   6.164
 1297SOL    HW1 4790   6.835   0.807   6.243
 1297SOL    HW2 4791   6.820   0.950   6.165
 1298SOL     OW 4792   6.649   2.396   3.297
 1298SOL    HW1 4793   6.600   2.327   3.243
 1298SOL    HW2 4794   6.661   2.479   3.242
 1299SOL     OW 4795   1.201   2.997   4.008
 1299SOL    HW1 4796   1.238   2.931   4.073
 1299SOL    HW2 4797   1.137   2.951   3.946
 1300SOL     OW 4798   3.991   3.423   1.954
 1300SOL    HW1 4799   4.044   3.494   2.000
 1300SOL    HW2 4800   4.040   3.336   1.959
 1301SOL     OW 4801   0.900   0.728   2.392
 1301SOL    HW1 4802   0.861   0.667   2.461
 1301SOL    HW2 4803   0.840   0.731   2.312
 1302SOL     OW 4804   2.983   5.965   5.340
 1302SOL    HW1 4805   2.933   5.899   5.283
 1302SOL    HW2 4806   3.016   5.919   5.422
 1303SOL     OW 4807   2.767   0.437   1.142
 1303SOL    HW1 4808   2.824   0.431   1.223
 1303SOL    HW2 4809   2.676   0.470   1.167
 1304SOL     OW 4810   3.394   1.233   6.322
 1304SOL    HW1 4811   3.492   1.212   6.315
 1304SOL    HW2 4812   3.348   1.160   6.373
 1305SOL     OW 4813   5.935   5.878   3.946
 1305SOL    HW1 4814   5.971   5.796   3.990
 1305SOL    HW2 4815   5.932   5.953   4.013
 1306SOL     OW 4816   1.409   5.133   4.787
 1306SOL    HW1 4817   1.376   5.139   4.882
 1306SOL    HW2 4818   1.437   5.224   4.756
 1307SOL     OW 4819   0.967   1.657   3.960
 1307SOL    HW1 4820   0.963   1.725   3.887
 1307SOL    HW2 4821   1.024   1.580   3.930
 1308SOL     OW 4822   4.491   6.222   3.237
 1308SOL    HW1 4823   4.459   6.300   3.183
 1308SOL    HW2 4824   4.426   6.203   3.310
 1309SOL     OW 4825   5.408   3.080   4.708
 1309SOL    HW1 4826   5.398   3.138   4.627
 1309SOL    HW2 4827   5.319   3.043   4.734
 1310SOL     OW 4828   5.639   3.769   5.418
 1310SOL    HW1 4829   5.633   3.725   5.508
 1310SOL    HW2 4830   5.579   3.849   5.416
 1311SOL     OW 4831   5.292   5.091   5.198
 1311SOL    HW1 4832   5.239   5.104   5.114
 1311SOL    HW2 4833   5.309   5.179   5.241
 1312SOL     OW 4834   6.165   0.203   1.905
 1312SOL    HW1 4835   6.194   0.272   1.971
 1312SOL    HW2 4836   6.243   0.149   1.876
 1313SOL     OW 4837   3.112   4.893   4.655
 1313SOL    HW1 4838   3.132   4.940   4.741
 1313SOL    HW2 4839   3.064   4.807   4.674
 1314SOL     OW 4840   6.072   1.481   5.741
 1314SOL    HW1 4841   6.003   1.554   5.749
 1314SOL    HW2 4842   6.158   1.520   5.709
 1315SOL     OW 4843   1.806   6.988   3.358
 1315SOL    HW1 4844   1.754   0.048   3.346
 1315SOL    HW2 4845   1.884   6.988   3.295
 1316SOL     OW 4846   3.794   6.354   2.952
 1316SOL    HW1 4847   3.883   6.310   2.962
 1316SOL    HW2 4848   3.729   6.313   3.016
 1317SOL     OW 4849   0.387   3.408   4.173
 1317SOL    HW1 4850   0.449   3.405   4.094
 1317SOL    HW2 4851   0.294   3.389   4.142
 1318SOL     OW 4852   1.141   6.286   1.499
 1318SOL    HW1 4853   1.195   6.250   1.423
 1318SOL    HW2 4854   1.198   6.345   1.556
 1319SOL     OW 4855   6.512   0.853   0.564
 1319SOL    HW1 4856   6.458   0.822   0.486
 1319SOL    HW2 4857   6.575   0.925   0.534
 1320SOL     OW 4858   4.935   5.934   4.897
 1320SOL    HW1 4859   4.947   5.866   4.970
 1320SOL    HW2 4860   4.845   5.977   4.907
 1321SOL     OW 4861   3.267   1.636   6.993
 1321SOL    HW1 4862   3.251   1.620   6.895
 1321SOL    HW2 4863   3.330   1.712   7.005
 1322SOL     OW 4864   5.133   1.979   6.064
 1322SOL    HW1 4865   5.229   1.991   6.041
 1322SOL    HW2 4866   5.083   1.951   5.982
 1323SOL     OW 4867   6.370   1.361   4.404
 1323SOL    HW1 4868   6.278   1.398   4.419
 1323SOL    HW2 4869   6.407   1.398   4.318
 1324SOL     OW 4870   1.285   3.042   0.295
 1324SOL    HW1 4871   1.308   3.111   0.226
 1324SOL    HW2 4872   1.250   3.087   0.377
 1325SOL     OW 4873   4.376   5.386   3.576
 1325SOL    HW1 4874   4.345   5.408   3.668
 1325SOL    HW2 4875   4.305   5.409   3.510
 1326SOL     OW 4876   5.234   4.117   4.408
 1326SOL    HW1 4877   5.213   4.026   4.444
 1326SOL    HW2 4878   5.167   4.141   4.338
 1327SOL     OW 4879   2.843   6.250   4.379
 1327SOL    HW1 4880   2.755   6.209   4.356
 1327SOL    HW2 4881   2.860   6.328   4.318
 1328SOL     OW 4882   2.319   1.526   0.889
 1328SOL    HW1 4883   2.390   1.473   0.934
 1328SOL    HW2 4884   2.361   1.592   0.827
 1329SOL     OW 4885   0.627   6.656   2.040
 1329SOL    HW1 4886   0.654   6.697   2.127
 1329SOL    HW2 4887   0.708   6.643   1.983
 1330SOL     OW 4888   4.727   6.470   1.003
 1330SOL    HW1 4889   4.729   6.393   1.067
 1330SOL    HW2 4890   4.821   6.497   0.981
 1331SOL     OW 4891   0.599   1.950   1.979
 1331SOL    HW1 4892   0.506   1.955   1.941
 1331SOL    HW2 4893   0.606   1.870   2.039
 1332SOL     OW 4894   4.052   1.672   1.530
 1332SOL    HW1 4895   3.991   1.614   1.583
 1332SOL    HW2 4896   4.004   1.707   1.450
 1333SOL     OW 4897   4.057   3.679   4.546
 1333SOL    HW1 4898   4.104   3.622   4.613
 1333SOL    HW2 4899   3.973   3.715   4.586
 1334SOL     OW 4900   0.721   3.789   3.792
 1334SOL    HW1 4901   0.703   3.844   3.874
 1334SOL    HW2 4902   0.716   3.847   3.711
 1335SOL     OW 4903   2.470   5.557   2.816
 1335SOL    HW1 4904   2.521   5.472   2.803
 1335SOL    HW2 4905   2.495   5.622   2.744
 1336SOL     OW 4906   0.467   0.507   5.432
 1336SOL    HW1 4907   0.525   0.561   5.493
 1336SOL    HW2 4908   0.433   0.565   5.358
 1337SOL     OW 4909   3.571   0.512   6.768
 1337SOL    HW1 4910   3.483   0.541   6.806
 1337SOL    HW2 4911   3.587   0.416   6.791
 1338SOL     OW 4912   3.153   5.073   1.291
 1338SOL    HW1 4913   3.153   5.157   1.237
 1338SOL    HW2 4914   3.246   5.050   1.318
 1339SOL     OW 4915   0.076   4.452   6.925
 1339SOL    HW1 4916   7.006   4.446   6.892
 1339SOL    HW2 4917   0.136   4.482   6.851
 1340SOL     OW 4918   1.890   1.137   6.228
 1340SOL    HW1 4919   1.798   1.167   6.204
 1340SOL    HW2 4920   1.913   1.054   6.177
 1341SOL     OW 4921   5.553   2.581   4.172
 1341SOL    HW1 4922   5.512   2.507   4.118
 1341SOL    HW2 4923   5.597   2.647   4.111
 1342SOL     OW 4924   0.559   6.697   1.604
 1342SOL    HW1 4925   0.603   6.628   1.661
 1342SOL    HW2 4926   0.622   6.728   1.533
 1343SOL     OW 4927   2.805   5.530   4.223
 1343SOL    HW1 4928   2.821   5.431   4.224
 1343SOL    HW2 4929   2.830   5.569   4.311
 1344SOL     OW 4930   5.246   1.392   2.835
 1344SOL    HW1 4931   5.178   1.345   2.780
 1344SOL    HW2 4932   5.337   1.356   2.813
 1345SOL     OW 4933   0.817   5.833   3.086
 1345SOL    HW1 4934   0.874   5.754   3.064
 1345SOL    HW2 4935   0.870   5.917   3.070
 1346SOL     OW 4936   0.393   1.453   3.447
 1346SOL    HW1 4937   0.374   1.500   3.533
 1346SOL    HW2 4938   0.481   1.482   3.411
 1347SOL     OW 4939   4.836   0.387   3.692
 1347SOL    HW1 4940   4.776   0.316   3.729
 1347SOL    HW2 4941   4.839   0.465   3.755
 1348SOL     OW 4942   4.308   5.856   4.384
 1348SOL    HW1 4943   4.374   5.923   4.418
 1348SOL    HW2 4944   4.354   5.794   4.321
 1349SOL     OW 4945   4.214   2.324   6.964
 1349SOL    HW1 4946   4.299   2.289   7.005
 1349SOL    HW2 4947   4.144   2.331   0.011
 1350SOL     OW 4948   3.335   0.836   5.193
 1350SOL    HW1 4949   3.303   0.903   5.259
 1350SOL    HW2 4950   3.415   0.789   5.229
 1351SOL     OW 4951   1.569   1.713   4.290
 1351SOL    HW1 4952   1.519   1.718   4.204
 1351SOL    HW2 4953   1.508   1.736   4.366
 1352SOL     OW 4954   0.739   6.483   3.993
 1352SOL    HW1 4955   0.733   6.541   3.912
 1352SOL    HW2 4956   0.825   6.502   4.041
 1353SOL     OW 4957   2.080   2.816   5.368
 1353SOL    HW1 4958   2.053   2.728   5.330
 1353SOL    HW2 4959   2.089   2.883   5.294
 1354SOL     OW 4960   0.212   0.098   0.414
 1354SOL    HW1 4961   0.120   0.061   0.402
 1354SOL    HW2 4962   0.259   0.048   0.487
 1355SOL     OW 4963   3.863   3.143   6.942
 1355SOL    HW1 4964   3.888   3.221   6.885
 1355SOL    HW2 4965   3.764   3.129   6.938
 1356SOL     OW 4966   3.257   2.872   1.791
 1356SOL    HW1 4967   3.261   2.933   1.870
 1356SOL    HW2 4968   3.164   2.873   1.753
 1357SOL     OW 4969   3.152   2.964   5.703
 1357SOL    HW1 4970   3.069   3.018   5.691
 1357SOL    HW2 4971   3.136   2.870   5.674
 1358SOL     OW 4972   1.620   3.685   6.097
 1358SOL    HW1 4973   1.663   3.758   6.150
 1358SOL    HW2 4974   1.630   3.598   6.147
 1359SOL     OW 4975   0.134   1.754   0.162
 1359SOL    HW1 4976   0.050   1.731   0.113
 1359SOL    HW2 4977   0.149   1.688   0.236
 1360SOL     OW 4978   3.203   3.079   4.204
 1360SOL    HW1 4979   3.131   3.097   4.271
 1360SOL    HW2 4980   3.262   3.160   4.197
 1361SOL     OW 4981   0.582   6.085   1.091
 1361SOL    HW1 4982   0.632   6.168   1.067
 1361SOL    HW2 4983   0.626   6.041   1.170
 1362SOL     OW 4984   3.114   2.142   6.894
 1362SOL    HW1 4985   3.192   2.081   6.884
 1362SOL    HW2 4986   3.092   2.184   6.805
 1363SOL     OW 4987   6.651   6.724   1.381
 1363SOL    HW1 4988   6.672   6.822   1.381
 1363SOL    HW2 4989   6.553   6.711   1.364
 1364SOL     OW 4990   0.733   3.319   0.704
 1364SOL    HW1 4991   0.681   3.253   0.650
 1364SOL    HW2 4992   0.670   3.376   0.757
 1365SOL     OW 4993   0.870   3.693   5.652
 1365SOL    HW1 4994   0.786   3.643   5.673
 1365SOL    HW2 4995   0.887   3.761   5.723
 1366SOL     OW 4996   3.661   0.860   1.569
 1366SOL    HW1 4997   3.645   0.951   1.605
 1366SOL    HW2 4998   3.685   0.866   1.472
 1367SOL     OW 4999   1.362   6.982   4.777
 1367SOL    HW1 5000   1.375   7.002   4.680
 1367SOL    HW2 5001   1.281   6.925   4.790
 1368SOL     OW 5002   1.667   6.275   5.020
 1368SOL    HW1 5003   1.760   6.257   4.990
 1368SOL    HW2 5004   1.668   6.317   5.111
 1369SOL     OW 5005   2.659   5.567   3.674
 1369SOL    HW1 5006   2.572   5.523   3.650
 1369SOL    HW2 5007   2.698   5.521   3.754
 1370SOL     OW 5008   6.940   2.738   2.976
 1370SOL    HW1 5009   6.976   2.795   2.901
 1370SOL    HW2 5010   6.938   2.642   2.947
 1371SOL     OW 5011   5.865   2.110   5.292
 1371SOL    HW1 5012   5.938   2.172   5.263
 1371SOL    HW2 5013   5.846   2.045   5.218
 1372SOL     OW 5014   6.132   2.729   1.387
 1372SOL    HW1 5015   6.036   2.718   1.413
 1372SOL    HW2 5016   6.184   2.759   1.467
 1373SOL     OW 5017   5.976   3.334   2.177
 1373SOL    HW1 5018   6.007   3.314   2.084
 1373SOL    HW2 5019   6.055   3.352   2.235
 1374SOL     OW 5020   3.822   3.038   2.091
 1374SOL    HW1 5021   3.767   2.964   2.052
 1374SOL    HW2 5022   3.879   3.078   2.019
 1375SOL     OW 5023   5.231   4.756   4.640
 1375SOL    HW1 5024   5.208   4.780   4.734
 1375SOL    HW2 5025   5.283   4.671   4.639
 1376SOL     OW 5026   3.305   4.038   5.646
 1376SOL    HW1 5027   3.265   4.114   5.697
 1376SOL    HW2 5028   3.404   4.036   5.662
 1377SOL     OW 5029   1.607   1.338   2.778
 1377SOL    HW1 5030   1.589   1.431   2.811
 1377SOL    HW2 5031   1.528   1.305   2.727
 1378SOL     OW 5032   5.114   2.076   4.312
 1378SOL    HW1 5033   5.081   2.052   4.404
 1378SOL    HW2 5034   5.137   2.174   4.310
 1379SOL     OW 5035   4.356   5.669   7.022
 1379SOL    HW1 5036   4.366   5.607   0.076
 1379SOL    HW2 5037   4.378   5.620   6.937
 1380SOL     OW 5038   0.191   6.095   3.648
 1380SOL    HW1 5039   0.251   6.134   3.578
 1380SOL    HW2 5040   0.205   6.143   3.735
 1381SOL     OW 5041   6.399   2.318   5.949
 1381SOL    HW1 5042   6.471   2.264   5.907
 1381SOL    HW2 5043   6.417   2.328   6.047
 1382SOL     OW 5044   4.880   2.425   6.709
 1382SOL    HW1 5045   4.832   2.513   6.705
 1382SOL    HW2 5046   4.813   2.351   6.713
 1383SOL     OW 5047   6.618   0.605   0.663
 1383SOL    HW1 5048   6.704   0.645   0.630
 1383SOL    HW2 5049   6.541   0.652   0.620
 1384SOL     OW 5050   6.214   1.993   2.063
 1384SOL    HW1 5051   6.313   2.005   2.056
 1384SOL    HW2 5052   6.191   1.897   2.051
 1385SOL     OW 5053   0.178   6.074   1.409
 1385SOL    HW1 5054   0.224   6.122   1.484
 1385SOL    HW2 5055   0.207   6.113   1.322
 1386SOL     OW 5056   2.162   5.624   4.375
 1386SOL    HW1 5057   2.118   5.573   4.448
 1386SOL    HW2 5058   2.095   5.646   4.303
 1387SOL     OW 5059   2.241   5.600   2.013
 1387SOL    HW1 5060   2.292   5.676   2.054
 1387SOL    HW2 5061   2.298   5.553   1.946
 1388SOL     OW 5062   6.588   0.471   1.838
 1388SOL    HW1 5063   6.533   0.542   1.881
 1388SOL    HW2 5064   6.647   0.428   1.907
 1389SOL     OW 5065   5.897   0.811   2.407
 1389SOL    HW1 5066   5.965   0.803   2.334
 1389SOL    HW2 5067   5.898   0.727   2.462
 1390SOL     OW 5068   1.425   1.869   4.514
 1390SOL    HW1 5069   1.397   1.935   4.584
 1390SOL    HW2 5070   1.436   1.779   4.556
 1391SOL     OW 5071   0.415   3.108   3.192
 1391SOL    HW1 5072   0.322   3.139   3.174
 1391SOL    HW2 5073   0.413   3.033   3.258
 1392SOL     OW 5074   5.389   4.399   4.259
 1392SOL    HW1 5075   5.301   4.445   4.260
 1392SOL    HW2 5076   5.452   4.446   4.320
 1393SOL     OW 5077   3.493   5.554   6.623
 1393SOL    HW1 5078   3.463   5.522   6.713
 1393SOL    HW2 5079   3.446   5.503   6.552
 1394SOL     OW 5080   1.411   6.175   6.773
 1394SOL    HW1 5081   1.487   6.113   6.790
 1394SOL    HW2 5082   1.433   6.266   6.809
 1395SOL     OW 5083   4.081   4.997   5.929
 1395SOL    HW1 5084   3.989   4.969   5.956
 1395SOL    HW2 5085   4.145   4.979   6.004
 1396SOL     OW 5086   6.114   6.512   3.835
 1396SOL    HW1 5087   6.065   6.587   3.879
 1396SOL    HW2 5088   6.120   6.435   3.899
 1397SOL     OW 5089   4.915   6.206   5.490
 1397SOL    HW1 5090   4.852   6.169   5.558
 1397SOL    HW2 5091   4.883   6.180   5.398
 1398SOL     OW 5092   2.038   0.898   4.276
 1398SOL    HW1 5093   1.992   0.977   4.235
 1398SOL    HW2 5094   2.091   0.928   4.355
 1399SOL     OW 5095   3.127   5.947   2.072
 1399SOL    HW1 5096   3.153   6.031   2.023
 1399SOL    HW2 5097   3.045   5.908   2.031
 1400SOL     OW 5098   2.079   6.754   2.420
 1400SOL    HW1 5099   2.152   6.775   2.486
 1400SOL    HW2 5100   2.057   6.657   2.424
 1401SOL     OW 5101   6.520   1.588   4.263
 1401SOL    HW1 5102   6.511   1.508   4.204
 1401SOL    HW2 5103   6.611   1.627   4.252
 1402SOL     OW 5104   6.258   3.222   0.238
 1402SOL    HW1 5105   6.200   3.262   0.309
 1402SOL    HW2 5106   6.337   3.178   0.280
 1403SOL     OW 5107   3.500   0.495   2.213
 1403SOL    HW1 5108   3.546   0.451   2.290
 1403SOL    HW2 5109   3.559   0.491   2.132
 1404SOL     OW 5110   5.329   1.769   0.405
 1404SOL    HW1 5111   5.353   1.744   0.311
 1404SOL    HW2 5112   5.406   1.748   0.466
 1405SOL     OW 5113   3.305   2.948   1.415
 1405SOL    HW1 5114   3.230   3.004   1.448
 1405SOL    HW2 5115   3.277   2.852   1.413
 1406SOL     OW 5116   1.364   4.504   1.529
 1406SOL    HW1 5117   1.358   4.561   1.611
 1406SOL    HW2 5118   1.458   4.472   1.517
 1407SOL     OW 5119   6.404   2.341   2.857
 1407SOL    HW1 5120   6.463   2.260   2.853
 1407SOL    HW2 5121   6.391   2.368   2.953
 1408SOL     OW 5122   6.589   6.998   6.566
 1408SOL    HW1 5123   6.627   6.911   6.534
 1408SOL    HW2 5124   6.492   7.002   6.543
 1409SOL     OW 5125   0.672   1.538   3.902
 1409SOL    HW1 5126   0.644   1.451   3.863
 1409SOL    HW2 5127   0.757   1.526   3.954
 1410SOL     OW 5128   6.685   2.811   7.013
 1410SOL    HW1 5129   6.622   2.735   6.996
 1410SOL    HW2 5130   6.686   2.872   6.934
 1411SOL     OW 5131   2.225   0.411   1.791
 1411SOL    HW1 5132   2.268   0.340   1.846
 1411SOL    HW2 5133   2.181   0.478   1.851
 1412SOL     OW 5134   1.561   2.744   6.857
 1412SOL    HW1 5135   1.595   2.651   6.841
 1412SOL    HW2 5136   1.531   2.784   6.770
 1413SOL     OW 5137   3.283   6.804   3.748
 1413SOL    HW1 5138   3.297   6.895   3.787
 1413SOL    HW2 5139   3.313   6.735   3.814
 1414SOL     OW 5140   3.197   0.759   1.795
 1414SOL    HW1 5141   3.288   0.775   1.832
 1414SOL    HW2 5142   3.176   0.829   1.727
 1415SOL     OW 5143   4.494   6.254   5.339
 1415SOL    HW1 5144   4.460   6.259   5.433
 1415SOL    HW2 5145   4.529   6.343   5.312
 1416SOL     OW 5146   4.624   5.867   2.912
 1416SOL    HW1 5147   4.613   5.967   2.907
 1416SOL    HW2 5148   4.613   5.838   3.007
 1417SOL     OW 5149   3.179   2.784   6.348
 1417SOL    HW1 5150   3.240   2.753   6.421
 1417SOL    HW2 5151   3.215   2.868   6.307
 1418SOL     OW 5152   3.514   4.148   2.740
 1418SOL    HW1 5153   3.504   4.064   2.794
 1418SOL    HW2 5154   3.430   4.202   2.747
 1419SOL     OW 5155   4.491   6.105   4.482
 1419SOL    HW1 5156   4.536   6.150   4.405
 1419SOL    HW2 5157   4.509   6.158   4.566
 1420SOL     OW 5158   0.288   5.638   1.825
 1420SOL    HW1 5159   0.325   5.552   1.862
 1420SOL    HW2 5160   0.335   5.661   1.740
 1421SOL     OW 5161   3.979   0.927   3.070
 1421SOL    HW1 5162   3.997   0.840   3.024
 1421SOL    HW2 5163   4.041   0.997   3.036
 1422SOL     OW 5164   2.504   6.819   0.409
 1422SOL    HW1 5165   2.556   6.734   0.397
 1422SOL    HW2 5166   2.566   6.891   0.441
 1423SOL     OW 5167   4.981   0.397   2.269
 1423SOL    HW1 5168   5.027   0.362   2.351
 1423SOL    HW2 5169   4.982   0.497   2.270
 1424SOL     OW 5170   6.892   4.843   2.415
 1424SOL    HW1 5171   6.842   4.929   2.418
 1424SOL    HW2 5172   6.854   4.785   2.343
 1425SOL     OW 5173   1.689   6.725   4.701
 1425SOL    HW1 5174   1.707   6.687   4.610
 1425SOL    HW2 5175   1.770   6.715   4.758
 1426SOL     OW 5176   1.654   1.249   5.722
 1426SOL    HW1 5177   1.681   1.231   5.627
 1426SOL    HW2 5178   1.691   1.176   5.780
 1427SOL     OW 5179   6.328   0.668   4.876
 1427SOL    HW1 5180   6.322   0.653   4.777
 1427SOL    HW2 5181   6.401   0.733   4.896
 1428SOL     OW 5182   5.516   1.399   0.028
 1428SOL    HW1 5183   5.572   1.372   0.106
 1428SOL    HW2 5184   5.510   1.323   6.987
 1429SOL     OW 5185   5.523   6.875   6.988
 1429SOL    HW1 5186   5.459   6.799   6.976
 1429SOL    HW2 5187   5.548   6.912   6.899
 1430SOL     OW 5188   2.110   4.222   3.431
 1430SOL    HW1 5189   2.049   4.269   3.494
 1430SOL    HW2 5190   2.168   4.288   3.383
 1431SOL     OW 5191   1.356   0.716   1.315
 1431SOL    HW1 5192   1.262   0.708   1.349
 1431SOL    HW2 5193   1.418   0.732   1.392
 1432SOL     OW 5194   2.688   0.090   1.427
 1432SOL    HW1 5195   2.759   0.133   1.481
 1432SOL    HW2 5196   2.729   0.041   1.350
 1433SOL     OW 5197   4.683   0.320   4.612
 1433SOL    HW1 5198   4.591   0.359   4.621
 1433SOL    HW2 5199   4.692   0.276   4.523
 1434SOL     OW 5200   0.927   0.761   5.082
 1434SOL    HW1 5201   0.873   0.758   4.998
 1434SOL    HW2 5202   0.878   0.812   5.152
 1435SOL     OW 5203   6.968   1.821   3.120
 1435SOL    HW1 5204   0.011   1.891   3.093
 1435SOL    HW2 5205   6.906   1.859   3.188
 1436SOL     OW 5206   4.439   4.004   0.679
 1436SOL    HW1 5207   4.475   3.930   0.737
 1436SOL    HW2 5208   4.382   4.064   0.735
 1437SOL     OW 5209   3.987   1.163   2.535
 1437SOL    HW1 5210   3.913   1.229   2.548
 1437SOL    HW2 5211   4.061   1.182   2.599
 1438SOL     OW 5212   2.412   0.795   1.371
 1438SOL    HW1 5213   2.500   0.787   1.418
 1438SOL    HW2 5214   2.349   0.726   1.406
 1439SOL     OW 5215   0.794   5.665   2.187
 1439SOL    HW1 5216   0.798   5.576   2.140
 1439SOL    HW2 5217   0.711   5.713   2.159
 1440SOL     OW 5218   2.258   2.953   1.756
 1440SOL    HW1 5219   2.242   3.032   1.815
 1440SOL    HW2 5220   2.222   2.871   1.801
 1441SOL     OW 5221   5.308   6.058   0.972
 1441SOL    HW1 5222   5.238   6.085   1.037
 1441SOL    HW2 5223   5.363   5.983   1.010
 1442SOL     OW 5224   5.189   5.467   0.928
 1442SOL    HW1 5225   5.209   5.525   0.850
 1442SOL    HW2 5226   5.199   5.371   0.902
 1443SOL     OW 5227   0.294   2.710   2.606
 1443SOL    HW1 5228   0.390   2.686   2.590
 1443SOL    HW2 5229   0.267   2.678   2.697
 1444SOL     OW 5230   0.620   4.976   6.376
 1444SOL    HW1 5231   0.602   5.040   6.300
 1444SOL    HW2 5232   0.592   4.884   6.349
 1445SOL     OW 5233   1.228   3.508   1.271
 1445SOL    HW1 5234   1.291   3.568   1.320
 1445SOL    HW2 5235   1.182   3.448   1.337
 1446SOL     OW 5236   6.604   6.029   1.009
 1446SOL    HW1 5237   6.618   5.934   1.037
 1446SOL    HW2 5238   6.684   6.083   1.033
 1447SOL     OW 5239   5.657   5.430   4.387
 1447SOL    HW1 5240   5.632   5.443   4.291
 1447SOL    HW2 5241   5.756   5.434   4.397
 1448SOL     OW 5242   0.953   2.804   5.705
 1448SOL    HW1 5243   0.966   2.776   5.800
 1448SOL    HW2 5244   0.865   2.850   5.696
 1449SOL     OW 5245   2.093   3.140   2.931
 1449SOL    HW1 5246   2.101   3.239   2.943
 1449SOL    HW2 5247   2.026   3.104   2.996
 1450SOL     OW 5248   2.968   2.080   4.000
 1450SOL    HW1 5249   3.001   2.058   4.092
 1450SOL    HW2 5250   3.046   2.098   3.940
 1451SOL     OW 5251   3.107   1.340   2.843
 1451SOL    HW1 5252   3.041   1.411   2.868
 1451SOL    HW2 5253   3.090   1.310   2.749
 1452SOL     OW 5254   4.585   2.844   6.725
 1452SOL    HW1 5255   4.657   2.895   6.771
 1452SOL    HW2 5256   4.519   2.810   6.793
 1453SOL     OW 5257   0.134   4.120   5.488
 1453SOL    HW1 5258   0.164   4.098   5.581
 1453SOL    HW2 5259   0.199   4.083   5.422
 1454SOL     OW 5260   3.425   1.789   3.193
 1454SOL    HW1 5261   3.479   1.783   3.110
 1454SOL    HW2 5262   3.463   1.860   3.252
 1455SOL     OW 5263   0.373   5.617   2.187
 1455SOL    HW1 5264   0.297   5.672   2.153
 1455SOL    HW2 5265   0.455   5.673   2.193
 1456SOL     OW 5266   6.590   5.119   4.105
 1456SOL    HW1 5267   6.679   5.099   4.064
 1456SOL    HW2 5268   6.597   5.113   4.205
 1457SOL     OW 5269   1.195   5.006   6.120
 1457SOL    HW1 5270   1.193   5.094   6.167
 1457SOL    HW2 5271   1.254   4.942   6.170
 1458SOL     OW 5272   5.760   5.086   5.284
 1458SOL    HW1 5273   5.691   5.016   5.303
 1458SOL    HW2 5274   5.748   5.120   5.191
 1459SOL     OW 5275   5.799   6.551   5.701
 1459SOL    HW1 5276   5.866   6.489   5.659
 1459SOL    HW2 5277   5.824   6.646   5.680
 1460SOL     OW 5278   1.705   6.623   5.189
 1460SOL    HW1 5279   1.691   6.721   5.174
 1460SOL    HW2 5280   1.626   6.584   5.236
 1461SOL     OW 5281   6.169   2.800   3.837
 1461SOL    HW1 5282   6.171   2.706   3.869
 1461SOL    HW2 5283   6.154   2.801   3.738
 1462SOL     OW 5284   0.260   1.325   1.815
 1462SOL    HW1 5285   0.256   1.317   1.915
 1462SOL    HW2 5286   0.272   1.421   1.790
 1463SOL     OW 5287   2.016   6.003   6.533
 1463SOL    HW1 5288   1.956   6.038   6.461
 1463SOL    HW2 5289   2.099   6.058   6.536
 1464SOL     OW 5290   0.934   4.660   4.097
 1464SOL    HW1 5291   0.860   4.606   4.056
 1464SOL    HW2 5292   1.022   4.617   4.077
 1465SOL     OW 5293   1.071   3.291   4.099
 1465SOL    HW1 5294   1.114   3.209   4.062
 1465SOL    HW2 5295   1.001   3.264   4.166
 1466SOL     OW 5296   5.519   1.454   2.336
 1466SOL    HW1 5297   5.483   1.474   2.427
 1466SOL    HW2 5298   5.442   1.444   2.272
 1467SOL     OW 5299   0.296   0.371   3.782
 1467SOL    HW1 5300   0.394   0.384   3.795
 1467SOL    HW2 5301   0.245   0.437   3.837
 1468SOL     OW 5302   3.027   5.814   2.614
 1468SOL    HW1 5303   2.977   5.900   2.601
 1468SOL    HW2 5304   3.100   5.828   2.680
 1469SOL     OW 5305   5.804   4.140   3.664
 1469SOL    HW1 5306   5.720   4.176   3.624
 1469SOL    HW2 5307   5.834   4.200   3.738
 1470SOL     OW 5308   6.092   1.489   2.491
 1470SOL    HW1 5309   6.072   1.585   2.470
 1470SOL    HW2 5310   6.190   1.474   2.487
 1471SOL     OW 5311   4.563   0.007   0.499
 1471SOL    HW1 5312   4.594   6.948   0.545
 1471SOL    HW2 5313   4.495   7.006   0.429
 1472SOL     OW 5314   1.495   0.417   6.356
 1472SOL    HW1 5315   1.549   0.363   6.292
 1472SOL    HW2 5316   1.554   0.451   6.430
 1473SOL     OW 5317   1.738   5.926   3.882
 1473SOL    HW1 5318   1.798   5.940   3.803
 1473SOL    HW2 5319   1.709   5.830   3.886
 1474SOL     OW 5320   2.812   4.831   1.517
 1474SOL    HW1 5321   2.880   4.800   1.583
 1474SOL    HW2 5322   2.772   4.752   1.470
 1475SOL     OW 5323   5.913   0.252   6.617
 1475SOL    HW1 5324   5.884   0.180   6.680
 1475SOL    HW2 5325   5.861   0.246   6.533
 1476SOL     OW 5326   5.036   0.178   6.895
 1476SOL    HW1 5327   5.056   0.273   6.916
 1476SOL    HW2 5328   5.002   0.132   6.977
 1477SOL     OW 5329   3.460   4.054   1.560
 1477SOL    HW1 5330   3.491   4.125   1.497
 1477SOL    HW2 5331   3.364   4.071   1.584
 1478SOL     OW 5332   4.467   5.234   6.889
 1478SOL    HW1 5333   4.493   5.171   6.962
 1478SOL    HW2 5334   4.524   5.217   6.809
 1479SOL     OW 5335   4.663   3.504   1.419
 1479SOL    HW1 5336   4.651   3.567   1.496
 1479SOL    HW2 5337   4.734   3.436   1.442
 1480SOL     OW 5338   3.107   0.684   4.610
 1480SOL    HW1 5339   3.010   0.667   4.626
 1480SOL    HW2 5340   3.132   0.653   4.518
 1481SOL     OW 5341   4.966   2.646   5.715
 1481SOL    HW1 5342   4.873   2.664   5.683
 1481SOL    HW2 5343   5.031   2.679   5.646
 1482SOL     OW 5344   5.663   1.375   1.218
 1482SOL    HW1 5345   5.603   1.390   1.297
 1482SOL    HW2 5346   5.755   1.353   1.250
 1483SOL     OW 5347   6.437   0.982   0.325
 1483SOL    HW1 5348   6.529   1.019   0.313
 1483SOL    HW2 5349   6.410   0.931   0.244
 1484SOL     OW 5350   3.394   5.185   5.181
 1484SOL    HW1 5351   3.415   5.145   5.270
 1484SOL    HW2 5352   3.415   5.282   5.181
 1485SOL     OW 5353   5.020   3.105   3.380
 1485SOL    HW1 5354   4.969   3.109   3.295
 1485SOL    HW2 5355   5.047   3.010   3.398
 1486SOL     OW 5356   4.578   5.565   3.809
 1486SOL    HW1 5357   4.552   5.607   3.722
 1486SOL    HW2 5358   4.659   5.611   3.846
 1487SOL     OW 5359   6.921   1.115   0.715
 1487SOL    HW1 5360   6.888   1.125   0.808
 1487SOL    HW2 5361   6.943   1.019   0.697
 1488SOL     OW 5362   6.226   2.082   2.803
 1488SOL    HW1 5363   6.149   2.142   2.824
 1488SOL    HW2 5364   6.312   2.131   2.813
 1489SOL     OW 5365   3.028   4.960   0.084
 1489SOL    HW1 5366   2.945   5.010   0.058
 1489SOL    HW2 5367   3.049   4.892   0.014
 1490SOL     OW 5368   5.853   2.661   2.383
 1490SOL    HW1 5369   5.911   2.583   2.407
 1490SOL    HW2 5370   5.908   2.731   2.337
 1491SOL     OW 5371   5.787   2.206   3.512
 1491SOL    HW1 5372   5.803   2.298   3.548
 1491SOL    HW2 5373   5.689   2.193   3.498
 1492SOL     OW 5374   6.734   1.768   2.847
 1492SOL    HW1 5375   6.662   1.752   2.780
 1492SOL    HW2 5376   6.819   1.724   2.816
 1493SOL     OW 5377   5.736   1.990   6.143
 1493SOL    HW1 5378   5.801   2.037   6.084
 1493SOL    HW2 5379   5.646   2.034   6.136
 1494SOL     OW 5380   0.209   4.871   6.467
 1494SOL    HW1 5381   0.176   4.965   6.464
 1494SOL    HW2 5382   0.139   4.813   6.509
 1495SOL     OW 5383   6.687   3.751   4.369
 1495SOL    HW1 5384   6.686   3.689   4.447
 1495SOL    HW2 5385   6.594   3.766   4.336
 1496SOL     OW 5386   6.284   6.538   5.968
 1496SOL    HW1 5387   6.367   6.590   5.987
 1496SOL    HW2 5388   6.205   6.600   5.970
 1497SOL     OW 5389   6.295   2.249   2.281
 1497SOL    HW1 5390   6.302   2.262   2.182
 1497SOL    HW2 5391   6.263   2.334   2.323
 1498SOL     OW 5392   3.361   4.193   0.835
 1498SOL    HW1 5393   3.455   4.173   0.810
 1498SOL    HW2 5394   3.298   4.147   0.772
 1499SOL     OW 5395   0.299   4.468   4.210
 1499SOL    HW1 5396   0.247   4.544   4.170
 1499SOL    HW2 5397   0.245   4.384   4.204
 1500SOL     OW 5398   0.866   5.985   2.044
 1500SOL    HW1 5399   0.935   6.040   2.089
 1500SOL    HW2 5400   0.780   6.036   2.040
 1501SOL     OW 5401   6.493   1.787   0.568
 1501SOL    HW1 5402   6.450   1.877   0.560
 1501SOL    HW2 5403   6.454   1.725   0.500
 1502SOL     OW 5404   6.690   0.067   6.309
 1502SOL    HW1 5405   6.640   0.112   6.235
 1502SOL    HW2 5406   6.668   0.112   6.396
 1503SOL     OW 5407   0.639   4.695   1.731
 1503SOL    HW1 5408   0.548   4.732   1.713
 1503SOL    HW2 5409   0.694   4.763   1.779
 1504SOL     OW 5410   2.072   6.787   2.781
 1504SOL    HW1 5411   2.094   6.721   2.853
 1504SOL    HW2 5412   1.989   6.757   2.734
 1505SOL     OW 5413   6.273   5.499   4.826
 1505SOL    HW1 5414   6.328   5.418   4.846
 1505SOL    HW2 5415   6.252   5.502   4.728
 1506SOL     OW 5416   0.718   1.160   0.681
 1506SOL    HW1 5417   0.722   1.107   0.596
 1506SOL    HW2 5418   0.807   1.157   0.726
 1507SOL     OW 5419   2.517   2.454   3.635
 1507SOL    HW1 5420   2.526   2.471   3.733
 1507SOL    HW2 5421   2.429   2.490   3.603
 1508SOL     OW 5422   2.068   0.990   1.433
 1508SOL    HW1 5423   2.068   1.087   1.458
 1508SOL    HW2 5424   2.071   0.982   1.334
 1509SOL     OW 5425   5.578   1.257   4.396
 1509SOL    HW1 5426   5.649   1.242   4.328
 1509SOL    HW2 5427   5.507   1.187   4.387
 1510SOL     OW 5428   3.563   6.004   5.395
 1510SOL    HW1 5429   3.484   5.986   5.454
 1510SOL    HW2 5430   3.564   6.101   5.370
 1511SOL     OW 5431   2.864   3.760   5.181
 1511SOL    HW1 5432   2.908   3.804   5.258
 1511SOL    HW2 5433   2.767   3.744   5.202
 1512SOL     OW 5434   5.558   6.515   0.957
 1512SOL    HW1 5435   5.569   6.542   1.053
 1512SOL    HW2 5436   5.498   6.434   0.953
 1513SOL     OW 5437   2.424   0.235   5.828
 1513SOL    HW1 5438   2.513   0.215   5.869
 1513SOL    HW2 5439   2.419   0.332   5.805
 1514SOL     OW 5440   3.073   2.800   6.640
 1514SOL    HW1 5441   3.104   2.811   6.546
 1514SOL    HW2 5442   2.973   2.808   6.644
 1515SOL     OW 5443   4.165   0.894   2.825
 1515SOL    HW1 5444   4.129   0.817   2.772
 1515SOL    HW2 5445   4.231   0.944   2.769
 1516SOL     OW 5446   6.280   6.826   5.797
 1516SOL    HW1 5447   6.367   6.851   5.840
 1516SOL    HW2 5448   6.230   6.765   5.858
 1517SOL     OW 5449   2.958   6.400   3.552
 1517SOL    HW1 5450   3.015   6.383   3.472
 1517SOL    HW2 5451   2.984   6.487   3.594
 1518SOL     OW 5452   0.587   3.128   6.627
 1518SOL    HW1 5453   0.516   3.152   6.693
 1518SOL    HW2 5454   0.561   3.162   6.537
 1519SOL     OW 5455   6.914   4.968   0.123
 1519SOL    HW1 5456   6.908   4.959   0.223
 1519SOL    HW2 5457   7.003   5.005   0.098
 1520SOL     OW 5458   0.408   6.181   3.454
 1520SOL    HW1 5459   0.420   6.094   3.405
 1520SOL    HW2 5460   0.469   6.250   3.415
 1521SOL     OW 5461   2.086   5.204   6.069
 1521SOL    HW1 5462   2.165   5.238   6.119
 1521SOL    HW2 5463   2.012   5.270   6.073
 1522SOL     OW 5464   5.874   5.686   4.194
 1522SOL    HW1 5465   5.954   5.634   4.164
 1522SOL    HW2 5466   5.902   5.752   4.264
 1523SOL     OW 5467   3.293   6.385   0.828
 1523SOL    HW1 5468   3.268   6.292   0.798
 1523SOL    HW2 5469   3.305   6.385   0.927
 1524SOL     OW 5470   2.091   1.759   3.973
 1524SOL    HW1 5471   2.101   1.779   3.876
 1524SOL    HW2 5472   2.175   1.719   4.008
 1525SOL     OW 5473   5.351   4.591   0.027
 1525SOL    HW1 5474   5.407   4.546   6.981
 1525SOL    HW2 5475   5.284   4.651   7.006
 1526SOL     OW 5476   1.420   1.670   0.941
 1526SOL    HW1 5477   1.327   1.698   0.964
 1526SOL    HW2 5478   1.456   1.611   1.013
 1527SOL     OW 5479   4.589   1.883   4.310
 1527SOL    HW1 5480   4.555   1.960   4.364
 1527SOL    HW2 5481   4.635   1.818   4.371
 1528SOL     OW 5482   3.219   3.670   2.605
 1528SOL    HW1 5483   3.240   3.671   2.703
 1528SOL    HW2 5484   3.138   3.613   2.589
 1529SOL     OW 5485   4.990   1.884   5.840
 1529SOL    HW1 5486   4.927   1.811   5.813
 1529SOL    HW2 5487   4.944   1.972   5.831
 1530SOL     OW 5488   2.239   6.933   1.024
 1530SOL    HW1 5489   2.198   6.925   0.933
 1530SOL    HW2 5490   2.251   0.006   1.046
 1531SOL     OW 5491   4.633   5.837   4.396
 1531SOL    HW1 5492   4.688   5.759   4.426
 1531SOL    HW2 5493   4.570   5.808   4.325
 1532SOL     OW 5494   3.029   5.858   0.614
 1532SOL    HW1 5495   3.065   5.950   0.630
 1532SOL    HW2 5496   3.024   5.840   0.516
 1533SOL     OW 5497   5.453   5.997   1.271
 1533SOL    HW1 5498   5.367   6.009   1.320
 1533SOL    HW2 5499   5.499   5.915   1.305
 1534SOL     OW 5500   2.620   4.721   6.742
 1534SOL    HW1 5501   2.673   4.745   6.661
 1534SOL    HW2 5502   2.533   4.770   6.741
 1535SOL     OW 5503   5.748   4.526   3.659
 1535SOL    HW1 5504   5.814   4.478   3.601
 1535SOL    HW2 5505   5.662   4.538   3.609
 1536SOL     OW 5506   4.751   3.758   6.942
 1536SOL    HW1 5507   4.702   3.808   7.013
 1536SOL    HW2 5508   4.739   3.804   6.854
 1537SOL     OW 5509   3.006   5.110   2.320
 1537SOL    HW1 5510   2.989   5.179   2.390
 1537SOL    HW2 5511   2.930   5.046   2.315
 1538SOL     OW 5512   2.670   1.479   0.602
 1538SOL    HW1 5513   2.630   1.507   0.689
 1538SOL    HW2 5514   2.651   1.382   0.586
 1539SOL     OW 5515   5.829   3.312   0.555
 1539SOL    HW1 5516   5.915   3.283   0.597
 1539SOL    HW2 5517   5.754   3.258   0.593
 1540SOL     OW 5518   3.724   6.821   3.134
 1540SOL    HW1 5519   3.643   6.763   3.139
 1540SOL    HW2 5520   3.696   6.916   3.122
 1541SOL     OW 5521   4.093   2.953   5.859
 1541SOL    HW1 5522   4.157   3.022   5.893
 1541SOL    HW2 5523   4.066   2.893   5.934
 1542SOL     OW 5524   0.450   5.617   2.687
 1542SOL    HW1 5525   0.419   5.684   2.755
 1542SOL    HW2 5526   0.423   5.648   2.596
 1543SOL     OW 5527   3.107   5.391   0.449
 1543SOL    HW1 5528   3.110   5.467   0.384
 1543SOL    HW2 5529   3.154   5.418   0.534
 1544SOL     OW 5530   3.710   3.422   3.980
 1544SOL    HW1 5531   3.759   3.357   3.922
 1544SOL    HW2 5532   3.715   3.513   3.939
 1545SOL     OW 5533   5.234   5.776   1.791
 1545SOL    HW1 5534   5.210   5.721   1.711
 1545SOL    HW2 5535   5.324   5.749   1.824
 1546SOL     OW 5536   5.725   6.317   6.056
 1546SOL    HW1 5537   5.667   6.330   5.976
 1546SOL    HW2 5538   5.815   6.284   6.027
 1547SOL     OW 5539   2.169   3.025   6.594
 1547SOL    HW1 5540   2.154   3.087   6.518
 1547SOL    HW2 5541   2.093   3.032   6.659
 1548SOL     OW 5542   6.988   2.538   0.624
 1548SOL    HW1 5543   6.922   2.586   0.565
 1548SOL    HW2 5544   0.038   2.600   0.649
 1549SOL     OW 5545   5.151   1.098   4.593
 1549SOL    HW1 5546   5.151   1.018   4.652
 1549SOL    HW2 5547   5.128   1.179   4.647
 1550SOL     OW 5548   3.873   2.985   4.238
 1550SOL    HW1 5549   3.890   2.948   4.146
 1550SOL    HW2 5550   3.792   2.941   4.276
 1551SOL     OW 5551   6.937   4.894   5.437
 1551SOL    HW1 5552   6.992   4.837   5.498
 1551SOL    HW2 5553   6.840   4.877   5.455
 1552SOL     OW 5554   2.084   4.162   1.202
 1552SOL    HW1 5555   2.168   4.161   1.147
 1552SOL    HW2 5556   2.082   4.245   1.257
 1553SOL     OW 5557   2.031   1.839   6.068
 1553SOL    HW1 5558   1.941   1.850   6.026
 1553SOL    HW2 5559   2.026   1.864   6.165
 1554SOL     OW 5560   3.752   1.688   3.687
 1554SOL    HW1 5561   3.811   1.725   3.615
 1554SOL    HW2 5562   3.672   1.748   3.697
 1555SOL     OW 5563   5.962   5.038   5.455
 1555SOL    HW1 5564   5.945   5.097   5.534
 1555SOL    HW2 5565   5.890   5.051   5.387
 1556SOL     OW 5566   2.044   1.065   5.878
 1556SOL    HW1 5567   2.018   1.157   5.849
 1556SOL    HW2 5568   2.111   1.027   5.815
 1557SOL     OW 5569   0.471   2.417   4.983
 1557SOL    HW1 5570   0.493   2.319   4.981
 1557SOL    HW2 5571   0.470   2.453   4.890
 1558SOL     OW 5572   0.299   6.926   4.724
 1558SOL    HW1 5573   0.227   6.994   4.712
 1558SOL    HW2 5574   0.258   6.836   4.741
 1559SOL     OW 5575   1.412   1.636   5.858
 1559SOL    HW1 5576   1.343   1.578   5.813
 1559SOL    HW2 5577   1.499   1.628   5.808
 1560SOL     OW 5578   0.330   0.356   6.972
 1560SOL    HW1 5579   0.419   0.311   6.982
 1560SOL    HW2 5580   0.313   0.374   6.875
 1561SOL     OW 5581   5.763   6.203   2.353
 1561SOL    HW1 5582   5.817   6.123   2.377
 1561SOL    HW2 5583   5.747   6.206   2.254
 1562SOL     OW 5584   6.217   0.765   4.058
 1562SOL    HW1 5585   6.221   0.796   3.963
 1562SOL    HW2 5586   6.304   0.783   4.102
 1563SOL     OW 5587   3.539   6.955   5.648
 1563SOL    HW1 5588   3.631   6.922   5.624
 1563SOL    HW2 5589   3.488   6.881   5.692
 1564SOL     OW 5590   0.887   2.405   3.005
 1564SOL    HW1 5591   0.818   2.436   2.939
 1564SOL    HW2 5592   0.960   2.474   3.012
 1565SOL     OW 5593   6.429   4.150   1.415
 1565SOL    HW1 5594   6.473   4.212   1.480
 1565SOL    HW2 5595   6.375   4.082   1.465
 1566SOL     OW 5596   5.989   4.407   3.146
 1566SOL    HW1 5597   5.907   4.433   3.198
 1566SOL    HW2 5598   6.068   4.404   3.208
 1567SOL     OW 5599   6.317   5.828   5.259
 1567SOL    HW1 5600   6.269   5.879   5.188
 1567SOL    HW2 5601   6.414   5.822   5.237
 1568SOL     OW 5602   0.122   6.875   0.078
 1568SOL    HW1 5603   0.037   6.862   0.027
 1568SOL    HW2 5604   0.166   6.959   0.047
 1569SOL     OW 5605   3.213   6.340   5.258
 1569SOL    HW1 5606   3.121   6.305   5.243
 1569SOL    HW2 5607   3.219   6.380   5.349
 1570SOL     OW 5608   3.163   1.984   1.975
 1570SOL    HW1 5609   3.177   2.050   2.049
 1570SOL    HW2 5610   3.105   2.025   1.905
 1571SOL     OW 5611   0.116   3.812   0.482
 1571SOL    HW1 5612   0.111   3.718   0.514
 1571SOL    HW2 5613   0.206   3.850   0.502
 1572SOL     OW 5614   1.765   5.600   2.519
 1572SOL    HW1 5615   1.703   5.675   2.495
 1572SOL    HW2 5616   1.726   5.547   2.595
 1573SOL     OW 5617   4.313   0.437   0.467
 1573SOL    HW1 5618   4.341   0.353   0.513
 1573SOL    HW2 5619   4.394   0.492   0.446
 1574SOL     OW 5620   5.744   2.475   1.992
 1574SOL    HW1 5621   5.820   2.459   1.929
 1574SOL    HW2 5622   5.682   2.543   1.953
 1575SOL     OW 5623   3.071   2.100   0.281
 1575SOL    HW1 5624   3.004   2.146   0.338
 1575SOL    HW2 5625   3.096   2.012   0.322
 1576SOL     OW 5626   6.162   5.584   3.385
 1576SOL    HW1 5627   6.124   5.561   3.474
 1576SOL    HW2 5628   6.140   5.513   3.319
 1577SOL     OW 5629   1.331   0.352   0.167
 1577SOL    HW1 5630   1.331   0.430   0.105
 1577SOL    HW2 5631   1.336   0.268   0.115
 1578SOL     OW 5632   5.934   5.566   4.888
 1578SOL    HW1 5633   6.033   5.572   4.895
 1578SOL    HW2 5634   5.908   5.474   4.858
 1579SOL     OW 5635   0.195   0.012   3.135
 1579SOL    HW1 5636   0.221   6.981   3.055
 1579SOL    HW2 5637   0.224   0.107   3.120
 1580SOL     OW 5638   3.079   3.629   5.936
 1580SOL    HW1 5639   3.010   3.682   5.985
 1580SOL    HW2 5640   3.035   3.570   5.869
 1581SOL     OW 5641   6.126   3.789   4.478
 1581SOL    HW1 5642   6.077   3.805   4.563
 1581SOL    HW2 5643   6.077   3.832   4.402
 1582SOL     OW 5644   6.092   6.464   5.141
 1582SOL    HW1 5645   6.173   6.514   5.111
 1582SOL    HW2 5646   6.052   6.510   5.220
 1583SOL     OW 5647   2.244   1.929   2.280
 1583SOL    HW1 5648   2.186   1.996   2.327
 1583SOL    HW2 5649   2.261   1.959   2.186
 1584SOL     OW 5650   2.333   0.786   6.436
 1584SOL    HW1 5651   2.423   0.830   6.437
 1584SOL    HW2 5652   2.266   0.848   6.395
 1585SOL     OW 5653   5.940   1.276   5.844
 1585SOL    HW1 5654   5.846   1.312   5.844
 1585SOL    HW2 5655   6.001   1.342   5.800
 1586SOL     OW 5656   3.789   4.056   3.199
 1586SOL    HW1 5657   3.801   3.976   3.260
 1586SOL    HW2 5658   3.874   4.071   3.149
 1587SOL     OW 5659   2.508   6.532   6.547
 1587SOL    HW1 5660   2.439   6.499   6.482
 1587SOL    HW2 5661   2.469   6.531   6.639
 1588SOL     OW 5662   5.892   3.848   1.696
 1588SOL    HW1 5663   5.949   3.785   1.748
 1588SOL    HW2 5664   5.910   3.941   1.725
 1589SOL     OW 5665   5.094   4.378   3.077
 1589SOL    HW1 5666   5.045   4.455   3.035
 1589SOL    HW2 5667   5.065   4.368   3.172
 1590SOL     OW 5668   2.321   6.972   5.337
 1590SOL    HW1 5669   2.222   6.979   5.323
 1590SOL    HW2 5670   2.345   7.007   5.428
 1591SOL     OW 5671   1.134   3.689   0.965
 1591SOL    HW1 5672   1.101   3.606   1.010
 1591SOL    HW2 5673   1.179   3.747   1.033
 1592SOL     OW 5674   3.148   4.033   3.789
 1592SOL    HW1 5675   3.202   4.117   3.783
 1592SOL    HW2 5676   3.120   4.018   3.883
 1593SOL     OW 5677   1.264   5.132   4.478
 1593SOL    HW1 5678   1.268   5.042   4.522
 1593SOL    HW2 5679   1.348   5.183   4.498
 1594SOL     OW 5680   1.193   4.706   3.127
 1594SOL    HW1 5681   1.107   4.671   3.165
 1594SOL    HW2 5682   1.229   4.778   3.186
 1595SOL     OW 5683   6.696   5.241   5.375
 1595SOL    HW1 5684   6.758   5.185   5.431
 1595SOL    HW2 5685   6.750   5.294   5.309
 1596SOL     OW 5686   2.686   5.424   6.805
 1596SOL    HW1 5687   2.656   5.329   6.805
 1596SOL    HW2 5688   2.647   5.472   6.885
 1597SOL     OW 5689   1.977   0.150   0.121
 1597SOL    HW1 5690   2.021   0.238   0.106
 1597SOL    HW2 5691   1.953   0.140   0.217
 1598SOL     OW 5692   6.765   5.360   1.694
 1598SOL    HW1 5693   6.751   5.283   1.633
 1598SOL    HW2 5694   6.860   5.392   1.686
 1599SOL     OW 5695   2.980   4.943   0.478
 1599SOL    HW1 5696   3.051   4.970   0.414
 1599SOL    HW2 5697   2.963   5.017   0.543
 1600SOL     OW 5698   3.178   1.119   5.374
 1600SOL    HW1 5699   3.255   1.163   5.327
 1600SOL    HW2 5700   3.197   1.117   5.472
 1601SOL     OW 5701   1.090   5.131   4.893
 1601SOL    HW1 5702   1.083   5.192   4.814
 1601SOL    HW2 5703   1.122   5.183   4.973
 1602SOL     OW 5704   0.388   3.848   2.213
 1602SOL    HW1 5705   0.305   3.813   2.256
 1602SOL    HW2 5706   0.464   3.842   2.277
 1603SOL     OW 5707   5.699   6.466   0.712
 1603SOL    HW1 5708   5.639   6.502   0.640
 1603SOL    HW2 5709   5.645   6.450   0.795
 1604SOL     OW 5710   0.230   5.660   4.764
 1604SOL    HW1 5711   0.297   5.658   4.689
 1604SOL    HW2 5712   0.277   5.676   4.850
 1605SOL     OW 5713   5.162   6.470   3.335
 1605SOL    HW1 5714   5.114   6.388   3.305
 1605SOL    HW2 5715   5.205   6.514   3.256
 1606SOL     OW 5716   5.518   6.431   5.467
 1606SOL    HW1 5717   5.528   6.496   5.543
 1606SOL    HW2 5718   5.572   6.462   5.389
 1607SOL     OW 5719   4.758   2.905   1.039
 1607SOL    HW1 5720   4.842   2.908   1.093
 1607SOL    HW2 5721   4.716   2.996   1.037
 1608SOL     OW 5722   2.549   0.568   0.421
 1608SOL    HW1 5723   2.527   0.499   0.352
 1608SOL    HW2 5724   2.470   0.583   0.480
 1609SOL     OW 5725   5.614   1.091   5.782
 1609SOL    HW1 5726   5.596   1.184   5.815
 1609SOL    HW2 5727   5.672   1.043   5.847
 1610SOL     OW 5728   5.259   6.291   3.790
 1610SOL    HW1 5729   5.337   6.236   3.817
 1610SOL    HW2 5730   5.266   6.315   3.693
 1611SOL     OW 5731   4.209   2.728   1.646
 1611SOL    HW1 5732   4.141   2.666   1.685
 1611SOL    HW2 5733   4.301   2.692   1.664
 1612SOL     OW 5734   3.774   0.918   4.552
 1612SOL    HW1 5735   3.680   0.925   4.586
 1612SOL    HW2 5736   3.794   0.994   4.491
 1613SOL     OW 5737   1.985   0.158   0.889
 1613SOL    HW1 5738   1.917   0.139   0.818
 1613SOL    HW2 5739   1.971   0.097   0.966
 1614SOL     OW 5740   0.704   2.690   5.922
 1614SOL    HW1 5741   0.685   2.694   5.824
 1614SOL    HW2 5742   0.618   2.675   5.971
 1615SOL     OW 5743   6.142   5.067   5.708
 1615SOL    HW1 5744   6.209   5.030   5.644
 1615SOL    HW2 5745   6.133   5.007   5.787
 1616SOL     OW 5746   2.725   1.783   5.851
 1616SOL    HW1 5747   2.819   1.814   5.838
 1616SOL    HW2 5748   2.712   1.697   5.801
 1617SOL     OW 5749   4.429   0.265   4.408
 1617SOL    HW1 5750   4.385   0.212   4.335
 1617SOL    HW2 5751   4.526   0.240   4.413
 1618SOL     OW 5752   6.069   2.796   1.935
 1618SOL    HW1 5753   6.070   2.703   1.898
 1618SOL    HW2 5754   6.085   2.861   1.860
 1619SOL     OW 5755   1.939   2.982   4.787
 1619SOL    HW1 5756   2.032   3.005   4.815
 1619SOL    HW2 5757   1.906   3.049   4.721
 1620SOL     OW 5758   3.682   5.780   1.584
 1620SOL    HW1 5759   3.727   5.833   1.656
 1620SOL    HW2 5760   3.595   5.745   1.618
 1621SOL     OW 5761   1.911   1.571   2.244
 1621SOL    HW1 5762   1.950   1.575   2.152
 1621SOL    HW2 5763   1.812   1.581   2.239
 1622SOL     OW 5764   1.797   2.479   4.882
 1622SOL    HW1 5765   1.869   2.492   4.951
 1622SOL    HW2 5766   1.838   2.482   4.791
 1623SOL     OW 5767   2.168   1.983   5.067
 1623SOL    HW1 5768   2.139   1.989   4.971
 1623SOL    HW2 5769   2.192   2.074   5.100
 1624SOL     OW 5770   2.192   0.832   0.904
 1624SOL    HW1 5771   2.254   0.790   0.970
 1624SOL    HW2 5772   2.131   0.762   0.866
 1625SOL     OW 5773   0.372   5.660   1.568
 1625SOL    HW1 5774   0.301   5.727   1.543
 1625SOL    HW2 5775   0.350   5.572   1.526
 1626SOL     OW 5776   2.108   2.861   5.844
 1626SOL    HW1 5777   2.131   2.946   5.796
 1626SOL    HW2 5778   2.120   2.875   5.943
 1627SOL     OW 5779   5.171   2.996   3.707
 1627SOL    HW1 5780   5.211   3.023   3.619
 1627SOL    HW2 5781   5.071   2.994   3.699
 1628SOL     OW 5782   3.194   3.292   0.593
 1628SOL    HW1 5783   3.180   3.193   0.586
 1628SOL    HW2 5784   3.123   3.331   0.651
 1629SOL     OW 5785   3.337   1.968   2.996
 1629SOL    HW1 5786   3.281   2.049   3.014
 1629SOL    HW2 5787   3.314   1.896   3.061
 1630SOL     OW 5788   6.670   5.065   4.371
 1630SOL    HW1 5789   6.676   5.116   4.457
 1630SOL    HW2 5790   6.760   5.026   4.349
 1631SOL     OW 5791   0.401   6.238   5.774
 1631SOL    HW1 5792   0.467   6.174   5.735
 1631SOL    HW2 5793   0.440   6.279   5.857
 1632SOL     OW 5794   4.809   6.952   0.328
 1632SOL    HW1 5795   4.887   6.947   0.391
 1632SOL    HW2 5796   4.735   7.003   0.371
 1633SOL     OW 5797   5.924   3.256   3.377
 1633SOL    HW1 5798   5.916   3.207   3.464
 1633SOL    HW2 5799   5.933   3.354   3.395
 1634SOL     OW 5800   3.909   0.611   0.386
 1634SOL    HW1 5801   3.929   0.572   0.476
 1634SOL    HW2 5802   3.854   0.694   0.398
 1635SOL     OW 5803   0.875   5.034   4.143
 1635SOL    HW1 5804   0.895   4.945   4.184
 1635SOL    HW2 5805   0.905   5.034   4.047
 1636SOL     OW 5806   2.517   6.384   1.041
 1636SOL    HW1 5807   2.570   6.453   1.089
 1636SOL    HW2 5808   2.564   6.358   0.957
 1637SOL     OW 5809   0.728   2.647   2.393
 1637SOL    HW1 5810   0.724   2.664   2.294
 1637SOL    HW2 5811   0.775   2.560   2.410
 1638SOL     OW 5812   1.295   2.638   5.657
 1638SOL    HW1 5813   1.261   2.641   5.751
 1638SOL    HW2 5814   1.295   2.730   5.618
 1639SOL     OW 5815   4.711   4.812   2.973
 1639SOL    HW1 5816   4.635   4.811   2.908
 1639SOL    HW2 5817   4.744   4.718   2.987
 1640SOL     OW 5818   5.312   0.557   1.013
 1640SOL    HW1 5819   5.409   0.576   1.031
 1640SOL    HW2 5820   5.292   0.580   0.918
 1641SOL     OW 5821   6.693   2.897   5.558
 1641SOL    HW1 5822   6.778   2.864   5.517
 1641SOL    HW2 5823   6.628   2.920   5.487
 1642SOL     OW 5824   0.354   2.132   1.359
 1642SOL    HW1 5825   0.416   2.199   1.317
 1642SOL    HW2 5826   0.261   2.148   1.326
 1643SOL     OW 5827   4.030   0.830   5.805
 1643SOL    HW1 5828   3.958   0.798   5.867
 1643SOL    HW2 5829   4.032   0.772   5.723
 1644SOL     OW 5830   3.473   1.108   0.337
 1644SOL    HW1 5831   3.510   1.019   0.363
 1644SOL    HW2 5832   3.416   1.097   0.256
 1645SOL     OW 5833   1.739   6.369   5.987
 1645SOL    HW1 5834   1.707   6.357   6.081
 1645SOL    HW2 5835   1.660   6.371   5.925
 1646SOL     OW 5836   1.444   3.920   0.054
 1646SOL    HW1 5837   1.376   3.992   0.069
 1646SOL    HW2 5838   1.473   3.884   0.143
 1647SOL     OW 5839   5.667   2.604   3.032
 1647SOL    HW1 5840   5.638   2.560   2.947
 1647SOL    HW2 5841   5.726   2.542   3.084
 1648SOL     OW 5842   4.127   0.416   2.391
 1648SOL    HW1 5843   4.186   0.463   2.457
 1648SOL    HW2 5844   4.033   0.447   2.402
 1649SOL     OW 5845   2.712   7.015   2.828
 1649SOL    HW1 5846   2.632   6.956   2.820
 1649SOL    HW2 5847   2.795   6.959   2.821
 1650SOL     OW 5848   3.255   6.903   4.102
 1650SOL    HW1 5849   3.327   6.964   4.069
 1650SOL    HW2 5850   3.292   6.811   4.114
 1651SOL     OW 5851   1.718   0.258   1.376
 1651SOL    HW1 5852   1.750   0.351   1.361
 1651SOL    HW2 5853   1.789   0.205   1.423
 1652SOL     OW 5854   3.023   3.070   1.691
 1652SOL    HW1 5855   3.003   3.120   1.607
 1652SOL    HW2 5856   3.042   3.136   1.764
 1653SOL     OW 5857   1.111   4.856   0.921
 1653SOL    HW1 5858   1.135   4.851   1.018
 1653SOL    HW2 5859   1.037   4.790   0.902
 1654SOL     OW 5860   0.475   2.022   3.479
 1654SOL    HW1 5861   0.493   2.111   3.522
 1654SOL    HW2 5862   0.455   1.954   3.550
 1655SOL     OW 5863   4.720   4.434   5.611
 1655SOL    HW1 5864   4.723   4.510   5.676
 1655SOL    HW2 5865   4.781   4.361   5.642
 1656SOL     OW 5866   0.427   4.183   2.661
 1656SOL    HW1 5867   0.523   4.165   2.639
 1656SOL    HW2 5868   0.418   4.201   2.759
 1657SOL     OW 5869   1.287   0.095   5.183
 1657SOL    HW1 5870   1.372   0.070   5.229
 1657SOL    HW2 5871   1.265   0.191   5.202
 1658SOL     OW 5872   6.531   6.842   2.841
 1658SOL    HW1 5873   6.621   6.813   2.811
 1658SOL    HW2 5874   6.464   6.770   2.823
 1659SOL     OW 5875   5.070   2.223   6.135
 1659SOL    HW1 5876   5.083   2.124   6.126
 1659SOL    HW2 5877   5.148   2.262   6.185
 1660SOL     OW 5878   2.400   6.291   3.365
 1660SOL    HW1 5879   2.408   6.225   3.440
 1660SOL    HW2 5880   2.360   6.246   3.285
 1661SOL     OW 5881   3.227   7.004   3.271
 1661SOL    HW1 5882   3.171   0.018   3.197
 1661SOL    HW2 5883   3.172   6.997   3.355
 1662SOL     OW 5884   0.284   0.543   3.018
 1662SOL    HW1 5885   0.333   0.550   2.931
 1662SOL    HW2 5886   0.189   0.570   3.005
 1663SOL     OW 5887   1.922   0.312   3.623
 1663SOL    HW1 5888   1.838   0.322   3.569
 1663SOL    HW2 5889   1.899   0.286   3.716
 1664SOL     OW 5890   2.291   4.783   4.263
 1664SOL    HW1 5891   2.243   4.771   4.351
 1664SOL    HW2 5892   2.385   4.751   4.272
 1665SOL     OW 5893   1.088   0.631   4.267
 1665SOL    HW1 5894   1.056   0.536   4.271
 1665SOL    HW2 5895   1.028   0.689   4.323
 1666SOL     OW 5896   5.194   3.511   6.375
 1666SOL    HW1 5897   5.274   3.482   6.427
 1666SOL    HW2 5898   5.142   3.430   6.347
 1667SOL     OW 5899   6.953   0.820   6.773
 1667SOL    HW1 5900   6.891   0.842   6.848
 1667SOL    HW2 5901   6.951   0.893   6.705
 1668SOL     OW 5902   2.094   0.290   4.893
 1668SOL    HW1 5903   2.157   0.301   4.969
 1668SOL    HW2 5904   2.140   0.314   4.807
 1669SOL     OW 5905   6.219   6.155   6.502
 1669SOL    HW1 5906   6.235   6.099   6.584
 1669SOL    HW2 5907   6.220   6.252   6.528
 1670SOL     OW 5908   6.077   3.407   6.624
 1670SOL    HW1 5909   5.998   3.436   6.570
 1670SOL    HW2 5910   6.161   3.428   6.573
 1671SOL     OW 5911   6.128   4.962   0.429
 1671SOL    HW1 5912   6.119   4.937   0.526
 1671SOL    HW2 5913   6.166   5.054   0.422
 1672SOL     OW 5914   1.956   5.469   2.111
 1672SOL    HW1 5915   2.038   5.418   2.083
 1672SOL    HW2 5916   1.962   5.491   2.208
 1673SOL     OW 5917   6.608   1.954   3.281
 1673SOL    HW1 5918   6.622   1.871   3.227
 1673SOL    HW2 5919   6.541   1.936   3.353
 1674SOL     OW 5920   2.079   5.356   6.985
 1674SOL    HW1 5921   2.013   5.428   6.964
 1674SOL    HW2 5922   2.052   5.308   0.045
 1675SOL     OW 5923   4.806   2.245   0.523
 1675SOL    HW1 5924   4.799   2.328   0.468
 1675SOL    HW2 5925   4.810   2.269   0.620
 1676SOL     OW 5926   2.499   1.352   4.181
 1676SOL    HW1 5927   2.491   1.409   4.262
 1676SOL    HW2 5928   2.527   1.260   4.208
 1677SOL     OW 5929   6.014   0.672   5.576
 1677SOL    HW1 5930   6.079   0.747   5.583
 1677SOL    HW2 5931   6.063   0.586   5.560
 1678SOL     OW 5932   4.938   0.561   1.304
 1678SOL    HW1 5933   4.920   0.499   1.227
 1678SOL    HW2 5934   4.851   0.586   1.347
 1679SOL     OW 5935   5.585   4.489   0.401
 1679SOL    HW1 5936   5.585   4.589   0.403
 1679SOL    HW2 5937   5.677   4.456   0.379
 1680SOL     OW 5938   1.232   2.335   5.106
 1680SOL    HW1 5939   1.217   2.253   5.160
 1680SOL    HW2 5940   1.231   2.415   5.166
 1681SOL     OW 5941   4.762   5.754   0.620
 1681SOL    HW1 5942   4.703   5.707   0.554
 1681SOL    HW2 5943   4.737   5.726   0.713
 1682SOL     OW 5944   6.875   3.578   5.399
 1682SOL    HW1 5945   6.810   3.547   5.330
 1682SOL    HW2 5946   6.938   3.644   5.357
 1683SOL     OW 5947   5.120   5.660   5.991
 1683SOL    HW1 5948   5.152   5.680   5.899
 1683SOL    HW2 5949   5.128   5.742   6.048
 1684SOL     OW 5950   0.101   6.550   4.416
 1684SOL    HW1 5951   0.163   6.521   4.490
 1684SOL    HW2 5952   0.017   6.495   4.420
 1685SOL     OW 5953   1.209   1.115   0.299
 1685SOL    HW1 5954   1.278   1.108   0.228
 1685SOL    HW2 5955   1.146   1.190   0.277
 1686SOL     OW 5956   2.200   5.767   6.530
 1686SOL    HW1 5957   2.234   5.782   6.623
 1686SOL    HW2 5958   2.140   5.842   6.503
 1687SOL     OW 5959   2.549   6.140   1.814
 1687SOL    HW1 5960   2.535   6.139   1.913
 1687SOL    HW2 5961   2.500   6.217   1.774
 1688SOL     OW 5962   0.902   1.417   3.445
 1688SOL    HW1 5963   0.981   1.435   3.387
 1688SOL    HW2 5964   0.911   1.327   3.487
 1689SOL     OW 5965   3.400   1.804   2.445
 1689SOL    HW1 5966   3.309   1.842   2.432
 1689SOL    HW2 5967   3.393   1.716   2.492
 1690SOL     OW 5968   0.847   2.138   0.512
 1690SOL    HW1 5969   0.907   2.179   0.443
 1690SOL    HW2 5970   0.849   2.038   0.502
 1691SOL     OW 5971   4.478   4.928   2.505
 1691SOL    HW1 5972   4.550   4.993   2.481
 1691SOL    HW2 5973   4.423   4.908   2.423
 1692SOL     OW 5974   1.812   0.025   2.985
 1692SOL    HW1 5975   1.759   0.070   3.057
 1692SOL    HW2 5976   1.769   6.961   2.962
 1693SOL     OW 5977   3.089   1.732   3.798
 1693SOL    HW1 5978   3.048   1.806   3.746
 1693SOL    HW2 5979   3.161   1.768   3.857
 1694SOL     OW 5980   4.958   5.777   5.139
 1694SOL    HW1 5981   4.992   5.685   5.123
 1694SOL    HW2 5982   4.865   5.771   5.176
 1695SOL     OW 5983   3.886   1.420   6.030
 1695SOL    HW1 5984   3.858   1.457   5.941
 1695SOL    HW2 5985   3.897   1.321   6.023
 1696SOL     OW 5986   3.448   5.507   2.126
 1696SOL    HW1 5987   3.453   5.483   2.030
 1696SOL    HW2 5988   3.540   5.525   2.161
 1697SOL     OW 5989   1.097   1.490   2.282
 1697SOL    HW1 5990   1.017   1.438   2.311
 1697SOL    HW2 5991   1.135   1.449   2.199
 1698SOL     OW 5992   5.189   2.110   1.058
 1698SOL    HW1 5993   5.209   2.137   0.964
 1698SOL    HW2 5994   5.099   2.145   1.085
 1699SOL     OW 5995   3.022   4.563   0.532
 1699SOL    HW1 5996   3.098   4.502   0.556
 1699SOL    HW2 5997   2.993   4.613   0.614
 1700SOL     OW 5998   6.466   2.537   4.618
 1700SOL    HW1 5999   6.423   2.526   4.529
 1700SOL    HW2 6000   6.442   2.460   4.677
 1701SOL     OW 6001   6.046   3.163   5.014
 1701SOL    HW1 6002   6.072   3.255   5.043
 1701SOL    HW2 6003   5.990   3.120   5.084
 1702SOL     OW 6004   4.724   2.757   1.860
 1702SOL    HW1 6005   4.764   2.784   1.773
 1702SOL    HW2 6006   4.715   2.837   1.919
 1703SOL     OW 6007   1.462   3.815   0.314
 1703SOL    HW1 6008   1.521   3.894   0.327
 1703SOL    HW2 6009   1.465   3.757   0.395
 1704SOL     OW 6010   6.970   0.906   1.765
 1704SOL    HW1 6011   6.997   0.866   1.852
 1704SOL    HW2 6012   0.027   0.946   1.720
 1705SOL     OW 6013   3.781   3.324   2.506
 1705SOL    HW1 6014   3.748   3.294   2.417
 1705SOL    HW2 6015   3.878   3.302   2.515
 1706SOL     OW 6016   2.256   0.644   6.660
 1706SOL    HW1 6017   2.353   0.631   6.681
 1706SOL    HW2 6018   2.247   0.691   6.573
 1707SOL     OW 6019   5.406   1.557   2.557
 1707SOL    HW1 6020   5.440   1.542   2.650
 1707SOL    HW2 6021   5.344   1.635   2.557
 1708SOL     OW 6022   0.279   4.436   1.610
 1708SOL    HW1 6023   0.274   4.364   1.680
 1708SOL    HW2 6024   0.343   4.409   1.538
 1709SOL     OW 6025   2.666   5.261   4.881
 1709SOL    HW1 6026   2.731   5.212   4.939
 1709SOL    HW2 6027   2.664   5.357   4.907
 1710SOL     OW 6028   7.004   5.248   4.177
 1710SOL    HW1 6029   0.021   5.243   4.268
 1710SOL    HW2 6030   6.948   5.167   4.161
 1711SOL     OW 6031   1.864   4.296   5.372
 1711SOL    HW1 6032   1.834   4.206   5.404
 1711SOL    HW2 6033   1.799   4.331   5.305
 1712SOL     OW 6034   1.862   5.071   1.261
 1712SOL    HW1 6035   1.842   4.976   1.235
 1712SOL    HW2 6036   1.908   5.072   1.349
 1713SOL     OW 6037   2.002   3.324   0.671
 1713SOL    HW1 6038   2.094   3.354   0.648
 1713SOL    HW2 6039   1.967   3.263   0.600
 1714SOL     OW 6040   3.905   1.325   1.309
 1714SOL    HW1 6041   3.894   1.276   1.222
 1714SOL    HW2 6042   3.885   1.422   1.294
 1715SOL     OW 6043   0.339   2.662   3.682
 1715SOL    HW1 6044   0.331   2.761   3.667
 1715SOL    HW2 6045   0.273   2.633   3.752
 1716SOL     OW 6046   6.830   0.353   0.122
 1716SOL    HW1 6047   6.912   0.333   0.069
 1716SOL    HW2 6048   6.842   0.321   0.216
 1717SOL     OW 6049   3.183   7.017   0.038
 1717SOL    HW1 6050   3.130   6.977   0.113
 1717SOL    HW2 6051   3.131   0.066   7.018
 1718SOL     OW 6052   1.657   4.457   5.581
 1718SOL    HW1 6053   1.560   4.433   5.577
 1718SOL    HW2 6054   1.707   4.404   5.513
 1719SOL     OW 6055   2.246   3.598   1.443
 1719SOL    HW1 6056   2.228   3.581   1.346
 1719SOL    HW2 6057   2.213   3.689   1.467
 1720SOL     OW 6058   6.807   1.395   2.728
 1720SOL    HW1 6059   6.734   1.406   2.796
 1720SOL    HW2 6060   6.839   1.300   2.729
 1721SOL     OW 6061   1.855   6.346   3.995
 1721SOL    HW1 6062   1.830   6.427   4.048
 1721SOL    HW2 6063   1.776   6.285   3.988
 1722SOL     OW 6064   5.556   0.526   1.549
 1722SOL    HW1 6065   5.586   0.451   1.609
 1722SOL    HW2 6066   5.471   0.500   1.503
 1723SOL     OW 6067   5.774   0.944   2.888
 1723SOL    HW1 6068   5.809   1.013   2.825
 1723SOL    HW2 6069   5.739   0.989   2.971
 1724SOL     OW 6070   5.111   0.408   0.008
 1724SOL    HW1 6071   5.144   0.502   0.008
 1724SOL    HW2 6072   5.181   0.348   0.046
 1725SOL     OW 6073   3.714   5.487   2.140
 1725SOL    HW1 6074   3.783   5.464   2.072
 1725SOL    HW2 6075   3.758   5.502   2.229
 1726SOL     OW 6076   6.971   3.908   4.464
 1726SOL    HW1 6077   7.005   3.825   4.419
 1726SOL    HW2 6078   6.916   3.961   4.401
 1727SOL     OW 6079   2.746   3.349   5.429
 1727SOL    HW1 6080   2.698   3.432   5.401
 1727SOL    HW2 6081   2.837   3.348   5.387
 1728SOL     OW 6082   4.502   4.842   3.524
 1728SOL    HW1 6083   4.484   4.924   3.469
 1728SOL    HW2 6084   4.505   4.762   3.464
 1729SOL     OW 6085   1.982   3.813   2.527
 1729SOL    HW1 6086   1.898   3.784   2.573
 1729SOL    HW2 6087   1.994   3.760   2.443
 1730SOL     OW 6088   5.605   2.123   4.594
 1730SOL    HW1 6089   5.621   2.083   4.684
 1730SOL    HW2 6090   5.572   2.216   4.604
 1731SOL     OW 6091   6.884   6.573   0.672
 1731SOL    HW1 6092   6.946   6.630   0.619
 1731SOL    HW2 6093   6.904   6.584   0.770
 1732SOL     OW 6094   0.735   4.661   0.013
 1732SOL    HW1 6095   0.697   4.570   7.018
 1732SOL    HW2 6096   0.730   4.679   0.111
 1733SOL     OW 6097   0.930   3.835   0.254
 1733SOL    HW1 6098   0.916   3.785   0.340
 1733SOL    HW2 6099   0.960   3.771   0.183
 1734SOL     OW 6100   4.831   3.788   1.677
 1734SOL    HW1 6101   4.904   3.774   1.610
 1734SOL    HW2 6102   4.857   3.745   1.763
 1735SOL     OW 6103   4.951   6.011   0.755
 1735SOL    HW1 6104   5.016   5.936   0.744
 1735SOL    HW2 6105   4.919   6.014   0.850
 1736SOL     OW 6106   2.955   3.796   0.379
 1736SOL    HW1 6107   3.036   3.785   0.437
 1736SOL    HW2 6108   2.882   3.737   0.413
 1737SOL     OW 6109   1.063   5.626   3.539
 1737SOL    HW1 6110   1.137   5.636   3.472
 1737SOL    HW2 6111   1.012   5.712   3.543
 1738SOL     OW 6112   0.878   1.392   1.711
 1738SOL    HW1 6113   0.937   1.473   1.703
 1738SOL    HW2 6114   0.910   1.321   1.648
 1739SOL     OW 6115   4.647   2.404   5.854
 1739SOL    HW1 6116   4.594   2.320   5.856
 1739SOL    HW2 6117   4.736   2.388   5.898
 1740SOL     OW 6118   0.698   1.369   5.198
 1740SOL    HW1 6119   0.772   1.320   5.245
 1740SOL    HW2 6120   0.709   1.359   5.099
 1741SOL     OW 6121   2.484   1.005   2.355
 1741SOL    HW1 6122   2.513   0.976   2.446
 1741SOL    HW2 6123   2.403   1.063   2.363
 1742SOL     OW 6124   6.085   6.575   4.569
 1742SOL    HW1 6125   6.038   6.637   4.507
 1742SOL    HW2 6126   6.065   6.480   4.544
 1743SOL     OW 6127   4.734   1.312   0.409
 1743SOL    HW1 6128   4.669   1.349   0.342
 1743SOL    HW2 6129   4.782   1.234   0.369
 1744SOL     OW 6130   2.741   6.515   1.487
 1744SOL    HW1 6131   2.699   6.482   1.571
 1744SOL    HW2 6132   2.728   6.614   1.479
 1745SOL     OW 6133   6.669   3.146   5.200
 1745SOL    HW1 6134   6.706   3.129   5.109
 1745SOL    HW2 6135   6.659   3.059   5.249
 1746SOL     OW 6136   2.909   1.018   5.803
 1746SOL    HW1 6137   2.888   1.050   5.710
 1746SOL    HW2 6138   2.908   1.096   5.865
 1747SOL     OW 6139   5.170   6.766   5.326
 1747SOL    HW1 6140   5.223   6.789   5.244
 1747SOL    HW2 6141   5.073   6.764   5.304
 1748SOL     OW 6142   5.850   1.363   1.584
 1748SOL    HW1 6143   5.894   1.320   1.663
 1748SOL    HW2 6144   5.845   1.297   1.509
 1749SOL     OW 6145   4.601   0.127   5.672
 1749SOL    HW1 6146   4.525   0.109   5.609
 1749SOL    HW2 6147   4.564   0.160   5.759
 1750SOL     OW 6148   4.784   0.491   4.191
 1750SOL    HW1 6149   4.870   0.456   4.153
 1750SOL    HW2 6150   4.714   0.420   4.186
 1751SOL     OW 6151   2.123   5.361   3.791
 1751SOL    HW1 6152   2.163   5.320   3.874
 1751SOL    HW2 6153   2.033   5.322   3.775
 1752SOL     OW 6154   6.902   2.105   6.506
 1752SOL    HW1 6155   6.951   2.186   6.475
 1752SOL    HW2 6156   6.965   2.043   6.552
 1753SOL     OW 6157   2.570   6.343   2.385
 1753SOL    HW1 6158   2.512   6.402   2.329
 1753SOL    HW2 6159   2.522   6.323   2.471
 1754SOL     OW 6160   3.694   2.680   1.745
 1754SOL    HW1 6161   3.761   2.746   1.711
 1754SOL    HW2 6162   3.738   2.590   1.755
 1755SOL     OW 6163   6.136   4.396   0.227
 1755SOL    HW1 6164   6.123   4.300   0.248
 1755SOL    HW2 6165   6.224   4.427   0.262
 1756SOL     OW 6166   5.686   5.706   4.911
 1756SOL    HW1 6167   5.708   5.654   4.994
 1756SOL    HW2 6168   5.770   5.726   4.861
 1757SOL     OW 6169   3.480   0.978   5.590
 1757SOL    HW1 6170   3.429   0.897   5.561
 1757SOL    HW2 6171   3.487   1.043   5.514
 1758SOL     OW 6172   2.859   1.725   3.316
 1758SOL    HW1 6173   2.789   1.664   3.279
 1758SOL    HW2 6174   2.939   1.672   3.344
 1759SOL     OW 6175   0.367   5.408   6.072
 1759SOL    HW1 6176   0.375   5.498   6.030
 1759SOL    HW2 6177   0.447   5.390   6.129
 1760SOL     OW 6178   4.982   0.212   2.052
 1760SOL    HW1 6179   5.014   0.127   2.094
 1760SOL    HW2 6180   4.963   0.280   2.122
 1761SOL     OW 6181   5.731   2.748   1.718
 1761SOL    HW1 6182   5.697   2.715   1.806
 1761SOL    HW2 6183   5.679   2.829   1.692
 1762SOL     OW 6184   5.481   2.738   0.692
 1762SOL    HW1 6185   5.504   2.679   0.615
 1762SOL    HW2 6186   5.441   2.683   0.766
 1763SOL     OW 6187   2.112   3.204   3.756
 1763SOL    HW1 6188   2.019   3.235   3.733
 1763SOL    HW2 6189   2.133   3.229   3.850
 1764SOL     OW 6190   6.258   3.138   4.133
 1764SOL    HW1 6191   6.269   3.237   4.132
 1764SOL    HW2 6192   6.345   3.094   4.159
 1765SOL     OW 6193   1.783   3.330   6.174
 1765SOL    HW1 6194   1.786   3.251   6.235
 1765SOL    HW2 6195   1.873   3.373   6.171
 1766SOL     OW 6196   5.875   3.551   5.560
 1766SOL    HW1 6197   5.824   3.545   5.475
 1766SOL    HW2 6198   5.963   3.505   5.550
 1767SOL     OW 6199   6.640   4.306   1.615
 1767SOL    HW1 6200   6.559   4.305   1.673
 1767SOL    HW2 6201   6.702   4.233   1.645
 1768SOL     OW 6202   6.473   6.687   3.689
 1768SOL    HW1 6203   6.415   6.648   3.617
 1768SOL    HW2 6204   6.498   6.616   3.754
 1769SOL     OW 6205   5.310   0.853   3.557
 1769SOL    HW1 6206   5.303   0.948   3.526
 1769SOL    HW2 6207   5.345   0.852   3.651
 1770SOL     OW 6208   3.124   5.401   5.208
 1770SOL    HW1 6209   3.174   5.342   5.271
 1770SOL    HW2 6210   3.100   5.487   5.253
 1771SOL     OW 6211   4.528   6.768   6.746
 1771SOL    HW1 6212   4.620   6.805   6.734
 1771SOL    HW2 6213   4.522   6.723   6.835
 1772SOL     OW 6214   3.657   6.184   3.404
 1772SOL    HW1 6215   3.673   6.282   3.419
 1772SOL    HW2 6216   3.651   6.166   3.306
 1773SOL     OW 6217   0.730   6.654   0.076
 1773SOL    HW1 6218   0.696   6.673   0.168
 1773SOL    HW2 6219   0.749   6.556   0.066
 1774SOL     OW 6220   3.094   5.099   2.050
 1774SOL    HW1 6221   3.042   5.111   2.134
 1774SOL    HW2 6222   3.084   5.005   2.018
 1775SOL     OW 6223   0.806   4.075   1.547
 1775SOL    HW1 6224   0.780   4.027   1.463
 1775SOL    HW2 6225   0.855   4.158   1.524
 1776SOL     OW 6226   2.902   6.285   5.840
 1776SOL    HW1 6227   2.927   6.211   5.903
 1776SOL    HW2 6228   2.804   6.284   5.825
 1777SOL     OW 6229   3.189   6.081   0.332
 1777SOL    HW1 6230   3.109   6.121   0.288
 1777SOL    HW2 6231   3.269   6.140   0.315
 1778SOL     OW 6232   6.999   3.235   5.724
 1778SOL    HW1 6233   7.021   3.241   5.822
 1778SOL    HW2 6234   7.006   3.325   5.683
 1779SOL     OW 6235   3.767   0.579   5.684
 1779SOL    HW1 6236   3.793   0.584   5.781
 1779SOL    HW2 6237   3.691   0.516   5.673
 1780SOL     OW 6238   3.268   3.454   6.726
 1780SOL    HW1 6239   3.278   3.434   6.824
 1780SOL    HW2 6240   3.359   3.472   6.686
 1781SOL     OW 6241   3.448   5.367   3.916
 1781SOL    HW1 6242   3.521   5.429   3.890
 1781SOL    HW2 6243   3.367   5.420   3.943
 1782SOL     OW 6244   3.127   1.596   4.238
 1782SOL    HW1 6245   3.061   1.582   4.165
 1782SOL    HW2 6246   3.209   1.640   4.200
 1783SOL     OW 6247   1.640   6.031   6.774
 1783SOL    HW1 6248   1.715   6.060   6.714
 1783SOL    HW2 6249   1.678   5.993   6.859
 1784SOL     OW 6250   3.088   0.216   6.167
 1784SOL    HW1 6251   3.023   0.290   6.151
 1784SOL    HW2 6252   3.179   0.243   6.135
 1785SOL     OW 6253   0.036   4.852   1.823
 1785SOL    HW1 6254   0.045   4.859   1.724
 1785SOL    HW2 6255   0.066   4.937   1.866
 1786SOL     OW 6256   4.134   2.029   1.336
 1786SOL    HW1 6257   4.142   2.087   1.255
 1786SOL    HW2 6258   4.225   2.018   1.377
 1787SOL     OW 6259   4.021   1.087   5.732
 1787SOL    HW1 6260   4.037   1.148   5.810
 1787SOL    HW2 6261   4.011   0.993   5.765
 1788SOL     OW 6262   1.434   4.608   6.190
 1788SOL    HW1 6263   1.493   4.529   6.175
 1788SOL    HW2 6264   1.397   4.605   6.283
 1789SOL     OW 6265   5.665   0.454   0.458
 1789SOL    HW1 6266   5.615   0.507   0.526
 1789SOL    HW2 6267   5.628   0.361   0.453
 1790SOL     OW 6268   3.089   6.491   2.765
 1790SOL    HW1 6269   3.141   6.461   2.685
 1790SOL    HW2 6270   3.142   6.561   2.814
 1791SOL     OW 6271   0.289   6.453   2.782
 1791SOL    HW1 6272   0.269   6.380   2.847
 1791SOL    HW2 6273   0.210   6.468   2.723
 1792SOL     OW 6274   1.072   4.380   4.610
 1792SOL    HW1 6275   1.091   4.464   4.559
 1792SOL    HW2 6276   1.063   4.304   4.546
 1793SOL     OW 6277   0.308   0.855   3.443
 1793SOL    HW1 6278   0.382   0.881   3.505
 1793SOL    HW2 6279   0.282   0.760   3.460
 1794SOL     OW 6280   4.538   6.182   6.532
 1794SOL    HW1 6281   4.584   6.249   6.473
 1794SOL    HW2 6282   4.576   6.188   6.624
 1795SOL     OW 6283   0.869   2.952   0.045
 1795SOL    HW1 6284   0.915   2.865   0.063
 1795SOL    HW2 6285   0.804   2.971   0.119
 1796SOL     OW 6286   3.774   0.838   6.240
 1796SOL    HW1 6287   3.741   0.882   6.324
 1796SOL    HW2 6288   3.699   0.791   6.195
 1797SOL     OW 6289   0.867   0.898   0.769
 1797SOL    HW1 6290   0.770   0.874   0.775
 1797SOL    HW2 6291   0.896   0.938   0.856
 1798SOL     OW 6292   5.530   1.781   2.994
 1798SOL    HW1 6293   5.457   1.764   2.928
 1798SOL    HW2 6294   5.490   1.813   3.080
 1799SOL     OW 6295   2.013   1.933   0.061
 1799SOL    HW1 6296   2.003   1.893   0.152
 1799SOL    HW2 6297   2.104   1.910   0.024
 1800SOL     OW 6298   3.691   4.859   2.537
 1800SOL    HW1 6299   3.660   4.928   2.472
 1800SOL    HW2 6300   3.726   4.780   2.488
 1801SOL     OW 6301   5.544   6.738   0.802
 1801SOL    HW1 6302   5.619   6.790   0.843
 1801SOL    HW2 6303   5.524   6.658   0.858
 1802SOL     OW 6304   5.753   4.908   3.575
 1802SOL    HW1 6305   5.747   4.987   3.515
 1802SOL    HW2 6306   5.768   4.826   3.521
 1803SOL     OW 6307   5.557   5.704   1.320
 1803SOL    HW1 6308   5.551   5.654   1.233
 1803SOL    HW2 6309   5.499   5.658   1.388
 1804SOL     OW 6310   3.314   3.191   6.139
 1804SOL    HW1 6311   3.284   3.283   6.113
 1804SOL    HW2 6312   3.373   3.154   6.067
 1805SOL     OW 6313   5.680   2.882   6.060
 1805SOL    HW1 6314   5.659   2.784   6.055
 1805SOL    HW2 6315   5.654   2.917   6.150
 1806SOL     OW 6316   6.978   0.870   1.011
 1806SOL    HW1 6317   7.005   0.807   1.083
 1806SOL    HW2 6318   6.890   0.911   1.034
 1807SOL     OW 6319   6.226   2.070   5.882
 1807SOL    HW1 6320   6.273   2.151   5.914
 1807SOL    HW2 6321   6.288   2.014   5.826
 1808SOL     OW 6322   1.980   4.614   4.232
 1808SOL    HW1 6323   2.074   4.583   4.240
 1808SOL    HW2 6324   1.975   4.693   4.172
 1809SOL     OW 6325   3.684   0.541   6.351
 1809SOL    HW1 6326   3.657   0.584   6.265
 1809SOL    HW2 6327   3.723   0.451   6.334
 1810SOL     OW 6328   3.460   6.035   2.690
 1810SOL    HW1 6329   3.440   6.059   2.595
 1810SOL    HW2 6330   3.411   5.951   2.715
 1811SOL     OW 6331   6.000   5.668   2.436
 1811SOL    HW1 6332   6.057   5.714   2.505
 1811SOL    HW2 6333   6.018   5.570   2.438
 1812SOL     OW 6334   4.362   5.236   6.374
 1812SOL    HW1 6335   4.440   5.237   6.437
 1812SOL    HW2 6336   4.343   5.330   6.344
 1813SOL     OW 6337   6.737   5.543   5.353
 1813SOL    HW1 6338   6.818   5.543   5.411
 1813SOL    HW2 6339   6.666   5.487   5.397
 1814SOL     OW 6340   5.053   6.956   2.790
 1814SOL    HW1 6341   5.033   6.995   2.700
 1814SOL    HW2 6342   5.032   6.858   2.790
 1815SOL     OW 6343   0.380   1.177   2.406
 1815SOL    HW1 6344   0.467   1.143   2.371
 1815SOL    HW2 6345   0.397   1.247   2.475
 1816SOL     OW 6346   1.053   4.627   0.303
 1816SOL    HW1 6347   1.142   4.615   0.258
 1816SOL    HW2 6348   0.983   4.577   0.252
 1817SOL     OW 6349   1.178   5.540   1.849
 1817SOL    HW1 6350   1.178   5.579   1.757
 1817SOL    HW2 6351   1.271   5.537   1.884
 1818SOL     OW 6352   1.290   1.321   3.099
 1818SOL    HW1 6353   1.357   1.254   3.129
 1818SOL    HW2 6354   1.333   1.412   3.096
 1819SOL     OW 6355   0.967   4.022   2.166
 1819SOL    HW1 6356   1.016   3.946   2.123
 1819SOL    HW2 6357   0.936   4.086   2.095
 1820SOL     OW 6358   6.123   0.301   2.713
 1820SOL    HW1 6359   6.033   0.268   2.742
 1820SOL    HW2 6360   6.169   0.344   2.791
 1821SOL     OW 6361   1.564   1.493   3.806
 1821SOL    HW1 6362   1.621   1.441   3.742
 1821SOL    HW2 6363   1.528   1.574   3.761
 1822SOL     OW 6364   3.293   3.480   1.968
 1822SOL    HW1 6365   3.352   3.417   2.019
 1822SOL    HW2 6366   3.280   3.446   1.875
 1823SOL     OW 6367   4.258   0.238   2.208
 1823SOL    HW1 6368   4.209   0.285   2.282
 1823SOL    HW2 6369   4.194   0.180   2.157
 1824SOL     OW 6370   4.971   2.305   1.719
 1824SOL    HW1 6371   4.872   2.296   1.717
 1824SOL    HW2 6372   5.013   2.232   1.665
 1825SOL     OW 6373   1.037   1.188   1.597
 1825SOL    HW1 6374   1.137   1.191   1.595
 1825SOL    HW2 6375   1.001   1.192   1.504
 1826SOL     OW 6376   3.148   5.792   6.063
 1826SOL    HW1 6377   3.087   5.717   6.088
 1826SOL    HW2 6378   3.209   5.813   6.140
 1827SOL     OW 6379   6.201   6.982   1.698
 1827SOL    HW1 6380   6.169   6.908   1.757
 1827SOL    HW2 6381   6.296   7.003   1.719
 1828SOL     OW 6382   1.622   2.360   0.013
 1828SOL    HW1 6383   1.713   2.368   0.054
 1828SOL    HW2 6384   1.555   2.405   0.072
 1829SOL     OW 6385   6.184   5.261   1.994
 1829SOL    HW1 6386   6.165   5.343   2.048
 1829SOL    HW2 6387   6.107   5.198   2.002
 1830SOL     OW 6388   5.429   5.776   3.774
 1830SOL    HW1 6389   5.359   5.814   3.834
 1830SOL    HW2 6390   5.461   5.846   3.711
 1831SOL     OW 6391   5.493   0.706   3.389
 1831SOL    HW1 6392   5.444   0.758   3.459
 1831SOL    HW2 6393   5.528   0.769   3.320
 1832SOL     OW 6394   5.017   2.503   0.325
 1832SOL    HW1 6395   5.033   2.590   0.373
 1832SOL    HW2 6396   4.923   2.475   0.338
 1833SOL     OW 6397   5.633   2.023   5.751
 1833SOL    HW1 6398   5.697   1.968   5.806
 1833SOL    HW2 6399   5.602   1.968   5.673
 1834SOL     OW 6400   2.764   4.044   0.758
 1834SOL    HW1 6401   2.805   4.133   0.776
 1834SOL    HW2 6402   2.686   4.055   0.697
 1835SOL     OW 6403   1.050   4.731   6.893
 1835SOL    HW1 6404   1.138   4.774   6.917
 1835SOL    HW2 6405   1.025   4.665   6.963
 1836SOL     OW 6406   0.653   5.952   0.572
 1836SOL    HW1 6407   0.560   5.974   0.544
 1836SOL    HW2 6408   0.696   6.032   0.613
 1837SOL     OW 6409   1.117   2.316   4.859
 1837SOL    HW1 6410   1.106   2.325   4.958
 1837SOL    HW2 6411   1.086   2.226   4.830
 1838SOL     OW 6412   0.720   2.495   4.537
 1838SOL    HW1 6413   0.672   2.487   4.450
 1838SOL    HW2 6414   0.672   2.560   4.596
 1839SOL     OW 6415   0.153   1.458   6.167
 1839SOL    HW1 6416   0.211   1.391   6.121
 1839SOL    HW2 6417   0.210   1.533   6.202
 1840SOL     OW 6418   1.236   5.285   0.609
 1840SOL    HW1 6419   1.153   5.229   0.620
 1840SOL    HW2 6420   1.298   5.266   0.686
 1841SOL     OW 6421   1.234   3.188   2.860
 1841SOL    HW1 6422   1.268   3.110   2.913
 1841SOL    HW2 6423   1.149   3.221   2.900
 1842SOL     OW 6424   0.831   5.241   6.677
 1842SOL    HW1 6425   0.799   5.150   6.653
 1842SOL    HW2 6426   0.813   5.304   6.601
 1843SOL     OW 6427   3.912   1.896   4.719
 1843SOL    HW1 6428   3.906   1.995   4.708
 1843SOL    HW2 6429   3.821   1.859   4.738
 1844SOL     OW 6430   5.606   3.360   3.578
 1844SOL    HW1 6431   5.577   3.331   3.670
 1844SOL    HW2 6432   5.639   3.455   3.581
 1845SOL     OW 6433   4.298   6.978   0.866
 1845SOL    HW1 6434   4.248   6.997   0.782
 1845SOL    HW2 6435   4.300   0.037   0.923
 1846SOL     OW 6436   3.426   1.352   5.574
 1846SOL    HW1 6437   3.509   1.328   5.625
 1846SOL    HW2 6438   3.404   1.448   5.591
 1847SOL     OW 6439   2.031   6.840   0.400
 1847SOL    HW1 6440   2.073   6.749   0.398
 1847SOL    HW2 6441   2.084   6.902   0.342
 1848SOL     OW 6442   2.814   6.868   2.516
 1848SOL    HW1 6443   2.843   6.811   2.593
 1848SOL    HW2 6444   2.746   6.818   2.462
 1849SOL     OW 6445   2.887   0.899   6.760
 1849SOL    HW1 6446   2.934   0.826   6.808
 1849SOL    HW2 6447   2.897   0.887   6.661
 1850SOL     OW 6448   5.271   1.699   1.761
 1850SOL    HW1 6449   5.323   1.758   1.699
 1850SOL    HW2 6450   5.299   1.604   1.747
 1851SOL     OW 6451   6.353   3.686   2.838
 1851SOL    HW1 6452   6.279   3.739   2.879
 1851SOL    HW2 6453   6.316   3.600   2.803
 1852SOL     OW 6454   5.234   2.883   6.139
 1852SOL    HW1 6455   5.252   2.805   6.079
 1852SOL    HW2 6456   5.252   2.856   6.234
 1853SOL     OW 6457   1.186   4.467   0.687
 1853SOL    HW1 6458   1.089   4.450   0.707
 1853SOL    HW2 6459   1.218   4.400   0.620
 1854SOL     OW 6460   2.659   5.685   3.985
 1854SOL    HW1 6461   2.571   5.719   3.952
 1854SOL    HW2 6462   2.654   5.585   3.996
 1855SOL     OW 6463   5.677   4.167   1.581
 1855SOL    HW1 6464   5.732   4.194   1.660
 1855SOL    HW2 6465   5.592   4.219   1.580
 1856SOL     OW 6466   4.883   3.132   6.635
 1856SOL    HW1 6467   4.793   3.152   6.597
 1856SOL    HW2 6468   4.936   3.216   6.641
 1857SOL     OW 6469   4.860   1.485   3.512
 1857SOL    HW1 6470   4.815   1.429   3.582
 1857SOL    HW2 6471   4.802   1.487   3.430
 1858SOL     OW 6472   5.619   3.208   3.379
 1858SOL    HW1 6473   5.606   3.266   3.459
 1858SOL    HW2 6474   5.710   3.224   3.340
 1859SOL     OW 6475   5.668   1.319   3.011
 1859SOL    HW1 6476   5.698   1.253   3.080
 1859SOL    HW2 6477   5.641   1.404   3.056
 1860SOL     OW 6478   3.989   1.943   5.257
 1860SOL    HW1 6479   3.962   1.904   5.169
 1860SOL    HW2 6480   4.083   1.916   5.279
 1861SOL     OW 6481   5.446   6.065   2.688
 1861SOL    HW1 6482   5.407   6.129   2.755
 1861SOL    HW2 6483   5.371   6.016   2.642
 1862SOL     OW 6484   2.007   1.463   0.660
 1862SOL    HW1 6485   1.929   1.420   0.615
 1862SOL    HW2 6486   2.027   1.415   0.745
 1863SOL     OW 6487   2.200   2.644   1.592
 1863SOL    HW1 6488   2.113   2.615   1.552
 1863SOL    HW2 6489   2.242   2.714   1.534
 1864SOL     OW 6490   0.883   6.744   3.222
 1864SOL    HW1 6491   0.878   6.841   3.246
 1864SOL    HW2 6492   0.929   6.694   3.295
 1865SOL     OW 6493   5.179   2.282   6.771
 1865SOL    HW1 6494   5.130   2.341   6.707
 1865SOL    HW2 6495   5.117   2.211   6.805
 1866SOL     OW 6496   5.081   5.529   2.404
 1866SOL    HW1 6497   4.986   5.500   2.399
 1866SOL    HW2 6498   5.140   5.459   2.364
 1867SOL     OW 6499   1.165   4.645   6.625
 1867SOL    HW1 6500   1.144   4.649   6.723
 1867SOL    HW2 6501   1.216   4.727   6.598
 1868SOL     OW 6502   6.572   4.224   5.606
 1868SOL    HW1 6503   6.600   4.135   5.643
 1868SOL    HW2 6504   6.649   4.287   5.610
 1869SOL     OW 6505   5.998   1.462   4.788
 1869SOL    HW1 6506   5.920   1.485   4.730
 1869SOL    HW2 6507   6.069   1.418   4.734
 1870SOL     OW 6508   2.268   4.250   4.527
 1870SOL    HW1 6509   2.325   4.306   4.587
 1870SOL    HW2 6510   2.174   4.250   4.560
 1871SOL     OW 6511   1.580   0.411   0.778
 1871SOL    HW1 6512   1.600   0.397   0.875
 1871SOL    HW2 6513   1.512   0.345   0.748
 1872SOL     OW 6514   2.369   4.891   0.283
 1872SOL    HW1 6515   2.402   4.869   0.191
 1872SOL    HW2 6516   2.389   4.987   0.302
 1873SOL     OW 6517   5.221   1.017   0.413
 1873SOL    HW1 6518   5.175   1.103   0.435
 1873SOL    HW2 6519   5.213   1.000   0.315
 1874SOL     OW 6520   1.386   3.880   2.568
 1874SOL    HW1 6521   1.372   3.859   2.472
 1874SOL    HW2 6522   1.432   3.968   2.577
 1875SOL     OW 6523   1.326   0.212   1.072
 1875SOL    HW1 6524   1.287   0.293   1.116
 1875SOL    HW2 6525   1.262   0.135   1.082
 1876SOL     OW 6526   2.442   6.769   4.201
 1876SOL    HW1 6527   2.519   6.716   4.237
 1876SOL    HW2 6528   2.476   6.845   4.145
 1877SOL     OW 6529   0.194   0.163   3.638
 1877SOL    HW1 6530   0.218   0.248   3.687
 1877SOL    HW2 6531   0.167   0.094   3.705
 1878SOL     OW 6532   6.015   2.639   5.397
 1878SOL    HW1 6533   5.937   2.587   5.361
 1878SOL    HW2 6534   6.055   2.694   5.324
 1879SOL     OW 6535   1.926   4.717   5.751
 1879SOL    HW1 6536   1.945   4.671   5.664
 1879SOL    HW2 6537   1.827   4.720   5.766
 1880SOL     OW 6538   6.203   0.506   5.083
 1880SOL    HW1 6539   6.110   0.534   5.057
 1880SOL    HW2 6540   6.267   0.534   5.012
 1881SOL     OW 6541   0.296   2.804   6.884
 1881SOL    HW1 6542   0.220   2.868   6.868
 1881SOL    HW2 6543   0.382   2.854   6.889
 1882SOL     OW 6544   1.311   6.521   6.509
 1882SOL    HW1 6545   1.235   6.551   6.567
 1882SOL    HW2 6546   1.326   6.423   6.522
 1883SOL     OW 6547   0.481   2.060   3.958
 1883SOL    HW1 6548   0.422   1.987   3.993
 1883SOL    HW2 6549   0.576   2.041   3.982
 1884SOL     OW 6550   0.468   2.603   0.750
 1884SOL    HW1 6551   0.552   2.571   0.706
 1884SOL    HW2 6552   0.489   2.634   0.843
 1885SOL     OW 6553   2.213   0.970   4.456
 1885SOL    HW1 6554   2.266   0.902   4.507
 1885SOL    HW2 6555   2.234   1.061   4.490
 1886SOL     OW 6556   1.032   6.594   3.416
 1886SOL    HW1 6557   1.025   6.628   3.510
 1886SOL    HW2 6558   0.995   6.501   3.412
 1887SOL     OW 6559   3.245   6.225   6.250
 1887SOL    HW1 6560   3.204   6.149   6.300
 1887SOL    HW2 6561   3.226   6.215   6.152
 1888SOL     OW 6562   2.670   0.879   3.169
 1888SOL    HW1 6563   2.761   0.838   3.159
 1888SOL    HW2 6564   2.680   0.975   3.197
 1889SOL     OW 6565   0.587   3.407   2.504
 1889SOL    HW1 6566   0.593   3.407   2.405
 1889SOL    HW2 6567   0.533   3.328   2.534
 1890SOL     OW 6568   1.153   6.008   4.733
 1890SOL    HW1 6569   1.113   5.954   4.658
 1890SOL    HW2 6570   1.110   5.982   4.819
 1891SOL     OW 6571   3.388   3.402   3.479
 1891SOL    HW1 6572   3.300   3.450   3.485
 1891SOL    HW2 6573   3.452   3.443   3.544
 1892SOL     OW 6574   0.983   0.158   2.732
 1892SOL    HW1 6575   1.016   0.169   2.638
 1892SOL    HW2 6576   0.972   0.247   2.775
 1893SOL     OW 6577   4.170   3.498   4.393
 1893SOL    HW1 6578   4.133   3.577   4.441
 1893SOL    HW2 6579   4.096   3.434   4.371
 1894SOL     OW 6580   3.221   3.510   4.503
 1894SOL    HW1 6581   3.266   3.471   4.422
 1894SOL    HW2 6582   3.227   3.609   4.500
 1895SOL     OW 6583   1.704   6.165   0.065
 1895SOL    HW1 6584   1.681   6.170   0.162
 1895SOL    HW2 6585   1.684   6.254   0.022
 1896SOL     OW 6586   6.286   2.356   1.423
 1896SOL    HW1 6587   6.384   2.377   1.425
 1896SOL    HW2 6588   6.271   2.266   1.465
 1897SOL     OW 6589   1.156   4.608   4.503
 1897SOL    HW1 6590   1.093   4.682   4.529
 1897SOL    HW2 6591   1.250   4.640   4.511
 1898SOL     OW 6592   1.586   6.111   2.756
 1898SOL    HW1 6593   1.664   6.058   2.724
 1898SOL    HW2 6594   1.619   6.193   2.803
 1899SOL     OW 6595   0.213   1.253   2.182
 1899SOL    HW1 6596   0.271   1.216   2.255
 1899SOL    HW2 6597   0.172   1.178   2.131
 1900SOL     OW 6598   2.570   6.809   6.956
 1900SOL    HW1 6599   2.485   6.800   6.904
 1900SOL    HW2 6600   2.557   6.876   0.005
 1901SOL     OW 6601   2.722   3.640   1.773
 1901SOL    HW1 6602   2.707   3.739   1.771
 1901SOL    HW2 6603   2.795   3.619   1.837
 1902SOL     OW 6604   1.368   6.705   5.259
 1902SOL    HW1 6605   1.384   6.650   5.177
 1902SOL    HW2 6606   1.272   6.732   5.262
 1903SOL     OW 6607   1.251   2.340   4.167
 1903SOL    HW1 6608   1.283   2.249   4.138
 1903SOL    HW2 6609   1.155   2.350   4.141
 1904SOL     OW 6610   5.686   6.191   2.063
 1904SOL    HW1 6611   5.701   6.092   2.057
 1904SOL    HW2 6612   5.741   6.238   1.995
 1905SOL     OW 6613   0.711   1.937   4.046
 1905SOL    HW1 6614   0.689   1.872   4.120
 1905SOL    HW2 6615   0.685   1.897   3.958
 1906SOL     OW 6616   0.922   6.202   4.858
 1906SOL    HW1 6617   1.019   6.205   4.832
 1906SOL    HW2 6618   0.867   6.174   4.779
 1907SOL     OW 6619   4.993   3.081   0.251
 1907SOL    HW1 6620   5.026   3.090   0.157
 1907SOL    HW2 6621   5.034   3.154   0.307
 1908SOL     OW 6622   3.706   1.256   1.517
 1908SOL    HW1 6623   3.632   1.324   1.513
 1908SOL    HW2 6624   3.773   1.276   1.446
 1909SOL     OW 6625   6.261   5.552   4.563
 1909SOL    HW1 6626   6.183   5.498   4.529
 1909SOL    HW2 6627   6.247   5.648   4.540
 1910SOL     OW 6628   0.333   5.873   5.904
 1910SOL    HW1 6629   0.305   5.917   5.989
 1910SOL    HW2 6630   0.269   5.896   5.831
 1911SOL     OW 6631   6.106   5.888   4.322
 1911SOL    HW1 6632   6.160   5.837   4.390
 1911SOL    HW2 6633   6.164   5.910   4.244
 1912SOL     OW 6634   3.673   5.044   1.947
 1912SOL    HW1 6635   3.631   5.070   1.860
 1912SOL    HW2 6636   3.697   4.947   1.946
 1913SOL     OW 6637   3.353   4.174   6.909
 1913SOL    HW1 6638   3.336   4.094   6.966
 1913SOL    HW2 6639   3.268   4.200   6.863
 1914SOL     OW 6640   3.527   4.274   0.080
 1914SOL    HW1 6641   3.444   4.245   0.033
 1914SOL    HW2 6642   3.553   4.204   0.147
 1915SOL     OW 6643   3.392   3.080   6.787
 1915SOL    HW1 6644   3.372   2.984   6.805
 1915SOL    HW2 6645   3.311   3.126   6.752
 1916SOL     OW 6646   4.575   0.599   2.796
 1916SOL    HW1 6647   4.548   0.623   2.703
 1916SOL    HW2 6648   4.632   0.672   2.834
 1917SOL     OW 6649   2.140   4.392   1.340
 1917SOL    HW1 6650   2.215   4.413   1.277
 1917SOL    HW2 6651   2.099   4.478   1.372
 1918SOL     OW 6652   5.306   1.933   3.465
 1918SOL    HW1 6653   5.244   1.892   3.531
 1918SOL    HW2 6654   5.254   1.980   3.394
 1919SOL     OW 6655   6.474   2.303   6.221
 1919SOL    HW1 6656   6.536   2.265   6.290
 1919SOL    HW2 6657   6.399   2.350   6.267
 1920SOL     OW 6658   4.732   2.987   0.606
 1920SOL    HW1 6659   4.768   2.953   0.519
 1920SOL    HW2 6660   4.764   2.930   0.681
 1921SOL     OW 6661   2.325   2.280   0.244
 1921SOL    HW1 6662   2.383   2.325   0.177
 1921SOL    HW2 6663   2.304   2.343   0.319
 1922SOL     OW 6664   3.104   3.013   3.966
 1922SOL    HW1 6665   3.136   3.048   4.054
 1922SOL    HW2 6666   3.045   3.082   3.923
 1923SOL     OW 6667   3.441   0.702   4.453
 1923SOL    HW1 6668   3.455   0.708   4.552
 1923SOL    HW2 6669   3.489   0.777   4.408
 1924SOL     OW 6670   5.124   1.132   0.789
 1924SOL    HW1 6671   5.141   1.041   0.828
 1924SOL    HW2 6672   5.175   1.200   0.840
 1925SOL     OW 6673   1.197   3.900   1.433
 1925SOL    HW1 6674   1.268   3.850   1.383
 1925SOL    HW2 6675   1.234   3.988   1.463
 1926SOL     OW 6676   3.980   0.681   1.910
 1926SOL    HW1 6677   3.935   0.645   1.828
 1926SOL    HW2 6678   4.013   0.605   1.965
 1927SOL     OW 6679   1.974   5.197   1.004
 1927SOL    HW1 6680   1.926   5.118   1.040
 1927SOL    HW2 6681   2.046   5.166   0.941
 1928SOL     OW 6682   6.628   4.596   2.390
 1928SOL    HW1 6683   6.721   4.593   2.353
 1928SOL    HW2 6684   6.566   4.548   2.328
 1929SOL     OW 6685   3.215   6.671   3.521
 1929SOL    HW1 6686   3.294   6.692   3.464
 1929SOL    HW2 6687   3.236   6.691   3.616
 1930SOL     OW 6688   3.836   3.373   0.439
 1930SOL    HW1 6689   3.854   3.334   0.349
 1930SOL    HW2 6690   3.922   3.383   0.489
 1931SOL     OW 6691   6.904   2.666   3.878
 1931SOL    HW1 6692   6.886   2.700   3.970
 1931SOL    HW2 6693   6.852   2.582   3.863
 1932SOL     OW 6694   4.916   1.788   2.472
 1932SOL    HW1 6695   4.825   1.797   2.433
 1932SOL    HW2 6696   4.968   1.872   2.456
 1933SOL     OW 6697   1.521   1.143   1.391
 1933SOL    HW1 6698   1.571   1.057   1.380
 1933SOL    HW2 6699   1.525   1.194   1.305
 1934SOL     OW 6700   6.938   1.142   0.078
 1934SOL    HW1 6701   6.924   1.044   0.092
 1934SOL    HW2 6702   6.950   1.161   7.004
 1935SOL     OW 6703   6.019   4.956   3.311
 1935SOL    HW1 6704   6.011   4.964   3.212
 1935SOL    HW2 6705   5.977   5.036   3.354
 1936SOL     OW 6706   4.797   3.437   5.968
 1936SOL    HW1 6707   4.703   3.406   5.982
 1936SOL    HW2 6708   4.860   3.377   6.018
 1937SOL     OW 6709   6.201   4.989   6.471
 1937SOL    HW1 6710   6.173   5.040   6.552
 1937SOL    HW2 6711   6.286   5.028   6.434
 1938SOL     OW 6712   6.756   2.846   0.253
 1938SOL    HW1 6713   6.732   2.826   0.158
 1938SOL    HW2 6714   6.678   2.829   0.312
 1939SOL     OW 6715   0.241   0.824   4.408
 1939SOL    HW1 6716   0.193   0.737   4.424
 1939SOL    HW2 6717   0.335   0.816   4.440
 1940SOL     OW 6718   0.412   4.917   0.777
 1940SOL    HW1 6719   0.493   4.970   0.802
 1940SOL    HW2 6720   0.407   4.907   0.678
 1941SOL     OW 6721   5.480   1.569   4.763
 1941SOL    HW1 6722   5.544   1.532   4.831
 1941SOL    HW2 6723   5.501   1.665   4.746
 1942SOL     OW 6724   0.321   4.762   1.721
 1942SOL    HW1 6725   0.318   4.852   1.764
 1942SOL    HW2 6726   0.263   4.762   1.640
 1943SOL     OW 6727   0.685   2.767   3.428
 1943SOL    HW1 6728   0.779   2.739   3.449
 1943SOL    HW2 6729   0.680   2.867   3.429
 1944SOL     OW 6730   0.792   3.517   3.640
 1944SOL    HW1 6731   0.890   3.539   3.648
 1944SOL    HW2 6732   0.738   3.599   3.662
 1945SOL     OW 6733   5.262   1.392   1.684
 1945SOL    HW1 6734   5.215   1.431   1.604
 1945SOL    HW2 6735   5.243   1.294   1.689
 1946SOL     OW 6736   6.272   5.542   0.493
 1946SOL    HW1 6737   6.359   5.537   0.444
 1946SOL    HW2 6738   6.276   5.484   0.574
 1947SOL     OW 6739   5.992   5.077   2.698
 1947SOL    HW1 6740   6.051   5.157   2.708
 1947SOL    HW2 6741   5.919   5.080   2.767
 1948SOL     OW 6742   5.442   3.025   3.539
 1948SOL    HW1 6743   5.525   3.077   3.520
 1948SOL    HW2 6744   5.373   3.046   3.469
 1949SOL     OW 6745   3.364   4.081   6.618
 1949SOL    HW1 6746   3.338   4.059   6.712
 1949SOL    HW2 6747   3.449   4.134   6.619
 1950SOL     OW 6748   3.874   3.785   3.448
 1950SOL    HW1 6749   3.924   3.741   3.522
 1950SOL    HW2 6750   3.838   3.873   3.480
 1951SOL     OW 6751   6.236   5.331   5.640
 1951SOL    HW1 6752   6.211   5.249   5.692
 1951SOL    HW2 6753   6.244   5.307   5.543
 1952SOL     OW 6754   5.586   4.522   6.838
 1952SOL    HW1 6755   5.637   4.499   6.921
 1952SOL    HW2 6756   5.632   4.598   6.792
 1953SOL     OW 6757   0.986   1.096   0.061
 1953SOL    HW1 6758   0.989   1.175   0.123
 1953SOL    HW2 6759   0.893   1.083   0.029
 1954SOL     OW 6760   3.744   6.476   1.968
 1954SOL    HW1 6761   3.770   6.466   1.871
 1954SOL    HW2 6762   3.647   6.459   1.978
 1955SOL     OW 6763   6.789   2.426   3.880
 1955SOL    HW1 6764   6.841   2.359   3.829
 1955SOL    HW2 6765   6.692   2.419   3.856
 1956SOL     OW 6766   5.087   0.876   1.465
 1956SOL    HW1 6767   5.046   0.953   1.515
 1956SOL    HW2 6768   5.092   0.797   1.525
 1957SOL     OW 6769   6.664   2.290   4.399
 1957SOL    HW1 6770   6.719   2.349   4.459
 1957SOL    HW2 6771   6.709   2.282   4.310
 1958SOL     OW 6772   3.979   1.378   0.478
 1958SOL    HW1 6773   4.069   1.418   0.461
 1958SOL    HW2 6774   3.946   1.408   0.568
 1959SOL     OW 6775   0.958   1.937   5.642
 1959SOL    HW1 6776   1.006   1.933   5.730
 1959SOL    HW2 6777   1.006   2.000   5.581
 1960SOL     OW 6778   5.461   4.154   3.319
 1960SOL    HW1 6779   5.394   4.104   3.373
 1960SOL    HW2 6780   5.508   4.091   3.257
 1961SOL     OW 6781   0.684   3.495   4.203
 1961SOL    HW1 6782   0.640   3.568   4.255
 1961SOL    HW2 6783   0.700   3.526   4.109
 1962SOL     OW 6784   0.481   0.443   1.748
 1962SOL    HW1 6785   0.458   0.530   1.790
 1962SOL    HW2 6786   0.555   0.399   1.800
 1963SOL     OW 6787   1.052   2.964   6.777
 1963SOL    HW1 6788   1.009   2.979   6.866
 1963SOL    HW2 6789   0.983   2.970   6.705
 1964SOL     OW 6790   5.615   3.607   0.446
 1964SOL    HW1 6791   5.530   3.660   0.450
 1964SOL    HW2 6792   5.593   3.509   0.453
 1965SOL     OW 6793   6.122   4.691   3.585
 1965SOL    HW1 6794   6.098   4.740   3.502
 1965SOL    HW2 6795   6.143   4.595   3.563
 1966SOL     OW 6796   0.987   4.561   6.372
 1966SOL    HW1 6797   1.034   4.647   6.394
 1966SOL    HW2 6798   0.980   4.505   6.455
 1967SOL     OW 6799   6.611   3.404   4.638
 1967SOL    HW1 6800   6.511   3.409   4.635
 1967SOL    HW2 6801   6.640   3.308   4.630
 1968SOL     OW 6802   2.438   1.352   5.985
 1968SOL    HW1 6803   2.391   1.377   5.901
 1968SOL    HW2 6804   2.432   1.427   6.051
 1969SOL     OW 6805   1.065   6.078   1.135
 1969SOL    HW1 6806   1.144   6.126   1.098
 1969SOL    HW2 6807   1.092   6.028   1.217
 1970SOL     OW 6808   5.479   4.425   3.995
 1970SOL    HW1 6809   5.387   4.434   3.955
 1970SOL    HW2 6810   5.471   4.407   4.093
 1971SOL     OW 6811   1.719   4.458   4.543
 1971SOL    HW1 6812   1.809   4.471   4.584
 1971SOL    HW2 6813   1.648   4.490   4.606
 1972SOL     OW 6814   6.214   1.980   2.363
 1972SOL    HW1 6815   6.273   1.937   2.431
 1972SOL    HW2 6816   6.255   2.067   2.334
 1973SOL     OW 6817   3.323   2.046   1.181
 1973SOL    HW1 6818   3.384   1.970   1.161
 1973SOL    HW2 6819   3.357   2.129   1.136
 1974SOL     OW 6820   2.496   6.853   4.905
 1974SOL    HW1 6821   2.432   6.870   4.831
 1974SOL    HW2 6822   2.470   6.907   4.985
 1975SOL     OW 6823   2.035   2.786   2.620
 1975SOL    HW1 6824   2.131   2.756   2.614
 1975SOL    HW2 6825   1.975   2.710   2.596
 1976SOL     OW 6826   1.457   0.960   5.135
 1976SOL    HW1 6827   1.505   0.892   5.080
 1976SOL    HW2 6828   1.389   1.008   5.079
 1977SOL     OW 6829   1.774   3.576   6.671
 1977SOL    HW1 6830   1.767   3.674   6.655
 1977SOL    HW2 6831   1.684   3.540   6.699
 1978SOL     OW 6832   2.913   0.339   2.019
 1978SOL    HW1 6833   2.921   0.276   1.941
 1978SOL    HW2 6834   2.937   0.431   1.990
 1979SOL     OW 6835   5.894   4.842   6.553
 1979SOL    HW1 6836   5.937   4.752   6.545
 1979SOL    HW2 6837   5.839   4.860   6.472
 1980SOL     OW 6838   3.945   0.162   0.905
 1980SOL    HW1 6839   3.933   0.173   1.003
 1980SOL    HW2 6840   3.937   0.065   0.881
 1981SOL     OW 6841   3.695   1.841   2.374
 1981SOL    HW1 6842   3.683   1.859   2.276
 1981SOL    HW2 6843   3.611   1.862   2.423
 1982SOL     OW 6844   1.510   3.052   6.168
 1982SOL    HW1 6845   1.491   3.035   6.071
 1982SOL    HW2 6846   1.494   3.149   6.188
 1983SOL     OW 6847   6.212   1.462   1.943
 1983SOL    HW1 6848   6.177   1.377   1.904
 1983SOL    HW2 6849   6.141   1.506   1.998
 1984SOL     OW 6850   4.986   3.880   5.949
 1984SOL    HW1 6851   5.013   3.967   5.988
 1984SOL    HW2 6852   4.946   3.822   6.020
 1985SOL     OW 6853   6.156   4.722   4.041
 1985SOL    HW1 6854   6.102   4.696   3.960
 1985SOL    HW2 6855   6.120   4.674   4.121
 1986SOL     OW 6856   2.967   3.427   2.280
 1986SOL    HW1 6857   2.968   3.518   2.240
 1986SOL    HW2 6858   2.976   3.358   2.208
 1987SOL     OW 6859   2.618   0.888   2.137
 1987SOL    HW1 6860   2.708   0.921   2.165
 1987SOL    HW2 6861   2.549   0.915   2.205
 1988SOL     OW 6862   0.789   2.121   2.099
 1988SOL    HW1 6863   0.694   2.088   2.097
 1988SOL    HW2 6864   0.848   2.049   2.137
 1989SOL     OW 6865   2.881   5.800   5.138
 1989SOL    HW1 6866   2.782   5.792   5.153
 1989SOL    HW2 6867   2.899   5.882   5.083
 1990SOL     OW 6868   3.897   6.980   0.101
 1990SOL    HW1 6869   3.813   7.010   0.146
 1990SOL    HW2 6870   3.898   7.013   0.007
 1991SOL     OW 6871   2.421   5.274   1.570
 1991SOL    HW1 6872   2.501   5.300   1.516
 1991SOL    HW2 6873   2.366   5.355   1.589
 1992SOL     OW 6874   1.012   6.400   2.889
 1992SOL    HW1 6875   1.000   6.498   2.908
 1992SOL    HW2 6876   1.070   6.359   2.960
 1993SOL     OW 6877   1.906   1.728   2.988
 1993SOL    HW1 6878   1.943   1.788   2.917
 1993SOL    HW2 6879   1.850   1.782   3.051
 1994SOL     OW 6880   4.020   3.212   1.308
 1994SOL    HW1 6881   4.054   3.130   1.260
 1994SOL    HW2 6882   4.012   3.192   1.405
 1995SOL     OW 6883   5.648   1.757   4.090
 1995SOL    HW1 6884   5.747   1.748   4.106
 1995SOL    HW2 6885   5.614   1.675   4.043
 1996SOL     OW 6886   4.892   0.819   0.492
 1996SOL    HW1 6887   4.846   0.828   0.581
 1996SOL    HW2 6888   4.985   0.783   0.506
 1997SOL     OW 6889   3.903   1.119   3.988
 1997SOL    HW1 6890   3.810   1.088   3.967
 1997SOL    HW2 6891   3.964   1.096   3.911
 1998SOL     OW 6892   2.750   3.959   1.462
 1998SOL    HW1 6893   2.820   3.908   1.411
 1998SOL    HW2 6894   2.735   4.048   1.419
 1999SOL     OW 6895   0.563   6.624   6.732
 1999SOL    HW1 6896   0.477   6.594   6.775
 1999SOL    HW2 6897   0.542   6.690   6.660
 2000SOL     OW 6898   4.337   4.408   6.226
 2000SOL    HW1 6899   4.388   4.342   6.171
 2000SOL    HW2 6900   4.260   4.443   6.174
 2001SOL     OW 6901   1.403   2.439   0.729
 2001SOL    HW1 6902   1.396   2.340   0.722
 2001SOL    HW2 6903   1.313   2.480   0.714
 2002SOL     OW 6904   6.293   5.431   0.770
 2002SOL    HW1 6905   6.300   5.523   0.810
 2002SOL    HW2 6906   6.361   5.372   0.812
 2003SOL     OW 6907   5.728   5.554   1.713
 2003SOL    HW1 6908   5.642   5.502   1.718
 2003SOL    HW2 6909   5.770   5.541   1.623
 2004SOL     OW 6910   4.082   0.199   3.142
 2004SOL    HW1 6911   4.175   0.232   3.158
 2004SOL    HW2 6912   4.021   0.233   3.214
 2005SOL     OW 6913   1.442   6.782   0.380
 2005SOL    HW1 6914   1.385   6.853   0.339
 2005SOL    HW2 6915   1.537   6.797   0.354
 2006SOL     OW 6916   5.830   6.761   2.425
 2006SOL    HW1 6917   5.893   6.722   2.493
 2006SOL    HW2 6918   5.842   6.860   2.421
 2007SOL     OW 6919   5.592   4.968   6.108
 2007SOL    HW1 6920   5.580   4.870   6.092
 2007SOL    HW2 6921   5.503   5.010   6.127
 2008SOL     OW 6922   1.838   3.397   2.685
 2008SOL    HW1 6923   1.888   3.386   2.599
 2008SOL    HW2 6924   1.809   3.308   2.719
 2009SOL     OW 6925   6.535   0.082   2.769
 2009SOL    HW1 6926   6.516   0.150   2.840
 2009SOL    HW2 6927   6.541   7.015   2.810
 2010SOL     OW 6928   0.025   2.031   1.825
 2010SOL    HW1 6929   0.042   1.955   1.887
 2010SOL    HW2 6930   6.992   2.000   1.748
 2011SOL     OW 6931   1.146   6.901   5.056
 2011SOL    HW1 6932   1.155   6.906   4.956
 2011SOL    HW2 6933   1.200   6.974   5.098
 2012SOL     OW 6934   0.666   2.936   0.869
 2012SOL    HW1 6935   0.762   2.961   0.853
 2012SOL    HW2 6936   0.625   2.908   0.782
 2013SOL     OW 6937   0.422   2.539   2.190
 2013SOL    HW1 6938   0.456   2.561   2.099
 2013SOL    HW2 6939   0.376   2.619   2.229
 2014SOL     OW 6940   3.924   1.578   4.067
 2014SOL    HW1 6941   3.828   1.550   4.065
 2014SOL    HW2 6942   3.971   1.531   4.142
 2015SOL     OW 6943   3.896   6.289   2.149
 2015SOL    HW1 6944   3.820   6.278   2.214
 2015SOL    HW2 6945   3.865   6.344   2.071
 2016SOL     OW 6946   1.796   0.550   4.931
 2016SOL    HW1 6947   1.836   0.521   5.018
 2016SOL    HW2 6948   1.866   0.595   4.875
 2017SOL     OW 6949   3.016   6.258   3.883
 2017SOL    HW1 6950   3.052   6.168   3.858
 2017SOL    HW2 6951   2.916   6.253   3.888
 2018SOL     OW 6952   0.495   0.402   4.335
 2018SOL    HW1 6953   0.520   0.440   4.424
 2018SOL    HW2 6954   0.445   0.470   4.282
 2019SOL     OW 6955   6.666   5.151   6.858
 2019SOL    HW1 6956   6.620   5.114   6.938
 2019SOL    HW2 6957   6.708   5.076   6.806
 2020SOL     OW 6958   1.837   6.519   0.745
 2020SOL    HW1 6959   1.885   6.585   0.803
 2020SOL    HW2 6960   1.900   6.447   0.716
 2021SOL     OW 6961   0.121   5.834   4.372
 2021SOL    HW1 6962   0.090   5.777   4.296
 2021SOL    HW2 6963   0.221   5.843   4.369
 2022SOL     OW 6964   1.632   3.528   4.377
 2022SOL    HW1 6965   1.616   3.524   4.279
 2022SOL    HW2 6966   1.637   3.435   4.414
 2023SOL     OW 6967   6.634   5.814   6.603
 2023SOL    HW1 6968   6.709   5.811   6.538
 2023SOL    HW2 6969   6.558   5.759   6.569
 2024SOL     OW 6970   0.256   5.471   3.826
 2024SOL    HW1 6971   0.201   5.553   3.811
 2024SOL    HW2 6972   0.229   5.426   3.911
 2025SOL     OW 6973   1.968   6.182   4.447
 2025SOL    HW1 6974   1.980   6.267   4.498
 2025SOL    HW2 6975   2.053   6.130   4.447
 2026SOL     OW 6976   1.188   6.983   5.679
 2026SOL    HW1 6977   1.234   6.962   5.766
 2026SOL    HW2 6978   1.229   0.041   5.639
 2027SOL     OW 6979   6.863   5.926   2.565
 2027SOL    HW1 6980   6.798   5.899   2.494
 2027SOL    HW2 6981   6.858   5.861   2.641
 2028SOL     OW 6982   2.814   5.546   4.958
 2028SOL    HW1 6983   2.730   5.534   5.010
 2028SOL    HW2 6984   2.840   5.642   4.958
 2029SOL     OW 6985   6.224   2.846   6.712
 2029SOL    HW1 6986   6.232   2.912   6.787
 2029SOL    HW2 6987   6.314   2.807   6.692
 2030SOL     OW 6988   2.375   6.691   2.980
 2030SOL    HW1 6989   2.415   6.636   2.907
 2030SOL    HW2 6990   2.411   6.660   3.068
 2031SOL     OW 6991   0.423   6.203   5.477
 2031SOL    HW1 6992   0.428   6.302   5.465
 2031SOL    HW2 6993   0.327   6.174   5.476
 2032SOL     OW 6994   2.205   2.828   6.112
 2032SOL    HW1 6995   2.286   2.859   6.161
 2032SOL    HW2 6996   2.187   2.732   6.133
 2033SOL     OW 6997   2.145   1.276   0.835
 2033SOL    HW1 6998   2.213   1.206   0.813
 2033SOL    HW2 6999   2.189   1.350   0.886
 2034SOL     OW 7000   0.488   4.787   5.037
 2034SOL    HW1 7001   0.393   4.818   5.041
 2034SOL    HW2 7002   0.497   4.718   4.965
 2035SOL     OW 7003   5.515   6.013   3.172
 2035SOL    HW1 7004   5.436   5.969   3.130
 2035SOL    HW2 7005   5.547   6.087   3.112
 2036SOL     OW 7006   0.143   4.217   6.434
 2036SOL    HW1 7007   0.214   4.286   6.420
 2036SOL    HW2 7008   0.053   4.257   6.414
 2037SOL     OW 7009   1.138   2.705   6.771
 2037SOL    HW1 7010   1.212   2.708   6.838
 2037SOL    HW2 7011   1.100   2.797   6.758
 2038SOL     OW 7012   1.112   1.215   5.994
 2038SOL    HW1 7013   1.078   1.159   5.917
 2038SOL    HW2 7014   1.168   1.158   6.054
 2039SOL     OW 7015   5.436   5.866   3.423
 2039SOL    HW1 7016   5.405   5.780   3.382
 2039SOL    HW2 7017   5.472   5.926   3.352
 2040SOL     OW 7018   2.509   2.108   0.454
 2040SOL    HW1 7019   2.531   2.026   0.400
 2040SOL    HW2 7020   2.539   2.189   0.404
 2041SOL     OW 7021   2.843   6.564   6.702
 2041SOL    HW1 7022   2.866   6.642   6.760
 2041SOL    HW2 7023   2.817   6.487   6.759
 2042SOL     OW 7024   6.341   6.985   6.112
 2042SOL    HW1 7025   6.338   0.038   6.175
 2042SOL    HW2 7026   6.433   6.945   6.111
 2043SOL     OW 7027   0.555   4.129   0.313
 2043SOL    HW1 7028   0.643   4.087   0.333
 2043SOL    HW2 7029   0.482   4.076   0.357
 2044SOL     OW 7030   4.313   0.530   1.785
 2044SOL    HW1 7031   4.225   0.484   1.771
 2044SOL    HW2 7032   4.372   0.511   1.706
 2045SOL     OW 7033   2.076   5.640   3.837
 2045SOL    HW1 7034   2.083   5.540   3.840
 2045SOL    HW2 7035   2.164   5.679   3.813
 2046SOL     OW 7036   0.731   2.957   5.726
 2046SOL    HW1 7037   0.712   2.986   5.820
 2046SOL    HW2 7038   0.645   2.929   5.682
 2047SOL     OW 7039   6.560   6.613   1.724
 2047SOL    HW1 7040   6.554   6.526   1.773
 2047SOL    HW2 7041   6.468   6.643   1.698
 2048SOL     OW 7042   2.258   0.754   4.078
 2048SOL    HW1 7043   2.334   0.799   4.031
 2048SOL    HW2 7044   2.194   0.823   4.112
 2049SOL     OW 7045   4.509   2.887   5.304
 2049SOL    HW1 7046   4.428   2.938   5.331
 2049SOL    HW2 7047   4.591   2.942   5.323
 2050SOL     OW 7048   0.719   0.918   3.309
 2050SOL    HW1 7049   0.642   0.934   3.246
 2050SOL    HW2 7050   0.720   0.989   3.379
 2051SOL     OW 7051   3.252   6.584   6.877
 2051SOL    HW1 7052   3.328   6.557   6.818
 2051SOL    HW2 7053   3.218   6.504   6.926
 2052SOL     OW 7054   0.692   3.799   1.023
 2052SOL    HW1 7055   0.599   3.837   1.018
 2052SOL    HW2 7056   0.691   3.706   0.987
 2053SOL     OW 7057   6.048   4.844   2.548
 2053SOL    HW1 7058   5.959   4.851   2.502
 2053SOL    HW2 7059   6.070   4.931   2.591
 2054SOL     OW 7060   3.051   3.813   2.894
 2054SOL    HW1 7061   3.008   3.824   2.804
 2054SOL    HW2 7062   3.084   3.719   2.903
 2055SOL     OW 7063   3.958   2.709   5.599
 2055SOL    HW1 7064   4.043   2.713   5.652
 2055SOL    HW2 7065   3.978   2.732   5.504
 2056SOL     OW 7066   2.977   4.735   1.700
 2056SOL    HW1 7067   2.938   4.663   1.758
 2056SOL    HW2 7068   3.075   4.743   1.719
 2057SOL     OW 7069   5.583   2.944   4.128
 2057SOL    HW1 7070   5.653   2.927   4.198
 2057SOL    HW2 7071   5.586   2.871   4.060
 2058SOL     OW 7072   5.677   6.914   3.614
 2058SOL    HW1 7073   5.735   6.874   3.543
 2058SOL    HW2 7074   5.594   6.950   3.573
 2059SOL     OW 7075   2.425   2.344   5.339
 2059SOL    HW1 7076   2.516   2.304   5.348
 2059SOL    HW2 7077   2.433   2.438   5.305
 2060SOL     OW 7078   1.767   2.192   6.565
 2060SOL    HW1 7079   1.790   2.099   6.537
 2060SOL    HW2 7080   1.753   2.249   6.484
 2061SOL     OW 7081   1.911   1.923   3.745
 2061SOL    HW1 7082   1.947   2.015   3.726
 2061SOL    HW2 7083   1.971   1.855   3.704
 2062SOL     OW 7084   5.828   5.077   4.435
 2062SOL    HW1 7085   5.822   5.055   4.338
 2062SOL    HW2 7086   5.756   5.030   4.485
 2063SOL     OW 7087   1.338   2.085   4.121
 2063SOL    HW1 7088   1.328   2.007   4.184
 2063SOL    HW2 7089   1.423   2.075   4.069
 2064SOL     OW 7090   0.562   3.838   4.321
 2064SOL    HW1 7091   0.490   3.814   4.256
 2064SOL    HW2 7092   0.625   3.761   4.331
 2065SOL     OW 7093   4.045   3.571   5.728
 2065SOL    HW1 7094   4.000   3.537   5.646
 2065SOL    HW2 7095   4.018   3.515   5.807
 2066SOL     OW 7096   1.438   2.289   4.887
 2066SOL    HW1 7097   1.358   2.329   4.931
 2066SOL    HW2 7098   1.408   2.225   4.815
 2067SOL     OW 7099   6.453   4.476   2.223
 2067SOL    HW1 7100   6.435   4.387   2.265
 2067SOL    HW2 7101   6.366   4.525   2.212
 2068SOL     OW 7102   4.184   6.228   4.387
 2068SOL    HW1 7103   4.235   6.176   4.319
 2068SOL    HW2 7104   4.091   6.244   4.354
 2069SOL     OW 7105   6.286   1.090   3.889
 2069SOL    HW1 7106   6.379   1.061   3.867
 2069SOL    HW2 7107   6.272   1.083   3.988
 2070SOL     OW 7108   1.171   5.101   1.548
 2070SOL    HW1 7109   1.236   5.053   1.490
 2070SOL    HW2 7110   1.078   5.074   1.524
 2071SOL     OW 7111   6.847   2.460   4.842
 2071SOL    HW1 7112   6.843   2.430   4.746
 2071SOL    HW2 7113   6.774   2.416   4.894
 2072SOL     OW 7114   5.671   3.902   5.158
 2072SOL    HW1 7115   5.708   3.829   5.215
 2072SOL    HW2 7116   5.597   3.948   5.208
 2073SOL     OW 7117   3.164   5.164   6.701
 2073SOL    HW1 7118   3.256   5.126   6.705
 2073SOL    HW2 7119   3.166   5.259   6.731
 2074SOL     OW 7120   2.931   4.556   5.608
 2074SOL    HW1 7121   2.892   4.554   5.700
 2074SOL    HW2 7122   3.029   4.575   5.614
 2075SOL     OW 7123   5.487   2.398   1.659
 2075SOL    HW1 7124   5.563   2.394   1.723
 2075SOL    HW2 7125   5.400   2.390   1.709
 2076SOL     OW 7126   6.861   6.459   4.168
 2076SOL    HW1 7127   6.857   6.429   4.263
 2076SOL    HW2 7128   6.792   6.529   4.152
 2077SOL     OW 7129   6.531   4.464   0.495
 2077SOL    HW1 7130   6.612   4.405   0.498
 2077SOL    HW2 7131   6.546   4.545   0.552
 2078SOL     OW 7132   1.013   2.682   6.460
 2078SOL    HW1 7133   0.941   2.746   6.485
 2078SOL    HW2 7134   0.991   2.591   6.496
 2079SOL     OW 7135   5.512   1.234   2.757
 2079SOL    HW1 7136   5.569   1.197   2.830
 2079SOL    HW2 7137   5.538   1.329   2.739
 2080SOL     OW 7138   2.486   3.405   6.274
 2080SOL    HW1 7139   2.483   3.307   6.295
 2080SOL    HW2 7140   2.465   3.420   6.178
 2081SOL     OW 7141   0.217   6.164   2.511
 2081SOL    HW1 7142   0.286   6.107   2.555
 2081SOL    HW2 7143   0.262   6.238   2.461
 2082SOL     OW 7144   0.042   5.660   3.897
 2082SOL    HW1 7145   6.994   5.662   3.827
 2082SOL    HW2 7146   0.119   5.717   3.868
 2083SOL     OW 7147   0.383   6.010   4.157
 2083SOL    HW1 7148   0.322   5.950   4.106
 2083SOL    HW2 7149   0.447   6.053   4.094
 2084SOL     OW 7150   6.719   2.547   1.114
 2084SOL    HW1 7151   6.813   2.574   1.138
 2084SOL    HW2 7152   6.672   2.623   1.070
 2085SOL     OW 7153   6.339   5.783   0.360
 2085SOL    HW1 7154   6.399   5.815   0.433
 2085SOL    HW2 7155   6.270   5.721   0.398
 2086SOL     OW 7156   5.740   0.113   6.328
 2086SOL    HW1 7157   5.731   0.036   6.391
 2086SOL    HW2 7158   5.835   0.122   6.300
 2087SOL     OW 7159   4.858   1.805   6.651
 2087SOL    HW1 7160   4.805   1.776   6.731
 2087SOL    HW2 7161   4.815   1.769   6.568
 2088SOL     OW 7162   0.092   4.378   6.002
 2088SOL    HW1 7163   0.075   4.406   6.097
 2088SOL    HW2 7164   0.102   4.278   5.998
 2089SOL     OW 7165   2.685   4.291   6.126
 2089SOL    HW1 7166   2.717   4.283   6.221
 2089SOL    HW2 7167   2.625   4.370   6.118
 2090SOL     OW 7168   4.951   2.614   0.004
 2090SOL    HW1 7169   4.974   2.623   0.101
 2090SOL    HW2 7170   5.025   2.565   6.981
 2091SOL     OW 7171   5.006   6.544   1.011
 2091SOL    HW1 7172   5.022   6.480   0.935
 2091SOL    HW2 7173   5.039   6.635   0.985
 2092SOL     OW 7174   3.443   3.245   2.010
 2092SOL    HW1 7175   3.404   3.160   2.044
 2092SOL    HW2 7176   3.523   3.269   2.064
 2093SOL     OW 7177   4.429   0.238   0.603
 2093SOL    HW1 7178   4.451   0.142   0.584
 2093SOL    HW2 7179   4.482   0.269   0.682
 2094SOL     OW 7180   5.308   2.294   1.207
 2094SOL    HW1 7181   5.390   2.318   1.156
 2094SOL    HW2 7182   5.265   2.213   1.166
 2095SOL     OW 7183   5.223   5.052   4.227
 2095SOL    HW1 7184   5.184   5.078   4.139
 2095SOL    HW2 7185   5.151   5.011   4.284
 2096SOL     OW 7186   4.337   7.018   2.576
 2096SOL    HW1 7187   4.322   6.938   2.634
 2096SOL    HW2 7188   4.428   7.013   2.535
 2097SOL     OW 7189   0.872   5.985   5.511
 2097SOL    HW1 7190   0.773   5.995   5.503
 2097SOL    HW2 7191   0.896   5.961   5.605
 2098SOL     OW 7192   2.227   7.019   3.540
 2098SOL    HW1 7193   2.277   7.012   3.454
 2098SOL    HW2 7194   2.274   6.966   3.611
 2099SOL     OW 7195   4.324   1.607   6.957
 2099SOL    HW1 7196   4.380   1.688   6.938
 2099SOL    HW2 7197   4.383   1.531   6.982
 2100SOL     OW 7198   4.863   0.676   0.008
 2100SOL    HW1 7199   4.914   0.630   6.959
 2100SOL    HW2 7200   4.781   0.719   6.993
 2101SOL     OW 7201   1.888   0.322   2.241
 2101SOL    HW1 7202   1.934   0.257   2.301
 2101SOL    HW2 7203   1.948   0.347   2.165
 2102SOL     OW 7204   3.729   2.424   1.624
 2102SOL    HW1 7205   3.649   2.430   1.564
 2102SOL    HW2 7206   3.702   2.381   1.710
 2103SOL     OW 7207   1.478   0.114   0.751
 2103SOL    HW1 7208   1.475   0.050   0.828
 2103SOL    HW2 7209   1.390   0.159   0.741
 2104SOL     OW 7210   1.832   4.170   2.581
 2104SOL    HW1 7211   1.876   4.113   2.511
 2104SOL    HW2 7212   1.835   4.266   2.551
 2105SOL     OW 7213   5.346   6.853   5.123
 2105SOL    HW1 7214   5.385   6.942   5.097
 2105SOL    HW2 7215   5.324   6.801   5.041
 2106SOL     OW 7216   3.549   2.270   1.444
 2106SOL    HW1 7217   3.492   2.274   1.526
 2106SOL    HW2 7218   3.556   2.175   1.413
 2107SOL     OW 7219   4.903   4.396   4.673
 2107SOL    HW1 7220   4.808   4.366   4.669
 2107SOL    HW2 7221   4.964   4.319   4.658
 2108SOL     OW 7222   4.359   0.044   4.859
 2108SOL    HW1 7223   4.432   0.050   4.927
 2108SOL    HW2 7224   4.319   6.976   4.861
 2109SOL     OW 7225   2.528   5.856   1.835
 2109SOL    HW1 7226   2.516   5.955   1.821
 2109SOL    HW2 7227   2.514   5.809   1.747
 2110SOL     OW 7228   3.362   5.806   6.786
 2110SOL    HW1 7229   3.303   5.765   6.857
 2110SOL    HW2 7230   3.365   5.745   6.707
 2111SOL     OW 7231   1.001   2.471   6.754
 2111SOL    HW1 7232   1.045   2.561   6.747
 2111SOL    HW2 7233   0.989   2.433   6.662
 2112SOL     OW 7234   1.009   0.438   6.721
 2112SOL    HW1 7235   1.075   0.391   6.779
 2112SOL    HW2 7236   1.012   0.536   6.740
 2113SOL     OW 7237   6.461   1.887   4.890
 2113SOL    HW1 7238   6.379   1.942   4.904
 2113SOL    HW2 7239   6.542   1.944   4.905
 2114SOL     OW 7240   2.540   1.034   5.289
 2114SOL    HW1 7241   2.621   1.026   5.230
 2114SOL    HW2 7242   2.459   1.004   5.239
 2115SOL     OW 7243   0.358   6.774   3.458
 2115SOL    HW1 7244   0.389   6.842   3.392
 2115SOL    HW2 7245   0.410   6.784   3.543
 2116SOL     OW 7246   2.160   1.268   6.538
 2116SOL    HW1 7247   2.258   1.249   6.548
 2116SOL    HW2 7248   2.142   1.364   6.559
 2117SOL     OW 7249   6.231   2.479   2.463
 2117SOL    HW1 7250   6.242   2.561   2.407
 2117SOL    HW2 7251   6.303   2.476   2.533
 2118SOL     OW 7252   0.177   3.151   2.634
 2118SOL    HW1 7253   0.199   3.202   2.717
 2118SOL    HW2 7254   0.092   3.187   2.595
 2119SOL     OW 7255   0.945   3.309   0.309
 2119SOL    HW1 7256   1.033   3.283   0.349
 2119SOL    HW2 7257   0.889   3.228   0.295
 2120SOL     OW 7258   5.440   2.035   0.384
 2120SOL    HW1 7259   5.385   1.952   0.397
 2120SOL    HW2 7260   5.449   2.082   0.472
 2121SOL     OW 7261   2.461   6.643   1.544
 2121SOL    HW1 7262   2.457   6.661   1.643
 2121SOL    HW2 7263   2.398   6.569   1.521
 2122SOL     OW 7264   6.744   0.640   4.809
 2122SOL    HW1 7265   6.713   0.735   4.801
 2122SOL    HW2 7266   6.666   0.580   4.826
 2123SOL     OW 7267   1.018   4.664   3.344
 2123SOL    HW1 7268   0.985   4.720   3.420
 2123SOL    HW2 7269   0.944   4.607   3.309
 2124SOL     OW 7270   4.775   3.366   6.268
 2124SOL    HW1 7271   4.780   3.448   6.324
 2124SOL    HW2 7272   4.694   3.371   6.209
 2125SOL     OW 7273   1.044   5.820   4.514
 2125SOL    HW1 7274   1.136   5.834   4.478
 2125SOL    HW2 7275   1.038   5.729   4.555
 2126SOL     OW 7276   2.934   4.274   0.770
 2126SOL    HW1 7277   3.010   4.247   0.711
 2126SOL    HW2 7278   2.965   4.346   0.832
 2127SOL     OW 7279   1.058   3.494   4.342
 2127SOL    HW1 7280   1.053   3.491   4.442
 2127SOL    HW2 7281   0.994   3.427   4.304
 2128SOL     OW 7282   5.191   3.272   1.728
 2128SOL    HW1 7283   5.107   3.265   1.782
 2128SOL    HW2 7284   5.269   3.285   1.789
 2129SOL     OW 7285   5.567   3.908   3.746
 2129SOL    HW1 7286   5.541   3.999   3.778
 2129SOL    HW2 7287   5.551   3.902   3.647
 2130SOL     OW 7288   2.003   0.572   1.969
 2130SOL    HW1 7289   2.018   0.646   1.904
 2130SOL    HW2 7290   2.005   0.608   2.062
 2131SOL     OW 7291   6.020   0.474   6.722
 2131SOL    HW1 7292   6.043   0.448   6.815
 2131SOL    HW2 7293   5.983   0.395   6.674
 2132SOL     OW 7294   2.467   2.763   0.321
 2132SOL    HW1 7295   2.396   2.751   0.391
 2132SOL    HW2 7296   2.426   2.802   0.239
 2133SOL     OW 7297   4.120   2.299   1.837
 2133SOL    HW1 7298   4.108   2.262   1.929
 2133SOL    HW2 7299   4.210   2.271   1.801
 2134SOL     OW 7300   2.112   6.979   5.657
 2134SOL    HW1 7301   2.038   6.925   5.616
 2134SOL    HW2 7302   2.107   6.973   5.756
 2135SOL     OW 7303   1.021   6.258   4.229
 2135SOL    HW1 7304   1.041   6.351   4.200
 2135SOL    HW2 7305   0.924   6.238   4.215
 2136SOL     OW 7306   0.889   4.834   3.533
 2136SOL    HW1 7307   0.937   4.914   3.496
 2136SOL    HW2 7308   0.792   4.855   3.544
 2137SOL     OW 7309   0.320   0.389   4.642
 2137SOL    HW1 7310   0.403   0.443   4.626
 2137SOL    HW2 7311   0.342   0.309   4.698
 2138SOL     OW 7312   1.345   2.442   6.268
 2138SOL    HW1 7313   1.342   2.540   6.286
 2138SOL    HW2 7314   1.375   2.393   6.349
 2139SOL     OW 7315   2.889   6.926   4.691
 2139SOL    HW1 7316   2.987   6.929   4.673
 2139SOL    HW2 7317   2.873   6.935   4.790
 2140SOL     OW 7318   1.579   5.690   3.912
 2140SOL    HW1 7319   1.543   5.609   3.867
 2140SOL    HW2 7320   1.519   5.768   3.894
 2141SOL     OW 7321   6.814   1.749   6.463
 2141SOL    HW1 7322   6.892   1.790   6.415
 2141SOL    HW2 7323   6.841   1.727   6.557
 2142SOL     OW 7324   3.921   1.014   3.640
 2142SOL    HW1 7325   4.001   1.011   3.580
 2142SOL    HW2 7326   3.840   1.033   3.585
 2143SOL     OW 7327   2.972   5.821   0.314
 2143SOL    HW1 7328   3.040   5.787   0.249
 2143SOL    HW2 7329   2.880   5.806   0.277
 2144SOL     OW 7330   1.385   1.020   1.784
 2144SOL    HW1 7331   1.474   0.975   1.777
 2144SOL    HW2 7332   1.330   0.976   1.855
 2145SOL     OW 7333   2.792   5.432   3.040
 2145SOL    HW1 7334   2.800   5.399   3.134
 2145SOL    HW2 7335   2.882   5.461   3.008
 2146SOL     OW 7336   2.983   2.579   0.843
 2146SOL    HW1 7337   2.974   2.509   0.914
 2146SOL    HW2 7338   2.947   2.543   0.757
 2147SOL     OW 7339   0.191   0.999   4.632
 2147SOL    HW1 7340   0.197   0.949   4.545
 2147SOL    HW2 7341   0.095   1.006   4.660
 2148SOL     OW 7342   6.078   3.331   4.313
 2148SOL    HW1 7343   6.048   3.242   4.281
 2148SOL    HW2 7344   6.177   3.330   4.328
 2149SOL     OW 7345   3.101   0.370   3.151
 2149SOL    HW1 7346   3.193   0.359   3.188
 2149SOL    HW2 7347   3.055   0.446   3.197
 2150SOL     OW 7348   5.065   0.093   3.198
 2150SOL    HW1 7349   5.000   0.075   3.123
 2150SOL    HW2 7350   5.157   0.066   3.170
 2151SOL     OW 7351   4.522   4.583   6.292
 2151SOL    HW1 7352   4.599   4.553   6.235
 2151SOL    HW2 7353   4.436   4.566   6.244
 2152SOL     OW 7354   0.261   6.776   2.228
 2152SOL    HW1 7355   0.340   6.836   2.222
 2152SOL    HW2 7356   0.203   6.788   2.147
 2153SOL     OW 7357   4.498   1.933   3.721
 2153SOL    HW1 7358   4.401   1.937   3.696
 2153SOL    HW2 7359   4.552   1.981   3.652
 2154SOL     OW 7360   3.430   6.504   5.192
 2154SOL    HW1 7361   3.349   6.447   5.178
 2154SOL    HW2 7362   3.464   6.536   5.103
 2155SOL     OW 7363   5.984   3.470   0.277
 2155SOL    HW1 7364   5.980   3.508   0.185
 2155SOL    HW2 7365   5.893   3.476   0.319
 2156SOL     OW 7366   6.845   0.333   2.352
 2156SOL    HW1 7367   6.842   0.241   2.312
 2156SOL    HW2 7368   6.858   0.326   2.451
 2157SOL     OW 7369   5.765   1.166   4.227
 2157SOL    HW1 7370   5.839   1.211   4.177
 2157SOL    HW2 7371   5.756   1.072   4.195
 2158SOL     OW 7372   4.639   0.224   3.822
 2158SOL    HW1 7373   4.545   0.208   3.792
 2158SOL    HW2 7374   4.643   0.222   3.921
 2159SOL     OW 7375   2.653   0.290   5.609
 2159SOL    HW1 7376   2.657   0.207   5.554
 2159SOL    HW2 7377   2.558   0.307   5.636
 2160SOL     OW 7378   2.751   3.178   0.999
 2160SOL    HW1 7379   2.801   3.135   0.923
 2160SOL    HW2 7380   2.782   3.272   1.010
 2161SOL     OW 7381   5.101   2.808   3.892
 2161SOL    HW1 7382   5.110   2.886   3.831
 2161SOL    HW2 7383   5.086   2.841   3.986
 2162SOL     OW 7384   2.438   1.470   1.689
 2162SOL    HW1 7385   2.423   1.378   1.654
 2162SOL    HW2 7386   2.438   1.468   1.789
 2163SOL     OW 7387   2.922   1.730   0.935
 2163SOL    HW1 7388   2.974   1.672   0.998
 2163SOL    HW2 7389   2.829   1.743   0.970
 2164SOL     OW 7390   6.976   0.941   1.431
 2164SOL    HW1 7391   7.002   1.025   1.384
 2164SOL    HW2 7392   6.879   0.945   1.456
 2165SOL     OW 7393   2.903   0.138   1.839
 2165SOL    HW1 7394   2.915   0.039   1.842
 2165SOL    HW2 7395   2.897   0.168   1.744
 2166SOL     OW 7396   5.413   2.117   5.250
 2166SOL    HW1 7397   5.490   2.158   5.299
 2166SOL    HW2 7398   5.447   2.052   5.182
 2167SOL     OW 7399   3.228   1.148   0.831
 2167SOL    HW1 7400   3.188   1.089   0.761
 2167SOL    HW2 7401   3.303   1.201   0.791
 2168SOL     OW 7402   6.006   6.339   4.464
 2168SOL    HW1 7403   6.073   6.297   4.403
 2168SOL    HW2 7404   5.922   6.284   4.464
 2169SOL     OW 7405   5.486   1.284   6.022
 2169SOL    HW1 7406   5.481   1.197   6.072
 2169SOL    HW2 7407   5.411   1.343   6.052
 2170SOL     OW 7408   5.194   4.593   4.359
 2170SOL    HW1 7409   5.246   4.634   4.434
 2170SOL    HW2 7410   5.204   4.650   4.277
 2171SOL     OW 7411   6.991   3.823   0.257
 2171SOL    HW1 7412   6.940   3.907   0.275
 2171SOL    HW2 7413   0.034   3.809   0.330
 2172SOL     OW 7414   2.693   0.636   2.071
 2172SOL    HW1 7415   2.755   0.670   2.000
 2172SOL    HW2 7416   2.629   0.708   2.097
 2173SOL     OW 7417   4.574   2.541   4.775
 2173SOL    HW1 7418   4.660   2.532   4.826
 2173SOL    HW2 7419   4.503   2.487   4.821
 2174SOL     OW 7420   1.140   5.490   4.295
 2174SOL    HW1 7421   1.170   5.396   4.277
 2174SOL    HW2 7422   1.212   5.554   4.268
 2175SOL     OW 7423   1.524   6.203   5.743
 2175SOL    HW1 7424   1.444   6.147   5.718
 2175SOL    HW2 7425   1.505   6.251   5.829
 2176SOL     OW 7426   2.089   2.173   2.437
 2176SOL    HW1 7427   2.134   2.170   2.526
 2176SOL    HW2 7428   2.075   2.269   2.410
 2177SOL     OW 7429   1.166   1.922   1.235
 2177SOL    HW1 7430   1.215   1.904   1.320
 2177SOL    HW2 7431   1.067   1.921   1.253
 2178SOL     OW 7432   6.336   6.366   0.705
 2178SOL    HW1 7433   6.336   6.440   0.637
 2178SOL    HW2 7434   6.428   6.356   0.743
 2179SOL     OW 7435   1.842   4.120   3.890
 2179SOL    HW1 7436   1.797   4.183   3.827
 2179SOL    HW2 7437   1.835   4.027   3.855
 2180SOL     OW 7438   3.290   2.454   1.713
 2180SOL    HW1 7439   3.341   2.498   1.640
 2180SOL    HW2 7440   3.205   2.503   1.730
 2181SOL     OW 7441   3.779   6.954   1.431
 2181SOL    HW1 7442   3.745   0.019   1.399
 2181SOL    HW2 7443   3.793   6.893   1.353
 2182SOL     OW 7444   4.902   2.805   0.797
 2182SOL    HW1 7445   4.835   2.813   0.871
 2182SOL    HW2 7446   4.980   2.751   0.829
 2183SOL     OW 7447   3.658   2.266   1.065
 2183SOL    HW1 7448   3.645   2.172   1.036
 2183SOL    HW2 7449   3.740   2.272   1.123
 2184SOL     OW 7450   5.330   3.303   6.613
 2184SOL    HW1 7451   5.369   3.249   6.687
 2184SOL    HW2 7452   5.280   3.243   6.550
 2185SOL     OW 7453   6.769   0.072   2.205
 2185SOL    HW1 7454   6.782   6.997   2.195
 2185SOL    HW2 7455   6.682   0.099   2.163
 2186SOL     OW 7456   0.519   4.120   3.319
 2186SOL    HW1 7457   0.573   4.036   3.325
 2186SOL    HW2 7458   0.426   4.102   3.352
 2187SOL     OW 7459   6.521   1.479   0.376
 2187SOL    HW1 7460   6.522   1.441   0.468
 2187SOL    HW2 7461   6.612   1.470   0.336
 2188SOL     OW 7462   4.792   1.399   3.746
 2188SOL    HW1 7463   4.857   1.401   3.823
 2188SOL    HW2 7464   4.704   1.435   3.776
 2189SOL     OW 7465   3.423   0.105   0.000
 2189SOL    HW1 7466   3.414   0.189   6.970
 2189SOL    HW2 7467   3.335   0.084   0.043
 2190SOL     OW 7468   5.114   3.202   1.014
 2190SOL    HW1 7469   5.111   3.184   0.916
 2190SOL    HW2 7470   5.148   3.121   1.062
 2191SOL     OW 7471   2.902   1.339   0.176
 2191SOL    HW1 7472   2.977   1.349   0.111
 2191SOL    HW2 7473   2.883   1.242   0.190
 2192SOL     OW 7474   4.352   5.615   2.245
 2192SOL    HW1 7475   4.369   5.712   2.260
 2192SOL    HW2 7476   4.321   5.601   2.151
 2193SOL     OW 7477   6.773   6.067   4.386
 2193SOL    HW1 7478   6.756   6.113   4.298
 2193SOL    HW2 7479   6.869   6.040   4.391
 2194SOL     OW 7480   2.613   6.934   1.693
 2194SOL    HW1 7481   2.630   6.969   1.601
 2194SOL    HW2 7482   2.515   6.919   1.706
 2195SOL     OW 7483   0.511   4.354   2.005
 2195SOL    HW1 7484   0.610   4.366   2.013
 2195SOL    HW2 7485   0.483   4.272   2.056
 2196SOL     OW 7486   4.431   4.024   0.403
 2196SOL    HW1 7487   4.523   4.025   0.363
 2196SOL    HW2 7488   4.438   4.014   0.502
 2197SOL     OW 7489   4.372   3.705   0.185
 2197SOL    HW1 7490   4.355   3.710   0.283
 2197SOL    HW2 7491   4.373   3.609   0.156
 2198SOL     OW 7492   6.790   4.402   0.250
 2198SOL    HW1 7493   6.825   4.397   0.343
 2198SOL    HW2 7494   6.780   4.497   0.222
 2199SOL     OW 7495   4.139   1.187   3.084
 2199SOL    HW1 7496   4.171   1.140   3.166
 2199SOL    HW2 7497   4.046   1.222   3.100
 2200SOL     OW 7498   3.109   6.861   4.365
 2200SOL    HW1 7499   3.161   6.784   4.402
 2200SOL    HW2 7500   3.155   6.896   4.283
 2201SOL     OW 7501   4.767   4.440   4.206
 2201SOL    HW1 7502   4.732   4.465   4.296
 2201SOL    HW2 7503   4.832   4.510   4.175
 2202SOL     OW 7504   4.572   5.170   3.638
 2202SOL    HW1 7505   4.521   5.253   3.616
 2202SOL    HW2 7506   4.631   5.145   3.561
 2203SOL     OW 7507   3.174   2.121   2.606
 2203SOL    HW1 7508   3.269   2.132   2.576
 2203SOL    HW2 7509   3.167   2.041   2.666
 2204SOL     OW 7510   2.672   2.099   0.757
 2204SOL    HW1 7511   2.745   2.116   0.824
 2204SOL    HW2 7512   2.710   2.051   0.678
 2205SOL     OW 7513   3.202   1.024   2.348
 2205SOL    HW1 7514   3.221   0.971   2.431
 2205SOL    HW2 7515   3.237   1.117   2.358
 2206SOL     OW 7516   1.710   3.655   0.462
 2206SOL    HW1 7517   1.802   3.690   0.479
 2206SOL    HW2 7518   1.715   3.559   0.434
 2207SOL     OW 7519   6.682   4.781   4.810
 2207SOL    HW1 7520   6.636   4.813   4.728
 2207SOL    HW2 7521   6.714   4.687   4.796
 2208SOL     OW 7522   6.978   5.580   2.137
 2208SOL    HW1 7523   0.039   5.626   2.163
 2208SOL    HW2 7524   7.000   5.489   2.100
 2209SOL     OW 7525   0.070   6.481   1.612
 2209SOL    HW1 7526   0.109   6.410   1.553
 2209SOL    HW2 7527   7.001   6.501   1.582
 2210SOL     OW 7528   1.934   5.058   4.212
 2210SOL    HW1 7529   1.958   4.969   4.173
 2210SOL    HW2 7530   2.017   5.103   4.247
 2211SOL     OW 7531   6.898   1.914   5.061
 2211SOL    HW1 7532   6.944   1.850   5.000
 2211SOL    HW2 7533   6.810   1.941   5.022
 2212SOL     OW 7534   2.812   6.874   5.946
 2212SOL    HW1 7535   2.829   6.776   5.955
 2212SOL    HW2 7536   2.717   6.889   5.918
 2213SOL     OW 7537   4.960   0.435   2.977
 2213SOL    HW1 7538   4.902   0.430   3.059
 2213SOL    HW2 7539   5.047   0.390   2.996
 2214SOL     OW 7540   3.743   0.108   5.227
 2214SOL    HW1 7541   3.656   0.139   5.266
 2214SOL    HW2 7542   3.784   0.039   5.286
 2215SOL     OW 7543   5.680   2.270   5.093
 2215SOL    HW1 7544   5.647   2.301   5.004
 2215SOL    HW2 7545   5.605   2.273   5.159
 2216SOL     OW 7546   3.465   1.591   2.628
 2216SOL    HW1 7547   3.564   1.574   2.627
 2216SOL    HW2 7548   3.417   1.503   2.628
 2217SOL     OW 7549   3.823   0.638   1.650
 2217SOL    HW1 7550   3.744   0.692   1.622
 2217SOL    HW2 7551   3.905   0.673   1.605
 2218SOL     OW 7552   0.582   0.482   2.516
 2218SOL    HW1 7553   0.619   0.506   2.427
 2218SOL    HW2 7554   0.563   0.565   2.569
 2219SOL     OW 7555   2.658   1.991   3.297
 2219SOL    HW1 7556   2.711   2.055   3.242
 2219SOL    HW2 7557   2.712   1.961   3.375
 2220SOL     OW 7558   1.141   0.441   1.977
 2220SOL    HW1 7559   1.187   0.515   1.928
 2220SOL    HW2 7560   1.112   0.370   1.913
 2221SOL     OW 7561   0.512   0.053   5.763
 2221SOL    HW1 7562   0.486   0.011   5.850
 2221SOL    HW2 7563   0.608   0.079   5.765
 2222SOL     OW 7564   6.585   4.817   3.879
 2222SOL    HW1 7565   6.526   4.888   3.841
 2222SOL    HW2 7566   6.545   4.782   3.963
 2223SOL     OW 7567   6.941   6.307   1.295
 2223SOL    HW1 7568   6.893   6.393   1.273
 2223SOL    HW2 7569   0.012   6.327   1.320
 2224SOL     OW 7570   0.505   5.176   0.631
 2224SOL    HW1 7571   0.435   5.238   0.667
 2224SOL    HW2 7572   0.568   5.150   0.704
 2225SOL     OW 7573   0.484   3.751   0.318
 2225SOL    HW1 7574   0.482   3.651   0.310
 2225SOL    HW2 7575   0.398   3.789   0.285
 2226SOL     OW 7576   3.833   3.511   2.254
 2226SOL    HW1 7577   3.925   3.520   2.293
 2226SOL    HW2 7578   3.786   3.599   2.259
 2227SOL     OW 7579   1.014   2.289   3.899
 2227SOL    HW1 7580   0.998   2.204   3.950
 2227SOL    HW2 7581   1.109   2.290   3.866
 2228SOL     OW 7582   2.774   4.909   3.884
 2228SOL    HW1 7583   2.839   4.904   3.808
 2228SOL    HW2 7584   2.824   4.925   3.969
 2229SOL     OW 7585   6.165   6.117   3.025
 2229SOL    HW1 7586   6.137   6.207   3.059
 2229SOL    HW2 7587   6.244   6.126   2.965
 2230SOL     OW 7588   1.996   5.583   2.368
 2230SOL    HW1 7589   2.071   5.555   2.427
 2230SOL    HW2 7590   1.914   5.597   2.424
 2231SOL     OW 7591   2.507   5.652   1.072
 2231SOL    HW1 7592   2.409   5.668   1.056
 2231SOL    HW2 7593   2.535   5.569   1.024
 2232SOL     OW 7594   5.388   2.214   3.722
 2232SOL    HW1 7595   5.403   2.158   3.641
 2232SOL    HW2 7596   5.354   2.156   3.797
 2233SOL     OW 7597   3.466   1.308   6.958
 2233SOL    HW1 7598   3.410   1.378   6.913
 2233SOL    HW2 7599   3.528   1.266   6.891
 2234SOL     OW 7600   3.887   2.654   1.334
 2234SOL    HW1 7601   3.793   2.677   1.359
 2234SOL    HW2 7602   3.911   2.700   1.249
 2235SOL     OW 7603   2.001   1.569   2.506
 2235SOL    HW1 7604   1.947   1.560   2.422
 2235SOL    HW2 7605   2.087   1.519   2.496
 2236SOL     OW 7606   1.034   4.655   5.400
 2236SOL    HW1 7607   0.952   4.674   5.455
 2236SOL    HW2 7608   1.105   4.616   5.458
 2237SOL     OW 7609   6.665   2.850   4.696
 2237SOL    HW1 7610   6.663   2.846   4.596
 2237SOL    HW2 7611   6.704   2.937   4.726
 2238SOL     OW 7612   5.482   6.415   0.190
 2238SOL    HW1 7613   5.500   6.352   0.265
 2238SOL    HW2 7614   5.532   6.386   0.109
 2239SOL     OW 7615   6.035   5.865   1.959
 2239SOL    HW1 7616   6.059   5.820   1.873
 2239SOL    HW2 7617   6.089   5.824   2.034
 2240SOL     OW 7618   5.986   3.617   1.815
 2240SOL    HW1 7619   6.075   3.597   1.858
 2240SOL    HW2 7620   5.941   3.530   1.792
 2241SOL     OW 7621   1.443   0.276   3.902
 2241SOL    HW1 7622   1.469   0.301   3.808
 2241SOL    HW2 7623   1.517   0.298   3.964
 2242SOL     OW 7624   3.142   1.694   3.084
 2242SOL    HW1 7625   3.061   1.656   3.040
 2242SOL    HW2 7626   3.115   1.768   3.146
 2243SOL     OW 7627   2.406   0.142   4.848
 2243SOL    HW1 7628   2.345   0.076   4.890
 2243SOL    HW2 7629   2.366   0.176   4.763
 2244SOL     OW 7630   4.080   0.836   5.156
 2244SOL    HW1 7631   4.038   0.832   5.246
 2244SOL    HW2 7632   4.152   0.766   5.150
 2245SOL     OW 7633   0.266   2.033   2.198
 2245SOL    HW1 7634   0.335   2.104   2.189
 2245SOL    HW2 7635   0.267   1.997   2.291
 2246SOL     OW 7636   0.701   4.381   5.552
 2246SOL    HW1 7637   0.741   4.347   5.467
 2246SOL    HW2 7638   0.609   4.416   5.534
 2247SOL     OW 7639   1.839   1.211   4.442
 2247SOL    HW1 7640   1.864   1.223   4.346
 2247SOL    HW2 7641   1.755   1.263   4.461
 2248SOL     OW 7642   5.549   4.181   5.966
 2248SOL    HW1 7643   5.595   4.241   5.900
 2248SOL    HW2 7644   5.555   4.087   5.934
 2249SOL     OW 7645   4.682   5.950   5.475
 2249SOL    HW1 7646   4.663   6.005   5.394
 2249SOL    HW2 7647   4.699   5.855   5.448
 2250SOL     OW 7648   4.610   5.064   1.690
 2250SOL    HW1 7649   4.534   5.084   1.629
 2250SOL    HW2 7650   4.576   5.021   1.774
 2251SOL     OW 7651   0.673   1.005   5.997
 2251SOL    HW1 7652   0.736   0.985   6.072
 2251SOL    HW2 7653   0.726   1.024   5.914
 2252SOL     OW 7654   3.563   0.968   6.763
 2252SOL    HW1 7655   3.468   0.998   6.758
 2252SOL    HW2 7656   3.572   0.898   6.834
 2253SOL     OW 7657   0.827   4.345   0.078
 2253SOL    HW1 7658   0.740   4.302   0.054
 2253SOL    HW2 7659   0.817   4.391   0.166
 2254SOL     OW 7660   1.684   4.893   6.418
 2254SOL    HW1 7661   1.700   4.855   6.327
 2254SOL    HW2 7662   1.764   4.945   6.448
 2255SOL     OW 7663   6.294   3.525   6.464
 2255SOL    HW1 7664   6.392   3.525   6.444
 2255SOL    HW2 7665   6.264   3.617   6.486
 2256SOL     OW 7666   2.668   4.615   1.769
 2256SOL    HW1 7667   2.673   4.687   1.838
 2256SOL    HW2 7668   2.759   4.577   1.753
 2257SOL     OW 7669   1.315   4.148   4.976
 2257SOL    HW1 7670   1.223   4.110   4.990
 2257SOL    HW2 7671   1.365   4.091   4.911
 2258SOL     OW 7672   1.999   5.461   4.950
 2258SOL    HW1 7673   2.015   5.363   4.949
 2258SOL    HW2 7674   2.050   5.505   4.877
 2259SOL     OW 7675   6.205   2.317   6.295
 2259SOL    HW1 7676   6.218   2.235   6.350
 2259SOL    HW2 7677   6.109   2.326   6.270
 2260SOL     OW 7678   4.254   3.199   0.626
 2260SOL    HW1 7679   4.343   3.172   0.663
 2260SOL    HW2 7680   4.185   3.193   0.698
 2261SOL     OW 7681   2.364   6.060   5.271
 2261SOL    HW1 7682   2.300   6.100   5.206
 2261SOL    HW2 7683   2.455   6.099   5.255
 2262SOL     OW 7684   3.308   1.492   3.146
 2262SOL    HW1 7685   3.379   1.559   3.170
 2262SOL    HW2 7686   3.229   1.541   3.108
 2263SOL     OW 7687   0.921   4.176   6.179
 2263SOL    HW1 7688   0.921   4.200   6.082
 2263SOL    HW2 7689   0.826   4.172   6.212
 2264SOL     OW 7690   3.544   3.808   3.320
 2264SOL    HW1 7691   3.612   3.747   3.279
 2264SOL    HW2 7692   3.500   3.862   3.248
 2265SOL     OW 7693   0.814   6.604   3.694
 2265SOL    HW1 7694   0.911   6.626   3.695
 2265SOL    HW2 7695   0.798   6.522   3.640
 2266SOL     OW 7696   6.691   0.431   6.027
 2266SOL    HW1 7697   6.709   0.529   6.024
 2266SOL    HW2 7698   6.657   0.400   5.939
 2267SOL     OW 7699   5.511   1.648   5.118
 2267SOL    HW1 7700   5.589   1.674   5.175
 2267SOL    HW2 7701   5.540   1.585   5.047
 2268SOL     OW 7702   6.909   5.754   0.159
 2268SOL    HW1 7703   6.853   5.824   0.204
 2268SOL    HW2 7704   6.854   5.705   0.091
 2269SOL     OW 7705   0.434   6.833   2.774
 2269SOL    HW1 7706   0.472   6.754   2.727
 2269SOL    HW2 7707   0.359   6.804   2.833
 2270SOL     OW 7708   3.818   3.116   3.364
 2270SOL    HW1 7709   3.805   3.215   3.351
 2270SOL    HW2 7710   3.736   3.077   3.404
 2271SOL     OW 7711   1.352   4.554   2.943
 2271SOL    HW1 7712   1.329   4.568   2.846
 2271SOL    HW2 7713   1.275   4.582   3.000
 2272SOL     OW 7714   5.408   0.897   5.772
 2272SOL    HW1 7715   5.493   0.949   5.780
 2272SOL    HW2 7716   5.335   0.947   5.817
 2273SOL     OW 7717   0.602   1.066   2.253
 2273SOL    HW1 7718   0.659   1.087   2.333
 2273SOL    HW2 7719   0.657   1.023   2.182
 2274SOL     OW 7720   0.743   4.025   3.988
 2274SOL    HW1 7721   0.782   4.064   3.905
 2274SOL    HW2 7722   0.817   3.998   4.050
 2275SOL     OW 7723   5.014   6.013   3.723
 2275SOL    HW1 7724   5.027   6.093   3.782
 2275SOL    HW2 7725   5.094   6.003   3.664
 2276SOL     OW 7726   3.364   5.818   2.183
 2276SOL    HW1 7727   3.360   5.756   2.262
 2276SOL    HW2 7728   3.280   5.872   2.179
 2277SOL     OW 7729   3.480   2.903   2.228
 2277SOL    HW1 7730   3.450   2.844   2.302
 2277SOL    HW2 7731   3.547   2.854   2.171
 2278SOL     OW 7732   4.049   5.705   1.147
 2278SOL    HW1 7733   3.956   5.729   1.174
 2278SOL    HW2 7734   4.112   5.779   1.172
 2279SOL     OW 7735   5.674   3.986   5.638
 2279SOL    HW1 7736   5.727   3.902   5.636
 2279SOL    HW2 7737   5.727   4.057   5.685
 2280SOL     OW 7738   5.546   0.231   5.987
 2280SOL    HW1 7739   5.619   0.238   5.919
 2280SOL    HW2 7740   5.488   0.312   5.982
 2281SOL     OW 7741   2.085   1.265   0.202
 2281SOL    HW1 7742   2.053   1.186   0.254
 2281SOL    HW2 7743   2.184   1.259   0.188
 2282SOL     OW 7744   3.997   5.912   2.641
 2282SOL    HW1 7745   4.033   5.999   2.674
 2282SOL    HW2 7746   3.900   5.904   2.667
 2283SOL     OW 7747   0.977   3.228   1.368
 2283SOL    HW1 7748   0.952   3.133   1.386
 2283SOL    HW2 7749   0.983   3.277   1.454
 2284SOL     OW 7750   2.356   2.212   1.501
 2284SOL    HW1 7751   2.395   2.172   1.584
 2284SOL    HW2 7752   2.416   2.284   1.467
 2285SOL     OW 7753   1.490   3.277   6.742
 2285SOL    HW1 7754   1.392   3.256   6.743
 2285SOL    HW2 7755   1.534   3.224   6.670
 2286SOL     OW 7756   6.504   6.877   4.057
 2286SOL    HW1 7757   6.406   6.899   4.053
 2286SOL    HW2 7758   6.554   6.938   3.996
 2287SOL     OW 7759   2.483   1.930   0.867
 2287SOL    HW1 7760   2.472   1.916   0.769
 2287SOL    HW2 7761   2.558   1.994   0.883
 2288SOL     OW 7762   2.576   5.832   4.518
 2288SOL    HW1 7763   2.650   5.849   4.453
 2288SOL    HW2 7764   2.607   5.857   4.610
 2289SOL     OW 7765   4.063   0.545   6.902
 2289SOL    HW1 7766   4.039   0.549   6.999
 2289SOL    HW2 7767   3.983   0.568   6.847
 2290SOL     OW 7768   3.592   3.412   4.657
 2290SOL    HW1 7769   3.532   3.358   4.598
 2290SOL    HW2 7770   3.686   3.378   4.648
 2291SOL     OW 7771   2.549   2.481   0.207
 2291SOL    HW1 7772   2.513   2.573   0.219
 2291SOL    HW2 7773   2.604   2.456   0.286
 2292SOL     OW 7774   4.742   2.094   3.164
 2292SOL    HW1 7775   4.750   2.000   3.195
 2292SOL    HW2 7776   4.740   2.096   3.064
 2293SOL     OW 7777   0.794   0.987   6.530
 2293SOL    HW1 7778   0.708   1.038   6.531
 2293SOL    HW2 7779   0.840   0.997   6.618
 2294SOL     OW 7780   6.256   2.043   4.981
 2294SOL    HW1 7781   6.250   2.022   5.079
 2294SOL    HW2 7782   6.179   2.000   4.933
 2295SOL     OW 7783   5.381   6.015   0.379
 2295SOL    HW1 7784   5.394   5.926   0.422
 2295SOL    HW2 7785   5.288   6.048   0.397
 2296SOL     OW 7786   3.607   5.367   4.840
 2296SOL    HW1 7787   3.611   5.466   4.856
 2296SOL    HW2 7788   3.563   5.348   4.753
 2297SOL     OW 7789   6.127   2.927   6.183
 2297SOL    HW1 7790   6.218   2.965   6.169
 2297SOL    HW2 7791   6.117   2.900   6.279
 2298SOL     OW 7792   2.542   3.548   5.407
 2298SOL    HW1 7793   2.539   3.524   5.504
 2298SOL    HW2 7794   2.555   3.647   5.397
 2299SOL     OW 7795   5.956   3.460   4.572
 2299SOL    HW1 7796   6.022   3.452   4.497
 2299SOL    HW2 7797   6.004   3.458   4.660
 2300SOL     OW 7798   5.551   0.158   2.600
 2300SOL    HW1 7799   5.570   0.251   2.633
 2300SOL    HW2 7800   5.470   0.122   2.646
 2301SOL     OW 7801   3.853   3.489   5.524
 2301SOL    HW1 7802   3.886   3.438   5.445
 2301SOL    HW2 7803   3.762   3.456   5.549
 2302SOL     OW 7804   6.693   3.789   5.836
 2302SOL    HW1 7805   6.635   3.789   5.917
 2302SOL    HW2 7806   6.782   3.829   5.859
 2303SOL     OW 7807   2.676   1.927   6.754
 2303SOL    HW1 7808   2.622   2.005   6.720
 2303SOL    HW2 7809   2.756   1.914   6.696
 2304SOL     OW 7810   6.224   0.030   2.248
 2304SOL    HW1 7811   6.179   0.043   2.336
 2304SOL    HW2 7812   6.184   6.974   2.202
 2305SOL     OW 7813   3.101   6.945   5.368
 2305SOL    HW1 7814   3.173   6.892   5.414
 2305SOL    HW2 7815   3.043   6.883   5.315
 2306SOL     OW 7816   0.846   4.455   4.823
 2306SOL    HW1 7817   0.890   4.410   4.746
 2306SOL    HW2 7818   0.905   4.527   4.858
 2307SOL     OW 7819   6.371   3.790   4.674
 2307SOL    HW1 7820   6.302   3.780   4.602
 2307SOL    HW2 7821   6.335   3.753   4.760
 2308SOL     OW 7822   0.864   5.789   1.837
 2308SOL    HW1 7823   0.871   5.695   1.870
 2308SOL    HW2 7824   0.873   5.853   1.914
 2309SOL     OW 7825   2.099   0.569   5.050
 2309SOL    HW1 7826   2.054   0.510   5.117
 2309SOL    HW2 7827   2.197   0.549   5.049
 2310SOL     OW 7828   4.376   6.384   0.160
 2310SOL    HW1 7829   4.444   6.331   0.212
 2310SOL    HW2 7830   4.284   6.354   0.185
 2311SOL     OW 7831   2.445   5.812   0.716
 2311SOL    HW1 7832   2.533   5.860   0.711
 2311SOL    HW2 7833   2.383   5.861   0.777
 2312SOL     OW 7834   2.946   4.810   2.513
 2312SOL    HW1 7835   2.956   4.769   2.423
 2312SOL    HW2 7836   3.033   4.848   2.542
 2313SOL     OW 7837   4.447   5.102   1.483
 2313SOL    HW1 7838   4.353   5.105   1.518
 2313SOL    HW2 7839   4.446   5.115   1.384
 2314SOL     OW 7840   2.508   4.452   3.200
 2314SOL    HW1 7841   2.551   4.461   3.111
 2314SOL    HW2 7842   2.577   4.462   3.272
 2315SOL     OW 7843   5.026   2.304   6.490
 2315SOL    HW1 7844   4.942   2.356   6.508
 2315SOL    HW2 7845   5.004   2.207   6.482
 2316SOL     OW 7846   4.858   3.467   2.092
 2316SOL    HW1 7847   4.806   3.510   2.166
 2316SOL    HW2 7848   4.940   3.424   2.130
 2317SOL     OW 7849   0.766   5.866   3.868
 2317SOL    HW1 7850   0.848   5.809   3.875
 2317SOL    HW2 7851   0.710   5.834   3.791
 2318SOL     OW 7852   0.109   1.642   3.292
 2318SOL    HW1 7853   0.132   1.693   3.375
 2318SOL    HW2 7854   0.057   1.701   3.230
 2319SOL     OW 7855   1.396   4.895   1.444
 2319SOL    HW1 7856   1.405   4.801   1.413
 2319SOL    HW2 7857   1.413   4.957   1.366
 2320SOL     OW 7858   6.260   4.738   4.484
 2320SOL    HW1 7859   6.197   4.713   4.558
 2320SOL    HW2 7860   6.275   4.660   4.424
 2321SOL     OW 7861   3.865   4.941   3.945
 2321SOL    HW1 7862   3.837   5.014   3.884
 2321SOL    HW2 7863   3.791   4.920   4.009
 2322SOL     OW 7864   2.773   0.916   4.517
 2322SOL    HW1 7865   2.776   0.841   4.583
 2322SOL    HW2 7866   2.829   0.894   4.438
 2323SOL     OW 7867   4.893   3.659   1.897
 2323SOL    HW1 7868   4.917   3.743   1.945
 2323SOL    HW2 7869   4.863   3.590   1.963
 2324SOL     OW 7870   0.529   5.554   3.805
 2324SOL    HW1 7871   0.583   5.587   3.883
 2324SOL    HW2 7872   0.434   5.539   3.835
 2325SOL     OW 7873   0.042   2.473   0.104
 2325SOL    HW1 7874   0.105   2.551   0.095
 2325SOL    HW2 7875   0.092   2.395   0.142
 2326SOL     OW 7876   0.436   4.419   0.706
 2326SOL    HW1 7877   0.520   4.366   0.696
 2326SOL    HW2 7878   0.358   4.364   0.676
 2327SOL     OW 7879   4.527   1.212   3.663
 2327SOL    HW1 7880   4.573   1.196   3.576
 2327SOL    HW2 7881   4.594   1.216   3.737
 2328SOL     OW 7882   6.441   4.996   3.734
 2328SOL    HW1 7883   6.448   4.959   3.641
 2328SOL    HW2 7884   6.365   5.061   3.738
 2329SOL     OW 7885   1.288   6.095   3.100
 2329SOL    HW1 7886   1.313   6.122   3.007
 2329SOL    HW2 7887   1.349   6.022   3.131
 2330SOL     OW 7888   1.275   4.578   0.135
 2330SOL    HW1 7889   1.245   4.523   0.057
 2330SOL    HW2 7890   1.373   4.565   0.149
 2331SOL     OW 7891   0.668   4.647   5.216
 2331SOL    HW1 7892   0.703   4.710   5.285
 2331SOL    HW2 7893   0.608   4.697   5.153
 2332SOL     OW 7894   5.814   3.314   5.663
 2332SOL    HW1 7895   5.812   3.391   5.599
 2332SOL    HW2 7896   5.747   3.329   5.736
 2333SOL     OW 7897   2.658   4.671   3.350
 2333SOL    HW1 7898   2.748   4.709   3.330
 2333SOL    HW2 7899   2.643   4.671   3.449
 2334SOL     OW 7900   2.259   0.725   6.100
 2334SOL    HW1 7901   2.258   0.785   6.180
 2334SOL    HW2 7902   2.350   0.686   6.088
 2335SOL     OW 7903   4.943   4.628   4.118
 2335SOL    HW1 7904   5.038   4.648   4.093
 2335SOL    HW2 7905   4.891   4.713   4.118
 2336SOL     OW 7906   4.181   2.683   5.756
 2336SOL    HW1 7907   4.129   2.640   5.830
 2336SOL    HW2 7908   4.214   2.773   5.786
 2337SOL     OW 7909   5.734   0.307   4.696
 2337SOL    HW1 7910   5.715   0.400   4.666
 2337SOL    HW2 7911   5.824   0.304   4.740
 2338SOL     OW 7912   1.174   6.896   7.009
 2338SOL    HW1 7913   1.206   6.863   6.920
 2338SOL    HW2 7914   1.095   6.843   0.014
 2339SOL     OW 7915   4.194   4.979   6.865
 2339SOL    HW1 7916   4.206   4.964   6.963
 2339SOL    HW2 7917   4.109   5.029   6.849
 2340SOL     OW 7918   3.527   5.362   4.574
 2340SOL    HW1 7919   3.550   5.317   4.487
 2340SOL    HW2 7920   3.560   5.456   4.571
 2341SOL     OW 7921   6.481   4.993   6.458
 2341SOL    HW1 7922   6.498   4.926   6.530
 2341SOL    HW2 7923   6.554   5.061   6.459
 2342SOL     OW 7924   6.922   1.061   5.491
 2342SOL    HW1 7925   6.995   1.089   5.553
 2342SOL    HW2 7926   6.849   1.016   5.543
 2343SOL     OW 7927   0.992   6.206   0.384
 2343SOL    HW1 7928   0.920   6.146   0.349
 2343SOL    HW2 7929   0.952   6.280   0.438
 2344SOL     OW 7930   2.564   0.956   2.701
 2344SOL    HW1 7931   2.551   0.870   2.752
 2344SOL    HW2 7932   2.475   0.996   2.681
 2345SOL     OW 7933   1.078   1.859   1.891
 2345SOL    HW1 7934   1.012   1.862   1.815
 2345SOL    HW2 7935   1.084   1.766   1.926
 2346SOL     OW 7936   4.758   3.038   5.329
 2346SOL    HW1 7937   4.768   3.136   5.342
 2346SOL    HW2 7938   4.764   3.017   5.231
 2347SOL     OW 7939   1.840   3.857   0.692
 2347SOL    HW1 7940   1.791   3.789   0.745
 2347SOL    HW2 7941   1.893   3.813   0.620
 2348SOL     OW 7942   2.130   6.770   1.643
 2348SOL    HW1 7943   2.181   6.786   1.559
 2348SOL    HW2 7944   2.032   6.776   1.624
 2349SOL     OW 7945   5.420   3.617   6.918
 2349SOL    HW1 7946   5.333   3.660   6.894
 2349SOL    HW2 7947   5.495   3.679   6.896
 2350SOL     OW 7948   2.278   6.135   4.876
 2350SOL    HW1 7949   2.213   6.068   4.839
 2350SOL    HW2 7950   2.361   6.134   4.820
 2351SOL     OW 7951   1.331   4.744   2.461
 2351SOL    HW1 7952   1.419   4.733   2.415
 2351SOL    HW2 7953   1.346   4.753   2.560
 2352SOL     OW 7954   5.527   5.565   0.568
 2352SOL    HW1 7955   5.508   5.470   0.594
 2352SOL    HW2 7956   5.449   5.603   0.520
 2353SOL     OW 7957   2.589   3.035   6.039
 2353SOL    HW1 7958   2.680   3.029   6.079
 2353SOL    HW2 7959   2.570   3.129   6.012
 2354SOL     OW 7960   4.248   1.690   2.387
 2354SOL    HW1 7961   4.233   1.787   2.407
 2354SOL    HW2 7962   4.182   1.659   2.319
 2355SOL     OW 7963   0.509   1.528   1.845
 2355SOL    HW1 7964   0.588   1.588   1.853
 2355SOL    HW2 7965   0.511   1.459   1.917
 2356SOL     OW 7966   3.207   5.135   4.042
 2356SOL    HW1 7967   3.109   5.153   4.041
 2356SOL    HW2 7968   3.257   5.221   4.036
 2357SOL     OW 7969   0.842   4.867   0.734
 2357SOL    HW1 7970   0.845   4.803   0.811
 2357SOL    HW2 7971   0.905   4.836   0.662
 2358SOL     OW 7972   2.791   0.794   5.455
 2358SOL    HW1 7973   2.879   0.747   5.466
 2358SOL    HW2 7974   2.777   0.815   5.358
 2359SOL     OW 7975   2.486   2.185   5.838
 2359SOL    HW1 7976   2.501   2.156   5.933
 2359SOL    HW2 7977   2.388   2.200   5.823
 2360SOL     OW 7978   3.309   4.949   0.678
 2360SOL    HW1 7979   3.253   4.900   0.611
 2360SOL    HW2 7980   3.287   4.915   0.770
 2361SOL     OW 7981   3.383   5.545   1.256
 2361SOL    HW1 7982   3.294   5.556   1.300
 2361SOL    HW2 7983   3.447   5.612   1.293
 2362SOL     OW 7984   3.007   5.372   4.490
 2362SOL    HW1 7985   2.951   5.455   4.493
 2362SOL    HW2 7986   2.949   5.293   4.508
 2363SOL     OW 7987   2.336   4.099   1.076
 2363SOL    HW1 7988   2.295   4.020   1.030
 2363SOL    HW2 7989   2.376   4.160   1.008
 2364SOL     OW 7990   4.618   1.377   2.483
 2364SOL    HW1 7991   4.673   1.370   2.566
 2364SOL    HW2 7992   4.522   1.384   2.507
 2365SOL     OW 7993   5.717   4.215   2.874
 2365SOL    HW1 7994   5.792   4.190   2.935
 2365SOL    HW2 7995   5.741   4.297   2.823
 2366SOL     OW 7996   2.836   5.115   5.235
 2366SOL    HW1 7997   2.830   5.168   5.150
 2366SOL    HW2 7998   2.793   5.026   5.221
 2367SOL     OW 7999   6.156   5.179   5.311
 2367SOL    HW1 8000   6.250   5.145   5.300
 2367SOL    HW2 8001   6.097   5.103   5.340
 2368SOL     OW 8002   5.290   0.435   4.837
 2368SOL    HW1 8003   5.209   0.486   4.867
 2368SOL    HW2 8004   5.315   0.369   4.908
 2369SOL     OW 8005   4.007   1.689   4.494
 2369SOL    HW1 8006   3.942   1.622   4.460
 2369SOL    HW2 8007   4.068   1.645   4.560
 2370SOL     OW 8008   4.868   1.815   1.888
 2370SOL    HW1 8009   4.777   1.780   1.866
 2370SOL    HW2 8010   4.865   1.864   1.975
 2371SOL     OW 8011   1.429   6.861   1.855
 2371SOL    HW1 8012   1.478   6.948   1.844
 2371SOL    HW2 8013   1.481   6.788   1.811
 2372SOL     OW 8014   6.854   0.023   5.646
 2372SOL    HW1 8015   6.839   7.010   5.554
 2372SOL    HW2 8016   6.952   0.021   5.667
 2373SOL     OW 8017   5.838   4.189   5.726
 2373SOL    HW1 8018   5.774   4.264   5.741
 2373SOL    HW2 8019   5.885   4.201   5.639
 2374SOL     OW 8020   6.998   6.407   2.338
 2374SOL    HW1 8021   6.906   6.433   2.307
 2374SOL    HW2 8022   0.037   6.405   2.261
 2375SOL     OW 8023   1.633   6.992   4.286
 2375SOL    HW1 8024   1.567   7.007   4.360
 2375SOL    HW2 8025   1.692   0.048   4.277
 2376SOL     OW 8026   4.900   2.564   3.394
 2376SOL    HW1 8027   4.879   2.657   3.423
 2376SOL    HW2 8028   4.818   2.523   3.353
 2377SOL     OW 8029   4.387   3.941   5.685
 2377SOL    HW1 8030   4.395   4.037   5.711
 2377SOL    HW2 8031   4.351   3.934   5.592
 2378SOL     OW 8032   0.381   0.351   0.694
 2378SOL    HW1 8033   0.420   0.408   0.620
 2378SOL    HW2 8034   0.301   0.302   0.660
 2379SOL     OW 8035   0.436   4.884   2.515
 2379SOL    HW1 8036   0.486   4.892   2.602
 2379SOL    HW2 8037   0.447   4.792   2.479
 2380SOL     OW 8038   4.156   5.396   6.524
 2380SOL    HW1 8039   4.075   5.343   6.498
 2380SOL    HW2 8040   4.177   5.381   6.621
 2381SOL     OW 8041   2.120   3.580   4.132
 2381SOL    HW1 8042   2.154   3.654   4.191
 2381SOL    HW2 8043   2.025   3.561   4.154
 2382SOL     OW 8044   6.903   5.426   3.171
 2382SOL    HW1 8045   6.956   5.444   3.253
 2382SOL    HW2 8046   6.814   5.471   3.179
 2383SOL     OW 8047   5.219   4.014   5.795
 2383SOL    HW1 8048   5.145   3.991   5.859
 2383SOL    HW2 8049   5.181   4.026   5.703
 2384SOL     OW 8050   0.729   2.634   2.863
 2384SOL    HW1 8051   0.801   2.702   2.852
 2384SOL    HW2 8052   0.649   2.675   2.906
 2385SOL     OW 8053   0.282   1.246   6.891
 2385SOL    HW1 8054   0.381   1.231   6.887
 2385SOL    HW2 8055   0.263   1.344   6.902
 2386SOL     OW 8056   6.143   5.648   5.121
 2386SOL    HW1 8057   6.219   5.694   5.167
 2386SOL    HW2 8058   6.166   5.552   5.108
 2387SOL     OW 8059   0.568   0.770   3.788
 2387SOL    HW1 8060   0.576   0.674   3.812
 2387SOL    HW2 8061   0.599   0.827   3.865
 2388SOL     OW 8062   0.773   3.507   5.015
 2388SOL    HW1 8063   0.743   3.423   4.970
 2388SOL    HW2 8064   0.703   3.577   5.004
 2389SOL     OW 8065   3.958   5.804   2.996
 2389SOL    HW1 8066   4.049   5.795   3.038
 2389SOL    HW2 8067   3.948   5.896   2.959
 2390SOL     OW 8068   5.224   2.638   6.001
 2390SOL    HW1 8069   5.148   2.630   6.066
 2390SOL    HW2 8070   5.216   2.567   5.931
 2391SOL     OW 8071   2.883   3.954   6.956
 2391SOL    HW1 8072   2.955   4.020   6.935
 2391SOL    HW2 8073   2.878   3.940   0.031
 2392SOL     OW 8074   3.822   4.858   6.142
 2392SOL    HW1 8075   3.865   4.805   6.215
 2392SOL    HW2 8076   3.853   4.953   6.147
 2393SOL     OW 8077   3.710   4.252   0.467
 2393SOL    HW1 8078   3.689   4.187   0.394
 2393SOL    HW2 8079   3.765   4.207   0.537
 2394SOL     OW 8080   6.501   1.609   3.950
 2394SOL    HW1 8081   6.502   1.605   3.850
 2394SOL    HW2 8082   6.466   1.522   3.986
 2395SOL     OW 8083   1.463   2.523   3.890
 2395SOL    HW1 8084   1.492   2.590   3.957
 2395SOL    HW2 8085   1.537   2.456   3.874
 2396SOL     OW 8086   6.943   0.313   6.896
 2396SOL    HW1 8087   6.905   0.344   6.809
 2396SOL    HW2 8088   7.011   0.241   6.879
 2397SOL     OW 8089   2.114   4.382   5.273
 2397SOL    HW1 8090   2.031   4.358   5.323
 2397SOL    HW2 8091   2.179   4.425   5.336
 2398SOL     OW 8092   4.127   5.981   4.949
 2398SOL    HW1 8093   4.055   5.965   4.881
 2398SOL    HW2 8094   4.159   6.076   4.941
 2399SOL     OW 8095   2.890   1.130   2.432
 2399SOL    HW1 8096   2.794   1.152   2.414
 2399SOL    HW2 8097   2.915   1.048   2.382
 2400SOL     OW 8098   1.252   2.788   0.215
 2400SOL    HW1 8099   1.261   2.873   0.267
 2400SOL    HW2 8100   1.156   2.767   0.202
 2401SOL     OW 8101   1.525   6.386   0.239
 2401SOL    HW1 8102   1.478   6.302   0.212
 2401SOL    HW2 8103   1.515   6.400   0.337
 2402SOL     OW 8104   0.703   3.972   1.960
 2402SOL    HW1 8105   0.770   4.031   1.916
 2402SOL    HW2 8106   0.706   3.881   1.918
 2403SOL     OW 8107   3.198   3.874   5.448
 2403SOL    HW1 8108   3.122   3.926   5.409
 2403SOL    HW2 8109   3.226   3.915   5.535
 2404SOL     OW 8110   6.250   1.456   1.407
 2404SOL    HW1 8111   6.327   1.489   1.353
 2404SOL    HW2 8112   6.167   1.506   1.382
 2405SOL     OW 8113   1.964   3.069   0.759
 2405SOL    HW1 8114   1.993   3.163   0.741
 2405SOL    HW2 8115   2.045   3.010   0.762
 2406SOL     OW 8116   4.050   5.463   4.791
 2406SOL    HW1 8117   4.037   5.385   4.853
 2406SOL    HW2 8118   4.104   5.533   4.837
 2407SOL     OW 8119   2.247   2.010   3.999
 2407SOL    HW1 8120   2.189   1.974   3.926
 2407SOL    HW2 8121   2.212   1.982   4.088
 2408SOL     OW 8122   3.740   0.242   6.331
 2408SOL    HW1 8123   3.701   0.257   6.240
 2408SOL    HW2 8124   3.839   0.259   6.328
 2409SOL     OW 8125   0.859   3.240   6.834
 2409SOL    HW1 8126   0.776   3.191   6.861
 2409SOL    HW2 8127   0.847   3.277   6.742
 2410SOL     OW 8128   0.115   3.676   4.542
 2410SOL    HW1 8129   0.150   3.594   4.588
 2410SOL    HW2 8130   0.131   3.756   4.599
 2411SOL     OW 8131   2.705   1.401   6.974
 2411SOL    HW1 8132   2.711   1.496   6.943
 2411SOL    HW2 8133   2.754   1.391   0.036
 2412SOL     OW 8134   3.390   2.703   6.509
 2412SOL    HW1 8135   3.425   2.784   6.555
 2412SOL    HW2 8136   3.464   2.658   6.459
 2413SOL     OW 8137   0.224   3.621   6.641
 2413SOL    HW1 8138   0.278   3.671   6.709
 2413SOL    HW2 8139   0.135   3.598   6.680
 2414SOL     OW 8140   0.237   1.349   5.401
 2414SOL    HW1 8141   0.189   1.375   5.318
 2414SOL    HW2 8142   0.336   1.356   5.387
 2415SOL     OW 8143   3.388   4.380   6.546
 2415SOL    HW1 8144   3.469   4.414   6.500
 2415SOL    HW2 8145   3.414   4.334   6.631
 2416SOL     OW 8146   0.074   3.027   3.434
 2416SOL    HW1 8147   0.080   3.079   3.349
 2416SOL    HW2 8148   0.002   3.065   3.492
 2417SOL     OW 8149   3.437   2.487   1.317
 2417SOL    HW1 8150   3.337   2.486   1.323
 2417SOL    HW2 8151   3.474   2.401   1.352
 2418SOL     OW 8152   5.381   4.335   6.782
 2418SOL    HW1 8153   5.461   4.395   6.780
 2418SOL    HW2 8154   5.400   4.253   6.728
 2419SOL     OW 8155   3.344   1.072   3.145
 2419SOL    HW1 8156   3.430   1.108   3.182
 2419SOL    HW2 8157   3.325   1.114   3.056
 2420SOL     OW 8158   1.713   3.730   2.604
 2420SOL    HW1 8159   1.690   3.633   2.606
 2420SOL    HW2 8160   1.715   3.765   2.698
 2421SOL     OW 8161   2.823   6.679   3.547
 2421SOL    HW1 8162   2.904   6.663   3.603
 2421SOL    HW2 8163   2.779   6.765   3.574
 2422SOL     OW 8164   3.798   6.141   0.140
 2422SOL    HW1 8165   3.824   6.065   0.199
 2422SOL    HW2 8166   3.878   6.200   0.125
 2423SOL     OW 8167   2.832   4.804   4.447
 2423SOL    HW1 8168   2.930   4.800   4.431
 2423SOL    HW2 8169   2.812   4.780   4.542
 2424SOL     OW 8170   4.902   6.637   6.496
 2424SOL    HW1 8171   4.895   6.683   6.585
 2424SOL    HW2 8172   4.824   6.664   6.438
 2425SOL     OW 8173   3.979   5.482   5.222
 2425SOL    HW1 8174   3.913   5.486   5.147
 2425SOL    HW2 8175   4.047   5.555   5.211
 2426SOL     OW 8176   3.043   2.356   5.366
 2426SOL    HW1 8177   3.136   2.365   5.328
 2426SOL    HW2 8178   3.001   2.446   5.372
 2427SOL     OW 8179   4.263   1.616   0.402
 2427SOL    HW1 8180   4.174   1.651   0.430
 2427SOL    HW2 8181   4.322   1.607   0.482
 2428SOL     OW 8182   1.556   1.494   3.258
 2428SOL    HW1 8183   1.478   1.558   3.262
 2428SOL    HW2 8184   1.606   1.510   3.173
 2429SOL     OW 8185   5.657   5.987   1.107
 2429SOL    HW1 8186   5.699   5.898   1.117
 2429SOL    HW2 8187   5.575   5.992   1.165
 2430SOL     OW 8188   6.355   0.481   6.371
 2430SOL    HW1 8189   6.349   0.387   6.404
 2430SOL    HW2 8190   6.312   0.543   6.437
 2431SOL     OW 8191   1.951   2.778   1.936
 2431SOL    HW1 8192   2.044   2.764   1.903
 2431SOL    HW2 8193   1.942   2.740   2.028
 2432SOL     OW 8194   2.694   6.115   2.259
 2432SOL    HW1 8195   2.791   6.098   2.274
 2432SOL    HW2 8196   2.667   6.199   2.306
 2433SOL     OW 8197   0.335   4.115   4.622
 2433SOL    HW1 8198   0.354   4.020   4.597
 2433SOL    HW2 8199   0.420   4.168   4.617
 2434SOL     OW 8200   4.687   1.195   3.421
 2434SOL    HW1 8201   4.732   1.272   3.376
 2434SOL    HW2 8202   4.735   1.110   3.397
 2435SOL     OW 8203   6.265   6.874   6.728
 2435SOL    HW1 8204   6.343   6.886   6.790
 2435SOL    HW2 8205   6.290   6.811   6.654
 2436SOL     OW 8206   6.878   3.345   0.309
 2436SOL    HW1 8207   6.887   3.307   0.401
 2436SOL    HW2 8208   6.781   3.364   0.291
 2437SOL     OW 8209   0.461   4.037   1.152
 2437SOL    HW1 8210   0.362   4.053   1.146
 2437SOL    HW2 8211   0.492   4.062   1.244
 2438SOL     OW 8212   3.409   1.619   4.993
 2438SOL    HW1 8213   3.359   1.610   4.907
 2438SOL    HW2 8214   3.358   1.678   5.055
 2439SOL     OW 8215   0.103   5.673   0.705
 2439SOL    HW1 8216   0.047   5.600   0.743
 2439SOL    HW2 8217   0.111   5.747   0.771
 2440SOL     OW 8218   6.578   1.670   5.493
 2440SOL    HW1 8219   6.666   1.658   5.541
 2440SOL    HW2 8220   6.595   1.680   5.395
 2441SOL     OW 8221   6.285   1.106   0.548
 2441SOL    HW1 8222   6.202   1.052   0.540
 2441SOL    HW2 8223   6.356   1.067   0.489
 2442SOL     OW 8224   5.300   3.208   2.302
 2442SOL    HW1 8225   5.300   3.215   2.401
 2442SOL    HW2 8226   5.239   3.133   2.274
 2443SOL     OW 8227   0.311   3.176   1.163
 2443SOL    HW1 8228   0.339   3.255   1.108
 2443SOL    HW2 8229   0.390   3.117   1.180
 2444SOL     OW 8230   3.360   5.687   3.390
 2444SOL    HW1 8231   3.282   5.660   3.448
 2444SOL    HW2 8232   3.370   5.786   3.392
 2445SOL     OW 8233   0.843   2.311   0.777
 2445SOL    HW1 8234   0.898   2.258   0.712
 2445SOL    HW2 8235   0.836   2.260   0.863
 2446SOL     OW 8236   0.099   5.829   1.974
 2446SOL    HW1 8237   0.119   5.749   1.918
 2446SOL    HW2 8238   0.108   5.805   2.071
 2447SOL     OW 8239   1.622   0.048   0.549
 2447SOL    HW1 8240   1.583   0.089   0.466
 2447SOL    HW2 8241   1.571   0.078   0.629
 2448SOL     OW 8242   5.579   1.044   4.011
 2448SOL    HW1 8243   5.627   1.056   3.925
 2448SOL    HW2 8244   5.626   0.975   4.066
 2449SOL     OW 8245   1.653   4.126   0.934
 2449SOL    HW1 8246   1.563   4.170   0.942
 2449SOL    HW2 8247   1.724   4.195   0.944
 2450SOL     OW 8248   0.823   6.320   5.442
 2450SOL    HW1 8249   0.914   6.278   5.443
 2450SOL    HW2 8250   0.774   6.290   5.360
 2451SOL     OW 8251   2.143   6.471   6.011
 2451SOL    HW1 8252   2.105   6.379   6.020
 2451SOL    HW2 8253   2.231   6.467   5.963
 2452SOL     OW 8254   2.077   1.861   4.414
 2452SOL    HW1 8255   1.979   1.880   4.404
 2452SOL    HW2 8256   2.092   1.762   4.408
 2453SOL     OW 8257   1.535   1.890   5.780
 2453SOL    HW1 8258   1.597   1.883   5.858
 2453SOL    HW2 8259   1.445   1.852   5.806
 2454SOL     OW 8260   3.235   6.094   0.992
 2454SOL    HW1 8261   3.303   6.045   1.046
 2454SOL    HW2 8262   3.230   6.189   1.023
 2455SOL     OW 8263   4.461   1.995   0.654
 2455SOL    HW1 8264   4.524   2.034   0.587
 2455SOL    HW2 8265   4.376   1.970   0.608
 2456SOL     OW 8266   0.674   3.859   6.393
 2456SOL    HW1 8267   0.738   3.872   6.469
 2456SOL    HW2 8268   0.722   3.872   6.306
 2457SOL     OW 8269   4.418   1.743   5.812
 2457SOL    HW1 8270   4.500   1.688   5.807
 2457SOL    HW2 8271   4.392   1.775   5.721
 2458SOL     OW 8272   0.686   0.111   2.501
 2458SOL    HW1 8273   0.675   0.162   2.416
 2458SOL    HW2 8274   0.692   0.014   2.481
 2459SOL     OW 8275   1.998   6.857   1.317
 2459SOL    HW1 8276   2.052   6.919   1.374
 2459SOL    HW2 8277   2.060   6.797   1.266
 2460SOL     OW 8278   0.725   0.644   4.334
 2460SOL    HW1 8279   0.758   0.551   4.320
 2460SOL    HW2 8280   0.799   0.701   4.370
 2461SOL     OW 8281   3.261   1.475   3.969
 2461SOL    HW1 8282   3.266   1.574   3.981
 2461SOL    HW2 8283   3.255   1.454   3.871
 2462SOL     OW 8284   0.696   5.642   0.969
 2462SOL    HW1 8285   0.604   5.604   0.974
 2462SOL    HW2 8286   0.705   5.718   1.033
 2463SOL     OW 8287   6.651   0.023   0.749
 2463SOL    HW1 8288   6.726   0.084   0.774
 2463SOL    HW2 8289   6.671   6.953   0.779
 2464SOL     OW 8290   0.772   2.887   4.632
 2464SOL    HW1 8291   0.849   2.928   4.682
 2464SOL    HW2 8292   0.776   2.914   4.536
 2465SOL     OW 8293   6.341   0.809   0.118
 2465SOL    HW1 8294   6.305   0.745   0.185
 2465SOL    HW2 8295   6.277   0.818   0.042
 2466SOL     OW 8296   0.962   2.240   1.897
 2466SOL    HW1 8297   0.871   2.213   1.929
 2466SOL    HW2 8298   0.989   2.181   1.821
 2467SOL     OW 8299   5.152   3.055   4.740
 2467SOL    HW1 8300   5.094   3.103   4.675
 2467SOL    HW2 8301   5.136   2.957   4.734
 2468SOL     OW 8302   3.485   0.176   5.330
 2468SOL    HW1 8303   3.437   0.119   5.264
 2468SOL    HW2 8304   3.426   0.191   5.410
 2469SOL     OW 8305   3.195   2.067   6.198
 2469SOL    HW1 8306   3.283   2.091   6.155
 2469SOL    HW2 8307   3.120   2.103   6.143
 2470SOL     OW 8308   2.248   5.500   6.448
 2470SOL    HW1 8309   2.239   5.599   6.450
 2470SOL    HW2 8310   2.321   5.472   6.511
 2471SOL     OW 8311   2.895   5.266   2.016
 2471SOL    HW1 8312   2.971   5.201   2.016
 2471SOL    HW2 8313   2.821   5.230   1.960
 2472SOL     OW 8314   4.924   1.167   3.223
 2472SOL    HW1 8315   4.929   1.200   3.318
 2472SOL    HW2 8316   4.922   1.067   3.224
 2473SOL     OW 8317   0.430   3.894   3.692
 2473SOL    HW1 8318   0.529   3.902   3.683
 2473SOL    HW2 8319   0.404   3.798   3.695
 2474SOL     OW 8320   1.267   6.498   1.597
 2474SOL    HW1 8321   1.302   6.466   1.685
 2474SOL    HW2 8322   1.233   6.591   1.606
 2475SOL     OW 8323   5.091   1.745   0.498
 2475SOL    HW1 8324   5.166   1.754   0.433
 2475SOL    HW2 8325   5.100   1.659   0.549
 2476SOL     OW 8326   4.177   0.022   0.625
 2476SOL    HW1 8327   4.178   0.085   0.548
 2476SOL    HW2 8328   4.083   0.003   0.653
 2477SOL     OW 8329   3.778   0.250   3.778
 2477SOL    HW1 8330   3.810   0.187   3.708
 2477SOL    HW2 8331   3.770   0.342   3.740
 2478SOL     OW 8332   3.774   0.065   4.952
 2478SOL    HW1 8333   3.749   0.053   5.048
 2478SOL    HW2 8334   3.861   0.019   4.934
 2479SOL     OW 8335   5.425   3.173   0.958
 2479SOL    HW1 8336   5.408   3.269   0.983
 2479SOL    HW2 8337   5.389   3.113   1.029
 2480SOL     OW 8338   3.887   2.078   1.468
 2480SOL    HW1 8339   3.980   2.077   1.429
 2480SOL    HW2 8340   3.887   2.130   1.553
 2481SOL     OW 8341   3.226   6.895   2.180
 2481SOL    HW1 8342   3.212   6.975   2.238
 2481SOL    HW2 8343   3.324   6.883   2.162
 2482SOL     OW 8344   6.479   3.205   0.439
 2482SOL    HW1 8345   6.425   3.262   0.501
 2482SOL    HW2 8346   6.532   3.139   0.492
 2483SOL     OW 8347   2.120   2.383   0.727
 2483SOL    HW1 8348   2.107   2.284   0.723
 2483SOL    HW2 8349   2.115   2.421   0.635
 2484SOL     OW 8350   4.248   0.374   7.023
 2484SOL    HW1 8351   4.323   0.419   6.976
 2484SOL    HW2 8352   4.161   0.414   6.995
 2485SOL     OW 8353   0.341   2.317   6.014
 2485SOL    HW1 8354   0.251   2.274   6.019
 2485SOL    HW2 8355   0.411   2.254   6.047
 2486SOL     OW 8356   0.007   5.522   3.643
 2486SOL    HW1 8357   7.002   5.605   3.596
 2486SOL    HW2 8358   6.956   5.456   3.643
 2487SOL     OW 8359   4.250   6.108   0.213
 2487SOL    HW1 8360   4.242   6.073   0.307
 2487SOL    HW2 8361   4.304   6.044   0.159
 2488SOL     OW 8362   6.994   3.959   0.667
 2488SOL    HW1 8363   6.902   3.959   0.629
 2488SOL    HW2 8364   0.030   3.902   0.609
 2489SOL     OW 8365   6.304   5.137   4.100
 2489SOL    HW1 8366   6.273   5.081   4.023
 2489SOL    HW2 8367   6.398   5.112   4.124
 2490SOL     OW 8368   2.501   5.901   3.341
 2490SOL    HW1 8369   2.430   5.927   3.406
 2490SOL    HW2 8370   2.589   5.896   3.388
 2491SOL     OW 8371   3.875   4.631   1.510
 2491SOL    HW1 8372   3.803   4.576   1.467
 2491SOL    HW2 8373   3.951   4.571   1.537
 2492SOL     OW 8374   6.548   5.434   1.470
 2492SOL    HW1 8375   6.526   5.340   1.444
 2492SOL    HW2 8376   6.497   5.458   1.552
 2493SOL     OW 8377   5.352   6.775   1.054
 2493SOL    HW1 8378   5.409   6.718   1.113
 2493SOL    HW2 8379   5.402   6.858   1.030
 2494SOL     OW 8380   6.678   3.349   1.167
 2494SOL    HW1 8381   6.629   3.321   1.084
 2494SOL    HW2 8382   6.720   3.268   1.209
 2495SOL     OW 8383   0.519   3.792   1.630
 2495SOL    HW1 8384   0.593   3.778   1.696
 2495SOL    HW2 8385   0.452   3.856   1.668
 2496SOL     OW 8386   5.701   4.756   6.745
 2496SOL    HW1 8387   5.622   4.810   6.717
 2496SOL    HW2 8388   5.780   4.782   6.690
 2497SOL     OW 8389   0.469   6.951   2.238
 2497SOL    HW1 8390   0.492   6.961   2.335
 2497SOL    HW2 8391   0.422   0.010   2.207
 2498SOL     OW 8392   1.931   3.319   4.976
 2498SOL    HW1 8393   1.842   3.365   4.976
 2498SOL    HW2 8394   1.922   3.229   5.021
 2499SOL     OW 8395   6.993   3.545   2.140
 2499SOL    HW1 8396   6.955   3.588   2.222
 2499SOL    HW2 8397   7.016   3.617   2.073
 2500SOL     OW 8398   4.023   3.238   1.631
 2500SOL    HW1 8399   3.959   3.187   1.688
 2500SOL    HW2 8400   4.000   3.335   1.632
 2501SOL     OW 8401   6.400   5.598   6.195
 2501SOL    HW1 8402   6.481   5.555   6.155
 2501SOL    HW2 8403   6.318   5.549   6.165
 2502SOL     OW 8404   2.012   6.429   4.583
 2502SOL    HW1 8405   2.097   6.434   4.636
 2502SOL    HW2 8406   1.940   6.478   4.631
 2503SOL     OW 8407   2.835   0.017   5.725
 2503SOL    HW1 8408   2.901   7.018   5.796
 2503SOL    HW2 8409   2.748   6.995   5.744
 2504SOL     OW 8410   3.991   6.870   3.800
 2504SOL    HW1 8411   3.989   6.896   3.703
 2504SOL    HW2 8412   3.903   6.892   3.841
 2505SOL     OW 8413   0.099   4.141   4.040
 2505SOL    HW1 8414   0.027   4.086   4.081
 2505SOL    HW2 8415   0.064   4.233   4.021
 2506SOL     OW 8416   5.491   5.314   6.341
 2506SOL    HW1 8417   5.514   5.406   6.309
 2506SOL    HW2 8418   5.429   5.271   6.276
 2507SOL     OW 8419   6.992   3.107   2.205
 2507SOL    HW1 8420   6.960   3.167   2.133
 2507SOL    HW2 8421   6.971   3.147   2.294
 2508SOL     OW 8422   5.780   1.185   4.594
 2508SOL    HW1 8423   5.724   1.227   4.523
 2508SOL    HW2 8424   5.831   1.108   4.555
 2509SOL     OW 8425   0.333   3.205   5.792
 2509SOL    HW1 8426   0.313   3.277   5.725
 2509SOL    HW2 8427   0.344   3.246   5.882
 2510SOL     OW 8428   3.118   3.909   2.511
 2510SOL    HW1 8429   3.186   3.836   2.511
 2510SOL    HW2 8430   3.034   3.878   2.555
 2511SOL     OW 8431   2.414   0.675   4.305
 2511SOL    HW1 8432   2.452   0.748   4.363
 2511SOL    HW2 8433   2.338   0.711   4.252
 2512SOL     OW 8434   4.272   4.726   3.953
 2512SOL    HW1 8435   4.297   4.755   3.861
 2512SOL    HW2 8436   4.228   4.636   3.949
 2513SOL     OW 8437   2.116   5.437   5.851
 2513SOL    HW1 8438   2.132   5.461   5.947
 2513SOL    HW2 8439   2.077   5.516   5.803
 2514SOL     OW 8440   1.343   1.631   3.159
 2514SOL    HW1 8441   1.298   1.712   3.196
 2514SOL    HW2 8442   1.319   1.621   3.062
 2515SOL     OW 8443   0.738   1.648   1.499
 2515SOL    HW1 8444   0.694   1.612   1.417
 2515SOL    HW2 8445   0.690   1.614   1.580
 2516SOL     OW 8446   5.911   2.476   4.708
 2516SOL    HW1 8447   6.002   2.517   4.715
 2516SOL    HW2 8448   5.842   2.545   4.733
 2517SOL     OW 8449   1.040   1.096   3.890
 2517SOL    HW1 8450   1.066   1.020   3.950
 2517SOL    HW2 8451   1.084   1.084   3.801
 2518SOL     OW 8452   2.373   4.588   1.447
 2518SOL    HW1 8453   2.308   4.663   1.455
 2518SOL    HW2 8454   2.366   4.529   1.528
 2519SOL     OW 8455   1.326   1.425   0.826
 2519SOL    HW1 8456   1.264   1.424   0.748
 2519SOL    HW2 8457   1.376   1.512   0.828
 2520SOL     OW 8458   2.365   2.213   0.667
 2520SOL    HW1 8459   2.277   2.167   0.672
 2520SOL    HW2 8460   2.419   2.175   0.592
 2521SOL     OW 8461   5.154   1.027   4.918
 2521SOL    HW1 8462   5.194   0.939   4.892
 2521SOL    HW2 8463   5.227   1.093   4.936
 2522SOL     OW 8464   1.322   1.883   6.789
 2522SOL    HW1 8465   1.347   1.934   6.707
 2522SOL    HW2 8466   1.337   1.940   6.869
 2523SOL     OW 8467   1.481   5.460   6.606
 2523SOL    HW1 8468   1.483   5.502   6.515
 2523SOL    HW2 8469   1.572   5.464   6.646
 2524SOL     OW 8470   1.455   0.840   4.427
 2524SOL    HW1 8471   1.543   0.796   4.444
 2524SOL    HW2 8472   1.393   0.821   4.503
 2525SOL     OW 8473   6.444   2.651   5.638
 2525SOL    HW1 8474   6.468   2.665   5.542
 2525SOL    HW2 8475   6.518   2.685   5.697
 2526SOL     OW 8476   1.781   0.074   1.123
 2526SOL    HW1 8477   1.767   6.999   1.113
 2526SOL    HW2 8478   1.701   0.114   1.167
 2527SOL     OW 8479   4.426   5.053   5.824
 2527SOL    HW1 8480   4.490   4.982   5.795
 2527SOL    HW2 8481   4.429   5.062   5.924
 2528SOL     OW 8482   4.671   5.619   6.188
 2528SOL    HW1 8483   4.592   5.659   6.234
 2528SOL    HW2 8484   4.721   5.691   6.139
 2529SOL     OW 8485   0.395   6.622   6.455
 2529SOL    HW1 8486   0.411   6.535   6.500
 2529SOL    HW2 8487   0.483   6.662   6.427
 2530SOL     OW 8488   2.618   5.873   6.471
 2530SOL    HW1 8489   2.551   5.915   6.532
 2530SOL    HW2 8490   2.609   5.774   6.474
 2531SOL     OW 8491   6.838   5.558   6.315
 2531SOL    HW1 8492   6.746   5.576   6.350
 2531SOL    HW2 8493   6.890   5.643   6.315
 2532SOL     OW 8494   5.524   6.271   1.451
 2532SOL    HW1 8495   5.453   6.341   1.445
 2532SOL    HW2 8496   5.488   6.190   1.497
 2533SOL     OW 8497   4.557   0.649   4.174
 2533SOL    HW1 8498   4.645   0.606   4.194
 2533SOL    HW2 8499   4.483   0.585   4.196
 2534SOL     OW 8500   4.226   1.282   2.643
 2534SOL    HW1 8501   4.288   1.206   2.664
 2534SOL    HW2 8502   4.277   1.355   2.596
 2535SOL     OW 8503   3.933   2.749   6.368
 2535SOL    HW1 8504   3.959   2.696   6.448
 2535SOL    HW2 8505   3.834   2.761   6.366
 2536SOL     OW 8506   1.608   0.783   0.957
 2536SOL    HW1 8507   1.592   0.707   1.020
 2536SOL    HW2 8508   1.529   0.844   0.958
 2537SOL     OW 8509   3.907   0.190   5.855
 2537SOL    HW1 8510   3.980   0.205   5.788
 2537SOL    HW2 8511   3.938   0.122   5.922
 2538SOL     OW 8512   6.274   3.257   3.631
 2538SOL    HW1 8513   6.281   3.195   3.709
 2538SOL    HW2 8514   6.364   3.268   3.589
 2539SOL     OW 8515   4.917   2.487   5.327
 2539SOL    HW1 8516   4.989   2.436   5.281
 2539SOL    HW2 8517   4.929   2.585   5.310
 2540SOL     OW 8518   2.679   1.619   1.582
 2540SOL    HW1 8519   2.592   1.573   1.600
 2540SOL    HW2 8520   2.746   1.552   1.551
 2541SOL     OW 8521   3.562   6.938   4.418
 2541SOL    HW1 8522   3.629   6.969   4.486
 2541SOL    HW2 8523   3.585   6.978   4.329
 2542SOL     OW 8524   2.064   5.528   6.127
 2542SOL    HW1 8525   2.148   5.489   6.163
 2542SOL    HW2 8526   2.051   5.620   6.164
 2543SOL     OW 8527   0.776   1.201   4.015
 2543SOL    HW1 8528   0.857   1.155   3.980
 2543SOL    HW2 8529   0.796   1.241   4.105
 2544SOL     OW 8530   1.064   5.166   6.809
 2544SOL    HW1 8531   1.099   5.232   6.876
 2544SOL    HW2 8532   0.980   5.202   6.768
 2545SOL     OW 8533   3.125   5.597   3.506
 2545SOL    HW1 8534   3.146   5.568   3.600
 2545SOL    HW2 8535   3.030   5.572   3.485
 2546SOL     OW 8536   6.654   1.486   1.258
 2546SOL    HW1 8537   6.575   1.548   1.258
 2546SOL    HW2 8538   6.624   1.395   1.231
 2547SOL     OW 8539   0.913   3.530   5.264
 2547SOL    HW1 8540   0.958   3.619   5.267
 2547SOL    HW2 8541   0.848   3.527   5.189
 2548SOL     OW 8542   0.932   0.079   4.804
 2548SOL    HW1 8543   0.986   0.006   4.846
 2548SOL    HW2 8544   0.846   0.091   4.854
 2549SOL     OW 8545   6.422   2.983   2.032
 2549SOL    HW1 8546   6.441   2.885   2.040
 2549SOL    HW2 8547   6.506   3.035   2.049
 2550SOL     OW 8548   5.972   5.808   0.206
 2550SOL    HW1 8549   5.938   5.725   0.250
 2550SOL    HW2 8550   6.032   5.857   0.269
 2551SOL     OW 8551   0.963   4.392   6.861
 2551SOL    HW1 8552   0.915   4.365   6.945
 2551SOL    HW2 8553   0.917   4.471   6.821
 2552SOL     OW 8554   1.940   5.279   3.354
 2552SOL    HW1 8555   1.906   5.311   3.442
 2552SOL    HW2 8556   1.885   5.201   3.323
 2553SOL     OW 8557   4.089   3.653   6.569
 2553SOL    HW1 8558   4.058   3.747   6.584
 2553SOL    HW2 8559   4.113   3.641   6.472
 2554SOL     OW 8560   1.855   1.358   0.376
 2554SOL    HW1 8561   1.843   1.311   0.464
 2554SOL    HW2 8562   1.932   1.421   0.383
 2555SOL     OW 8563   6.197   0.824   6.898
 2555SOL    HW1 8564   6.292   0.855   6.887
 2555SOL    HW2 8565   6.146   0.845   6.814
 2556SOL     OW 8566   3.669   5.032   0.922
 2556SOL    HW1 8567   3.583   5.022   0.972
 2556SOL    HW2 8568   3.746   5.020   0.984
 2557SOL     OW 8569   1.995   4.462   6.750
 2557SOL    HW1 8570   1.966   4.405   6.827
 2557SOL    HW2 8571   1.916   4.511   6.714
 2558SOL     OW 8572   3.999   0.651   5.604
 2558SOL    HW1 8573   4.047   0.583   5.549
 2558SOL    HW2 8574   3.903   0.624   5.615
 2559SOL     OW 8575   0.294   5.090   4.915
 2559SOL    HW1 8576   0.387   5.078   4.881
 2559SOL    HW2 8577   0.245   5.155   4.856
 2560SOL     OW 8578   6.274   1.309   6.934
 2560SOL    HW1 8579   6.190   1.360   6.952
 2560SOL    HW2 8580   6.298   1.254   7.014
 2561SOL     OW 8581   2.918   5.312   5.044
 2561SOL    HW1 8582   2.981   5.360   5.105
 2561SOL    HW2 8583   2.866   5.379   4.990
 2562SOL     OW 8584   2.729   4.021   6.734
 2562SOL    HW1 8585   2.703   3.958   6.660
 2562SOL    HW2 8586   2.802   3.981   6.788
 2563SOL     OW 8587   2.038   0.998   0.691
 2563SOL    HW1 8588   2.058   0.909   0.650
 2563SOL    HW2 8589   1.988   0.984   0.777
 2564SOL     OW 8590   1.698   6.546   2.111
 2564SOL    HW1 8591   1.635   6.612   2.152
 2564SOL    HW2 8592   1.685   6.544   2.012
 2565SOL     OW 8593   1.109   0.863   1.673
 2565SOL    HW1 8594   1.117   0.955   1.709
 2565SOL    HW2 8595   1.171   0.802   1.723
 2566SOL     OW 8596   2.190   6.752   5.974
 2566SOL    HW1 8597   2.164   6.681   5.910
 2566SOL    HW2 8598   2.208   6.712   6.064
 2567SOL     OW 8599   0.843   0.276   0.681
 2567SOL    HW1 8600   0.920   0.318   0.729
 2567SOL    HW2 8601   0.859   0.279   0.583
 2568SOL     OW 8602   5.316   3.843   0.092
 2568SOL    HW1 8603   5.245   3.784   0.129
 2568SOL    HW2 8604   5.299   3.938   0.119
 2569SOL     OW 8605   2.845   0.604   2.711
 2569SOL    HW1 8606   2.843   0.661   2.794
 2569SOL    HW2 8607   2.780   0.640   2.645
 2570SOL     OW 8608   5.480   2.662   5.941
 2570SOL    HW1 8609   5.383   2.649   5.964
 2570SOL    HW2 8610   5.536   2.596   5.991
 2571SOL     OW 8611   1.090   3.940   4.606
 2571SOL    HW1 8612   1.163   3.872   4.594
 2571SOL    HW2 8613   1.004   3.894   4.627
 2572SOL     OW 8614   1.220   4.883   3.761
 2572SOL    HW1 8615   1.284   4.810   3.738
 2572SOL    HW2 8616   1.259   4.972   3.736
 2573SOL     OW 8617   1.190   0.177   0.752
 2573SOL    HW1 8618   1.145   0.239   0.816
 2573SOL    HW2 8619   1.213   0.092   0.798
 2574SOL     OW 8620   5.885   3.592   0.525
 2574SOL    HW1 8621   5.852   3.499   0.542
 2574SOL    HW2 8622   5.816   3.644   0.475
 2575SOL     OW 8623   0.261   5.969   6.158
 2575SOL    HW1 8624   0.323   5.896   6.187
 2575SOL    HW2 8625   0.169   5.951   6.193
 2576SOL     OW 8626   4.003   5.649   4.127
 2576SOL    HW1 8627   4.063   5.589   4.180
 2576SOL    HW2 8628   4.002   5.739   4.169
 2577SOL     OW 8629   2.355   4.372   2.155
 2577SOL    HW1 8630   2.420   4.449   2.152
 2577SOL    HW2 8631   2.302   4.377   2.239
 2578SOL     OW 8632   4.057   2.076   2.981
 2578SOL    HW1 8633   4.015   2.101   3.068
 2578SOL    HW2 8634   3.997   2.103   2.906
 2579SOL     OW 8635   0.906   6.370   3.296
 2579SOL    HW1 8636   0.974   6.363   3.223
 2579SOL    HW2 8637   0.817   6.394   3.257
 2580SOL     OW 8638   2.173   2.088   6.025
 2580SOL    HW1 8639   2.130   1.998   6.022
 2580SOL    HW2 8640   2.269   2.078   6.052
 2581SOL     OW 8641   3.287   0.781   5.525
 2581SOL    HW1 8642   3.212   0.740   5.473
 2581SOL    HW2 8643   3.263   0.782   5.622
 2582SOL     OW 8644   6.449   3.368   1.668
 2582SOL    HW1 8645   6.514   3.358   1.593
 2582SOL    HW2 8646   6.494   3.415   1.744
 2583SOL     OW 8647   5.866   0.252   0.951
 2583SOL    HW1 8648   5.846   0.321   0.882
 2583SOL    HW2 8649   5.785   0.238   1.009
 2584SOL     OW 8650   3.844   4.433   6.356
 2584SOL    HW1 8651   3.752   4.468   6.373
 2584SOL    HW2 8652   3.848   4.392   6.265
 2585SOL     OW 8653   3.297   4.859   6.618
 2585SOL    HW1 8654   3.285   4.797   6.695
 2585SOL    HW2 8655   3.346   4.941   6.647
 2586SOL     OW 8656   2.909   0.855   3.768
 2586SOL    HW1 8657   2.946   0.946   3.787
 2586SOL    HW2 8658   2.871   0.816   3.852
 2587SOL     OW 8659   6.704   0.932   4.173
 2587SOL    HW1 8660   6.785   0.969   4.218
 2587SOL    HW2 8661   6.716   0.835   4.154
 2588SOL     OW 8662   4.612   0.724   6.311
 2588SOL    HW1 8663   4.540   0.793   6.309
 2588SOL    HW2 8664   4.694   0.760   6.267
 2589SOL     OW 8665   2.276   6.682   0.337
 2589SOL    HW1 8666   2.369   6.663   0.306
 2589SOL    HW2 8667   2.279   6.728   0.426
 2590SOL     OW 8668   2.642   5.947   0.402
 2590SOL    HW1 8669   2.679   6.023   0.349
 2590SOL    HW2 8670   2.692   5.864   0.381
 2591SOL     OW 8671   5.969   5.190   3.533
 2591SOL    HW1 8672   5.875   5.185   3.500
 2591SOL    HW2 8673   5.993   5.284   3.555
 2592SOL     OW 8674   2.688   4.330   1.022
 2592SOL    HW1 8675   2.728   4.419   1.045
 2592SOL    HW2 8676   2.728   4.260   1.081
 2593SOL     OW 8677   3.598   4.163   1.061
 2593SOL    HW1 8678   3.576   4.232   1.129
 2593SOL    HW2 8679   3.575   4.197   0.970
 2594SOL     OW 8680   2.173   3.094   4.563
 2594SOL    HW1 8681   2.189   3.144   4.648
 2594SOL    HW2 8682   2.230   3.012   4.562
 2595SOL     OW 8683   2.239   1.510   2.890
 2595SOL    HW1 8684   2.145   1.508   2.854
 2595SOL    HW2 8685   2.298   1.454   2.832
 2596SOL     OW 8686   1.190   1.571   0.373
 2596SOL    HW1 8687   1.254   1.508   0.330
 2596SOL    HW2 8688   1.180   1.653   0.316
 2597SOL     OW 8689   6.620   6.680   0.156
 2597SOL    HW1 8690   6.694   6.734   0.197
 2597SOL    HW2 8691   6.559   6.739   0.104
 2598SOL     OW 8692   5.537   2.374   2.358
 2598SOL    HW1 8693   5.513   2.461   2.400
 2598SOL    HW2 8694   5.500   2.371   2.265
 2599SOL     OW 8695   2.744   5.616   2.246
 2599SOL    HW1 8696   2.816   5.557   2.283
 2599SOL    HW2 8697   2.676   5.635   2.318
 2600SOL     OW 8698   5.901   3.526   4.253
 2600SOL    HW1 8699   5.967   3.451   4.252
 2600SOL    HW2 8700   5.938   3.603   4.202
 2601SOL     OW 8701   6.715   1.244   3.740
 2601SOL    HW1 8702   6.762   1.328   3.767
 2601SOL    HW2 8703   6.616   1.261   3.737
 2602SOL     OW 8704   0.844   4.612   2.505
 2602SOL    HW1 8705   0.793   4.596   2.420
 2602SOL    HW2 8706   0.940   4.586   2.492
 2603SOL     OW 8707   2.724   6.259   2.725
 2603SOL    HW1 8708   2.661   6.327   2.762
 2603SOL    HW2 8709   2.771   6.297   2.645
 2604SOL     OW 8710   4.601   2.623   3.518
 2604SOL    HW1 8711   4.604   2.593   3.614
 2604SOL    HW2 8712   4.523   2.581   3.473
 2605SOL     OW 8713   1.508   3.789   1.983
 2605SOL    HW1 8714   1.497   3.853   1.907
 2605SOL    HW2 8715   1.600   3.750   1.981
 2606SOL     OW 8716   4.790   4.002   1.236
 2606SOL    HW1 8717   4.787   4.041   1.144
 2606SOL    HW2 8718   4.779   4.075   1.304
 2607SOL     OW 8719   2.541   2.431   1.380
 2607SOL    HW1 8720   2.524   2.434   1.282
 2607SOL    HW2 8721   2.640   2.423   1.397
 2608SOL     OW 8722   2.961   4.853   5.749
 2608SOL    HW1 8723   3.011   4.768   5.765
 2608SOL    HW2 8724   3.026   4.928   5.735
 2609SOL     OW 8725   0.661   2.474   0.636
 2609SOL    HW1 8726   0.610   2.419   0.570
 2609SOL    HW2 8727   0.722   2.415   0.688
 2610SOL     OW 8728   1.618   3.759   4.953
 2610SOL    HW1 8729   1.709   3.771   4.915
 2610SOL    HW2 8730   1.606   3.665   4.983
 2611SOL     OW 8731   4.876   0.075   5.937
 2611SOL    HW1 8732   4.809   0.021   5.989
 2611SOL    HW2 8733   4.936   0.013   5.887
 2612SOL     OW 8734   6.646   0.051   6.817
 2612SOL    HW1 8735   6.588   0.129   6.840
 2612SOL    HW2 8736   6.636   0.030   6.720
 2613SOL     OW 8737   1.080   6.511   6.754
 2613SOL    HW1 8738   0.981   6.500   6.761
 2613SOL    HW2 8739   1.122   6.500   6.844
 2614SOL     OW 8740   6.111   2.117   0.132
 2614SOL    HW1 8741   6.018   2.080   0.140
 2614SOL    HW2 8742   6.170   2.049   0.089
 2615SOL     OW 8743   0.264   3.332   6.842
 2615SOL    HW1 8744   0.248   3.295   6.933
 2615SOL    HW2 8745   0.322   3.414   6.848
 2616SOL     OW 8746   1.179   1.033   5.342
 2616SOL    HW1 8747   1.267   1.078   5.359
 2616SOL    HW2 8748   1.191   0.961   5.274
 2617SOL     OW 8749   5.116   0.392   1.557
 2617SOL    HW1 8750   5.075   0.311   1.597
 2617SOL    HW2 8751   5.053   0.432   1.491
 2618SOL     OW 8752   1.192   6.608   6.231
 2618SOL    HW1 8753   1.195   6.707   6.214
 2618SOL    HW2 8754   1.263   6.584   6.298
 2619SOL     OW 8755   4.715   0.826   2.868
 2619SOL    HW1 8756   4.735   0.899   2.802
 2619SOL    HW2 8757   4.798   0.806   2.921
 2620SOL     OW 8758   6.220   1.805   1.508
 2620SOL    HW1 8759   6.166   1.878   1.550
 2620SOL    HW2 8760   6.161   1.725   1.491
 2621SOL     OW 8761   1.968   6.211   1.457
 2621SOL    HW1 8762   2.025   6.133   1.431
 2621SOL    HW2 8763   2.027   6.284   1.493
 2622SOL     OW 8764   2.344   3.840   6.862
 2622SOL    HW1 8765   2.437   3.821   6.895
 2622SOL    HW2 8766   2.334   3.804   6.769
 2623SOL     OW 8767   0.067   6.844   3.615
 2623SOL    HW1 8768   0.033   6.909   3.546
 2623SOL    HW2 8769   0.127   6.778   3.570
 2624SOL     OW 8770   0.894   1.226   5.320
 2624SOL    HW1 8771   0.946   1.199   5.239
 2624SOL    HW2 8772   0.956   1.269   5.386
 2625SOL     OW 8773   2.566   5.175   6.329
 2625SOL    HW1 8774   2.554   5.237   6.251
 2625SOL    HW2 8775   2.493   5.191   6.396
 2626SOL     OW 8776   6.616   6.702   6.754
 2626SOL    HW1 8777   6.667   6.747   6.681
 2626SOL    HW2 8778   6.559   6.769   6.801
 2627SOL     OW 8779   2.144   0.434   5.861
 2627SOL    HW1 8780   2.147   0.372   5.782
 2627SOL    HW2 8781   2.079   0.399   5.929
 2628SOL     OW 8782   0.105   4.580   1.472
 2628SOL    HW1 8783   0.168   4.525   1.527
 2628SOL    HW2 8784   0.145   4.596   1.381
 2629SOL     OW 8785   3.270   4.116   2.596
 2629SOL    HW1 8786   3.361   4.124   2.556
 2629SOL    HW2 8787   3.213   4.059   2.538
 2630SOL     OW 8788   3.700   0.475   4.262
 2630SOL    HW1 8789   3.741   0.561   4.291
 2630SOL    HW2 8790   3.771   0.405   4.255
 2631SOL     OW 8791   5.554   6.994   0.199
 2631SOL    HW1 8792   5.569   6.921   0.265
 2631SOL    HW2 8793   5.522   6.955   0.112
 2632SOL     OW 8794   5.998   5.058   1.973
 2632SOL    HW1 8795   6.022   5.017   1.885
 2632SOL    HW2 8796   5.919   5.011   2.012
 2633SOL     OW 8797   0.334   3.354   6.021
 2633SOL    HW1 8798   0.364   3.444   5.987
 2633SOL    HW2 8799   0.365   3.342   6.115
 2634SOL     OW 8800   1.035   1.393   5.493
 2634SOL    HW1 8801   1.095   1.360   5.566
 2634SOL    HW2 8802   1.022   1.492   5.503
 2635SOL     OW 8803   4.242   5.014   3.425
 2635SOL    HW1 8804   4.209   4.987   3.515
 2635SOL    HW2 8805   4.180   5.081   3.385
 2636SOL     OW 8806   3.292   6.780   6.061
 2636SOL    HW1 8807   3.240   6.806   6.143
 2636SOL    HW2 8808   3.245   6.814   5.980
 2637SOL     OW 8809   0.499   0.693   3.120
 2637SOL    HW1 8810   0.424   0.645   3.075
 2637SOL    HW2 8811   0.573   0.709   3.055
 2638SOL     OW 8812   0.622   6.739   4.394
 2638SOL    HW1 8813   0.601   6.764   4.488
 2638SOL    HW2 8814   0.540   6.753   4.337
 2639SOL     OW 8815   4.492   4.960   4.810
 2639SOL    HW1 8816   4.496   5.039   4.750
 2639SOL    HW2 8817   4.406   4.962   4.862
 2640SOL     OW 8818   2.480   1.176   3.895
 2640SOL    HW1 8819   2.394   1.228   3.894
 2640SOL    HW2 8820   2.557   1.238   3.909
 2641SOL     OW 8821   5.345   2.085   0.125
 2641SOL    HW1 8822   5.269   2.148   0.142
 2641SOL    HW2 8823   5.388   2.060   0.212
 2642SOL     OW 8824   0.178   0.111   2.620
 2642SOL    HW1 8825   0.125   0.077   2.543
 2642SOL    HW2 8826   0.262   0.155   2.587
 2643SOL     OW 8827   1.427   4.704   4.504
 2643SOL    HW1 8828   1.439   4.797   4.539
 2643SOL    HW2 8829   1.441   4.638   4.578
 2644SOL     OW 8830   5.512   5.598   4.680
 2644SOL    HW1 8831   5.586   5.658   4.711
 2644SOL    HW2 8832   5.534   5.503   4.701
 2645SOL     OW 8833   4.937   5.964   3.173
 2645SOL    HW1 8834   4.990   6.023   3.112
 2645SOL    HW2 8835   4.860   6.016   3.211
 2646SOL     OW 8836   0.721   2.283   6.438
 2646SOL    HW1 8837   0.687   2.331   6.357
 2646SOL    HW2 8838   0.656   2.293   6.513
 2647SOL     OW 8839   4.605   6.799   2.659
 2647SOL    HW1 8840   4.620   6.892   2.626
 2647SOL    HW2 8841   4.570   6.802   2.753
 2648SOL     OW 8842   1.082   6.897   6.283
 2648SOL    HW1 8843   1.176   6.929   6.295
 2648SOL    HW2 8844   1.019   6.955   6.335
 2649SOL     OW 8845   5.227   1.583   3.301
 2649SOL    HW1 8846   5.157   1.622   3.362
 2649SOL    HW2 8847   5.183   1.524   3.234
 2650SOL     OW 8848   2.362   6.820   3.726
 2650SOL    HW1 8849   2.407   6.734   3.704
 2650SOL    HW2 8850   2.325   6.816   3.819
 2651SOL     OW 8851   4.047   1.795   4.199
 2651SOL    HW1 8852   4.019   1.819   4.292
 2651SOL    HW2 8853   3.967   1.796   4.139
 2652SOL     OW 8854   5.414   3.981   5.372
 2652SOL    HW1 8855   5.378   4.072   5.349
 2652SOL    HW2 8856   5.338   3.920   5.397
 2653SOL     OW 8857   2.090   6.450   6.976
 2653SOL    HW1 8858   2.061   6.354   6.975
 2653SOL    HW2 8859   2.140   6.469   0.036
 2654SOL     OW 8860   0.169   1.173   0.710
 2654SOL    HW1 8861   0.191   1.216   0.797
 2654SOL    HW2 8862   0.071   1.179   0.694
 2655SOL     OW 8863   5.647   6.216   3.030
 2655SOL    HW1 8864   5.638   6.239   2.933
 2655SOL    HW2 8865   5.744   6.211   3.054
 2656SOL     OW 8866   4.754   5.800   4.046
 2656SOL    HW1 8867   4.789   5.785   3.954
 2656SOL    HW2 8868   4.734   5.713   4.090
 2657SOL     OW 8869   1.137   3.489   6.853
 2657SOL    HW1 8870   1.105   3.411   6.907
 2657SOL    HW2 8871   1.228   3.468   6.817
 2658SOL     OW 8872   3.789   5.050   0.086
 2658SOL    HW1 8873   3.828   4.968   0.128
 2658SOL    HW2 8874   3.797   5.127   0.149
 2659SOL     OW 8875   0.208   2.115   5.386
 2659SOL    HW1 8876   0.257   2.028   5.377
 2659SOL    HW2 8877   0.258   2.174   5.449
 2660SOL     OW 8878   0.280   1.244   0.965
 2660SOL    HW1 8879   0.357   1.254   0.902
 2660SOL    HW2 8880   0.311   1.259   1.059
 2661SOL     OW 8881   1.745   1.397   1.342
 2661SOL    HW1 8882   1.732   1.496   1.343
 2661SOL    HW2 8883   1.687   1.357   1.271
 2662SOL     OW 8884   2.836   1.967   2.243
 2662SOL    HW1 8885   2.909   1.900   2.240
 2662SOL    HW2 8886   2.834   2.017   2.156
 2663SOL     OW 8887   3.687   6.941   0.857
 2663SOL    HW1 8888   3.743   6.920   0.937
 2663SOL    HW2 8889   3.629   7.020   0.878
 2664SOL     OW 8890   4.943   3.536   5.377
 2664SOL    HW1 8891   4.905   3.448   5.347
 2664SOL    HW2 8892   5.039   3.524   5.402
 2665SOL     OW 8893   1.567   3.259   3.851
 2665SOL    HW1 8894   1.555   3.226   3.758
 2665SOL    HW2 8895   1.600   3.354   3.849
 2666SOL     OW 8896   2.202   4.255   1.913
 2666SOL    HW1 8897   2.214   4.196   1.993
 2666SOL    HW2 8898   2.258   4.337   1.923
 2667SOL     OW 8899   6.507   2.969   5.355
 2667SOL    HW1 8900   6.491   2.897   5.287
 2667SOL    HW2 8901   6.420   3.002   5.390
 2668SOL     OW 8902   6.233   0.602   3.544
 2668SOL    HW1 8903   6.285   0.611   3.459
 2668SOL    HW2 8904   6.289   0.555   3.612
 2669SOL     OW 8905   2.563   0.947   0.794
 2669SOL    HW1 8906   2.618   0.951   0.877
 2669SOL    HW2 8907   2.466   0.953   0.818
 2670SOL     OW 8908   0.275   0.083   6.988
 2670SOL    HW1 8909   0.363   0.041   7.012
 2670SOL    HW2 8910   0.274   0.178   7.020
 2671SOL     OW 8911   5.185   4.730   6.180
 2671SOL    HW1 8912   5.092   4.736   6.145
 2671SOL    HW2 8913   5.203   4.808   6.240
 2672SOL     OW 8914   2.595   1.237   2.031
 2672SOL    HW1 8915   2.603   1.199   2.123
 2672SOL    HW2 8916   2.504   1.218   1.995
 2673SOL     OW 8917   3.756   0.109   2.636
 2673SOL    HW1 8918   3.827   0.174   2.663
 2673SOL    HW2 8919   3.752   0.034   2.702
 2674SOL     OW 8920   7.002   5.950   3.139
 2674SOL    HW1 8921   6.916   5.913   3.104
 2674SOL    HW2 8922   7.016   5.919   3.233
 2675SOL     OW 8923   4.902   1.125   4.992
 2675SOL    HW1 8924   4.852   1.098   4.910
 2675SOL    HW2 8925   4.995   1.090   4.988
 2676SOL     OW 8926   4.001   3.889   4.013
 2676SOL    HW1 8927   4.083   3.942   4.035
 2676SOL    HW2 8928   3.921   3.932   4.054
 2677SOL     OW 8929   1.535   5.585   0.871
 2677SOL    HW1 8930   1.476   5.665   0.880
 2677SOL    HW2 8931   1.498   5.523   0.801
 2678SOL     OW 8932   3.479   1.769   2.858
 2678SOL    HW1 8933   3.466   1.739   2.763
 2678SOL    HW2 8934   3.404   1.830   2.884
 2679SOL     OW 8935   1.612   3.594   2.326
 2679SOL    HW1 8936   1.670   3.541   2.265
 2679SOL    HW2 8937   1.596   3.543   2.411
 2680SOL     OW 8938   5.557   2.957   6.975
 2680SOL    HW1 8939   5.536   2.993   0.042
 2680SOL    HW2 8940   5.626   2.885   6.983
 2681SOL     OW 8941   1.855   2.369   3.544
 2681SOL    HW1 8942   1.908   2.293   3.582
 2681SOL    HW2 8943   1.861   2.447   3.606
 2682SOL     OW 8944   3.622   3.713   1.840
 2682SOL    HW1 8945   3.524   3.698   1.854
 2682SOL    HW2 8946   3.670   3.627   1.855
 2683SOL     OW 8947   2.198   3.886   1.433
 2683SOL    HW1 8948   2.172   3.966   1.487
 2683SOL    HW2 8949   2.157   3.892   1.342
 2684SOL     OW 8950   6.483   0.626   3.869
 2684SOL    HW1 8951   6.416   0.694   3.837
 2684SOL    HW2 8952   6.468   0.608   3.966
 2685SOL     OW 8953   0.714   6.357   5.691
 2685SOL    HW1 8954   0.748   6.336   5.599
 2685SOL    HW2 8955   0.653   6.436   5.687
 2686SOL     OW 8956   1.755   0.880   5.542
 2686SOL    HW1 8957   1.854   0.890   5.531
 2686SOL    HW2 8958   1.714   0.850   5.456
 2687SOL     OW 8959   4.319   1.478   1.492
 2687SOL    HW1 8960   4.379   1.551   1.459
 2687SOL    HW2 8961   4.371   1.416   1.550
 2688SOL     OW 8962   4.312   2.707   0.210
 2688SOL    HW1 8963   4.250   2.749   0.144
 2688SOL    HW2 8964   4.273   2.714   0.301
 2689SOL     OW 8965   0.833   3.819   3.023
 2689SOL    HW1 8966   0.769   3.894   3.040
 2689SOL    HW2 8967   0.925   3.848   3.048
 2690SOL     OW 8968   5.392   1.133   5.479
 2690SOL    HW1 8969   5.338   1.050   5.487
 2690SOL    HW2 8970   5.396   1.179   5.568
 2691SOL     OW 8971   0.395   3.760   5.202
 2691SOL    HW1 8972   0.413   3.789   5.296
 2691SOL    HW2 8973   0.340   3.676   5.203
 2692SOL     OW 8974   2.602   5.616   2.003
 2692SOL    HW1 8975   2.658   5.637   2.083
 2692SOL    HW2 8976   2.596   5.696   1.944
 2693SOL     OW 8977   0.888   5.143   2.853
 2693SOL    HW1 8978   0.844   5.233   2.856
 2693SOL    HW2 8979   0.931   5.125   2.942
 2694SOL     OW 8980   2.543   0.364   2.306
 2694SOL    HW1 8981   2.638   0.387   2.288
 2694SOL    HW2 8982   2.506   0.310   2.230
 2695SOL     OW 8983   6.878   4.633   3.729
 2695SOL    HW1 8984   6.845   4.708   3.786
 2695SOL    HW2 8985   6.974   4.616   3.749
 2696SOL     OW 8986   4.466   4.685   6.605
 2696SOL    HW1 8987   4.426   4.692   6.696
 2696SOL    HW2 8988   4.422   4.752   6.544
 2697SOL     OW 8989   3.854   1.792   0.642
 2697SOL    HW1 8990   3.826   1.874   0.692
 2697SOL    HW2 8991   3.784   1.721   0.653
 2698SOL     OW 8992   1.481   5.604   5.863
 2698SOL    HW1 8993   1.523   5.525   5.907
 2698SOL    HW2 8994   1.544   5.681   5.867
 2699SOL     OW 8995   2.818   6.672   2.207
 2699SOL    HW1 8996   2.748   6.713   2.265
 2699SOL    HW2 8997   2.783   6.588   2.165
 2700SOL     OW 8998   4.370   1.968   1.786
 2700SOL    HW1 8999   4.305   1.927   1.850
 2700SOL    HW2 9000   4.359   2.068   1.786
 2701SOL     OW 9001   5.185   4.045   5.002
 2701SOL    HW1 9002   5.194   4.135   4.962
 2701SOL    HW2 9003   5.272   3.995   4.993
 2702SOL     OW 9004   2.549   1.116   4.787
 2702SOL    HW1 9005   2.566   1.181   4.713
 2702SOL    HW2 9006   2.523   1.165   4.870
 2703SOL     OW 9007   2.438   6.540   2.743
 2703SOL    HW1 9008   2.423   6.442   2.757
 2703SOL    HW2 9009   2.536   6.557   2.733
 2704SOL     OW 9010   4.386   0.417   3.841
 2704SOL    HW1 9011   4.378   0.488   3.771
 2704SOL    HW2 9012   4.474   0.424   3.886
 2705SOL     OW 9013   1.384   0.518   5.049
 2705SOL    HW1 9014   1.340   0.511   5.139
 2705SOL    HW2 9015   1.453   0.446   5.040
 2706SOL     OW 9016   7.012   4.389   4.034
 2706SOL    HW1 9017   6.925   4.405   4.080
 2706SOL    HW2 9018   0.015   4.470   3.982
 2707SOL     OW 9019   4.412   1.286   3.413
 2707SOL    HW1 9020   4.500   1.286   3.366
 2707SOL    HW2 9021   4.425   1.262   3.509
 2708SOL     OW 9022   5.053   3.321   6.008
 2708SOL    HW1 9023   5.109   3.245   5.973
 2708SOL    HW2 9024   5.103   3.407   5.997
 2709SOL     OW 9025   4.826   1.689   5.696
 2709SOL    HW1 9026   4.880   1.655   5.619
 2709SOL    HW2 9027   4.766   1.763   5.665
 2710SOL     OW 9028   0.841   2.727   4.153
 2710SOL    HW1 9029   0.813   2.823   4.156
 2710SOL    HW2 9030   0.940   2.722   4.141
 2711SOL     OW 9031   3.801   0.969   2.188
 2711SOL    HW1 9032   3.810   0.948   2.285
 2711SOL    HW2 9033   3.710   1.007   2.170
 2712SOL     OW 9034   5.573   5.881   2.170
 2712SOL    HW1 9035   5.596   5.868   2.266
 2712SOL    HW2 9036   5.655   5.905   2.118
 2713SOL     OW 9037   3.786   5.042   5.579
 2713SOL    HW1 9038   3.804   5.036   5.481
 2713SOL    HW2 9039   3.866   5.080   5.626
 2714SOL     OW 9040   3.193   4.395   6.056
 2714SOL    HW1 9041   3.104   4.350   6.064
 2714SOL    HW2 9042   3.264   4.326   6.039
 2715SOL     OW 9043   4.581   6.590   0.007
 2715SOL    HW1 9044   4.539   6.508   6.992
 2715SOL    HW2 9045   4.678   6.574   0.023
 2716SOL     OW 9046   4.340   0.429   2.857
 2716SOL    HW1 9047   4.387   0.493   2.796
 2716SOL    HW2 9048   4.389   0.424   2.944
 2717SOL     OW 9049   0.916   1.938   2.256
 2717SOL    HW1 9050   0.936   1.855   2.205
 2717SOL    HW2 9051   0.933   1.922   2.353
 2718SOL     OW 9052   6.327   1.567   5.690
 2718SOL    HW1 9053   6.350   1.539   5.596
 2718SOL    HW2 9054   6.388   1.521   5.754
 2719SOL     OW 9055   1.746   4.784   3.779
 2719SOL    HW1 9056   1.761   4.699   3.829
 2719SOL    HW2 9057   1.803   4.784   3.696
 2720SOL     OW 9058   1.793   5.520   6.337
 2720SOL    HW1 9059   1.851   5.567   6.402
 2720SOL    HW2 9060   1.808   5.558   6.245
 2721SOL     OW 9061   2.279   6.602   1.819
 2721SOL    HW1 9062   2.231   6.672   1.766
 2721SOL    HW2 9063   2.345   6.645   1.881
 2722SOL     OW 9064   3.750   4.714   6.752
 2722SOL    HW1 9065   3.735   4.615   6.741
 2722SOL    HW2 9066   3.843   4.730   6.785
 2723SOL     OW 9067   4.221   5.855   6.289
 2723SOL    HW1 9068   4.280   5.875   6.367
 2723SOL    HW2 9069   4.276   5.856   6.205
 2724SOL     OW 9070   6.501   5.705   1.388
 2724SOL    HW1 9071   6.523   5.767   1.463
 2724SOL    HW2 9072   6.532   5.612   1.411
 2725SOL     OW 9073   5.919   4.411   3.468
 2725SOL    HW1 9074   6.016   4.434   3.463
 2725SOL    HW2 9075   5.905   4.319   3.431
 2726SOL     OW 9076   6.183   1.815   2.699
 2726SOL    HW1 9077   6.178   1.898   2.756
 2726SOL    HW2 9078   6.122   1.825   2.621
 2727SOL     OW 9079   1.713   5.520   3.303
 2727SOL    HW1 9080   1.674   5.459   3.372
 2727SOL    HW2 9081   1.760   5.596   3.347
 2728SOL     OW 9082   4.697   5.799   5.936
 2728SOL    HW1 9083   4.608   5.756   5.948
 2728SOL    HW2 9084   4.704   5.836   5.844
 2729SOL     OW 9085   5.885   0.293   0.336
 2729SOL    HW1 9086   5.845   0.251   0.254
 2729SOL    HW2 9087   5.836   0.377   0.357
 2730SOL     OW 9088   1.421   5.883   2.555
 2730SOL    HW1 9089   1.419   5.801   2.498
 2730SOL    HW2 9090   1.372   5.866   2.641
 2731SOL     OW 9091   3.135   4.095   4.758
 2731SOL    HW1 9092   3.073   4.034   4.807
 2731SOL    HW2 9093   3.200   4.136   4.822
 2732SOL     OW 9094   5.057   0.659   1.644
 2732SOL    HW1 9095   5.073   0.565   1.613
 2732SOL    HW2 9096   5.018   0.658   1.736
 2733SOL     OW 9097   0.620   6.463   0.429
 2733SOL    HW1 9098   0.624   6.389   0.361
 2733SOL    HW2 9099   0.597   6.549   0.383
 2734SOL     OW 9100   3.865   6.253   2.446
 2734SOL    HW1 9101   3.902   6.168   2.482
 2734SOL    HW2 9102   3.777   6.273   2.489
 2735SOL     OW 9103   0.789   1.554   2.045
 2735SOL    HW1 9104   0.792   1.457   2.020
 2735SOL    HW2 9105   0.793   1.610   1.963
 2736SOL     OW 9106   5.998   3.974   2.719
 2736SOL    HW1 9107   5.907   3.953   2.755
 2736SOL    HW2 9108   6.014   4.073   2.725
 2737SOL     OW 9109   3.035   0.659   5.439
 2737SOL    HW1 9110   2.983   0.575   5.457
 2737SOL    HW2 9111   3.063   0.660   5.343
 2738SOL     OW 9112   5.026   5.581   1.281
 2738SOL    HW1 9113   4.977   5.538   1.357
 2738SOL    HW2 9114   4.977   5.563   1.196
 2739SOL     OW 9115   6.666   5.635   1.665
 2739SOL    HW1 9116   6.628   5.650   1.756
 2739SOL    HW2 9117   6.706   5.543   1.661
 2740SOL     OW 9118   7.014   5.102   3.337
 2740SOL    HW1 9119   0.002   5.173   3.407
 2740SOL    HW2 9120   6.963   5.025   3.375
 2741SOL     OW 9121   1.029   6.572   5.989
 2741SOL    HW1 9122   1.089   6.597   6.065
 2741SOL    HW2 9123   1.044   6.634   5.912
 2742SOL     OW 9124   3.271   5.672   3.106
 2742SOL    HW1 9125   3.277   5.671   3.206
 2742SOL    HW2 9126   3.223   5.755   3.077
 2743SOL     OW 9127   4.716   1.777   2.749
 2743SOL    HW1 9128   4.698   1.866   2.791
 2743SOL    HW2 9129   4.777   1.789   2.671
 2744SOL     OW 9130   3.632   4.108   2.497
 2744SOL    HW1 9131   3.689   4.026   2.500
 2744SOL    HW2 9132   3.618   4.142   2.590
 2745SOL     OW 9133   0.464   5.689   0.266
 2745SOL    HW1 9134   0.396   5.674   0.194
 2745SOL    HW2 9135   0.417   5.709   0.352
 2746SOL     OW 9136   1.728   1.027   3.586
 2746SOL    HW1 9137   1.757   0.934   3.562
 2746SOL    HW2 9138   1.786   1.093   3.538
 2747SOL     OW 9139   4.236   4.538   0.514
 2747SOL    HW1 9140   4.229   4.439   0.527
 2747SOL    HW2 9141   4.281   4.579   0.593
 2748SOL     OW 9142   3.849   0.276   0.684
 2748SOL    HW1 9143   3.880   0.237   0.771
 2748SOL    HW2 9144   3.894   0.228   0.609
 2749SOL     OW 9145   3.397   1.585   0.784
 2749SOL    HW1 9146   3.337   1.600   0.863
 2749SOL    HW2 9147   3.381   1.654   0.715
 2750SOL     OW 9148   3.089   6.084   3.273
 2750SOL    HW1 9149   3.009   6.141   3.293
 2750SOL    HW2 9150   3.087   6.057   3.177
 2751SOL     OW 9151   6.247   4.733   1.014
 2751SOL    HW1 9152   6.153   4.724   0.979
 2751SOL    HW2 9153   6.271   4.830   1.016
 2752SOL     OW 9154   3.921   5.727   6.574
 2752SOL    HW1 9155   3.824   5.737   6.554
 2752SOL    HW2 9156   3.947   5.793   6.645
 2753SOL     OW 9157   5.065   5.821   5.534
 2753SOL    HW1 9158   5.087   5.900   5.591
 2753SOL    HW2 9159   5.095   5.839   5.440
 2754SOL     OW 9160   1.457   0.265   5.801
 2754SOL    HW1 9161   1.453   0.215   5.887
 2754SOL    HW2 9162   1.402   0.348   5.809
 2755SOL     OW 9163   3.761   0.167   2.360
 2755SOL    HW1 9164   3.765   0.146   2.458
 2755SOL    HW2 9165   3.712   0.253   2.346
 2756SOL     OW 9166   4.516   6.245   0.364
 2756SOL    HW1 9167   4.508   6.296   0.450
 2756SOL    HW2 9168   4.475   6.154   0.375
 2757SOL     OW 9169   0.683   5.073   0.796
 2757SOL    HW1 9170   0.755   5.003   0.790
 2757SOL    HW2 9171   0.696   5.127   0.879
 2758SOL     OW 9172   5.048   0.935   5.274
 2758SOL    HW1 9173   5.118   0.967   5.210
 2758SOL    HW2 9174   5.091   0.907   5.359
 2759SOL     OW 9175   4.789   4.875   4.097
 2759SOL    HW1 9176   4.693   4.898   4.115
 2759SOL    HW2 9177   4.848   4.946   4.137
 2760SOL     OW 9178   1.397   6.471   3.685
 2760SOL    HW1 9179   1.456   6.421   3.748
 2760SOL    HW2 9180   1.410   6.436   3.592
 2761SOL     OW 9181   2.443   4.992   4.145
 2761SOL    HW1 9182   2.477   5.041   4.225
 2761SOL    HW2 9183   2.391   4.912   4.175
 2762SOL     OW 9184   1.871   0.765   5.192
 2762SOL    HW1 9185   1.961   0.752   5.151
 2762SOL    HW2 9186   1.834   0.676   5.219
 2763SOL     OW 9187   4.723   1.228   2.252
 2763SOL    HW1 9188   4.686   1.289   2.322
 2763SOL    HW2 9189   4.663   1.149   2.242
 2764SOL     OW 9190   6.293   0.704   1.501
 2764SOL    HW1 9191   6.389   0.708   1.529
 2764SOL    HW2 9192   6.286   0.724   1.404
 2765SOL     OW 9193   5.102   1.945   2.717
 2765SOL    HW1 9194   5.062   2.004   2.646
 2765SOL    HW2 9195   5.090   1.988   2.806
 2766SOL     OW 9196   6.103   0.110   2.494
 2766SOL    HW1 9197   6.100   0.191   2.552
 2766SOL    HW2 9198   6.033   0.045   2.522
 2767SOL     OW 9199   6.027   4.534   6.076
 2767SOL    HW1 9200   6.085   4.462   6.115
 2767SOL    HW2 9201   6.013   4.606   6.144
 2768SOL     OW 9202   6.227   1.671   6.784
 2768SOL    HW1 9203   6.272   1.640   6.868
 2768SOL    HW2 9204   6.227   1.597   6.718
 2769SOL     OW 9205   0.917   4.304   1.475
 2769SOL    HW1 9206   1.016   4.321   1.474
 2769SOL    HW2 9207   0.869   4.391   1.484
 2770SOL     OW 9208   6.352   6.086   2.055
 2770SOL    HW1 9209   6.410   6.012   2.022
 2770SOL    HW2 9210   6.336   6.151   1.981
 2771SOL     OW 9211   4.921   1.234   1.100
 2771SOL    HW1 9212   4.925   1.181   1.015
 2771SOL    HW2 9213   4.905   1.331   1.077
 2772SOL     OW 9214   3.474   2.404   6.781
 2772SOL    HW1 9215   3.384   2.438   6.753
 2772SOL    HW2 9216   3.512   2.465   6.851
 2773SOL     OW 9217   3.166   4.661   0.865
 2773SOL    HW1 9218   3.158   4.738   0.928
 2773SOL    HW2 9219   3.081   4.652   0.812
 2774SOL     OW 9220   5.517   3.235   2.142
 2774SOL    HW1 9221   5.592   3.260   2.203
 2774SOL    HW2 9222   5.430   3.244   2.191
 2775SOL     OW 9223   6.645   0.046   1.916
 2775SOL    HW1 9224   6.670   0.124   1.858
 2775SOL    HW2 9225   6.663   6.984   1.866
 2776SOL     OW 9226   3.219   6.528   6.314
 2776SOL    HW1 9227   3.313   6.562   6.307
 2776SOL    HW2 9228   3.205   6.454   6.249
 2777SOL     OW 9229   2.485   2.012   3.875
 2777SOL    HW1 9230   2.470   1.988   3.779
 2777SOL    HW2 9231   2.405   1.985   3.929
 2778SOL     OW 9232   2.455   2.479   4.310
 2778SOL    HW1 9233   2.378   2.423   4.339
 2778SOL    HW2 9234   2.541   2.437   4.339
 2779SOL     OW 9235   6.230   1.577   0.672
 2779SOL    HW1 9236   6.219   1.651   0.606
 2779SOL    HW2 9237   6.216   1.612   0.764
 2780SOL     OW 9238   3.456   6.049   6.840
 2780SOL    HW1 9239   3.423   5.956   6.830
 2780SOL    HW2 9240   3.380   6.113   6.831
 2781SOL     OW 9241   4.733   4.600   7.005
 2781SOL    HW1 9242   4.704   4.682   6.956
 2781SOL    HW2 9243   4.671   4.525   6.984
 2782SOL     OW 9244   3.139   1.435   6.135
 2782SOL    HW1 9245   3.070   1.507   6.126
 2782SOL    HW2 9246   3.102   1.361   6.192
 2783SOL     OW 9247   0.255   4.154   5.741
 2783SOL    HW1 9248   0.220   4.141   5.834
 2783SOL    HW2 9249   0.261   4.252   5.722
 2784SOL     OW 9250   2.282   2.235   1.832
 2784SOL    HW1 9251   2.369   2.210   1.789
 2784SOL    HW2 9252   2.288   2.329   1.865
 2785SOL     OW 9253   5.872   1.182   1.343
 2785SOL    HW1 9254   5.827   1.104   1.386
 2785SOL    HW2 9255   5.967   1.159   1.324
 2786SOL     OW 9256   3.197   0.346   0.240
 2786SOL    HW1 9257   3.282   0.320   0.285
 2786SOL    HW2 9258   3.122   0.288   0.274
 2787SOL     OW 9259   1.702   3.285   5.928
 2787SOL    HW1 9260   1.743   3.212   5.873
 2787SOL    HW2 9261   1.735   3.277   6.023
 2788SOL     OW 9262   0.395   3.761   6.832
 2788SOL    HW1 9263   0.465   3.765   6.761
 2788SOL    HW2 9264   0.431   3.798   6.917
 2789SOL     OW 9265   0.142   2.718   4.301
 2789SOL    HW1 9266   0.142   2.813   4.331
 2789SOL    HW2 9267   0.055   2.697   4.255
 2790SOL     OW 9268   3.208   6.123   4.238
 2790SOL    HW1 9269   3.252   6.052   4.184
 2790SOL    HW2 9270   3.212   6.098   4.335
 2791SOL     OW 9271   2.113   3.109   2.634
 2791SOL    HW1 9272   2.022   3.101   2.596
 2791SOL    HW2 9273   2.107   3.116   2.734
 2792SOL     OW 9274   1.014   1.988   5.062
 2792SOL    HW1 9275   1.087   1.979   5.130
 2792SOL    HW2 9276   0.961   1.904   5.059
 2793SOL     OW 9277   5.181   0.885   4.140
 2793SOL    HW1 9278   5.088   0.915   4.117
 2793SOL    HW2 9279   5.177   0.796   4.186
 2794SOL     OW 9280   0.580   1.341   1.678
 2794SOL    HW1 9281   0.533   1.422   1.713
 2794SOL    HW2 9282   0.679   1.356   1.679
 2795SOL     OW 9283   1.652   4.484   1.503
 2795SOL    HW1 9284   1.728   4.475   1.438
 2795SOL    HW2 9285   1.683   4.455   1.594
 2796SOL     OW 9286   5.588   4.053   2.043
 2796SOL    HW1 9287   5.569   3.969   2.093
 2796SOL    HW2 9288   5.577   4.036   1.945
 2797SOL     OW 9289   4.496   4.483   4.766
 2797SOL    HW1 9290   4.520   4.573   4.729
 2797SOL    HW2 9291   4.441   4.495   4.849
 2798SOL     OW 9292   1.857   3.491   3.509
 2798SOL    HW1 9293   1.908   3.519   3.590
 2798SOL    HW2 9294   1.897   3.533   3.428
 2799SOL     OW 9295   6.298   5.505   5.847
 2799SOL    HW1 9296   6.287   5.429   5.783
 2799SOL    HW2 9297   6.208   5.531   5.883
 2800SOL     OW 9298   2.691   2.058   6.993
 2800SOL    HW1 9299   2.682   2.005   6.909
 2800SOL    HW2 9300   2.783   2.048   0.006
 2801SOL     OW 9301   4.523   5.635   2.558
 2801SOL    HW1 9302   4.481   5.629   2.468
 2801SOL    HW2 9303   4.552   5.729   2.576
 2802SOL     OW 9304   6.216   0.423   6.141
 2802SOL    HW1 9305   6.284   0.469   6.198
 2802SOL    HW2 9306   6.193   0.481   6.063
 2803SOL     OW 9307   2.449   5.703   5.684
 2803SOL    HW1 9308   2.361   5.708   5.730
 2803SOL    HW2 9309   2.459   5.780   5.620
 2804SOL     OW 9310   0.220   4.781   2.281
 2804SOL    HW1 9311   0.304   4.739   2.316
 2804SOL    HW2 9312   0.181   4.722   2.209
 2805SOL     OW 9313   5.115   3.759   6.523
 2805SOL    HW1 9314   5.105   3.660   6.511
 2805SOL    HW2 9315   5.038   3.805   6.478
 2806SOL     OW 9316   6.710   5.528   2.880
 2806SOL    HW1 9317   6.690   5.496   2.787
 2806SOL    HW2 9318   6.643   5.490   2.943
 2807SOL     OW 9319   4.457   4.637   4.144
 2807SOL    HW1 9320   4.435   4.671   4.236
 2807SOL    HW2 9321   4.392   4.674   4.079
 2808SOL     OW 9322   4.239   5.769   3.976
 2808SOL    HW1 9323   4.170   5.834   4.008
 2808SOL    HW2 9324   4.294   5.812   3.904
 2809SOL     OW 9325   5.314   2.904   0.345
 2809SOL    HW1 9326   5.312   2.878   0.442
 2809SOL    HW2 9327   5.223   2.892   0.306
 2810SOL     OW 9328   1.608   0.466   6.045
 2810SOL    HW1 9329   1.532   0.504   5.991
 2810SOL    HW2 9330   1.693   0.510   6.017
 2811SOL     OW 9331   7.005   0.941   3.953
 2811SOL    HW1 9332   0.067   0.889   3.954
 2811SOL    HW2 9333   6.952   0.915   3.873
 2812SOL     OW 9334   4.859   3.858   2.699
 2812SOL    HW1 9335   4.785   3.879   2.635
 2812SOL    HW2 9336   4.885   3.940   2.749
 2813SOL     OW 9337   6.145   1.908   6.093
 2813SOL    HW1 9338   6.098   1.825   6.064
 2813SOL    HW2 9339   6.210   1.937   6.023
 2814SOL     OW 9340   4.877   4.361   4.943
 2814SOL    HW1 9341   4.899   4.372   4.846
 2814SOL    HW2 9342   4.909   4.441   4.994
 2815SOL     OW 9343   6.759   1.665   4.844
 2815SOL    HW1 9344   6.794   1.597   4.909
 2815SOL    HW2 9345   6.664   1.686   4.867
 2816SOL     OW 9346   5.917   6.415   3.019
 2816SOL    HW1 9347   5.924   6.327   3.067
 2816SOL    HW2 9348   5.960   6.406   2.929
 2817SOL     OW 9349   1.204   1.555   1.223
 2817SOL    HW1 9350   1.169   1.477   1.171
 2817SOL    HW2 9351   1.129   1.619   1.240
 2818SOL     OW 9352   0.952   3.443   6.351
 2818SOL    HW1 9353   0.917   3.372   6.290
 2818SOL    HW2 9354   0.966   3.528   6.301
 2819SOL     OW 9355   5.866   3.367   0.851
 2819SOL    HW1 9356   5.954   3.411   0.866
 2819SOL    HW2 9357   5.797   3.409   0.911
 2820SOL     OW 9358   5.479   2.476   3.807
 2820SOL    HW1 9359   5.464   2.542   3.734
 2820SOL    HW2 9360   5.461   2.384   3.772
 2821SOL     OW 9361   1.598   3.464   4.101
 2821SOL    HW1 9362   1.680   3.428   4.055
 2821SOL    HW2 9363   1.520   3.404   4.082
 2822SOL     OW 9364   2.628   1.898   0.335
 2822SOL    HW1 9365   2.690   1.850   0.273
 2822SOL    HW2 9366   2.579   1.831   0.392
 2823SOL     OW 9367   2.100   6.540   3.840
 2823SOL    HW1 9368   2.063   6.455   3.805
 2823SOL    HW2 9369   2.090   6.612   3.771
 2824SOL     OW 9370   2.967   2.152   5.179
 2824SOL    HW1 9371   2.957   2.231   5.240
 2824SOL    HW2 9372   3.046   2.167   5.119
 2825SOL     OW 9373   6.310   5.945   0.992
 2825SOL    HW1 9374   6.241   6.015   0.972
 2825SOL    HW2 9375   6.395   5.989   1.020
 2826SOL     OW 9376   4.458   2.547   4.191
 2826SOL    HW1 9377   4.527   2.590   4.248
 2826SOL    HW2 9378   4.389   2.615   4.165
 2827SOL     OW 9379   5.982   0.820   6.563
 2827SOL    HW1 9380   5.943   0.831   6.472
 2827SOL    HW2 9381   5.909   0.805   6.629
 2828SOL     OW 9382   3.891   2.089   6.988
 2828SOL    HW1 9383   3.848   2.105   6.899
 2828SOL    HW2 9384   3.821   2.091   0.036
 2829SOL     OW 9385   2.619   0.237   6.670
 2829SOL    HW1 9386   2.667   0.162   6.715
 2829SOL    HW2 9387   2.666   0.323   6.690
 2830SOL     OW 9388   3.253   3.893   6.787
 2830SOL    HW1 9389   3.247   3.869   6.690
 2830SOL    HW2 9390   3.171   3.859   6.834
 2831SOL     OW 9391   6.685   5.801   4.098
 2831SOL    HW1 9392   6.667   5.845   4.009
 2831SOL    HW2 9393   6.604   5.749   4.126
 2832SOL     OW 9394   0.233   0.997   1.826
 2832SOL    HW1 9395   0.176   1.079   1.826
 2832SOL    HW2 9396   0.304   1.005   1.896
 2833SOL     OW 9397   6.414   3.149   2.546
 2833SOL    HW1 9398   6.431   3.103   2.634
 2833SOL    HW2 9399   6.492   3.208   2.525
 2834SOL     OW 9400   4.213   0.908   5.593
 2834SOL    HW1 9401   4.251   0.999   5.581
 2834SOL    HW2 9402   4.153   0.907   5.673
 2835SOL     OW 9403   0.656   6.432   3.255
 2835SOL    HW1 9404   0.560   6.406   3.257
 2835SOL    HW2 9405   0.667   6.513   3.197
 2836SOL     OW 9406   6.479   0.840   0.843
 2836SOL    HW1 9407   6.552   0.908   0.849
 2836SOL    HW2 9408   6.468   0.811   0.748
 2837SOL     OW 9409   6.549   3.074   3.486
 2837SOL    HW1 9410   6.567   3.073   3.584
 2837SOL    HW2 9411   6.525   2.982   3.456
 2838SOL     OW 9412   1.791   4.516   3.882
 2838SOL    HW1 9413   1.785   4.438   3.820
 2838SOL    HW2 9414   1.740   4.498   3.965
 2839SOL     OW 9415   5.170   2.545   1.133
 2839SOL    HW1 9416   5.080   2.543   1.176
 2839SOL    HW2 9417   5.220   2.462   1.158
 2840SOL     OW 9418   6.558   2.946   5.000
 2840SOL    HW1 9419   6.657   2.932   5.004
 2840SOL    HW2 9420   6.513   2.888   5.067
 2841SOL     OW 9421   0.429   6.449   1.673
 2841SOL    HW1 9422   0.401   6.475   1.765
 2841SOL    HW2 9423   0.424   6.529   1.613
 2842SOL     OW 9424   6.186   3.170   2.749
 2842SOL    HW1 9425   6.166   3.144   2.655
 2842SOL    HW2 9426   6.138   3.108   2.812
 2843SOL     OW 9427   4.529   1.344   4.395
 2843SOL    HW1 9428   4.489   1.435   4.380
 2843SOL    HW2 9429   4.485   1.300   4.473
 2844SOL     OW 9430   0.091   3.903   5.783
 2844SOL    HW1 9431   0.094   3.953   5.869
 2844SOL    HW2 9432   0.008   3.927   5.733
 2845SOL     OW 9433   6.680   4.324   6.112
 2845SOL    HW1 9434   6.630   4.247   6.072
 2845SOL    HW2 9435   6.758   4.347   6.054
 2846SOL     OW 9436   4.770   0.956   5.879
 2846SOL    HW1 9437   4.696   0.893   5.904
 2846SOL    HW2 9438   4.742   1.050   5.898
 2847SOL     OW 9439   4.901   4.472   3.879
 2847SOL    HW1 9440   4.852   4.554   3.910
 2847SOL    HW2 9441   4.838   4.394   3.879
 2848SOL     OW 9442   1.738   6.305   5.590
 2848SOL    HW1 9443   1.653   6.293   5.642
 2848SOL    HW2 9444   1.733   6.256   5.504
 2849SOL     OW 9445   2.079   3.069   1.548
 2849SOL    HW1 9446   2.027   3.153   1.557
 2849SOL    HW2 9447   2.137   3.056   1.628
 2850SOL     OW 9448   3.628   0.866   0.353
 2850SOL    HW1 9449   3.670   0.868   0.443
 2850SOL    HW2 9450   3.691   0.825   0.287
 2851SOL     OW 9451   2.329   5.026   6.199
 2851SOL    HW1 9452   2.324   5.092   6.124
 2851SOL    HW2 9453   2.425   5.006   6.220
 2852SOL     OW 9454   0.465   2.907   6.006
 2852SOL    HW1 9455   0.463   2.824   6.062
 2852SOL    HW2 9456   0.385   2.909   5.946
 2853SOL     OW 9457   3.615   2.733   1.380
 2853SOL    HW1 9458   3.567   2.727   1.292
 2853SOL    HW2 9459   3.564   2.683   1.450
 2854SOL     OW 9460   1.223   0.742   3.727
 2854SOL    HW1 9461   1.134   0.706   3.696
 2854SOL    HW2 9462   1.247   0.699   3.814
 2855SOL     OW 9463   3.002   0.980   5.219
 2855SOL    HW1 9464   3.072   1.032   5.269
 2855SOL    HW2 9465   2.978   1.029   5.135
 2856SOL     OW 9466   2.363   1.620   5.426
 2856SOL    HW1 9467   2.281   1.674   5.447
 2856SOL    HW2 9468   2.438   1.682   5.404
 2857SOL     OW 9469   3.785   3.733   3.210
 2857SOL    HW1 9470   3.791   3.640   3.174
 2857SOL    HW2 9471   3.797   3.732   3.309
 2858SOL     OW 9472   5.497   2.235   2.890
 2858SOL    HW1 9473   5.550   2.151   2.899
 2858SOL    HW2 9474   5.426   2.221   2.820
 2859SOL     OW 9475   5.334   6.283   0.612
 2859SOL    HW1 9476   5.263   6.242   0.555
 2859SOL    HW2 9477   5.421   6.281   0.563
 2860SOL     OW 9478   4.154   2.180   1.078
 2860SOL    HW1 9479   4.113   2.140   0.996
 2860SOL    HW2 9480   4.160   2.279   1.066
 2861SOL     OW 9481   3.575   5.145   6.060
 2861SOL    HW1 9482   3.664   5.133   6.017
 2861SOL    HW2 9483   3.586   5.191   6.148
 2862SOL     OW 9484   6.264   0.218   4.344
 2862SOL    HW1 9485   6.168   0.190   4.347
 2862SOL    HW2 9486   6.270   0.316   4.363
 2863SOL     OW 9487   6.959   1.691   6.966
 2863SOL    HW1 9488   6.934   1.699   6.870
 2863SOL    HW2 9489   6.886   1.730   7.023
 2864SOL     OW 9490   3.355   1.528   0.195
 2864SOL    HW1 9491   3.320   1.561   0.108
 2864SOL    HW2 9492   3.455   1.530   0.194
 2865SOL     OW 9493   4.595   5.007   5.223
 2865SOL    HW1 9494   4.510   5.009   5.170
 2865SOL    HW2 9495   4.660   5.071   5.182
 2866SOL     OW 9496   6.957   7.012   6.284
 2866SOL    HW1 9497   6.861   0.014   6.298
 2866SOL    HW2 9498   6.964   6.947   6.209
 2867SOL     OW 9499   6.519   3.999   3.169
 2867SOL    HW1 9500   6.600   3.975   3.222
 2867SOL    HW2 9501   6.510   4.099   3.164
 2868SOL     OW 9502   1.303   4.687   5.094
 2868SOL    HW1 9503   1.332   4.592   5.097
 2868SOL    HW2 9504   1.383   4.746   5.083
 2869SOL     OW 9505   5.979   0.575   2.505
 2869SOL    HW1 9506   5.988   0.621   2.593
 2869SOL    HW2 9507   6.064   0.527   2.483
 2870SOL     OW 9508   5.002   2.016   2.201
 2870SOL    HW1 9509   4.972   2.067   2.121
 2870SOL    HW2 9510   5.000   1.918   2.181
 2871SOL     OW 9511   2.031   1.410   5.971
 2871SOL    HW1 9512   2.092   1.489   5.960
 2871SOL    HW2 9513   2.039   1.374   6.064
 2872SOL     OW 9514   2.207   6.189   3.704
 2872SOL    HW1 9515   2.258   6.268   3.738
 2872SOL    HW2 9516   2.112   6.215   3.687
 2873SOL     OW 9517   0.015   5.352   1.882
 2873SOL    HW1 9518   0.015   5.447   1.851
 2873SOL    HW2 9519   0.050   5.293   1.809
 2874SOL     OW 9520   5.831   1.490   2.683
 2874SOL    HW1 9521   5.871   1.445   2.603
 2874SOL    HW2 9522   5.866   1.583   2.691
 2875SOL     OW 9523   2.830   5.243   1.169
 2875SOL    HW1 9524   2.880   5.208   1.249
 2875SOL    HW2 9525   2.831   5.343   1.170
 2876SOL     OW 9526   6.924   1.741   2.445
 2876SOL    HW1 9527   7.004   1.720   2.389
 2876SOL    HW2 9528   6.913   1.840   2.451
 2877SOL     OW 9529   2.190   3.418   5.862
 2877SOL    HW1 9530   2.097   3.427   5.899
 2877SOL    HW2 9531   2.192   3.455   5.768
 2878SOL     OW 9532   3.461   5.005   0.247
 2878SOL    HW1 9533   3.547   4.960   0.268
 2878SOL    HW2 9534   3.453   5.019   0.148
 2879SOL     OW 9535   4.362   5.072   0.255
 2879SOL    HW1 9536   4.347   5.152   0.313
 2879SOL    HW2 9537   4.402   4.999   0.311
 2880SOL     OW 9538   1.149   6.912   1.799
 2880SOL    HW1 9539   1.246   6.923   1.822
 2880SOL    HW2 9540   1.129   6.964   1.716
 2881SOL     OW 9541   0.552   7.006   6.944
 2881SOL    HW1 9542   0.588   6.914   6.929
 2881SOL    HW2 9543   0.555   0.034   6.859
 2882SOL     OW 9544   6.816   2.986   3.844
 2882SOL    HW1 9545   6.825   2.941   3.755
 2882SOL    HW2 9546   6.881   3.062   3.851
 2883SOL     OW 9547   4.884   6.196   2.730
 2883SOL    HW1 9548   4.872   6.290   2.696
 2883SOL    HW2 9549   4.919   6.138   2.656
 2884SOL     OW 9550   1.842   5.739   3.052
 2884SOL    HW1 9551   1.747   5.715   3.073
 2884SOL    HW2 9552   1.851   5.758   2.954
 2885SOL     OW 9553   0.525   2.555   3.932
 2885SOL    HW1 9554   0.470   2.592   4.006
 2885SOL    HW2 9555   0.496   2.595   3.845
 2886SOL     OW 9556   2.459   2.967   6.256
 2886SOL    HW1 9557   2.532   2.930   6.313
 2886SOL    HW2 9558   2.494   2.986   6.165
 2887SOL     OW 9559   2.351   1.291   4.896
 2887SOL    HW1 9560   2.299   1.211   4.925
 2887SOL    HW2 9561   2.350   1.360   4.969
 2888SOL     OW 9562   0.117   4.979   6.950
 2888SOL    HW1 9563   0.182   4.903   6.953
 2888SOL    HW2 9564   0.166   5.065   6.932
 2889SOL     OW 9565   0.455   6.947   1.253
 2889SOL    HW1 9566   0.413   6.960   1.343
 2889SOL    HW2 9567   0.462   0.011   1.207
 2890SOL     OW 9568   2.960   6.928   0.612
 2890SOL    HW1 9569   2.988   6.916   0.707
 2890SOL    HW2 9570   2.994   7.015   0.578
 2891SOL     OW 9571   2.514   4.656   4.315
 2891SOL    HW1 9572   2.585   4.676   4.383
 2891SOL    HW2 9573   2.475   4.566   4.334
 2892SOL     OW 9574   4.478   4.235   5.693
 2892SOL    HW1 9575   4.567   4.235   5.648
 2892SOL    HW2 9576   4.448   4.329   5.709
 2893SOL     OW 9577   3.121   0.821   5.930
 2893SOL    HW1 9578   3.122   0.781   6.022
 2893SOL    HW2 9579   3.038   0.791   5.882
 2894SOL     OW 9580   3.442   2.649   1.095
 2894SOL    HW1 9581   3.456   2.601   1.182
 2894SOL    HW2 9582   3.381   2.596   1.037
 2895SOL     OW 9583   3.302   3.367   6.988
 2895SOL    HW1 9584   3.231   3.357   0.035
 2895SOL    HW2 9585   3.392   3.355   0.006
 2896SOL     OW 9586   2.521   5.541   0.728
 2896SOL    HW1 9587   2.495   5.637   0.718
 2896SOL    HW2 9588   2.443   5.482   0.706
 2897SOL     OW 9589   1.837   6.691   4.020
 2897SOL    HW1 9590   1.756   6.633   4.029
 2897SOL    HW2 9591   1.912   6.652   4.074
 2898SOL     OW 9592   2.682   5.218   2.553
 2898SOL    HW1 9593   2.707   5.121   2.547
 2898SOL    HW2 9594   2.735   5.270   2.486
 2899SOL     OW 9595   6.652   1.123   0.546
 2899SOL    HW1 9596   6.743   1.114   0.587
 2899SOL    HW2 9597   6.586   1.148   0.617
 2900SOL     OW 9598   2.824   5.799   6.301
 2900SOL    HW1 9599   2.777   5.841   6.378
 2900SOL    HW2 9600   2.758   5.748   6.245
 2901SOL     OW 9601   2.804   0.401   1.629
 2901SOL    HW1 9602   2.845   0.310   1.624
 2901SOL    HW2 9603   2.832   0.455   1.550
 2902SOL     OW 9604   5.563   5.301   1.588
 2902SOL    HW1 9605   5.648   5.345   1.557
 2902SOL    HW2 9606   5.543   5.221   1.532
 2903SOL     OW 9607   2.706   2.417   1.745
 2903SOL    HW1 9608   2.671   2.505   1.778
 2903SOL    HW2 9609   2.772   2.381   1.811
 2904SOL     OW 9610   1.905   3.122   4.559
 2904SOL    HW1 9611   2.000   3.139   4.531
 2904SOL    HW2 9612   1.863   3.207   4.590
 2905SOL     OW 9613   1.231   2.014   1.639
 2905SOL    HW1 9614   1.314   2.059   1.608
 2905SOL    HW2 9615   1.246   1.975   1.730
 2906SOL     OW 9616   5.205   5.788   2.339
 2906SOL    HW1 9617   5.164   5.715   2.394
 2906SOL    HW2 9618   5.139   5.818   2.269
 2907SOL     OW 9619   6.363   0.492   4.368
 2907SOL    HW1 9620   6.456   0.479   4.333
 2907SOL    HW2 9621   6.364   0.565   4.437
 2908SOL     OW 9622   4.115   6.321   4.741
 2908SOL    HW1 9623   4.104   6.296   4.837
 2908SOL    HW2 9624   4.103   6.240   4.684
 2909SOL     OW 9625   1.539   5.835   5.576
 2909SOL    HW1 9626   1.460   5.895   5.584
 2909SOL    HW2 9627   1.513   5.751   5.527
 2910SOL     OW 9628   5.073   6.433   5.427
 2910SOL    HW1 9629   5.065   6.431   5.327
 2910SOL    HW2 9630   5.040   6.347   5.465
 2911SOL     OW 9631   2.281   4.178   3.674
 2911SOL    HW1 9632   2.265   4.259   3.730
 2911SOL    HW2 9633   2.252   4.195   3.580
 2912SOL     OW 9634   2.968   5.157   0.639
 2912SOL    HW1 9635   2.901   5.166   0.712
 2912SOL    HW2 9636   2.957   5.233   0.574
 2913SOL     OW 9637   1.189   3.486   2.846
 2913SOL    HW1 9638   1.238   3.402   2.866
 2913SOL    HW2 9639   1.091   3.473   2.864
 2914SOL     OW 9640   4.968   5.006   5.537
 2914SOL    HW1 9641   4.870   4.995   5.556
 2914SOL    HW2 9642   4.981   5.072   5.463
 2915SOL     OW 9643   4.077   1.355   4.205
 2915SOL    HW1 9644   4.008   1.287   4.178
 2915SOL    HW2 9645   4.144   1.366   4.131
 2916SOL     OW 9646   4.467   5.698   4.211
 2916SOL    HW1 9647   4.399   5.716   4.139
 2916SOL    HW2 9648   4.486   5.600   4.216
 2917SOL     OW 9649   4.336   1.056   2.388
 2917SOL    HW1 9650   4.317   1.015   2.299
 2917SOL    HW2 9651   4.304   1.151   2.387
 2918SOL     OW 9652   0.441   3.376   3.902
 2918SOL    HW1 9653   0.532   3.342   3.925
 2918SOL    HW2 9654   0.387   3.301   3.862
 2919SOL     OW 9655   6.333   6.083   0.155
 2919SOL    HW1 9656   6.272   6.024   0.207
 2919SOL    HW2 9657   6.311   6.179   0.172
 2920SOL     OW 9658   4.336   2.403   2.975
 2920SOL    HW1 9659   4.279   2.370   3.050
 2920SOL    HW2 9660   4.425   2.430   3.010
 2921SOL     OW 9661   0.333   6.975   1.512
 2921SOL    HW1 9662   0.272   6.923   1.571
 2921SOL    HW2 9663   0.414   7.003   1.563
 2922SOL     OW 9664   4.202   6.373   5.371
 2922SOL    HW1 9665   4.106   6.355   5.389
 2922SOL    HW2 9666   4.257   6.348   5.451
 2923SOL     OW 9667   0.176   4.299   0.168
 2923SOL    HW1 9668   0.251   4.342   0.218
 2923SOL    HW2 9669   0.155   4.352   0.086
 2924SOL     OW 9670   6.293   0.231   5.547
 2924SOL    HW1 9671   6.272   0.281   5.631
 2924SOL    HW2 9672   6.335   0.143   5.570
 2925SOL     OW 9673   5.802   3.647   1.178
 2925SOL    HW1 9674   5.810   3.745   1.162
 2925SOL    HW2 9675   5.770   3.631   1.272
 2926SOL     OW 9676   7.008   1.417   3.627
 2926SOL    HW1 9677   0.002   1.497   3.569
 2926SOL    HW2 9678   6.945   1.443   3.701
 2927SOL     OW 9679   0.599   2.896   2.460
 2927SOL    HW1 9680   0.512   2.925   2.420
 2927SOL    HW2 9681   0.650   2.840   2.394
 2928SOL     OW 9682   5.594   6.257   1.194
 2928SOL    HW1 9683   5.570   6.247   1.291
 2928SOL    HW2 9684   5.609   6.166   1.155
 2929SOL     OW 9685   1.075   0.291   5.670
 2929SOL    HW1 9686   1.141   0.366   5.662
 2929SOL    HW2 9687   1.081   0.233   5.589
 2930SOL     OW 9688   3.553   6.443   4.528
 2930SOL    HW1 9689   3.548   6.543   4.538
 2930SOL    HW2 9690   3.610   6.406   4.602
 2931SOL     OW 9691   3.551   5.330   6.849
 2931SOL    HW1 9692   3.616   5.301   6.779
 2931SOL    HW2 9693   3.468   5.275   6.842
 2932SOL     OW 9694   1.129   4.373   2.026
 2932SOL    HW1 9695   1.159   4.385   1.931
 2932SOL    HW2 9696   1.200   4.407   2.088
 2933SOL     OW 9697   4.737   1.447   3.270
 2933SOL    HW1 9698   4.802   1.443   3.194
 2933SOL    HW2 9699   4.651   1.485   3.238
 2934SOL     OW 9700   2.247   0.799   0.328
 2934SOL    HW1 9701   2.251   0.706   0.291
 2934SOL    HW2 9702   2.335   0.845   0.310
 2935SOL     OW 9703   6.669   1.963   1.045
 2935SOL    HW1 9704   6.614   1.921   0.973
 2935SOL    HW2 9705   6.758   1.991   1.007
 2936SOL     OW 9706   3.635   5.998   0.954
 2936SOL    HW1 9707   3.631   6.001   0.854
 2936SOL    HW2 9708   3.656   6.089   0.990
 2937SOL     OW 9709   2.480   4.264   0.258
 2937SOL    HW1 9710   2.423   4.182   0.270
 2937SOL    HW2 9711   2.551   4.265   0.328
 2938SOL     OW 9712   5.225   4.836   5.317
 2938SOL    HW1 9713   5.276   4.913   5.279
 2938SOL    HW2 9714   5.127   4.850   5.304
 2939SOL     OW 9715   0.120   6.744   5.840
 2939SOL    HW1 9716   0.038   6.760   5.785
 2939SOL    HW2 9717   0.159   6.655   5.817
 2940SOL     OW 9718   4.202   0.607   5.079
 2940SOL    HW1 9719   4.183   0.574   4.986
 2940SOL    HW2 9720   4.135   0.567   5.142
 2941SOL     OW 9721   3.272   1.579   5.584
 2941SOL    HW1 9722   3.281   1.670   5.544
 2941SOL    HW2 9723   3.180   1.568   5.622
 2942SOL     OW 9724   3.472   6.182   4.512
 2942SOL    HW1 9725   3.565   6.158   4.482
 2942SOL    HW2 9726   3.462   6.281   4.511
 2943SOL     OW 9727   5.469   3.910   2.782
 2943SOL    HW1 9728   5.400   3.913   2.853
 2943SOL    HW2 9729   5.425   3.902   2.692
 2944SOL     OW 9730   3.990   6.087   6.744
 2944SOL    HW1 9731   3.898   6.083   6.785
 2944SOL    HW2 9732   3.994   6.024   6.666
 2945SOL     OW 9733   2.926   3.769   3.150
 2945SOL    HW1 9734   2.943   3.797   3.055
 2945SOL    HW2 9735   2.995   3.810   3.209
 2946SOL     OW 9736   6.956   5.742   5.945
 2946SOL    HW1 9737   6.987   5.813   6.008
 2946SOL    HW2 9738   7.021   5.735   5.869
 2947SOL     OW 9739   0.075   5.171   0.330
 2947SOL    HW1 9740   0.035   5.234   0.264
 2947SOL    HW2 9741   0.162   5.137   0.295
 2948SOL     OW 9742   5.760   4.125   5.326
 2948SOL    HW1 9743   5.729   4.046   5.273
 2948SOL    HW2 9744   5.700   4.203   5.309
 2949SOL     OW 9745   1.000   6.237   0.779
 2949SOL    HW1 9746   0.943   6.243   0.697
 2949SOL    HW2 9747   0.942   6.216   0.858
 2950SOL     OW 9748   5.205   3.876   4.539
 2950SOL    HW1 9749   5.226   3.811   4.466
 2950SOL    HW2 9750   5.150   3.830   4.609
 2951SOL     OW 9751   5.996   0.977   1.096
 2951SOL    HW1 9752   5.970   1.038   1.020
 2951SOL    HW2 9753   5.915   0.955   1.150
 2952SOL     OW 9754   1.474   3.962   2.188
 2952SOL    HW1 9755   1.560   3.949   2.238
 2952SOL    HW2 9756   1.479   3.918   2.099
 2953SOL     OW 9757   5.484   0.710   2.395
 2953SOL    HW1 9758   5.506   0.799   2.433
 2953SOL    HW2 9759   5.484   0.715   2.295
 2954SOL     OW 9760   5.949   6.147   1.605
 2954SOL    HW1 9761   5.876   6.080   1.593
 2954SOL    HW2 9762   6.035   6.108   1.573
 2955SOL     OW 9763   6.376   2.703   0.609
 2955SOL    HW1 9764   6.322   2.778   0.646
 2955SOL    HW2 9765   6.342   2.616   0.644
 2956SOL     OW 9766   6.662   5.383   2.653
 2956SOL    HW1 9767   6.591   5.381   2.583
 2956SOL    HW2 9768   6.666   5.295   2.699
 2957SOL     OW 9769   0.879   4.593   1.481
 2957SOL    HW1 9770   0.879   4.630   1.388
 2957SOL    HW2 9771   0.850   4.665   1.544
 2958SOL     OW 9772   3.440   5.080   6.701
 2958SOL    HW1 9773   3.461   5.101   6.606
 2958SOL    HW2 9774   3.524   5.068   6.753
 2959SOL     OW 9775   4.420   5.939   0.059
 2959SOL    HW1 9776   4.400   5.851   0.015
 2959SOL    HW2 9777   4.516   5.941   0.088
 2960SOL     OW 9778   2.731   1.631   6.788
 2960SOL    HW1 9779   2.643   1.600   6.752
 2960SOL    HW2 9780   2.728   1.729   6.805
 2961SOL     OW 9781   5.232   2.248   4.561
 2961SOL    HW1 9782   5.284   2.243   4.476
 2961SOL    HW2 9783   5.258   2.171   4.620
 2962SOL     OW 9784   3.813   1.113   3.325
 2962SOL    HW1 9785   3.899   1.075   3.357
 2962SOL    HW2 9786   3.829   1.175   3.249
 2963SOL     OW 9787   1.990   3.211   5.526
 2963SOL    HW1 9788   2.051   3.265   5.469
 2963SOL    HW2 9789   1.909   3.265   5.549
 2964SOL     OW 9790   2.719   6.173   0.275
 2964SOL    HW1 9791   2.718   6.243   0.346
 2964SOL    HW2 9792   2.809   6.172   0.231
 2965SOL     OW 9793   0.441   2.374   5.762
 2965SOL    HW1 9794   0.519   2.436   5.770
 2965SOL    HW2 9795   0.393   2.369   5.849
 2966SOL     OW 9796   4.717   4.244   3.417
 2966SOL    HW1 9797   4.631   4.251   3.467
 2966SOL    HW2 9798   4.770   4.328   3.429
 2967SOL     OW 9799   5.754   2.347   3.770
 2967SOL    HW1 9800   5.682   2.371   3.835
 2967SOL    HW2 9801   5.787   2.255   3.790
 2968SOL     OW 9802   6.648   4.099   3.672
 2968SOL    HW1 9803   6.553   4.131   3.667
 2968SOL    HW2 9804   6.679   4.072   3.581
 2969SOL     OW 9805   4.622   1.096   4.245
 2969SOL    HW1 9806   4.582   1.018   4.294
 2969SOL    HW2 9807   4.564   1.176   4.256
 2970SOL     OW 9808   1.051   4.834   6.366
 2970SOL    HW1 9809   0.992   4.913   6.351
 2970SOL    HW2 9810   1.120   4.856   6.435
 2971SOL     OW 9811   5.320   3.491   3.357
 2971SOL    HW1 9812   5.225   3.485   3.327
 2971SOL    HW2 9813   5.354   3.584   3.339
 2972SOL     OW 9814   1.199   3.960   6.004
 2972SOL    HW1 9815   1.267   3.978   5.933
 2972SOL    HW2 9816   1.150   4.044   6.024
 2973SOL     OW 9817   5.528   0.096   4.431
 2973SOL    HW1 9818   5.562   0.031   4.499
 2973SOL    HW2 9819   5.530   0.188   4.469
 2974SOL     OW 9820   0.153   4.142   2.331
 2974SOL    HW1 9821   0.224   4.110   2.394
 2974SOL    HW2 9822   0.185   4.225   2.285
 2975SOL     OW 9823   0.332   1.211   4.092
 2975SOL    HW1 9824   0.251   1.252   4.132
 2975SOL    HW2 9825   0.409   1.221   4.156
 2976SOL     OW 9826   2.941   6.005   1.631
 2976SOL    HW1 9827   2.897   6.029   1.718
 2976SOL    HW2 9828   2.916   5.911   1.606
 2977SOL     OW 9829   3.830   6.087   4.483
 2977SOL    HW1 9830   3.874   6.174   4.458
 2977SOL    HW2 9831   3.841   6.022   4.408
 2978SOL     OW 9832   3.371   6.277   0.283
 2978SOL    HW1 9833   3.352   6.375   0.287
 2978SOL    HW2 9834   3.429   6.257   0.203
 2979SOL     OW 9835   3.127   1.115   3.455
 2979SOL    HW1 9836   3.140   1.029   3.405
 2979SOL    HW2 9837   3.064   1.174   3.404
 2980SOL     OW 9838   6.726   6.101   3.867
 2980SOL    HW1 9839   6.627   6.098   3.879
 2980SOL    HW2 9840   6.753   6.193   3.840
 2981SOL     OW 9841   1.660   1.614   5.486
 2981SOL    HW1 9842   1.616   1.702   5.467
 2981SOL    HW2 9843   1.656   1.595   5.584
 2982SOL     OW 9844   4.856   6.586   3.340
 2982SOL    HW1 9845   4.913   6.662   3.310
 2982SOL    HW2 9846   4.912   6.519   3.389
 2983SOL     OW 9847   6.843   6.914   2.508
 2983SOL    HW1 9848   6.790   6.876   2.433
 2983SOL    HW2 9849   6.940   6.916   2.483
 2984SOL     OW 9850   6.004   5.237   1.594
 2984SOL    HW1 9851   6.088   5.223   1.647
 2984SOL    HW2 9852   5.948   5.155   1.599
 2985SOL     OW 9853   6.600   1.754   3.102
 2985SOL    HW1 9854   6.656   1.749   3.019
 2985SOL    HW2 9855   6.564   1.663   3.124
 2986SOL     OW 9856   2.298   3.835   5.424
 2986SOL    HW1 9857   2.320   3.870   5.333
 2986SOL    HW2 9858   2.228   3.764   5.417
 2987SOL     OW 9859   4.872   1.887   4.559
 2987SOL    HW1 9860   4.925   1.816   4.512
 2987SOL    HW2 9861   4.885   1.974   4.511
 2988SOL     OW 9862   0.555   0.106   1.634
 2988SOL    HW1 9863   0.537   0.105   1.733
 2988SOL    HW2 9864   0.569   0.200   1.604
 2989SOL     OW 9865   6.625   5.193   0.591
 2989SOL    HW1 9866   6.684   5.215   0.514
 2989SOL    HW2 9867   6.540   5.152   0.558
 2990SOL     OW 9868   3.255   0.373   0.990
 2990SOL    HW1 9869   3.314   0.402   0.914
 2990SOL    HW2 9870   3.159   0.391   0.965
 2991SOL     OW 9871   6.424   4.866   0.350
 2991SOL    HW1 9872   6.381   4.945   0.394
 2991SOL    HW2 9873   6.372   4.840   0.269
 2992SOL     OW 9874   4.270   4.480   6.956
 2992SOL    HW1 9875   4.316   4.563   6.924
 2992SOL    HW2 9876   4.198   4.504   7.021
 2993SOL     OW 9877   1.692   5.497   0.291
 2993SOL    HW1 9878   1.594   5.519   0.285
 2993SOL    HW2 9879   1.710   5.412   0.244
 2994SOL     OW 9880   3.581   6.544   7.023
 2994SOL    HW1 9881   3.543   6.464   0.045
 2994SOL    HW2 9882   3.591   6.618   0.065
 2995SOL     OW 9883   2.606   0.734   5.643
 2995SOL    HW1 9884   2.676   0.743   5.572
 2995SOL    HW2 9885   2.538   0.806   5.632
 2996SOL     OW 9886   4.240   5.895   5.467
 2996SOL    HW1 9887   4.226   5.956   5.390
 2996SOL    HW2 9888   4.175   5.918   5.540
 2997SOL     OW 9889   4.793   6.357   0.296
 2997SOL    HW1 9890   4.700   6.367   0.331
 2997SOL    HW2 9891   4.858   6.383   0.368
 2998SOL     OW 9892   6.192   5.062   5.042
 2998SOL    HW1 9893   6.139   5.127   5.096
 2998SOL    HW2 9894   6.289   5.083   5.050
 2999SOL     OW 9895   2.980   6.805   2.027
 2999SOL    HW1 9896   2.919   6.743   2.076
 2999SOL    HW2 9897   3.047   6.843   2.092
 3000SOL     OW 9898   1.362   2.222   4.429
 3000SOL    HW1 9899   1.266   2.197   4.441
 3000SOL    HW2 9900   1.373   2.272   4.343
 3001SOL     OW 9901   4.705   6.615   5.734
 3001SOL    HW1 9902   4.756   6.593   5.651
 3001SOL    HW2 9903   4.692   6.714   5.740
 3002SOL     OW 9904   3.111   0.399   5.696
 3002SOL    HW1 9905   3.011   0.393   5.693
 3002SOL    HW2 9906   3.149   0.309   5.716
 3003SOL     OW 9907   2.268   6.918   6.340
 3003SOL    HW1 9908   2.312   6.930   6.429
 3003SOL    HW2 9909   2.175   6.953   6.344
 3004SOL     OW 9910   6.418   3.497   5.341
 3004SOL    HW1 9911   6.434   3.405   5.305
 3004SOL    HW2 9912   6.324   3.525   5.322
 3005SOL     OW 9913   4.484   2.300   1.535
 3005SOL    HW1 9914   4.483   2.391   1.494
 3005SOL    HW2 9915   4.513   2.233   1.466
 3006SOL     OW 9916   4.900   0.549   0.828
 3006SOL    HW1 9917   4.844   0.627   0.801
 3006SOL    HW2 9918   4.996   0.577   0.832
 3007SOL     OW 9919   6.596   5.398   1.901
 3007SOL    HW1 9920   6.514   5.417   1.846
 3007SOL    HW2 9921   6.669   5.366   1.840
 3008SOL     OW 9922   4.419   5.953   5.718
 3008SOL    HW1 9923   4.372   5.865   5.723
 3008SOL    HW2 9924   4.493   5.948   5.651
 3009SOL     OW 9925   1.032   0.885   2.555
 3009SOL    HW1 9926   1.125   0.850   2.565
 3009SOL    HW2 9927   0.993   0.853   2.469
 3010SOL     OW 9928   2.947   6.678   2.624
 3010SOL    HW1 9929   2.991   6.598   2.666
 3010SOL    HW2 9930   2.957   6.673   2.525
 3011SOL     OW 9931   5.587   0.485   0.076
 3011SOL    HW1 9932   5.684   0.506   0.092
 3011SOL    HW2 9933   5.575   0.450   7.007
 3012SOL     OW 9934   0.085   4.567   2.150
 3012SOL    HW1 9935   0.140   4.497   2.195
 3012SOL    HW2 9936   0.095   4.559   2.051
 3013SOL     OW 9937   6.188   3.978   2.235
 3013SOL    HW1 9938   6.225   4.007   2.323
 3013SOL    HW2 9939   6.264   3.959   2.172
 3014SOL     OW 9940   5.172   0.446   5.248
 3014SOL    HW1 9941   5.099   0.432   5.181
 3014SOL    HW2 9942   5.147   0.522   5.309
 3015SOL     OW 9943   3.225   2.327   0.044
 3015SOL    HW1 9944   3.206   2.250   7.007
 3015SOL    HW2 9945   3.154   2.334   0.114
 3016SOL     OW 9946   3.924   6.215   3.780
 3016SOL    HW1 9947   3.981   6.144   3.822
 3016SOL    HW2 9948   3.929   6.207   3.680
 3017SOL     OW 9949   6.888   6.328   0.883
 3017SOL    HW1 9950   6.988   6.335   0.890
 3017SOL    HW2 9951   6.861   6.324   0.787
 3018SOL     OW 9952   3.825   6.867   6.232
 3018SOL    HW1 9953   3.739   6.842   6.188
 3018SOL    HW2 9954   3.888   6.790   6.226
 3019SOL     OW 9955   5.203   6.725   2.226
 3019SOL    HW1 9956   5.236   6.710   2.319
 3019SOL    HW2 9957   5.139   6.653   2.201
 3020SOL     OW 9958   2.157   1.301   1.176
 3020SOL    HW1 9959   2.099   1.333   1.250
 3020SOL    HW2 9960   2.129   1.209   1.148
 3021SOL     OW 9961   4.013   0.944   6.143
 3021SOL    HW1 9962   4.106   0.915   6.168
 3021SOL    HW2 9963   3.947   0.887   6.192
 3022SOL     OW 9964   5.777   0.031   1.711
 3022SOL    HW1 9965   5.725   6.990   1.767
 3022SOL    HW2 9966   5.783   7.020   1.617
 3023SOL     OW 9967   5.262   0.068   1.432
 3023SOL    HW1 9968   5.190   0.134   1.413
 3023SOL    HW2 9969   5.311   0.046   1.348
 3024SOL     OW 9970   2.865   6.788   6.869
 3024SOL    HW1 9971   2.767   6.808   6.864
 3024SOL    HW2 9972   2.891   6.773   6.964
 3025SOL     OW 9973   1.634   2.143   1.750
 3025SOL    HW1 9974   1.709   2.091   1.710
 3025SOL    HW2 9975   1.661   2.239   1.759
 3026SOL     OW 9976   1.713   4.905   0.559
 3026SOL    HW1 9977   1.643   4.858   0.506
 3026SOL    HW2 9978   1.799   4.904   0.508
 3027SOL     OW 9979   1.450   1.362   4.088
 3027SOL    HW1 9980   1.530   1.327   4.136
 3027SOL    HW2 9981   1.461   1.347   3.990
 3028SOL     OW 9982   1.559   0.882   4.730
 3028SOL    HW1 9983   1.570   0.842   4.821
 3028SOL    HW2 9984   1.465   0.915   4.719
 3029SOL     OW 9985   5.369   5.212   6.087
 3029SOL    HW1 9986   5.343   5.152   6.012
 3029SOL    HW2 9987   5.399   5.300   6.050
 3030SOL     OW 9988   1.217   1.501   5.737
 3030SOL    HW1 9989   1.224   1.404   5.712
 3030SOL    HW2 9990   1.141   1.513   5.801
 3031SOL     OW 9991   1.232   5.432   6.705
 3031SOL    HW1 9992   1.322   5.410   6.668
 3031SOL    HW2 9993   1.230   5.409   6.802
 3032SOL     OW 9994   4.101   0.458   5.439
 3032SOL    HW1 9995   4.195   0.490   5.425
 3032SOL    HW2 9996   4.087   0.373   5.388
 3033SOL     OW 9997   5.219   4.933   6.368
 3033SOL    HW1 9998   5.203   5.031   6.375
 3033SOL    HW2 9999   5.205   4.890   6.457
 3034SOL     OW10000   2.589   0.126   4.364
 3034SOL    HW110001   2.644   0.049   4.397
 3034SOL    HW210002   2.602   0.204   4.425
 3035SOL     OW10003   6.462   6.893   6.930
 3035SOL    HW110004   6.550   6.941   6.919
 3035SOL    HW210005   6.429   6.905   7.024
 3036SOL     OW10006   1.143   4.752   5.883
 3036SOL    HW110007   1.074   4.799   5.938
 3036SOL    HW210008   1.183   4.816   5.817
 3037SOL     OW10009   6.384   7.015   5.607
 3037SOL    HW110010   6.318   6.948   5.642
 3037SOL    HW210011   6.461   6.967   5.565
 3038SOL     OW10012   5.911   6.540   5.993
 3038SOL    HW110013   5.945   6.451   6.026
 3038SOL    HW210014   5.863   6.527   5.906
 3039SOL     OW10015   6.883   4.643   0.580
 3039SOL    HW110016   6.967   4.654   0.632
 3039SOL    HW210017   6.841   4.733   0.564
 3040SOL     OW10018   2.056   2.228   0.139
 3040SOL    HW110019   2.047   2.131   0.116
 3040SOL    HW210020   2.101   2.237   0.228
 3041SOL     OW10021   1.736   2.203   6.032
 3041SOL    HW110022   1.804   2.249   5.974
 3041SOL    HW210023   1.748   2.104   6.023
 3042SOL     OW10024   5.044   6.925   2.160
 3042SOL    HW110025   5.035   6.929   2.060
 3042SOL    HW210026   5.116   6.861   2.184
 3043SOL     OW10027   6.854   4.938   0.366
 3043SOL    HW110028   6.853   4.964   0.463
 3043SOL    HW210029   6.788   4.865   0.350
 3044SOL     OW10030   3.185   3.614   5.328
 3044SOL    HW110031   3.212   3.709   5.341
 3044SOL    HW210032   3.256   3.566   5.275
 3045SOL     OW10033   5.525   2.105   4.018
 3045SOL    HW110034   5.615   2.122   4.056
 3045SOL    HW210035   5.483   2.027   4.065
 3046SOL     OW10036   2.225   2.287   6.206
 3046SOL    HW110037   2.230   2.375   6.160
 3046SOL    HW210038   2.175   2.222   6.148
 3047SOL     OW10039   0.157   4.553   1.849
 3047SOL    HW110040   0.205   4.640   1.840
 3047SOL    HW210041   0.111   4.532   1.763
 3048SOL     OW10042   3.039   2.566   1.701
 3048SOL    HW110043   2.969   2.634   1.678
 3048SOL    HW210044   3.012   2.518   1.784
 3049SOL     OW10045   0.921   0.350   1.411
 3049SOL    HW110046   0.885   0.265   1.449
 3049SOL    HW210047   0.846   0.415   1.396
 3050SOL     OW10048   2.558   6.085   3.930
 3050SOL    HW110049   2.635   6.149   3.934
 3050SOL    HW210050   2.479   6.125   3.977
 3051SOL     OW10051   2.536   4.395   5.365
 3051SOL    HW110052   2.488   4.446   5.293
 3051SOL    HW210053   2.633   4.416   5.361
 3052SOL     OW10054   5.059   6.519   3.060
 3052SOL    HW110055   4.990   6.451   3.084
 3052SOL    HW210056   5.023   6.611   3.076
 3053SOL     OW10057   4.895   6.914   1.280
 3053SOL    HW110058   4.860   6.824   1.305
 3053SOL    HW210059   4.977   6.904   1.225
 3054SOL     OW10060   2.158   3.813   5.791
 3054SOL    HW110061   2.168   3.771   5.881
 3054SOL    HW210062   2.216   3.764   5.725
 3055SOL     OW10063   6.028   6.427   2.769
 3055SOL    HW110064   6.039   6.505   2.707
 3055SOL    HW210065   6.001   6.346   2.717
 3056SOL     OW10066   6.218   0.821   1.258
 3056SOL    HW110067   6.257   0.767   1.183
 3056SOL    HW210068   6.140   0.873   1.224
 3057SOL     OW10069   6.553   5.834   2.615
 3057SOL    HW110070   6.477   5.897   2.602
 3057SOL    HW210071   6.554   5.802   2.710
 3058SOL     OW10072   6.387   5.441   1.725
 3058SOL    HW110073   6.372   5.512   1.794
 3058SOL    HW210074   6.309   5.378   1.725
 3059SOL     OW10075   2.123   2.617   4.967
 3059SOL    HW110076   2.212   2.662   4.961
 3059SOL    HW210077   2.091   2.618   5.061
 3060SOL     OW10078   6.674   6.606   0.522
 3060SOL    HW110079   6.607   6.616   0.596
 3060SOL    HW210080   6.764   6.587   0.561
 3061SOL     OW10081   0.127   0.503   6.102
 3061SOL    HW110082   0.108   0.565   6.026
 3061SOL    HW210083   0.044   0.451   6.124
 3062SOL     OW10084   3.062   5.479   6.090
 3062SOL    HW110085   3.146   5.497   6.141
 3062SOL    HW210086   3.084   5.429   6.006
 3063SOL     OW10087   1.758   5.721   0.809
 3063SOL    HW110088   1.781   5.766   0.896
 3063SOL    HW210089   1.675   5.667   0.821
 3064SOL     OW10090   6.845   4.146   3.489
 3064SOL    HW110091   6.851   4.212   3.564
 3064SOL    HW210092   6.859   4.193   3.402
 3065SOL     OW10093   2.493   1.366   1.067
 3065SOL    HW110094   2.456   1.411   1.149
 3065SOL    HW210095   2.455   1.274   1.060
 3066SOL     OW10096   5.420   5.797   1.033
 3066SOL    HW110097   5.365   5.790   1.116
 3066SOL    HW210098   5.449   5.706   1.005
 3067SOL     OW10099   4.806   6.670   3.585
 3067SOL    HW110100   4.797   6.769   3.589
 3067SOL    HW210101   4.825   6.642   3.491
 3068SOL     OW10102   5.710   4.936   0.547
 3068SOL    HW110103   5.665   5.025   0.537
 3068SOL    HW210104   5.795   4.936   0.494
 3069SOL     OW10105   1.131   5.359   3.606
 3069SOL    HW110106   1.221   5.327   3.633
 3069SOL    HW210107   1.133   5.459   3.595
 3070SOL     OW10108   3.916   1.437   4.610
 3070SOL    HW110109   3.865   1.448   4.524
 3070SOL    HW210110   3.961   1.347   4.611
 3071SOL     OW10111   5.723   0.407   3.994
 3071SOL    HW110112   5.707   0.364   3.905
 3071SOL    HW210113   5.728   0.506   3.983
 3072SOL     OW10114   0.860   0.421   2.078
 3072SOL    HW110115   0.799   0.426   1.999
 3072SOL    HW210116   0.955   0.428   2.048
 3073SOL     OW10117   1.790   2.706   4.567
 3073SOL    HW110118   1.740   2.631   4.523
 3073SOL    HW210119   1.800   2.781   4.502
 3074SOL     OW10120   4.643   3.635   6.328
 3074SOL    HW110121   4.660   3.734   6.332
 3074SOL    HW210122   4.545   3.619   6.316
 3075SOL     OW10123   0.245   5.877   1.118
 3075SOL    HW110124   0.338   5.847   1.140
 3075SOL    HW210125   0.195   5.895   1.203
 3076SOL     OW10126   0.902   0.301   4.996
 3076SOL    HW110127   0.912   0.384   5.051
 3076SOL    HW210128   0.953   0.312   4.911
 3077SOL     OW10129   5.386   4.357   3.647
 3077SOL    HW110130   5.385   4.431   3.579
 3077SOL    HW210131   5.306   4.365   3.707
 3078SOL     OW10132   2.524   3.318   0.705
 3078SOL    HW110133   2.492   3.294   0.796
 3078SOL    HW210134   2.554   3.235   0.657
 3079SOL     OW10135   5.307   2.831   6.392
 3079SOL    HW110136   5.348   2.741   6.406
 3079SOL    HW210137   5.358   2.900   6.443
 3080SOL     OW10138   6.066   6.159   1.058
 3080SOL    HW110139   6.020   6.080   1.099
 3080SOL    HW210140   5.999   6.230   1.039
 3081SOL     OW10141   6.616   5.028   6.007
 3081SOL    HW110142   6.568   5.116   6.009
 3081SOL    HW210143   6.617   4.993   5.913
 3082SOL     OW10144   2.481   0.183   2.115
 3082SOL    HW110145   2.459   0.086   2.124
 3082SOL    HW210146   2.529   0.199   2.029
 3083SOL     OW10147   3.299   0.686   2.286
 3083SOL    HW110148   3.377   0.634   2.251
 3083SOL    HW210149   3.323   0.727   2.374
 3084SOL     OW10150   4.754   6.450   4.220
 3084SOL    HW110151   4.711   6.362   4.241
 3084SOL    HW210152   4.722   6.519   4.285
 3085SOL     OW10153   0.940   6.104   1.536
 3085SOL    HW110154   1.011   6.173   1.526
 3085SOL    HW210155   0.969   6.036   1.604
 3086SOL     OW10156   5.940   1.567   3.971
 3086SOL    HW110157   5.866   1.502   3.953
 3086SOL    HW210158   5.952   1.627   3.893
 3087SOL     OW10159   5.523   2.987   2.335
 3087SOL    HW110160   5.469   3.012   2.415
 3087SOL    HW210161   5.598   3.051   2.324
 3088SOL     OW10162   2.894   3.819   6.029
 3088SOL    HW110163   2.840   3.884   5.974
 3088SOL    HW210164   2.878   3.837   6.126
 3089SOL     OW10165   2.479   2.474   0.795
 3089SOL    HW110166   2.458   2.378   0.777
 3089SOL    HW210167   2.496   2.487   0.893
 3090SOL     OW10168   0.529   1.578   0.911
 3090SOL    HW110169   0.522   1.633   0.994
 3090SOL    HW210170   0.441   1.537   0.890
 3091SOL     OW10171   2.500   0.106   0.870
 3091SOL    HW110172   2.411   0.143   0.900
 3091SOL    HW210173   2.571   0.135   0.934
 3092SOL     OW10174   3.926   6.224   0.987
 3092SOL    HW110175   3.984   6.142   0.990
 3092SOL    HW210176   3.972   6.298   1.035
 3093SOL     OW10177   4.984   5.669   3.599
 3093SOL    HW110178   5.059   5.619   3.643
 3093SOL    HW210179   5.021   5.726   3.526
 3094SOL     OW10180   3.502   5.124   5.440
 3094SOL    HW110181   3.510   5.171   5.528
 3094SOL    HW210182   3.592   5.090   5.412
 3095SOL     OW10183   2.325   4.760   4.714
 3095SOL    HW110184   2.349   4.856   4.726
 3095SOL    HW210185   2.300   4.720   4.803
 3096SOL     OW10186   0.066   0.656   5.092
 3096SOL    HW110187   0.104   0.581   5.038
 3096SOL    HW210188   6.995   0.673   5.064
 3097SOL     OW10189   1.991   2.938   0.398
 3097SOL    HW110190   2.027   2.897   0.314
 3097SOL    HW210191   1.985   2.868   0.469
 3098SOL     OW10192   4.179   2.011   0.584
 3098SOL    HW110193   4.152   2.049   0.673
 3098SOL    HW210194   4.133   2.062   0.511
 3099SOL     OW10195   1.017   6.046   5.174
 3099SOL    HW110196   1.074   6.108   5.121
 3099SOL    HW210197   0.974   6.096   5.249
 3100SOL     OW10198   6.232   5.774   0.092
 3100SOL    HW110199   6.262   5.765   0.187
 3100SOL    HW210200   6.143   5.818   0.089
 3101SOL     OW10201   4.548   6.838   0.706
 3101SOL    HW110202   4.567   6.897   0.784
 3101SOL    HW210203   4.449   6.838   0.688
 3102SOL     OW10204   0.445   5.695   0.775
 3102SOL    HW110205   0.455   5.791   0.804
 3102SOL    HW210206   0.413   5.641   0.853
 3103SOL     OW10207   4.161   3.779   1.833
 3103SOL    HW110208   4.210   3.825   1.759
 3103SOL    HW210209   4.074   3.825   1.849
 3104SOL     OW10210   6.438   5.311   3.938
 3104SOL    HW110211   6.390   5.241   3.991
 3104SOL    HW210212   6.410   5.305   3.842
 3105SOL     OW10213   6.203   6.042   3.597
 3105SOL    HW110214   6.248   6.131   3.605
 3105SOL    HW210215   6.107   6.051   3.622
 3106SOL     OW10216   6.889   3.146   4.505
 3106SOL    HW110217   6.865   3.232   4.460
 3106SOL    HW210218   6.808   3.110   4.553
 3107SOL     OW10219   2.853   0.016   3.584
 3107SOL    HW110220   2.776   6.977   3.569
 3107SOL    HW210221   2.827   0.085   3.652
 3108SOL     OW10222   3.164   0.909   3.290
 3108SOL    HW110223   3.204   0.820   3.310
 3108SOL    HW210224   3.226   0.962   3.233
 3109SOL     OW10225   4.707   6.130   2.966
 3109SOL    HW110226   4.776   6.144   2.894
 3109SOL    HW210227   4.746   6.157   3.054
 3110SOL     OW10228   1.276   2.759   2.055
 3110SOL    HW110229   1.247   2.824   2.126
 3110SOL    HW210230   1.235   2.670   2.073
 3111SOL     OW10231   6.557   4.960   3.474
 3111SOL    HW110232   6.637   4.905   3.497
 3111SOL    HW210233   6.582   5.056   3.470
 3112SOL     OW10234   3.029   3.607   6.648
 3112SOL    HW110235   3.116   3.558   6.655
 3112SOL    HW210236   2.960   3.560   6.703
 3113SOL     OW10237   4.229   6.973   3.995
 3113SOL    HW110238   4.223   6.885   3.949
 3113SOL    HW210239   4.206   0.022   3.931
 3114SOL     OW10240   5.602   5.559   1.073
 3114SOL    HW110241   5.605   5.575   0.974
 3114SOL    HW210242   5.559   5.470   1.091
 3115SOL     OW10243   2.617   3.398   1.746
 3115SOL    HW110244   2.657   3.490   1.746
 3115SOL    HW210245   2.525   3.401   1.785
 3116SOL     OW10246   0.102   1.566   6.689
 3116SOL    HW110247   0.118   1.468   6.678
 3116SOL    HW210248   0.155   1.600   6.767
 3117SOL     OW10249   3.802   3.726   5.411
 3117SOL    HW110250   3.705   3.741   5.389
 3117SOL    HW210251   3.810   3.647   5.471
 3118SOL     OW10252   5.825   5.208   0.269
 3118SOL    HW110253   5.829   5.109   0.287
 3118SOL    HW210254   5.747   5.247   0.318
 3119SOL     OW10255   2.043   4.925   6.138
 3119SOL    HW110256   2.062   5.024   6.139
 3119SOL    HW210257   2.129   4.875   6.149
 3120SOL     OW10258   2.887   5.733   5.673
 3120SOL    HW110259   2.914   5.637   5.683
 3120SOL    HW210260   2.809   5.739   5.611
 3121SOL     OW10261   0.423   5.908   3.355
 3121SOL    HW110262   0.469   5.913   3.267
 3121SOL    HW210263   0.451   5.825   3.403
 3122SOL     OW10264   2.634   5.296   0.557
 3122SOL    HW110265   2.613   5.236   0.634
 3122SOL    HW210266   2.686   5.375   0.589
 3123SOL     OW10267   3.669   6.721   4.755
 3123SOL    HW110268   3.626   6.703   4.667
 3123SOL    HW210269   3.766   6.698   4.750
 3124SOL     OW10270   4.016   0.476   6.010
 3124SOL    HW110271   4.024   0.383   5.974
 3124SOL    HW210272   4.107   0.518   6.012
 3125SOL     OW10273   6.906   2.097   5.635
 3125SOL    HW110274   6.932   2.129   5.544
 3125SOL    HW210275   6.896   2.176   5.697
 3126SOL     OW10276   3.514   6.875   0.484
 3126SOL    HW110277   3.544   6.833   0.570
 3126SOL    HW210278   3.522   6.809   0.410
 3127SOL     OW10279   1.628   1.077   3.857
 3127SOL    HW110280   1.650   1.046   3.765
 3127SOL    HW210281   1.562   1.015   3.899
 3128SOL     OW10282   1.053   0.853   0.184
 3128SOL    HW110283   0.960   0.817   0.171
 3128SOL    HW210284   1.054   0.951   0.164
 3129SOL     OW10285   1.858   2.773   3.710
 3129SOL    HW110286   1.847   2.855   3.766
 3129SOL    HW210287   1.938   2.722   3.742
 3130SOL     OW10288   2.272   5.649   3.264
 3130SOL    HW110289   2.250   5.640   3.166
 3130SOL    HW210290   2.267   5.559   3.308
 3131SOL     OW10291   0.391   3.307   3.553
 3131SOL    HW110292   0.382   3.232   3.619
 3131SOL    HW210293   0.446   3.277   3.476
 3132SOL     OW10294   5.129   6.125   5.075
 3132SOL    HW110295   5.185   6.159   5.000
 3132SOL    HW210296   5.047   6.081   5.038
 3133SOL     OW10297   2.448   1.870   3.160
 3133SOL    HW110298   2.371   1.846   3.220
 3133SOL    HW210299   2.525   1.902   3.215
 3134SOL     OW10300   5.407   3.321   1.906
 3134SOL    HW110301   5.492   3.308   1.957
 3134SOL    HW210302   5.375   3.415   1.918
 3135SOL     OW10303   2.584   1.571   3.290
 3135SOL    HW110304   2.575   1.659   3.243
 3135SOL    HW210305   2.509   1.560   3.355
 3136SOL     OW10306   6.517   7.022   5.227
 3136SOL    HW110307   6.614   7.006   5.246
 3136SOL    HW210308   6.462   6.968   5.291
 3137SOL     OW10309   6.721   2.040   4.894
 3137SOL    HW110310   6.685   2.133   4.885
 3137SOL    HW210311   6.790   2.024   4.824
 3138SOL     OW10312   5.453   1.834   4.631
 3138SOL    HW110313   5.527   1.900   4.646
 3138SOL    HW210314   5.446   1.814   4.533
 3139SOL     OW10315   5.070   6.443   5.108
 3139SOL    HW110316   4.972   6.429   5.117
 3139SOL    HW210317   5.110   6.368   5.055
 3140SOL     OW10318   6.134   5.997   6.058
 3140SOL    HW110319   6.203   5.940   6.101
 3140SOL    HW210320   6.097   6.062   6.125
 3141SOL     OW10321   0.875   5.458   0.846
 3141SOL    HW110322   0.820   5.528   0.891
 3141SOL    HW210323   0.848   5.452   0.750
 3142SOL     OW10324   3.521   0.061   6.341
 3142SOL    HW110325   3.531   6.999   6.291
 3142SOL    HW210326   3.609   0.109   6.345
 3143SOL     OW10327   0.343   2.006   0.436
 3143SOL    HW110328   0.262   2.032   0.383
 3143SOL    HW210329   0.421   1.998   0.374
 3144SOL     OW10330   1.728   3.872   6.313
 3144SOL    HW110331   1.639   3.879   6.359
 3144SOL    HW210332   1.755   3.962   6.279
 3145SOL     OW10333   3.696   5.984   4.000
 3145SOL    HW110334   3.646   5.904   3.965
 3145SOL    HW210335   3.641   6.066   3.986
 3146SOL     OW10336   2.255   0.517   3.653
 3146SOL    HW110337   2.239   0.595   3.592
 3146SOL    HW210338   2.213   0.534   3.742
 3147SOL     OW10339   3.639   4.172   0.785
 3147SOL    HW110340   3.684   4.095   0.830
 3147SOL    HW210341   3.695   4.204   0.708
 3148SOL     OW10342   3.519   5.443   5.200
 3148SOL    HW110343   3.513   5.540   5.221
 3148SOL    HW210344   3.600   5.404   5.243
 3149SOL     OW10345   3.175   6.182   5.978
 3149SOL    HW110346   3.122   6.098   5.985
 3149SOL    HW210347   3.271   6.159   5.962
 3150SOL     OW10348   0.204   0.237   4.095
 3150SOL    HW110349   0.184   0.259   4.191
 3150SOL    HW210350   0.228   0.321   4.046
 3151SOL     OW10351   3.896   0.161   0.393
 3151SOL    HW110352   3.910   0.251   0.354
 3151SOL    HW210353   3.799   0.136   0.388
 3152SOL     OW10354   1.337   4.798   6.950
 3152SOL    HW110355   1.428   4.758   6.943
 3152SOL    HW210356   1.321   4.860   6.872
 3153SOL     OW10357   6.713   4.372   2.951
 3153SOL    HW110358   6.764   4.395   2.868
 3153SOL    HW210359   6.678   4.455   2.993
 3154SOL     OW10360   5.582   2.388   6.865
 3154SOL    HW110361   5.527   2.306   6.873
 3154SOL    HW210362   5.621   2.412   6.954
 3155SOL     OW10363   3.955   6.451   0.273
 3155SOL    HW110364   4.036   6.497   0.309
 3155SOL    HW210365   3.981   6.399   0.191
 3156SOL     OW10366   4.036   3.449   3.196
 3156SOL    HW110367   4.098   3.460   3.273
 3156SOL    HW210368   3.942   3.447   3.228
 3157SOL     OW10369   1.690   2.871   4.758
 3157SOL    HW110370   1.758   2.935   4.793
 3157SOL    HW210371   1.735   2.800   4.705
 3158SOL     OW10372   4.254   6.148   1.150
 3158SOL    HW110373   4.272   6.233   1.201
 3158SOL    HW210374   4.268   6.164   1.052
 3159SOL     OW10375   5.690   4.881   0.813
 3159SOL    HW110376   5.696   4.909   0.718
 3159SOL    HW210377   5.593   4.872   0.839
 3160SOL     OW10378   6.096   4.949   0.685
 3160SOL    HW110379   6.058   4.993   0.766
 3160SOL    HW210380   6.079   4.850   0.689
 3161SOL     OW10381   0.596   1.679   2.856
 3161SOL    HW110382   0.533   1.743   2.811
 3161SOL    HW210383   0.680   1.728   2.880
 3162SOL     OW10384   6.211   0.097   5.830
 3162SOL    HW110385   6.213   0.191   5.864
 3162SOL    HW210386   6.274   0.041   5.883
 3163SOL     OW10387   2.296   4.531   5.418
 3163SOL    HW110388   2.365   4.465   5.449
 3163SOL    HW210389   2.291   4.606   5.484
 3164SOL     OW10390   5.821   5.479   6.088
 3164SOL    HW110391   5.789   5.444   5.999
 3164SOL    HW210392   5.745   5.481   6.152
 3165SOL     OW10393   0.259   2.433   1.392
 3165SOL    HW110394   0.229   2.419   1.486
 3165SOL    HW210395   0.351   2.396   1.380
 3166SOL     OW10396   4.668   2.989   6.296
 3166SOL    HW110397   4.624   2.935   6.368
 3166SOL    HW210398   4.612   3.070   6.277
 3167SOL     OW10399   0.375   4.006   1.712
 3167SOL    HW110400   0.437   4.078   1.681
 3167SOL    HW210401   0.281   4.038   1.703
 3168SOL     OW10402   4.853   3.265   0.576
 3168SOL    HW110403   4.796   3.199   0.626
 3168SOL    HW210404   4.942   3.273   0.622
 3169SOL     OW10405   1.911   2.109   4.748
 3169SOL    HW110406   1.987   2.156   4.793
 3169SOL    HW210407   1.860   2.056   4.816
 3170SOL     OW10408   4.864   0.695   5.568
 3170SOL    HW110409   4.834   0.720   5.476
 3170SOL    HW210410   4.825   0.759   5.635
 3171SOL     OW10411   6.323   0.435   3.214
 3171SOL    HW110412   6.342   0.381   3.296
 3171SOL    HW210413   6.322   0.532   3.238
 3172SOL     OW10414   5.719   0.479   6.145
 3172SOL    HW110415   5.771   0.459   6.229
 3172SOL    HW210416   5.769   0.444   6.066
 3173SOL     OW10417   2.021   1.432   1.371
 3173SOL    HW110418   1.925   1.411   1.353
 3173SOL    HW210419   2.030   1.471   1.463
 3174SOL     OW10420   1.912   3.237   6.474
 3174SOL    HW110421   2.006   3.209   6.452
 3174SOL    HW210422   1.914   3.324   6.522
 3175SOL     OW10423   6.828   5.864   0.705
 3175SOL    HW110424   6.751   5.926   0.698
 3175SOL    HW210425   6.889   5.878   0.627
 3176SOL     OW10426   1.313   6.256   6.541
 3176SOL    HW110427   1.224   6.213   6.526
 3176SOL    HW210428   1.350   6.225   6.629
 3177SOL     OW10429   1.075   6.614   4.370
 3177SOL    HW110430   1.012   6.563   4.428
 3177SOL    HW210431   1.073   6.710   4.395
 3178SOL     OW10432   2.566   3.590   0.598
 3178SOL    HW110433   2.631   3.650   0.647
 3178SOL    HW210434   2.549   3.508   0.653
 3179SOL     OW10435   1.212   2.619   3.292
 3179SOL    HW110436   1.240   2.575   3.376
 3179SOL    HW210437   1.228   2.718   3.298
 3180SOL     OW10438   5.768   1.481   6.204
 3180SOL    HW110439   5.760   1.559   6.267
 3180SOL    HW210440   5.748   1.396   6.253
 3181SOL     OW10441   0.877   1.496   2.973
 3181SOL    HW110442   0.855   1.518   2.878
 3181SOL    HW210443   0.892   1.580   3.024
 3182SOL     OW10444   1.421   4.844   5.444
 3182SOL    HW110445   1.324   4.839   5.420
 3182SOL    HW210446   1.468   4.763   5.411
 3183SOL     OW10447   4.955   2.894   1.226
 3183SOL    HW110448   4.936   2.912   1.322
 3183SOL    HW210449   5.052   2.878   1.214
 3184SOL     OW10450   0.963   2.237   3.573
 3184SOL    HW110451   0.887   2.213   3.633
 3184SOL    HW210452   0.931   2.239   3.478
 3185SOL     OW10453   0.154   6.332   6.484
 3185SOL    HW110454   0.060   6.331   6.449
 3185SOL    HW210455   0.198   6.245   6.464
 3186SOL     OW10456   3.476   0.629   1.597
 3186SOL    HW110457   3.500   0.719   1.635
 3186SOL    HW210458   3.519   0.558   1.653
 3187SOL     OW10459   2.837   4.213   0.190
 3187SOL    HW110460   2.798   4.240   0.101
 3187SOL    HW210461   2.847   4.114   0.193
 3188SOL     OW10462   4.599   6.911   3.303
 3188SOL    HW110463   4.599   6.994   3.358
 3188SOL    HW210464   4.579   6.934   3.208
 3189SOL     OW10465   6.937   6.955   1.957
 3189SOL    HW110466   6.856   6.955   1.899
 3189SOL    HW210467   7.019   6.939   1.902
 3190SOL     OW10468   0.663   6.807   1.379
 3190SOL    HW110469   0.749   6.855   1.364
 3190SOL    HW210470   0.593   6.842   1.317
 3191SOL     OW10471   3.048   0.188   0.557
 3191SOL    HW110472   3.009   0.203   0.465
 3191SOL    HW210473   3.003   0.249   0.622
 3192SOL     OW10474   5.736   2.153   3.180
 3192SOL    HW110475   5.729   2.073   3.119
 3192SOL    HW210476   5.668   2.145   3.253
 3193SOL     OW10477   4.535   4.348   0.970
 3193SOL    HW110478   4.551   4.370   1.066
 3193SOL    HW210479   4.609   4.388   0.915
 3194SOL     OW10480   1.942   4.662   5.236
 3194SOL    HW110481   1.898   4.583   5.194
 3194SOL    HW210482   1.929   4.742   5.177
 3195SOL     OW10483   0.961   3.889   3.320
 3195SOL    HW110484   0.963   3.790   3.329
 3195SOL    HW210485   1.054   3.923   3.303
 3196SOL     OW10486   0.331   6.966   5.570
 3196SOL    HW110487   0.360   6.870   5.562
 3196SOL    HW210488   0.409   7.022   5.598
 3197SOL     OW10489   0.104   3.709   4.286
 3197SOL    HW110490   0.097   3.677   4.381
 3197SOL    HW210491   0.201   3.725   4.263
 3198SOL     OW10492   5.543   6.257   0.388
 3198SOL    HW110493   5.626   6.249   0.443
 3198SOL    HW210494   5.507   6.166   0.368
 3199SOL     OW10495   3.606   1.601   3.445
 3199SOL    HW110496   3.638   1.696   3.439
 3199SOL    HW210497   3.516   1.599   3.487
 3200SOL     OW10498   0.169   2.262   0.220
 3200SOL    HW110499   0.119   2.193   0.273
 3200SOL    HW210500   0.253   2.286   0.268
 3201SOL     OW10501   4.657   4.327   3.146
 3201SOL    HW110502   4.579   4.389   3.139
 3201SOL    HW210503   4.661   4.289   3.239
 3202SOL     OW10504   1.086   5.899   1.723
 3202SOL    HW110505   1.123   5.831   1.660
 3202SOL    HW210506   1.004   5.862   1.768
 3203SOL     OW10507   4.945   0.407   1.073
 3203SOL    HW110508   4.913   0.313   1.077
 3203SOL    HW210509   4.912   0.451   0.990
 3204SOL     OW10510   6.303   6.073   2.329
 3204SOL    HW110511   6.223   6.132   2.338
 3204SOL    HW210512   6.314   6.047   2.233
 3205SOL     OW10513   0.923   4.065   3.753
 3205SOL    HW110514   0.957   3.972   3.739
 3205SOL    HW210515   0.969   4.128   3.690
 3206SOL     OW10516   1.703   6.789   0.293
 3206SOL    HW110517   1.780   6.776   0.230
 3206SOL    HW210518   1.714   6.730   0.373
 3207SOL     OW10519   0.868   1.348   2.308
 3207SOL    HW110520   0.839   1.286   2.235
 3207SOL    HW210521   0.788   1.395   2.346
 3208SOL     OW10522   6.067   0.526   4.631
 3208SOL    HW110523   6.013   0.536   4.547
 3208SOL    HW210524   6.162   0.553   4.614
 3209SOL     OW10525   2.155   0.352   2.717
 3209SOL    HW110526   2.241   0.401   2.700
 3209SOL    HW210527   2.121   0.314   2.631
 3210SOL     OW10528   0.584   5.011   1.934
 3210SOL    HW110529   0.491   4.995   1.900
 3210SOL    HW210530   0.580   5.045   2.028
 3211SOL     OW10531   1.047   4.069   2.646
 3211SOL    HW110532   0.991   4.023   2.715
 3211SOL    HW210533   1.033   4.025   2.557
 3212SOL     OW10534   4.934   3.219   5.613
 3212SOL    HW110535   4.978   3.224   5.523
 3212SOL    HW210536   4.880   3.135   5.618
 3213SOL     OW10537   4.881   0.160   1.117
 3213SOL    HW110538   4.844   0.172   1.209
 3213SOL    HW210539   4.849   0.073   1.080
 3214SOL     OW10540   4.027   4.250   6.454
 3214SOL    HW110541   3.991   4.338   6.421
 3214SOL    HW210542   3.951   4.189   6.477
 3215SOL     OW10543   6.161   1.249   0.290
 3215SOL    HW110544   6.120   1.189   0.221
 3215SOL    HW210545   6.215   1.194   0.354
 3216SOL     OW10546   5.727   6.671   4.996
 3216SOL    HW110547   5.816   6.639   4.966
 3216SOL    HW210548   5.681   6.720   4.922
 3217SOL     OW10549   6.580   4.186   0.215
 3217SOL    HW110550   6.629   4.266   0.252
 3217SOL    HW210551   6.511   4.156   0.281
 3218SOL     OW10552   3.686   1.768   2.056
 3218SOL    HW110553   3.596   1.780   2.097
 3218SOL    HW210554   3.687   1.811   1.966
 3219SOL     OW10555   0.437   0.127   3.819
 3219SOL    HW110556   0.378   0.201   3.785
 3219SOL    HW210557   0.408   0.101   3.912
 3220SOL     OW10558   5.524   2.991   5.818
 3220SOL    HW110559   5.609   2.978   5.766
 3220SOL    HW210560   5.535   2.951   5.909
 3221SOL     OW10561   3.808   0.553   2.578
 3221SOL    HW110562   3.759   0.605   2.648
 3221SOL    HW210563   3.777   0.581   2.487
 3222SOL     OW10564   6.494   4.351   1.988
 3222SOL    HW110565   6.551   4.274   2.017
 3222SOL    HW210566   6.473   4.408   2.067
 3223SOL     OW10567   2.586   4.714   3.603
 3223SOL    HW110568   2.570   4.631   3.656
 3223SOL    HW210569   2.507   4.774   3.610
 3224SOL     OW10570   3.144   5.968   1.337
 3224SOL    HW110571   3.223   5.954   1.278
 3224SOL    HW210572   3.062   5.931   1.293
 3225SOL     OW10573   1.903   2.712   0.979
 3225SOL    HW110574   1.933   2.658   1.058
 3225SOL    HW210575   1.930   2.807   0.991
 3226SOL     OW10576   0.417   0.608   4.143
 3226SOL    HW110577   0.488   0.588   4.075
 3226SOL    HW210578   0.352   0.673   4.104
 3227SOL     OW10579   1.896   2.030   5.426
 3227SOL    HW110580   1.925   2.001   5.335
 3227SOL    HW210581   1.805   2.072   5.420
 3228SOL     OW10582   4.880   3.397   4.770
 3228SOL    HW110583   4.855   3.488   4.804
 3228SOL    HW210584   4.843   3.327   4.832
 3229SOL     OW10585   4.620   1.703   5.420
 3229SOL    HW110586   4.603   1.683   5.323
 3229SOL    HW210587   4.709   1.665   5.446
 3230SOL     OW10588   1.713   0.413   3.914
 3230SOL    HW110589   1.722   0.447   4.008
 3230SOL    HW210590   1.686   0.489   3.854
 3231SOL     OW10591   4.579   5.059   0.514
 3231SOL    HW110592   4.535   4.983   0.467
 3231SOL    HW210593   4.669   5.075   0.474
 3232SOL     OW10594   1.799   4.259   3.088
 3232SOL    HW110595   1.772   4.319   3.163
 3232SOL    HW210596   1.849   4.312   3.020
 3233SOL     OW10597   1.650   4.015   0.310
 3233SOL    HW110598   1.641   4.079   0.234
 3233SOL    HW210599   1.690   4.063   0.388
 3234SOL     OW10600   6.604   2.520   5.076
 3234SOL    HW110601   6.576   2.588   5.008
 3234SOL    HW210602   6.679   2.557   5.130
 3235SOL     OW10603   5.204   0.741   2.381
 3235SOL    HW110604   5.296   0.716   2.413
 3235SOL    HW210605   5.204   0.836   2.351
 3236SOL     OW10606   0.341   2.672   1.446
 3236SOL    HW110607   0.330   2.577   1.419
 3236SOL    HW210608   0.266   2.699   1.507
 3237SOL     OW10609   3.120   6.262   4.690
 3237SOL    HW110610   3.149   6.222   4.603
 3237SOL    HW210611   3.021   6.250   4.701
 3238SOL     OW10612   6.510   6.255   6.448
 3238SOL    HW110613   6.434   6.221   6.393
 3238SOL    HW210614   6.511   6.207   6.536
 3239SOL     OW10615   0.598   6.028   5.483
 3239SOL    HW110616   0.560   6.118   5.462
 3239SOL    HW210617   0.560   5.995   5.570
 3240SOL     OW10618   0.494   2.193   4.739
 3240SOL    HW110619   0.443   2.270   4.699
 3240SOL    HW210620   0.438   2.110   4.734
 3241SOL     OW10621   4.390   6.794   4.943
 3241SOL    HW110622   4.396   6.810   5.041
 3241SOL    HW210623   4.394   6.695   4.925
 3242SOL     OW10624   3.276   6.932   0.751
 3242SOL    HW110625   3.263   6.846   0.702
 3242SOL    HW210626   3.289   7.006   0.685
 3243SOL     OW10627   3.174   5.283   1.109
 3243SOL    HW110628   3.263   5.315   1.141
 3243SOL    HW210629   3.171   5.288   1.009
 3244SOL     OW10630   1.109   6.250   5.692
 3244SOL    HW110631   1.037   6.239   5.761
 3244SOL    HW210632   1.176   6.318   5.724
 3245SOL     OW10633   3.191   1.832   6.048
 3245SOL    HW110634   3.279   1.785   6.047
 3245SOL    HW210635   3.199   1.915   6.104
 3246SOL     OW10636   5.677   6.290   3.893
 3246SOL    HW110637   5.699   6.263   3.799
 3246SOL    HW210638   5.591   6.247   3.920
 3247SOL     OW10639   6.199   2.992   5.471
 3247SOL    HW110640   6.184   3.087   5.440
 3247SOL    HW210641   6.142   2.974   5.551
 3248SOL     OW10642   4.890   3.687   2.923
 3248SOL    HW110643   4.878   3.747   2.844
 3248SOL    HW210644   4.941   3.606   2.896
 3249SOL     OW10645   3.257   4.378   5.690
 3249SOL    HW110646   3.353   4.372   5.715
 3249SOL    HW210647   3.245   4.448   5.620
 3250SOL     OW10648   4.709   5.262   1.395
 3250SOL    HW110649   4.657   5.233   1.475
 3250SOL    HW210650   4.779   5.193   1.374
 3251SOL     OW10651   3.763   0.485   3.654
 3251SOL    HW110652   3.694   0.556   3.666
 3251SOL    HW210653   3.747   0.437   3.568
 3252SOL     OW10654   3.508   1.811   3.689
 3252SOL    HW110655   3.512   1.907   3.662
 3252SOL    HW210656   3.431   1.767   3.644
 3253SOL     OW10657   4.863   4.495   1.137
 3253SOL    HW110658   4.809   4.475   1.218
 3253SOL    HW210659   4.814   4.560   1.079
 3254SOL     OW10660   6.320   3.995   2.468
 3254SOL    HW110661   6.276   4.033   2.549
 3254SOL    HW210662   6.381   3.921   2.495
 3255SOL     OW10663   3.952   5.184   0.774
 3255SOL    HW110664   3.887   5.253   0.807
 3255SOL    HW210665   3.924   5.153   0.683
 3256SOL     OW10666   6.228   6.648   5.583
 3256SOL    HW110667   6.217   6.720   5.651
 3256SOL    HW210668   6.162   6.574   5.602
 3257SOL     OW10669   2.113   1.735   1.243
 3257SOL    HW110670   2.193   1.749   1.184
 3257SOL    HW210671   2.132   1.661   1.307
 3258SOL     OW10672   4.788   6.667   1.358
 3258SOL    HW110673   4.862   6.600   1.357
 3258SOL    HW210674   4.709   6.631   1.307
 3259SOL     OW10675   5.896   6.077   3.525
 3259SOL    HW110676   5.913   6.009   3.454
 3259SOL    HW210677   5.897   6.168   3.484
 3260SOL     OW10678   1.850   1.641   1.120
 3260SOL    HW110679   1.904   1.714   1.163
 3260SOL    HW210680   1.910   1.581   1.067
 3261SOL     OW10681   4.781   6.921   3.667
 3261SOL    HW110682   4.798   6.944   3.763
 3261SOL    HW210683   4.825   6.989   3.608
 3262SOL     OW10684   3.657   1.577   4.029
 3262SOL    HW110685   3.571   1.538   4.061
 3262SOL    HW210686   3.647   1.605   3.933
 3263SOL     OW10687   3.553   4.889   2.984
 3263SOL    HW110688   3.523   4.956   3.052
 3263SOL    HW210689   3.610   4.820   3.028
 3264SOL     OW10690   4.923   4.805   6.017
 3264SOL    HW110691   4.837   4.833   6.059
 3264SOL    HW210692   4.959   4.879   5.961
 3265SOL     OW10693   5.101   0.211   6.045
 3265SOL    HW110694   5.012   0.166   6.049
 3265SOL    HW210695   5.158   0.166   5.977
 3266SOL     OW10696   1.283   2.710   6.433
 3266SOL    HW110697   1.187   2.690   6.455
 3266SOL    HW210698   1.302   2.806   6.455
 3267SOL     OW10699   5.235   2.970   1.589
 3267SOL    HW110700   5.254   2.875   1.564
 3267SOL    HW210701   5.242   2.980   1.689
 3268SOL     OW10702   1.752   5.079   6.696
 3268SOL    HW110703   1.815   5.152   6.721
 3268SOL    HW210704   1.770   5.051   6.602
 3269SOL     OW10705   4.517   3.373   0.787
 3269SOL    HW110706   4.430   3.404   0.827
 3269SOL    HW210707   4.512   3.274   0.771
 3270SOL     OW10708   0.232   4.985   3.870
 3270SOL    HW110709   0.292   5.060   3.844
 3270SOL    HW210710   0.136   5.010   3.853
 3271SOL     OW10711   4.585   0.281   1.835
 3271SOL    HW110712   4.591   0.369   1.882
 3271SOL    HW210713   4.555   0.211   1.900
 3272SOL     OW10714   4.938   6.386   6.607
 3272SOL    HW110715   5.023   6.337   6.590
 3272SOL    HW210716   4.935   6.468   6.550
 3273SOL     OW10717   1.245   0.639   3.010
 3273SOL    HW110718   1.297   0.678   3.086
 3273SOL    HW210719   1.166   0.698   2.989
 3274SOL     OW10720   2.977   1.521   6.778
 3274SOL    HW110721   2.890   1.561   6.751
 3274SOL    HW210722   2.973   1.493   6.874
 3275SOL     OW10723   4.705   0.832   6.757
 3275SOL    HW110724   4.735   0.923   6.787
 3275SOL    HW210725   4.610   0.818   6.787
 3276SOL     OW10726   1.979   6.210   6.966
 3276SOL    HW110727   2.050   6.139   6.970
 3276SOL    HW210728   1.942   6.225   0.034
 3277SOL     OW10729   6.855   6.086   6.522
 3277SOL    HW110730   6.901   6.084   6.611
 3277SOL    HW210731   6.756   6.082   6.535
 3278SOL     OW10732   0.771   0.851   0.162
 3278SOL    HW110733   0.766   0.931   0.103
 3278SOL    HW210734   0.679   0.829   0.197
 3279SOL     OW10735   1.918   6.486   1.217
 3279SOL    HW110736   1.971   6.478   1.302
 3279SOL    HW210737   1.840   6.424   1.221
 3280SOL     OW10738   2.624   6.430   4.135
 3280SOL    HW110739   2.587   6.518   4.105
 3280SOL    HW210740   2.567   6.394   4.209
 3281SOL     OW10741   2.246   6.341   0.617
 3281SOL    HW110742   2.301   6.262   0.645
 3281SOL    HW210743   2.297   6.425   0.637
 3282SOL     OW10744   2.167   5.450   2.553
 3282SOL    HW110745   2.232   5.381   2.521
 3282SOL    HW210746   2.085   5.406   2.588
 3283SOL     OW10747   2.205   6.797   3.322
 3283SOL    HW110748   2.131   6.730   3.327
 3283SOL    HW210749   2.175   6.876   3.269
 3284SOL     OW10750   1.174   4.996   5.710
 3284SOL    HW110751   1.254   5.056   5.716
 3284SOL    HW210752   1.132   5.005   5.620
 3285SOL     OW10753   0.469   2.945   3.937
 3285SOL    HW110754   0.418   2.866   3.970
 3285SOL    HW210755   0.542   2.915   3.876
 3286SOL     OW10756   4.556   4.421   6.624
 3286SOL    HW110757   4.511   4.509   6.611
 3286SOL    HW210758   4.523   4.356   6.555
 3287SOL     OW10759   0.093   3.389   1.594
 3287SOL    HW110760   0.141   3.472   1.566
 3287SOL    HW210761   0.126   3.360   1.684
 3288SOL     OW10762   0.941   6.968   6.800
 3288SOL    HW110763   0.877   6.899   6.834
 3288SOL    HW210764   0.922   0.032   6.843
 3289SOL     OW10765   1.449   6.238   4.377
 3289SOL    HW110766   1.462   6.161   4.315
 3289SOL    HW210767   1.398   6.207   4.458
 3290SOL     OW10768   0.162   4.705   3.466
 3290SOL    HW110769   0.230   4.708   3.539
 3290SOL    HW210770   0.209   4.705   3.377
 3291SOL     OW10771   1.985   0.889   2.226
 3291SOL    HW110772   2.074   0.906   2.184
 3291SOL    HW210773   1.958   0.969   2.281
 3292SOL     OW10774   0.742   5.760   4.931
 3292SOL    HW110775   0.746   5.697   4.854
 3292SOL    HW210776   0.684   5.721   5.003
 3293SOL     OW10777   6.090   0.797   3.171
 3293SOL    HW110778   6.052   0.889   3.176
 3293SOL    HW210779   6.182   0.797   3.211
 3294SOL     OW10780   0.176   6.749   0.962
 3294SOL    HW110781   0.250   6.687   0.935
 3294SOL    HW210782   0.109   6.755   0.888
 3295SOL     OW10783   2.236   2.462   5.990
 3295SOL    HW110784   2.222   2.510   5.904
 3295SOL    HW210785   2.333   2.468   6.016
 3296SOL     OW10786   0.999   6.359   2.617
 3296SOL    HW110787   0.957   6.337   2.705
 3296SOL    HW210788   1.075   6.422   2.631
 3297SOL     OW10789   3.465   1.464   6.140
 3297SOL    HW110790   3.424   1.395   6.200
 3297SOL    HW210791   3.558   1.485   6.171
 3298SOL     OW10792   6.906   4.263   2.372
 3298SOL    HW110793   6.982   4.198   2.372
 3298SOL    HW210794   6.942   4.356   2.366
 3299SOL     OW10795   1.026   1.727   4.444
 3299SOL    HW110796   0.928   1.722   4.425
 3299SOL    HW210797   1.046   1.684   4.532
 3300SOL     OW10798   6.865   0.209   4.927
 3300SOL    HW110799   6.898   0.218   5.021
 3300SOL    HW210800   6.943   0.191   4.867
 3301SOL     OW10801   6.448   3.938   2.160
 3301SOL    HW110802   6.487   4.014   2.212
 3301SOL    HW210803   6.516   3.906   2.093
 3302SOL     OW10804   1.123   6.282   5.405
 3302SOL    HW110805   1.206   6.270   5.350
 3302SOL    HW210806   1.140   6.251   5.498
 3303SOL     OW10807   2.902   3.488   3.954
 3303SOL    HW110808   2.867   3.459   4.043
 3303SOL    HW210809   2.996   3.523   3.964
 3304SOL     OW10810   1.789   0.390   3.320
 3304SOL    HW110811   1.696   0.409   3.353
 3304SOL    HW210812   1.827   0.473   3.280
 3305SOL     OW10813   0.786   3.089   0.285
 3305SOL    HW110814   0.815   3.041   0.367
 3305SOL    HW210815   0.687   3.099   0.285
 3306SOL     OW10816   1.468   2.471   2.434
 3306SOL    HW110817   1.521   2.526   2.369
 3306SOL    HW210818   1.375   2.508   2.440
 3307SOL     OW10819   0.877   0.177   0.426
 3307SOL    HW110820   0.826   0.111   0.370
 3307SOL    HW210821   0.928   0.128   0.496
 3308SOL     OW10822   5.117   6.211   1.093
 3308SOL    HW110823   5.101   6.278   1.022
 3308SOL    HW210824   5.180   6.248   1.161
 3309SOL     OW10825   1.516   4.660   2.198
 3309SOL    HW110826   1.481   4.744   2.156
 3309SOL    HW210827   1.580   4.683   2.271
 3310SOL     OW10828   1.692   6.929   2.187
 3310SOL    HW110829   1.676   6.993   2.262
 3310SOL    HW210830   1.778   6.952   2.141
 3311SOL     OW10831   3.967   5.621   0.794
 3311SOL    HW110832   4.063   5.600   0.776
 3311SOL    HW210833   3.960   5.715   0.827
 3312SOL     OW10834   1.539   2.772   6.208
 3312SOL    HW110835   1.547   2.730   6.298
 3312SOL    HW210836   1.526   2.871   6.218
 3313SOL     OW10837   5.960   6.605   4.858
 3313SOL    HW110838   5.913   6.519   4.879
 3313SOL    HW210839   5.994   6.603   4.764
 3314SOL     OW10840   0.797   4.752   6.776
 3314SOL    HW110841   0.760   4.718   6.862
 3314SOL    HW210842   0.897   4.747   6.779
 3315SOL     OW10843   6.523   2.826   3.348
 3315SOL    HW110844   6.429   2.860   3.355
 3315SOL    HW210845   6.526   2.749   3.284
 3316SOL     OW10846   4.226   1.052   0.304
 3316SOL    HW110847   4.141   1.036   0.353
 3316SOL    HW210848   4.207   1.090   0.214
 3317SOL     OW10849   4.372   2.016   1.452
 3317SOL    HW110850   4.447   2.063   1.404
 3317SOL    HW210851   4.389   2.019   1.550
 3318SOL     OW10852   2.762   5.082   5.622
 3318SOL    HW110853   2.731   5.153   5.559
 3318SOL    HW210854   2.809   5.010   5.571
 3319SOL     OW10855   6.743   6.369   6.642
 3319SOL    HW110856   6.830   6.412   6.617
 3319SOL    HW210857   6.698   6.336   6.559
 3320SOL     OW10858   0.675   0.410   1.023
 3320SOL    HW110859   0.715   0.326   0.986
 3320SOL    HW210860   0.714   0.489   0.977
 3321SOL     OW10861   3.925   3.844   4.338
 3321SOL    HW110862   3.899   3.750   4.314
 3321SOL    HW210863   3.988   3.842   4.416
 3322SOL     OW10864   4.647   2.171   2.311
 3322SOL    HW110865   4.626   2.073   2.312
 3322SOL    HW210866   4.729   2.187   2.256
 3323SOL     OW10867   1.830   4.664   0.390
 3323SOL    HW110868   1.798   4.735   0.327
 3323SOL    HW210869   1.826   4.575   0.344
 3324SOL     OW10870   6.170   3.407   1.681
 3324SOL    HW110871   6.184   3.505   1.673
 3324SOL    HW210872   6.259   3.361   1.685
 3325SOL     OW10873   0.809   4.954   5.801
 3325SOL    HW110874   0.777   4.860   5.791
 3325SOL    HW210875   0.875   4.959   5.876
 3326SOL     OW10876   5.558   0.419   2.383
 3326SOL    HW110877   5.546   0.508   2.426
 3326SOL    HW210878   5.533   0.425   2.286
 3327SOL     OW10879   4.704   5.993   1.917
 3327SOL    HW110880   4.654   6.067   1.872
 3327SOL    HW210881   4.776   6.032   1.974
 3328SOL     OW10882   6.178   6.738   4.250
 3328SOL    HW110883   6.193   6.814   4.186
 3328SOL    HW210884   6.153   6.774   4.339
 3329SOL     OW10885   5.706   0.758   5.908
 3329SOL    HW110886   5.734   0.844   5.952
 3329SOL    HW210887   5.646   0.708   5.970
 3330SOL     OW10888   6.817   6.810   2.767
 3330SOL    HW110889   6.823   6.710   2.765
 3330SOL    HW210890   6.821   6.846   2.674
 3331SOL     OW10891   1.553   4.118   2.613
 3331SOL    HW110892   1.626   4.066   2.658
 3331SOL    HW210893   1.577   4.216   2.613
 3332SOL     OW10894   3.883   5.224   0.250
 3332SOL    HW110895   3.959   5.287   0.240
 3332SOL    HW210896   3.888   5.178   0.339
 3333SOL     OW10897   1.732   3.780   1.189
 3333SOL    HW110898   1.724   3.779   1.089
 3333SOL    HW210899   1.740   3.686   1.223
 3334SOL     OW10900   1.157   2.296   2.510
 3334SOL    HW110901   1.161   2.395   2.523
 3334SOL    HW210902   1.108   2.275   2.425
 3335SOL     OW10903   3.545   4.360   5.714
 3335SOL    HW110904   3.596   4.403   5.640
 3335SOL    HW210905   3.595   4.368   5.800
 3336SOL     OW10906   3.952   5.850   5.652
 3336SOL    HW110907   3.993   5.761   5.675
 3336SOL    HW210908   3.956   5.910   5.733
 3337SOL     OW10909   3.339   2.924   3.851
 3337SOL    HW110910   3.244   2.953   3.863
 3337SOL    HW210911   3.351   2.892   3.757
 3338SOL     OW10912   2.612   3.163   1.588
 3338SOL    HW110913   2.641   3.195   1.498
 3338SOL    HW210914   2.653   3.220   1.659
 3339SOL     OW10915   0.814   6.491   6.748
 3339SOL    HW110916   0.812   6.471   6.846
 3339SOL    HW210917   0.728   6.535   6.722
 3340SOL     OW10918   4.658   1.217   6.195
 3340SOL    HW110919   4.686   1.204   6.290
 3340SOL    HW210920   4.723   1.171   6.134
 3341SOL     OW10921   1.360   4.154   1.273
 3341SOL    HW110922   1.435   4.115   1.220
 3341SOL    HW210923   1.273   4.131   1.230
 3342SOL     OW10924   5.787   0.220   2.346
 3342SOL    HW110925   5.867   0.279   2.338
 3342SOL    HW210926   5.706   0.275   2.362
 3343SOL     OW10927   3.494   5.458   0.819
 3343SOL    HW110928   3.417   5.421   0.872
 3343SOL    HW210929   3.468   5.465   0.723
 3344SOL     OW10930   1.256   3.444   1.560
 3344SOL    HW110931   1.212   3.530   1.534
 3344SOL    HW210932   1.300   3.455   1.649
 3345SOL     OW10933   5.208   5.350   1.339
 3345SOL    HW110934   5.146   5.425   1.315
 3345SOL    HW210935   5.164   5.291   1.407
 3346SOL     OW10936   1.277   0.757   0.035
 3346SOL    HW110937   1.371   0.743   0.067
 3346SOL    HW210938   1.216   0.768   0.114
 3347SOL     OW10939   1.171   4.039   5.663
 3347SOL    HW110940   1.261   4.003   5.688
 3347SOL    HW210941   1.144   4.110   5.727
 3348SOL     OW10942   3.371   4.065   6.227
 3348SOL    HW110943   3.313   3.985   6.245
 3348SOL    HW210944   3.384   4.116   6.312
 3349SOL     OW10945   1.628   5.735   1.735
 3349SOL    HW110946   1.703   5.717   1.799
 3349SOL    HW210947   1.655   5.707   1.643
 3350SOL     OW10948   2.314   5.136   5.205
 3350SOL    HW110949   2.312   5.102   5.299
 3350SOL    HW210950   2.357   5.069   5.145
 3351SOL     OW10951   5.036   6.861   1.887
 3351SOL    HW110952   5.085   6.923   1.825
 3351SOL    HW210953   5.075   6.770   1.880
 3352SOL     OW10954   5.509   1.186   6.886
 3352SOL    HW110955   5.594   1.224   6.849
 3352SOL    HW210956   5.438   1.186   6.816
 3353SOL     OW10957   4.181   0.782   6.410
 3353SOL    HW110958   4.230   0.817   6.329
 3353SOL    HW210959   4.182   0.852   6.481
 3354SOL     OW10960   2.225   3.185   0.260
 3354SOL    HW110961   2.231   3.087   0.239
 3354SOL    HW210962   2.316   3.220   0.284
 3355SOL     OW10963   1.297   1.095   4.955
 3355SOL    HW110964   1.302   1.194   4.941
 3355SOL    HW210965   1.288   1.049   4.866
 3356SOL     OW10966   3.171   1.097   5.980
 3356SOL    HW110967   3.169   1.012   5.929
 3356SOL    HW210968   3.262   1.112   6.018
 3357SOL     OW10969   2.898   3.625   3.387
 3357SOL    HW110970   2.904   3.680   3.469
 3357SOL    HW210971   2.874   3.683   3.309
 3358SOL     OW10972   0.058   2.010   1.014
 3358SOL    HW110973   7.004   2.064   0.981
 3358SOL    HW210974   0.096   2.053   1.096
 3359SOL     OW10975   1.307   6.920   4.339
 3359SOL    HW110976   1.366   6.846   4.308
 3359SOL    HW210977   1.251   6.952   4.262
 3360SOL     OW10978   1.531   5.390   4.715
 3360SOL    HW110979   1.599   5.417   4.783
 3360SOL    HW210980   1.443   5.431   4.737
 3361SOL     OW10981   6.681   6.655   4.470
 3361SOL    HW110982   6.587   6.681   4.450
 3361SOL    HW210983   6.743   6.719   4.424
 3362SOL     OW10984   3.899   0.475   4.483
 3362SOL    HW110985   3.971   0.439   4.542
 3362SOL    HW210986   3.923   0.461   4.388
 3363SOL     OW10987   5.366   3.699   0.418
 3363SOL    HW110988   5.347   3.639   0.496
 3363SOL    HW210989   5.309   3.671   0.340
 3364SOL     OW10990   1.786   3.605   1.514
 3364SOL    HW110991   1.833   3.539   1.454
 3364SOL    HW210992   1.784   3.569   1.607
 3365SOL     OW10993   1.173   2.800   2.847
 3365SOL    HW110994   1.247   2.828   2.908
 3365SOL    HW210995   1.210   2.781   2.756
 3366SOL     OW10996   5.969   2.452   4.007
 3366SOL    HW110997   6.004   2.443   4.101
 3366SOL    HW210998   5.922   2.368   3.981
 3367SOL     OW10999   3.544   3.052   3.708
 3367SOL    HW111000   3.524   3.021   3.615
 3367SOL    HW211001   3.472   3.019   3.770
 3368SOL     OW11002   2.460   0.959   3.696
 3368SOL    HW111003   2.456   1.042   3.752
 3368SOL    HW211004   2.467   0.984   3.600
 3369SOL     OW11005   5.255   2.782   1.249
 3369SOL    HW111006   5.240   2.710   1.181
 3369SOL    HW211007   5.242   2.744   1.341
 3370SOL     OW11008   0.796   5.425   2.937
 3370SOL    HW111009   0.730   5.450   2.866
 3370SOL    HW211010   0.755   5.438   3.027
 3371SOL     OW11011   2.609   2.860   1.308
 3371SOL    HW111012   2.565   2.868   1.219
 3371SOL    HW211013   2.673   2.936   1.320
 3372SOL     OW11014   5.554   2.524   3.408
 3372SOL    HW111015   5.644   2.541   3.448
 3372SOL    HW211016   5.502   2.609   3.404
 3373SOL     OW11017   0.183   4.363   0.546
 3373SOL    HW111018   0.170   4.461   0.540
 3373SOL    HW211019   0.260   4.335   0.488
 3374SOL     OW11020   1.243   5.596   3.948
 3374SOL    HW111021   1.260   5.510   3.901
 3374SOL    HW211022   1.314   5.611   4.017
 3375SOL     OW11023   0.131   6.176   5.700
 3375SOL    HW111024   0.060   6.247   5.690
 3375SOL    HW211025   0.213   6.217   5.740
 3376SOL     OW11026   3.344   3.520   5.071
 3376SOL    HW111027   3.424   3.485   5.120
 3376SOL    HW211028   3.336   3.475   4.983
 3377SOL     OW11029   6.747   5.407   4.117
 3377SOL    HW111030   6.838   5.367   4.129
 3377SOL    HW211031   6.681   5.334   4.102
 3378SOL     OW11032   0.941   5.753   0.480
 3378SOL    HW111033   0.870   5.727   0.415
 3378SOL    HW211034   0.909   5.738   0.573
 3379SOL     OW11035   5.892   4.246   4.034
 3379SOL    HW111036   5.830   4.319   4.005
 3379SOL    HW211037   5.890   4.240   4.134
 3380SOL     OW11038   2.031   5.352   1.789
 3380SOL    HW111039   2.092   5.323   1.863
 3380SOL    HW211040   1.969   5.423   1.823
 3381SOL     OW11041   2.734   3.970   6.262
 3381SOL    HW111042   2.749   3.894   6.325
 3381SOL    HW211043   2.645   4.011   6.279
 3382SOL     OW11044   6.788   3.896   6.458
 3382SOL    HW111045   6.832   3.874   6.545
 3382SOL    HW211046   6.698   3.937   6.475
 3383SOL     OW11047   3.112   6.100   0.733
 3383SOL    HW111048   3.110   6.052   0.821
 3383SOL    HW211049   3.054   6.181   0.739
 3384SOL     OW11050   2.661   2.870   6.392
 3384SOL    HW111051   2.734   2.807   6.365
 3384SOL    HW211052   2.648   2.864   6.491
 3385SOL     OW11053   5.804   2.777   4.663
 3385SOL    HW111054   5.782   2.874   4.670
 3385SOL    HW211055   5.878   2.764   4.597
 3386SOL     OW11056   0.352   5.705   4.995
 3386SOL    HW111057   0.330   5.800   5.018
 3386SOL    HW211058   0.449   5.689   5.008
 3387SOL     OW11059   6.202   0.076   3.041
 3387SOL    HW111060   6.138   0.152   3.052
 3387SOL    HW211061   6.281   0.107   2.989
 3388SOL     OW11062   0.783   4.006   0.405
 3388SOL    HW111063   0.850   3.963   0.345
 3388SOL    HW211064   0.724   3.937   0.446
 3389SOL     OW11065   6.511   5.294   6.000
 3389SOL    HW111066   6.469   5.329   5.916
 3389SOL    HW211067   6.582   5.358   6.030
 3390SOL     OW11068   3.357   5.734   0.607
 3390SOL    HW111069   3.442   5.740   0.658
 3390SOL    HW211070   3.322   5.826   0.588
 3391SOL     OW11071   5.089   3.781   5.164
 3391SOL    HW111072   5.129   3.872   5.156
 3391SOL    HW211073   5.104   3.730   5.078
 3392SOL     OW11074   5.350   6.363   5.722
 3392SOL    HW111075   5.341   6.447   5.669
 3392SOL    HW211076   5.334   6.284   5.662
 3393SOL     OW11077   3.637   0.098   0.408
 3393SOL    HW111078   3.610   0.161   0.481
 3393SOL    HW211079   3.593   0.009   0.422
 3394SOL     OW11080   2.854   5.555   1.415
 3394SOL    HW111081   2.830   5.473   1.466
 3394SOL    HW211082   2.814   5.550   1.323
 3395SOL     OW11083   2.118   6.639   3.009
 3395SOL    HW111084   2.207   6.684   3.006
 3395SOL    HW211085   2.078   6.650   3.100
 3396SOL     OW11086   4.551   0.383   4.971
 3396SOL    HW111087   4.562   0.448   5.045
 3396SOL    HW211088   4.497   0.424   4.898
 3397SOL     OW11089   2.399   6.093   1.144
 3397SOL    HW111090   2.325   6.105   1.079
 3397SOL    HW211091   2.487   6.107   1.098
 3398SOL     OW11092   6.933   0.997   6.557
 3398SOL    HW111093   7.012   1.007   6.496
 3398SOL    HW211094   6.854   1.045   6.518
 3399SOL     OW11095   0.120   6.025   2.307
 3399SOL    HW111096   0.111   6.091   2.233
 3399SOL    HW211097   0.145   6.073   2.391
 3400SOL     OW11098   3.329   3.003   5.490
 3400SOL    HW111099   3.253   2.990   5.427
 3400SOL    HW211100   3.296   2.999   5.584
 3401SOL     OW11101   6.688   3.226   4.009
 3401SOL    HW111102   6.650   3.318   4.017
 3401SOL    HW211103   6.772   3.229   3.955
 3402SOL     OW11104   5.714   3.395   0.200
 3402SOL    HW111105   5.671   3.481   0.172
 3402SOL    HW211106   5.654   3.348   0.265
 3403SOL     OW11107   5.683   6.451   4.652
 3403SOL    HW111108   5.585   6.469   4.648
 3403SOL    HW211109   5.733   6.526   4.609
 3404SOL     OW11110   5.148   5.036   3.067
 3404SOL    HW111111   5.237   5.052   3.111
 3404SOL    HW211112   5.150   4.947   3.020
 3405SOL     OW11113   4.280   5.891   1.154
 3405SOL    HW111114   4.270   5.989   1.170
 3405SOL    HW211115   4.371   5.873   1.116
 3406SOL     OW11116   3.805   4.818   1.112
 3406SOL    HW111117   3.818   4.838   1.209
 3406SOL    HW211118   3.893   4.817   1.066
 3407SOL     OW11119   1.729   2.762   0.443
 3407SOL    HW111120   1.678   2.782   0.359
 3407SOL    HW211121   1.683   2.690   0.494
 3408SOL     OW11122   4.149   6.390   4.010
 3408SOL    HW111123   4.161   6.443   3.927
 3408SOL    HW211124   4.069   6.331   4.001
 3409SOL     OW11125   4.513   2.043   6.711
 3409SOL    HW111126   4.503   2.020   6.614
 3409SOL    HW211127   4.427   2.024   6.759
 3410SOL     OW11128   6.940   0.691   2.279
 3410SOL    HW111129   0.014   0.673   2.264
 3410SOL    HW211130   6.917   0.669   2.373
 3411SOL     OW11131   5.995   3.196   6.086
 3411SOL    HW111132   5.966   3.150   6.170
 3411SOL    HW211133   5.972   3.138   6.007
 3412SOL     OW11134   5.442   2.682   3.635
 3412SOL    HW111135   5.498   2.749   3.587
 3412SOL    HW211136   5.347   2.691   3.606
 3413SOL     OW11137   0.191   2.681   0.750
 3413SOL    HW111138   0.231   2.752   0.808
 3413SOL    HW211139   0.244   2.597   0.760
 3414SOL     OW11140   3.876   3.092   1.810
 3414SOL    HW111141   3.879   3.010   1.752
 3414SOL    HW211142   3.783   3.130   1.809
 3415SOL     OW11143   2.731   1.426   6.462
 3415SOL    HW111144   2.722   1.524   6.480
 3415SOL    HW211145   2.725   1.376   6.548
 3416SOL     OW11146   5.536   6.627   5.952
 3416SOL    HW111147   5.596   6.689   6.004
 3416SOL    HW211148   5.447   6.621   5.998
 3417SOL     OW11149   5.736   0.422   2.584
 3417SOL    HW111150   5.820   0.470   2.558
 3417SOL    HW211151   5.664   0.443   2.519
 3418SOL     OW11152   4.186   5.914   0.594
 3418SOL    HW111153   4.177   6.009   0.565
 3418SOL    HW211154   4.097   5.870   0.592
 3419SOL     OW11155   3.004   4.759   5.349
 3419SOL    HW111156   2.925   4.790   5.402
 3419SOL    HW211157   2.976   4.687   5.285
 3420SOL     OW11158   4.033   1.094   2.046
 3420SOL    HW111159   4.049   1.136   1.956
 3420SOL    HW211160   3.934   1.082   2.060
 3421SOL     OW11161   0.174   1.455   4.290
 3421SOL    HW111162   0.227   1.437   4.373
 3421SOL    HW211163   0.078   1.470   4.313
 3422SOL     OW11164   3.289   5.697   1.925
 3422SOL    HW111165   3.226   5.768   1.958
 3422SOL    HW211166   3.369   5.692   1.985
 3423SOL     OW11167   2.338   4.626   6.289
 3423SOL    HW111168   2.296   4.649   6.201
 3423SOL    HW211169   2.402   4.698   6.315
 3424SOL     OW11170   5.522   0.005   2.378
 3424SOL    HW111171   5.587   0.024   2.304
 3424SOL    HW211172   5.552   0.051   2.461
 3425SOL     OW11173   5.604   2.981   6.340
 3425SOL    HW111174   5.551   3.049   6.289
 3425SOL    HW211175   5.570   2.975   6.434
 3426SOL     OW11176   6.604   5.504   6.444
 3426SOL    HW111177   6.616   5.461   6.533
 3426SOL    HW211178   6.517   5.554   6.443
 3427SOL     OW11179   1.912   1.573   6.433
 3427SOL    HW111180   1.992   1.612   6.478
 3427SOL    HW211181   1.942   1.514   6.358
 3428SOL     OW11182   5.190   0.439   4.131
 3428SOL    HW111183   5.287   0.452   4.112
 3428SOL    HW211184   5.172   0.342   4.148
 3429SOL     OW11185   4.191   6.172   0.469
 3429SOL    HW111186   4.252   6.240   0.509
 3429SOL    HW211187   4.105   6.217   0.443
 3430SOL     OW11188   3.070   4.622   6.938
 3430SOL    HW111189   3.116   4.709   6.922
 3430SOL    HW211190   2.971   4.636   6.944
 3431SOL     OW11191   1.072   4.675   2.723
 3431SOL    HW111192   1.160   4.648   2.682
 3431SOL    HW211193   1.013   4.594   2.730
 3432SOL     OW11194   0.416   5.210   6.683
 3432SOL    HW111195   0.449   5.305   6.677
 3432SOL    HW211196   0.358   5.191   6.604
 3433SOL     OW11197   0.498   0.493   0.521
 3433SOL    HW111198   0.587   0.477   0.479
 3433SOL    HW211199   0.479   0.591   0.523
 3434SOL     OW11200   3.855   2.136   2.402
 3434SOL    HW111201   3.947   2.169   2.422
 3434SOL    HW211202   3.849   2.113   2.305
 3435SOL     OW11203   1.955   2.985   1.021
 3435SOL    HW111204   1.889   3.003   1.094
 3435SOL    HW211205   1.928   3.034   0.939
 3436SOL     OW11206   4.159   6.073   5.713
 3436SOL    HW111207   4.253   6.044   5.698
 3436SOL    HW211208   4.141   6.079   5.811
 3437SOL     OW11209   1.395   6.582   0.129
 3437SOL    HW111210   1.410   6.646   0.205
 3437SOL    HW211211   1.440   6.495   0.150
 3438SOL     OW11212   2.214   4.221   0.634
 3438SOL    HW111213   2.166   4.161   0.698
 3438SOL    HW211214   2.301   4.179   0.608
 3439SOL     OW11215   2.651   6.173   0.852
 3439SOL    HW111216   2.744   6.192   0.882
 3439SOL    HW211217   2.652   6.096   0.788
 3440SOL     OW11218   3.676   3.898   5.871
 3440SOL    HW111219   3.650   3.932   5.961
 3440SOL    HW211220   3.734   3.818   5.881
 3441SOL     OW11221   6.491   5.296   4.872
 3441SOL    HW111222   6.486   5.215   4.814
 3441SOL    HW211223   6.585   5.329   4.877
 3442SOL     OW11224   1.300   1.846   0.524
 3442SOL    HW111225   1.209   1.878   0.551
 3442SOL    HW211226   1.296   1.748   0.505
 3443SOL     OW11227   0.433   5.763   2.446
 3443SOL    HW111228   0.361   5.720   2.392
 3443SOL    HW211229   0.522   5.728   2.416
 3444SOL     OW11230   0.406   4.357   6.312
 3444SOL    HW111231   0.441   4.435   6.259
 3444SOL    HW211232   0.322   4.323   6.270
 3445SOL     OW11233   5.617   5.334   4.650
 3445SOL    HW111234   5.641   5.364   4.558
 3445SOL    HW211235   5.562   5.250   4.644
 3446SOL     OW11236   4.888   1.846   6.999
 3446SOL    HW111237   4.939   1.762   6.985
 3446SOL    HW211238   4.803   1.843   6.945
 3447SOL     OW11239   5.045   1.481   5.805
 3447SOL    HW111240   5.129   1.512   5.761
 3447SOL    HW211241   4.970   1.480   5.739
 3448SOL     OW11242   0.759   4.832   5.393
 3448SOL    HW111243   0.799   4.913   5.436
 3448SOL    HW211244   0.773   4.752   5.451
 3449SOL     OW11245   1.219   3.679   5.191
 3449SOL    HW111246   1.154   3.697   5.265
 3449SOL    HW211247   1.278   3.759   5.178
 3450SOL     OW11248   2.613   6.746   2.370
 3450SOL    HW111249   2.575   6.832   2.402
 3450SOL    HW211250   2.538   6.681   2.353
 3451SOL     OW11251   1.748   2.135   0.350
 3451SOL    HW111252   1.669   2.086   0.388
 3451SOL    HW211253   1.757   2.113   0.253
 3452SOL     OW11254   4.694   1.144   6.463
 3452SOL    HW111255   4.630   1.105   6.529
 3452SOL    HW211256   4.733   1.228   6.500
 3453SOL     OW11257   4.357   6.316   5.611
 3453SOL    HW111258   4.393   6.283   5.698
 3453SOL    HW211259   4.389   6.410   5.596
 3454SOL     OW11260   1.350   2.917   2.999
 3454SOL    HW111261   1.286   2.953   3.067
 3454SOL    HW211262   1.426   2.871   3.046
 3455SOL     OW11263   0.504   4.559   6.184
 3455SOL    HW111264   0.586   4.507   6.209
 3455SOL    HW211265   0.485   4.626   6.256
 3456SOL     OW11266   4.449   5.471   3.152
 3456SOL    HW111267   4.364   5.453   3.200
 3456SOL    HW211268   4.455   5.412   3.071
 3457SOL     OW11269   4.127   4.140   0.115
 3457SOL    HW111270   4.097   4.047   0.095
 3457SOL    HW211271   4.047   4.199   0.130
 3458SOL     OW11272   4.423   2.090   1.107
 3458SOL    HW111273   4.325   2.089   1.090
 3458SOL    HW211274   4.465   2.010   1.063
 3459SOL     OW11275   6.744   6.802   2.269
 3459SOL    HW111276   6.645   6.817   2.269
 3459SOL    HW211277   6.767   6.734   2.200
 3460SOL     OW11278   4.152   1.502   5.146
 3460SOL    HW111279   4.238   1.517   5.098
 3460SOL    HW211280   4.082   1.562   5.107
 3461SOL     OW11281   4.759   4.226   3.733
 3461SOL    HW111282   4.854   4.206   3.709
 3461SOL    HW211283   4.727   4.161   3.801
 3462SOL     OW11284   1.277   4.893   6.535
 3462SOL    HW111285   1.344   4.906   6.461
 3462SOL    HW211286   1.293   4.962   6.606
 3463SOL     OW11287   5.769   4.447   0.028
 3463SOL    HW111288   5.804   4.355   0.011
 3463SOL    HW211289   5.754   4.460   0.126
 3464SOL     OW11290   0.234   4.289   3.804
 3464SOL    HW111291   0.251   4.220   3.734
 3464SOL    HW211292   0.210   4.244   3.890
 3465SOL     OW11293   0.827   2.981   1.466
 3465SOL    HW111294   0.800   2.963   1.561
 3465SOL    HW211295   0.894   2.913   1.437
 3466SOL     OW11296   6.306   4.031   3.399
 3466SOL    HW111297   6.322   3.988   3.487
 3466SOL    HW211298   6.296   3.961   3.329
 3467SOL     OW11299   1.597   2.670   6.492
 3467SOL    HW111300   1.692   2.694   6.515
 3467SOL    HW211301   1.537   2.747   6.511
 3468SOL     OW11302   4.453   5.871   1.748
 3468SOL    HW111303   4.504   5.956   1.750
 3468SOL    HW211304   4.516   5.795   1.730
 3469SOL     OW11305   5.224   4.208   0.397
 3469SOL    HW111306   5.175   4.133   0.353
 3469SOL    HW211307   5.262   4.269   0.327
 3470SOL     OW11308   6.489   5.198   1.346
 3470SOL    HW111309   6.394   5.229   1.350
 3470SOL    HW211310   6.496   5.121   1.283
 3471SOL     OW11311   4.178   6.744   4.647
 3471SOL    HW111312   4.180   6.812   4.574
 3471SOL    HW211313   4.270   6.708   4.662
 3472SOL     OW11314   4.329   0.543   4.834
 3472SOL    HW111315   4.289   0.629   4.801
 3472SOL    HW211316   4.322   0.473   4.762
 3473SOL     OW11317   4.526   6.193   3.910
 3473SOL    HW111318   4.460   6.180   3.836
 3473SOL    HW211319   4.499   6.272   3.965
 3474SOL     OW11320   4.298   4.645   0.245
 3474SOL    HW111321   4.261   4.596   0.324
 3474SOL    HW211322   4.393   4.669   0.262
 3475SOL     OW11323   1.560   5.027   5.265
 3475SOL    HW111324   1.499   4.967   5.317
 3475SOL    HW211325   1.647   5.038   5.313
 3476SOL     OW11326   4.003   1.726   3.468
 3476SOL    HW111327   3.999   1.647   3.529
 3476SOL    HW211328   4.098   1.744   3.442
 3477SOL     OW11329   4.845   5.517   2.109
 3477SOL    HW111330   4.874   5.591   2.048
 3477SOL    HW211331   4.753   5.535   2.143
 3478SOL     OW11332   3.377   3.911   0.541
 3478SOL    HW111333   3.467   3.869   0.552
 3478SOL    HW211334   3.380   3.978   0.468
 3479SOL     OW11335   1.960   0.533   0.534
 3479SOL    HW111336   1.863   0.554   0.519
 3479SOL    HW211337   1.971   0.434   0.544
 3480SOL     OW11338   1.110   6.337   4.698
 3480SOL    HW111339   1.154   6.421   4.730
 3480SOL    HW211340   1.180   6.269   4.676
 3481SOL     OW11341   1.996   5.453   0.353
 3481SOL    HW111342   1.953   5.414   0.272
 3481SOL    HW211343   1.991   5.552   0.349
 3482SOL     OW11344   0.097   2.420   1.179
 3482SOL    HW111345   0.055   2.500   1.136
 3482SOL    HW211346   0.155   2.450   1.254
 3483SOL     OW11347   3.902   0.972   0.895
 3483SOL    HW111348   3.823   0.924   0.860
 3483SOL    HW211349   3.935   1.038   0.827
 3484SOL     OW11350   3.498   4.154   3.223
 3484SOL    HW111351   3.589   4.121   3.248
 3484SOL    HW211352   3.504   4.251   3.196
 3485SOL     OW11353   6.352   2.287   5.086
 3485SOL    HW111354   6.326   2.199   5.047
 3485SOL    HW211355   6.305   2.361   5.037
 3486SOL     OW11356   5.830   0.862   3.373
 3486SOL    HW111357   5.786   0.943   3.410
 3486SOL    HW211358   5.893   0.824   3.440
 3487SOL     OW11359   1.287   6.954   0.837
 3487SOL    HW111360   1.282   6.900   0.921
 3487SOL    HW211361   1.257   6.899   0.759
 3488SOL     OW11362   6.020   3.838   4.754
 3488SOL    HW111363   6.020   3.935   4.729
 3488SOL    HW211364   5.944   3.819   4.816
 3489SOL     OW11365   2.815   5.633   6.692
 3489SOL    HW111366   2.779   5.553   6.741
 3489SOL    HW211367   2.755   5.711   6.706
 3490SOL     OW11368   4.727   3.981   0.411
 3490SOL    HW111369   4.722   3.942   0.319
 3490SOL    HW211370   4.744   4.080   0.404
 3491SOL     OW11371   5.575   2.586   5.185
 3491SOL    HW111372   5.515   2.622   5.257
 3491SOL    HW211373   5.521   2.571   5.102
 3492SOL     OW11374   6.448   4.693   6.644
 3492SOL    HW111375   6.431   4.637   6.563
 3492SOL    HW211376   6.546   4.694   6.664
 3493SOL     OW11377   6.531   4.035   1.098
 3493SOL    HW111378   6.513   4.043   1.196
 3493SOL    HW211379   6.557   4.124   1.060
 3494SOL     OW11380   3.397   6.366   1.338
 3494SOL    HW111381   3.373   6.401   1.428
 3494SOL    HW211382   3.400   6.266   1.341
 3495SOL     OW11383   5.921   4.686   6.295
 3495SOL    HW111384   5.918   4.625   6.374
 3495SOL    HW211385   5.831   4.727   6.280
 3496SOL     OW11386   0.461   5.731   1.192
 3496SOL    HW111387   0.468   5.661   1.263
 3496SOL    HW211388   0.549   5.777   1.181
 3497SOL     OW11389   3.561   6.947   4.883
 3497SOL    HW111390   3.591   6.860   4.843
 3497SOL    HW211391   3.640   6.998   4.916
 3498SOL     OW11392   0.915   1.598   0.201
 3498SOL    HW111393   1.011   1.618   0.185
 3498SOL    HW211394   0.880   1.540   0.127
 3499SOL     OW11395   6.840   4.075   4.281
 3499SOL    HW111396   6.772   4.140   4.315
 3499SOL    HW211397   6.818   4.048   4.187
 3500SOL     OW11398   5.698   2.894   0.815
 3500SOL    HW111399   5.700   2.993   0.803
 3500SOL    HW211400   5.623   2.855   0.760
 3501SOL     OW11401   0.811   4.866   3.106
 3501SOL    HW111402   0.877   4.809   3.057
 3501SOL    HW211403   0.726   4.815   3.118
 3502SOL     OW11404   0.911   5.035   1.414
 3502SOL    HW111405   0.935   5.048   1.318
 3502SOL    HW211406   0.867   5.117   1.449
 3503SOL     OW11407   3.638   6.933   3.864
 3503SOL    HW111408   3.565   6.994   3.836
 3503SOL    HW211409   3.631   6.847   3.814
 3504SOL     OW11410   2.180   3.038   2.362
 3504SOL    HW111411   2.184   3.132   2.327
 3504SOL    HW211412   2.171   3.041   2.462
 3505SOL     OW11413   4.616   6.315   4.942
 3505SOL    HW111414   4.546   6.263   4.895
 3505SOL    HW211415   4.584   6.409   4.957
 3506SOL     OW11416   6.863   4.624   2.249
 3506SOL    HW111417   6.834   4.677   2.170
 3506SOL    HW211418   6.962   4.612   2.246
 3507SOL     OW11419   0.016   0.180   5.984
 3507SOL    HW111420   6.995   0.090   5.976
 3507SOL    HW211421   6.989   0.237   6.048
 3508SOL     OW11422   6.532   4.465   0.014
 3508SOL    HW111423   6.592   4.386   0.034
 3508SOL    HW211424   6.577   4.524   6.971
 3509SOL     OW11425   5.269   7.018   6.930
 3509SOL    HW111426   5.184   0.043   6.908
 3509SOL    HW211427   5.257   6.920   6.910
 3510SOL     OW11428   1.979   1.518   1.997
 3510SOL    HW111429   1.906   1.577   1.965
 3510SOL    HW211430   2.065   1.543   1.952
 3511SOL     OW11431   0.921   0.816   4.443
 3511SOL    HW111432   0.881   0.823   4.534
 3511SOL    HW211433   0.995   0.883   4.434
 3512SOL     OW11434   4.082   2.970   1.178
 3512SOL    HW111435   4.161   2.914   1.202
 3512SOL    HW211436   4.011   2.912   1.139
 3513SOL     OW11437   6.271   4.310   1.276
 3513SOL    HW111438   6.308   4.398   1.247
 3513SOL    HW211439   6.338   4.263   1.333
 3514SOL     OW11440   2.491   6.141   2.091
 3514SOL    HW111441   2.419   6.100   2.147
 3514SOL    HW211442   2.580   6.124   2.133
 3515SOL     OW11443   4.042   5.660   3.286
 3515SOL    HW111444   4.021   5.746   3.332
 3515SOL    HW211445   4.029   5.584   3.349
 3516SOL     OW11446   1.919   0.700   0.190
 3516SOL    HW111447   1.927   0.770   0.261
 3516SOL    HW211448   1.918   0.609   0.232
 3517SOL     OW11449   0.557   0.583   6.899
 3517SOL    HW111450   0.578   0.526   6.979
 3517SOL    HW211451   0.505   0.529   6.833
 3518SOL     OW11452   4.179   3.105   6.215
 3518SOL    HW111453   4.226   3.105   6.127
 3518SOL    HW211454   4.112   3.179   6.216
 3519SOL     OW11455   3.321   0.116   0.578
 3519SOL    HW111456   3.230   0.154   0.592
 3519SOL    HW211457   3.374   0.177   0.518
 3520SOL     OW11458   3.634   4.831   1.620
 3520SOL    HW111459   3.631   4.924   1.583
 3520SOL    HW211460   3.557   4.818   1.683
 3521SOL     OW11461   6.693   1.929   5.546
 3521SOL    HW111462   6.769   1.990   5.565
 3521SOL    HW211463   6.687   1.859   5.618
 3522SOL     OW11464   2.584   0.499   0.776
 3522SOL    HW111465   2.513   0.561   0.740
 3522SOL    HW211466   2.674   0.534   0.752
 3523SOL     OW11467   2.087   4.433   5.010
 3523SOL    HW111468   2.150   4.361   4.981
 3523SOL    HW211469   2.104   4.454   5.107
 3524SOL     OW11470   2.557   1.215   3.554
 3524SOL    HW111471   2.547   1.137   3.492
 3524SOL    HW211472   2.652   1.246   3.553
 3525SOL     OW11473   1.583   3.179   3.570
 3525SOL    HW111474   1.665   3.140   3.526
 3525SOL    HW211475   1.525   3.221   3.500
 3526SOL     OW11476   3.472   6.157   3.637
 3526SOL    HW111477   3.554   6.152   3.579
 3526SOL    HW211478   3.432   6.249   3.629
 3527SOL     OW11479   5.519   3.581   0.136
 3527SOL    HW111480   5.469   3.585   0.050
 3527SOL    HW211481   5.481   3.648   0.200
 3528SOL     OW11482   1.755   0.156   4.551
 3528SOL    HW111483   1.655   0.162   4.543
 3528SOL    HW211484   1.790   0.241   4.590
 3529SOL     OW11485   3.647   5.546   6.988
 3529SOL    HW111486   3.743   5.540   6.958
 3529SOL    HW211487   3.590   5.488   6.929
 3530SOL     OW11488   2.164   5.675   3.021
 3530SOL    HW111489   2.170   5.765   2.978
 3530SOL    HW211490   2.069   5.643   3.016
 3531SOL     OW11491   4.787   5.061   0.205
 3531SOL    HW111492   4.768   4.990   0.273
 3531SOL    HW211493   4.885   5.073   0.196
 3532SOL     OW11494   2.416   6.746   0.949
 3532SOL    HW111495   2.371   6.825   0.991
 3532SOL    HW211496   2.361   6.664   0.965
 3533SOL     OW11497   1.515   0.830   3.573
 3533SOL    HW111498   1.440   0.767   3.557
 3533SOL    HW211499   1.483   0.924   3.560
 3534SOL     OW11500   5.267   6.960   4.477
 3534SOL    HW111501   5.323   7.004   4.408
 3534SOL    HW211502   5.322   6.938   4.557
 3535SOL     OW11503   4.875   6.086   0.293
 3535SOL    HW111504   4.832   6.174   0.273
 3535SOL    HW211505   4.855   6.060   0.388
 3536SOL     OW11506   1.139   3.523   2.533
 3536SOL    HW111507   1.141   3.517   2.633
 3536SOL    HW211508   1.170   3.436   2.494
 3537SOL     OW11509   3.000   5.029   1.714
 3537SOL    HW111510   2.970   5.047   1.620
 3537SOL    HW211511   2.997   4.931   1.732
 3538SOL     OW11512   4.126   0.645   3.630
 3538SOL    HW111513   4.032   0.676   3.643
 3538SOL    HW211514   4.185   0.723   3.613
 3539SOL     OW11515   4.698   5.444   4.986
 3539SOL    HW111516   4.620   5.450   4.924
 3539SOL    HW211517   4.776   5.491   4.946
 3540SOL     OW11518   3.717   4.800   6.462
 3540SOL    HW111519   3.730   4.766   6.555
 3540SOL    HW211520   3.804   4.796   6.413
 3541SOL     OW11521   0.318   2.829   2.245
 3541SOL    HW111522   0.408   2.866   2.220
 3541SOL    HW211523   0.294   2.858   2.337
 3542SOL     OW11524   5.878   2.021   0.230
 3542SOL    HW111525   5.784   2.052   0.238
 3542SOL    HW211526   5.903   1.969   0.312
 3543SOL     OW11527   6.719   2.848   4.066
 3543SOL    HW111528   6.748   2.916   3.998
 3543SOL    HW211529   6.633   2.806   4.038
 3544SOL     OW11530   2.879   4.571   6.312
 3544SOL    HW111531   2.804   4.509   6.335
 3544SOL    HW211532   2.965   4.532   6.344
 3545SOL     OW11533   3.578   6.770   1.135
 3545SOL    HW111534   3.665   6.782   1.086
 3545SOL    HW211535   3.503   6.796   1.075
 3546SOL     OW11536   6.182   4.538   1.477
 3546SOL    HW111537   6.246   4.556   1.403
 3546SOL    HW211538   6.167   4.622   1.530
 3547SOL     OW11539   1.060   3.791   4.289
 3547SOL    HW111540   1.111   3.822   4.369
 3547SOL    HW211541   1.059   3.691   4.286
 3548SOL     OW11542   6.711   0.482   5.584
 3548SOL    HW111543   6.670   0.435   5.506
 3548SOL    HW211544   6.805   0.507   5.562
 3549SOL     OW11545   2.266   6.700   6.653
 3549SOL    HW111546   2.185   6.756   6.633
 3549SOL    HW211547   2.243   6.604   6.642
 3550SOL     OW11548   5.933   2.124   6.020
 3550SOL    HW111549   6.021   2.076   6.010
 3550SOL    HW211550   5.943   2.198   6.087
 3551SOL     OW11551   5.703   1.433   5.218
 3551SOL    HW111552   5.749   1.502   5.274
 3551SOL    HW211553   5.651   1.372   5.277
 3552SOL     OW11554   0.122   0.417   3.538
 3552SOL    HW111555   0.153   0.329   3.574
 3552SOL    HW211556   0.097   0.407   3.442
 3553SOL     OW11557   6.059   6.164   6.299
 3553SOL    HW111558   6.137   6.169   6.361
 3553SOL    HW211559   6.006   6.081   6.317
 3554SOL     OW11560   5.104   4.367   6.867
 3554SOL    HW111561   5.076   4.461   6.886
 3554SOL    HW211562   5.190   4.368   6.816
 3555SOL     OW11563   2.507   1.357   5.496
 3555SOL    HW111564   2.571   1.370   5.572
 3555SOL    HW211565   2.522   1.429   5.428
 3556SOL     OW11566   6.049   0.955   0.482
 3556SOL    HW111567   6.017   0.979   0.574
 3556SOL    HW211568   6.040   0.856   0.469
 3557SOL     OW11569   4.582   6.417   1.391
 3557SOL    HW111570   4.672   6.375   1.401
 3557SOL    HW211571   4.558   6.422   1.294
 3558SOL     OW11572   4.217   5.373   2.096
 3558SOL    HW111573   4.185   5.418   2.179
 3558SOL    HW211574   4.314   5.349   2.106
 3559SOL     OW11575   3.888   6.419   6.442
 3559SOL    HW111576   3.982   6.439   6.417
 3559SOL    HW211577   3.836   6.505   6.448
 3560SOL     OW11578   2.193   6.072   4.502
 3560SOL    HW111579   2.130   6.018   4.558
 3560SOL    HW211580   2.248   6.011   4.444
 3561SOL     OW11581   3.701   3.070   5.953
 3561SOL    HW111582   3.771   3.023   6.007
 3561SOL    HW211583   3.726   3.067   5.856
 3562SOL     OW11584   2.643   1.219   0.700
 3562SOL    HW111585   2.599   1.132   0.722
 3562SOL    HW211586   2.735   1.202   0.663
 3563SOL     OW11587   0.309   2.491   6.899
 3563SOL    HW111588   0.338   2.577   6.858
 3563SOL    HW211589   0.213   2.474   6.877
 3564SOL     OW11590   6.163   3.615   3.106
 3564SOL    HW111591   6.096   3.618   3.032
 3564SOL    HW211592   6.202   3.707   3.119
 3565SOL     OW11593   4.874   6.091   5.253
 3565SOL    HW111594   4.955   6.034   5.258
 3565SOL    HW211595   4.796   6.035   5.225
 3566SOL     OW11596   1.123   0.997   5.787
 3566SOL    HW111597   1.119   0.937   5.867
 3566SOL    HW211598   1.100   0.945   5.705
 3567SOL     OW11599   0.060   4.579   0.210
 3567SOL    HW111600   7.009   4.559   0.147
 3567SOL    HW211601   0.147   4.580   0.161
 3568SOL     OW11602   3.844   4.000   5.497
 3568SOL    HW111603   3.758   4.037   5.535
 3568SOL    HW211604   3.851   3.903   5.520
 3569SOL     OW11605   1.893   0.652   3.231
 3569SOL    HW111606   1.989   0.644   3.204
 3569SOL    HW211607   1.834   0.624   3.155
 3570SOL     OW11608   5.910   2.041   4.553
 3570SOL    HW111609   5.866   1.959   4.590
 3570SOL    HW211610   5.923   2.107   4.626
 3571SOL     OW11611   5.910   5.472   4.470
 3571SOL    HW111612   5.947   5.551   4.519
 3571SOL    HW211613   5.983   5.404   4.456
 3572SOL     OW11614   5.914   0.138   5.520
 3572SOL    HW111615   5.965   0.058   5.552
 3572SOL    HW211616   5.816   0.117   5.519
 3573SOL     OW11617   0.352   2.265   1.102
 3573SOL    HW111618   0.261   2.291   1.136
 3573SOL    HW211619   0.363   2.299   1.009
 3574SOL     OW11620   6.234   3.689   0.119
 3574SOL    HW111621   6.174   3.619   0.159
 3574SOL    HW211622   6.240   3.676   0.020
 3575SOL     OW11623   6.534   6.677   2.032
 3575SOL    HW111624   6.525   6.760   2.087
 3575SOL    HW211625   6.447   6.660   1.985
 3576SOL     OW11626   0.171   0.586   0.015
 3576SOL    HW111627   0.235   0.509   0.013
 3576SOL    HW211628   0.136   0.602   6.947
 3577SOL     OW11629   2.473   4.716   0.033
 3577SOL    HW111630   2.568   4.715   0.064
 3577SOL    HW211631   2.421   4.645   0.082
 3578SOL     OW11632   3.597   4.442   1.703
 3578SOL    HW111633   3.585   4.526   1.756
 3578SOL    HW211634   3.577   4.363   1.761
 3579SOL     OW11635   1.790   3.854   5.205
 3579SOL    HW111636   1.765   3.832   5.299
 3579SOL    HW211637   1.860   3.790   5.173
 3580SOL     OW11638   6.095   2.438   0.460
 3580SOL    HW111639   6.040   2.361   0.428
 3580SOL    HW211640   6.083   2.447   0.559
 3581SOL     OW11641   6.744   0.604   3.288
 3581SOL    HW111642   6.739   0.511   3.325
 3581SOL    HW211643   6.732   0.670   3.363
 3582SOL     OW11644   0.444   7.013   6.030
 3582SOL    HW111645   0.397   6.927   6.011
 3582SOL    HW211646   0.377   0.061   6.051
 3583SOL     OW11647   1.180   5.678   1.613
 3583SOL    HW111648   1.128   5.632   1.541
 3583SOL    HW211649   1.275   5.689   1.583
 3584SOL     OW11650   5.747   0.395   5.310
 3584SOL    HW111651   5.701   0.458   5.373
 3584SOL    HW211652   5.841   0.380   5.341
 3585SOL     OW11653   2.173   4.781   3.381
 3585SOL    HW111654   2.208   4.814   3.293
 3585SOL    HW211655   2.079   4.747   3.369
 3586SOL     OW11656   1.032   1.150   6.358
 3586SOL    HW111657   1.127   1.120   6.349
 3586SOL    HW211658   0.994   1.115   6.443
 3587SOL     OW11659   3.417   6.619   6.512
 3587SOL    HW111660   3.323   6.596   6.536
 3587SOL    HW211661   3.432   6.717   6.528
 3588SOL     OW11662   2.785   2.064   5.674
 3588SOL    HW111663   2.732   2.149   5.670
 3588SOL    HW211664   2.875   2.079   5.634
 3589SOL     OW11665   3.230   6.644   4.451
 3589SOL    HW111666   3.184   6.647   4.540
 3589SOL    HW211667   3.245   6.549   4.425
 3590SOL     OW11668   1.037   5.623   6.681
 3590SOL    HW111669   1.069   5.702   6.732
 3590SOL    HW211670   1.093   5.544   6.702
 3591SOL     OW11671   5.334   1.559   5.340
 3591SOL    HW111672   5.296   1.471   5.312
 3591SOL    HW211673   5.433   1.558   5.327
 3592SOL     OW11674   5.916   1.937   1.948
 3592SOL    HW111675   5.934   2.032   1.975
 3592SOL    HW211676   5.916   1.879   2.029
 3593SOL     OW11677   0.817   5.317   4.571
 3593SOL    HW111678   0.752   5.384   4.535
 3593SOL    HW211679   0.812   5.233   4.517
 3594SOL     OW11680   3.807   1.491   4.381
 3594SOL    HW111681   3.834   1.452   4.293
 3594SOL    HW211682   3.708   1.481   4.392
 3595SOL     OW11683   2.382   6.075   5.662
 3595SOL    HW111684   2.314   6.047   5.729
 3595SOL    HW211685   2.380   6.174   5.651
 3596SOL     OW11686   0.383   3.713   3.475
 3596SOL    HW111687   0.463   3.699   3.534
 3596SOL    HW211688   0.373   3.810   3.456
 3597SOL     OW11689   3.989   0.029   4.178
 3597SOL    HW111690   4.033   0.037   4.267
 3597SOL    HW211691   4.050   7.004   4.115
 3598SOL     OW11692   1.718   0.330   0.088
 3598SOL    HW111693   1.813   0.311   0.109
 3598SOL    HW211694   1.712   0.386   0.005
 3599SOL     OW11695   6.859   2.043   4.664
 3599SOL    HW111696   6.879   2.128   4.616
 3599SOL    HW211697   6.940   1.984   4.662
 3600SOL     OW11698   6.307   6.986   1.301
 3600SOL    HW111699   6.230   6.922   1.295
 3600SOL    HW211700   6.322   7.010   1.397
 3601SOL     OW11701   6.211   3.679   5.986
 3601SOL    HW111702   6.210   3.681   5.886
 3601SOL    HW211703   6.287   3.621   6.018
 3602SOL     OW11704   3.136   2.298   1.136
 3602SOL    HW111705   3.207   2.308   1.066
 3602SOL    HW211706   3.067   2.233   1.105
 3603SOL     OW11707   4.116   5.020   4.768
 3603SOL    HW111708   4.157   4.930   4.750
 3603SOL    HW211709   4.026   5.025   4.724
 3604SOL     OW11710   6.187   4.163   3.197
 3604SOL    HW111711   6.088   4.151   3.188
 3604SOL    HW211712   6.218   4.118   3.280
 3605SOL     OW11713   6.204   2.111   6.479
 3605SOL    HW111714   6.137   2.083   6.548
 3605SOL    HW211715   6.260   2.033   6.452
 3606SOL     OW11716   2.271   4.065   3.007
 3606SOL    HW111717   2.321   3.978   2.999
 3606SOL    HW211718   2.190   4.051   3.064
 3607SOL     OW11719   4.319   0.003   6.578
 3607SOL    HW111720   4.300   6.928   6.575
 3607SOL    HW211721   4.233   0.054   6.572
 3608SOL     OW11722   0.941   3.189   3.456
 3608SOL    HW111723   1.021   3.160   3.508
 3608SOL    HW211724   0.903   3.111   3.407
 3609SOL     OW11725   0.125   0.033   3.965
 3609SOL    HW111726   0.154   0.104   4.029
 3609SOL    HW211727   0.152   6.967   4.000
 3610SOL     OW11728   1.408   5.230   6.069
 3610SOL    HW111729   1.473   5.200   6.138
 3610SOL    HW211730   1.332   5.278   6.114
 3611SOL     OW11731   4.691   5.520   5.263
 3611SOL    HW111732   4.653   5.608   5.233
 3611SOL    HW211733   4.674   5.451   5.193
 3612SOL     OW11734   2.210   6.113   0.959
 3612SOL    HW111735   2.153   6.190   0.986
 3612SOL    HW211736   2.153   6.038   0.927
 3613SOL     OW11737   4.964   5.292   5.753
 3613SOL    HW111738   4.933   5.385   5.775
 3613SOL    HW211739   4.885   5.237   5.725
 3614SOL     OW11740   3.611   2.911   4.278
 3614SOL    HW111741   3.539   2.910   4.209
 3614SOL    HW211742   3.603   2.994   4.333
 3615SOL     OW11743   5.166   6.389   6.298
 3615SOL    HW111744   5.228   6.313   6.318
 3615SOL    HW211745   5.217   6.475   6.301
 3616SOL     OW11746   6.094   1.067   4.412
 3616SOL    HW111747   6.187   1.032   4.415
 3616SOL    HW211748   6.056   1.068   4.505
 3617SOL     OW11749   6.900   0.948   0.342
 3617SOL    HW111750   6.980   0.914   0.292
 3617SOL    HW211751   6.893   0.901   0.430
 3618SOL     OW11752   2.816   6.427   6.188
 3618SOL    HW111753   2.881   6.451   6.260
 3618SOL    HW211754   2.801   6.328   6.188
 3619SOL     OW11755   5.204   3.485   3.627
 3619SOL    HW111756   5.197   3.583   3.610
 3619SOL    HW211757   5.230   3.438   3.543
 3620SOL     OW11758   6.035   1.683   5.082
 3620SOL    HW111759   6.022   1.630   5.165
 3620SOL    HW211760   5.992   1.637   5.005
 3621SOL     OW11761   1.551   2.823   5.545
 3621SOL    HW111762   1.547   2.900   5.481
 3621SOL    HW211763   1.489   2.751   5.514
 3622SOL     OW11764   0.917   3.915   1.113
 3622SOL    HW111765   0.980   3.852   1.067
 3622SOL    HW211766   0.823   3.887   1.095
 3623SOL     OW11767   6.910   4.679   4.088
 3623SOL    HW111768   6.888   4.744   4.015
 3623SOL    HW211769   6.833   4.618   4.103
 3624SOL     OW11770   2.377   0.949   1.819
 3624SOL    HW111771   2.476   0.951   1.804
 3624SOL    HW211772   2.332   0.923   1.734
 3625SOL     OW11773   0.830   2.953   4.386
 3625SOL    HW111774   0.810   2.857   4.368
 3625SOL    HW211775   0.923   2.974   4.358
 3626SOL     OW11776   2.913   3.808   5.560
 3626SOL    HW111777   2.875   3.898   5.584
 3626SOL    HW211778   3.012   3.816   5.550
 3627SOL     OW11779   3.308   3.323   4.303
 3627SOL    HW111780   3.245   3.384   4.254
 3627SOL    HW211781   3.401   3.339   4.270
 3628SOL     OW11782   2.748   5.884   4.235
 3628SOL    HW111783   2.832   5.906   4.187
 3628SOL    HW211784   2.694   5.819   4.180
 3629SOL     OW11785   5.624   3.552   5.040
 3629SOL    HW111786   5.565   3.611   5.097
 3629SOL    HW211787   5.568   3.481   4.997
 3630SOL     OW11788   5.343   1.189   5.031
 3630SOL    HW111789   5.371   1.181   4.935
 3630SOL    HW211790   5.413   1.148   5.090
 3631SOL     OW11791   2.098   1.080   3.930
 3631SOL    HW111792   2.133   1.140   4.002
 3631SOL    HW211793   2.091   1.132   3.844
 3632SOL     OW11794   4.166   6.872   6.220
 3632SOL    HW111795   4.129   6.814   6.147
 3632SOL    HW211796   4.263   6.890   6.202
 3633SOL     OW11797   1.175   3.031   5.509
 3633SOL    HW111798   1.098   2.969   5.520
 3633SOL    HW211799   1.260   2.979   5.501
 3634SOL     OW11800   3.171   5.180   6.252
 3634SOL    HW111801   3.194   5.085   6.274
 3634SOL    HW211802   3.213   5.206   6.166
 3635SOL     OW11803   1.938   1.511   4.787
 3635SOL    HW111804   2.014   1.575   4.801
 3635SOL    HW211805   1.858   1.561   4.753
 3636SOL     OW11806   1.316   6.296   0.821
 3636SOL    HW111807   1.353   6.231   0.755
 3636SOL    HW211808   1.239   6.345   0.780
 3637SOL     OW11809   4.683   0.848   1.587
 3637SOL    HW111810   4.723   0.903   1.514
 3637SOL    HW211811   4.740   0.856   1.669
 3638SOL     OW11812   6.458   4.753   3.312
 3638SOL    HW111813   6.493   4.838   3.350
 3638SOL    HW211814   6.463   4.681   3.381
 3639SOL     OW11815   2.570   6.377   0.531
 3639SOL    HW111816   2.501   6.351   0.462
 3639SOL    HW211817   2.526   6.432   0.602
 3640SOL     OW11818   2.175   0.007   1.429
 3640SOL    HW111819   2.266   0.021   1.391
 3640SOL    HW211820   2.149   0.088   1.483
 3641SOL     OW11821   2.234   0.588   4.617
 3641SOL    HW111822   2.252   0.490   4.632
 3641SOL    HW211823   2.150   0.614   4.665
 3642SOL     OW11824   6.125   6.848   2.077
 3642SOL    HW111825   6.035   6.883   2.053
 3642SOL    HW211826   6.155   6.783   2.007
 3643SOL     OW11827   3.796   5.434   5.032
 3643SOL    HW111828   3.709   5.397   5.000
 3643SOL    HW211829   3.827   5.506   4.969
 3644SOL     OW11830   6.677   6.994   1.386
 3644SOL    HW111831   6.736   0.020   1.323
 3644SOL    HW211832   6.608   0.031   1.423
 3645SOL     OW11833   4.031   6.204   3.056
 3645SOL    HW111834   4.092   6.241   2.986
 3645SOL    HW211835   3.968   6.138   3.015
 3646SOL     OW11836   0.106   5.503   4.983
 3646SOL    HW111837   0.179   5.547   4.930
 3646SOL    HW211838   0.069   5.568   5.049
 3647SOL     OW11839   2.800   2.717   1.008
 3647SOL    HW111840   2.852   2.638   0.976
 3647SOL    HW211841   2.862   2.790   1.034
 3648SOL     OW11842   3.269   6.758   3.167
 3648SOL    HW111843   3.204   6.689   3.197
 3648SOL    HW211844   3.248   6.845   3.211
 3649SOL     OW11845   3.299   2.998   2.018
 3649SOL    HW111846   3.218   3.008   2.075
 3649SOL    HW211847   3.366   2.942   2.066
 3650SOL     OW11848   5.698   6.891   1.236
 3650SOL    HW111849   5.642   6.953   1.180
 3650SOL    HW211850   5.793   6.895   1.206
 3651SOL     OW11851   1.527   6.457   2.327
 3651SOL    HW111852   1.482   6.378   2.285
 3651SOL    HW211853   1.555   6.433   2.420
 3652SOL     OW11854   4.471   5.332   2.918
 3652SOL    HW111855   4.453   5.244   2.872
 3652SOL    HW211856   4.438   5.407   2.861
 3653SOL     OW11857   6.395   2.828   4.595
 3653SOL    HW111858   6.455   2.896   4.636
 3653SOL    HW211859   6.412   2.739   4.637
 3654SOL     OW11860   1.452   6.906   1.542
 3654SOL    HW111861   1.517   6.832   1.528
 3654SOL    HW211862   1.494   6.977   1.599
 3655SOL     OW11863   6.705   1.053   3.236
 3655SOL    HW111864   6.724   0.955   3.229
 3655SOL    HW211865   6.779   1.098   3.286
 3656SOL     OW11866   2.315   1.785   2.933
 3656SOL    HW111867   2.280   1.692   2.925
 3656SOL    HW211868   2.339   1.804   3.028
 3657SOL     OW11869   4.710   5.183   2.116
 3657SOL    HW111870   4.709   5.084   2.105
 3657SOL    HW211871   4.778   5.208   2.185
 3658SOL     OW11872   1.947   5.209   5.769
 3658SOL    HW111873   2.012   5.273   5.810
 3658SOL    HW211874   1.966   5.116   5.802
 3659SOL     OW11875   1.225   3.692   0.225
 3659SOL    HW111876   1.173   3.714   0.308
 3659SOL    HW211877   1.319   3.726   0.235
 3660SOL     OW11878   4.156   4.965   0.724
 3660SOL    HW111879   4.105   5.043   0.762
 3660SOL    HW211880   4.254   4.982   0.733
 3661SOL     OW11881   5.444   1.865   1.526
 3661SOL    HW111882   5.428   1.963   1.515
 3661SOL    HW211883   5.456   1.823   1.436
 3662SOL     OW11884   1.806   5.991   4.776
 3662SOL    HW111885   1.726   6.035   4.735
 3662SOL    HW211886   1.777   5.918   4.838
 3663SOL     OW11887   1.405   3.710   5.446
 3663SOL    HW111888   1.399   3.740   5.351
 3663SOL    HW211889   1.408   3.610   5.449
 3664SOL     OW11890   3.794   6.909   2.246
 3664SOL    HW111891   3.810   6.913   2.148
 3664SOL    HW211892   3.763   6.999   2.279
 3665SOL     OW11893   1.744   1.179   5.453
 3665SOL    HW111894   1.808   1.102   5.446
 3665SOL    HW211895   1.794   1.265   5.445
 3666SOL     OW11896   0.917   4.441   4.384
 3666SOL    HW111897   0.998   4.497   4.367
 3666SOL    HW211898   0.944   4.353   4.424
 3667SOL     OW11899   0.853   1.496   6.524
 3667SOL    HW111900   0.938   1.447   6.542
 3667SOL    HW211901   0.870   1.594   6.525
 3668SOL     OW11902   1.796   6.124   1.907
 3668SOL    HW111903   1.740   6.089   1.832
 3668SOL    HW211904   1.746   6.196   1.955
 3669SOL     OW11905   5.758   1.406   3.846
 3669SOL    HW111906   5.675   1.380   3.895
 3669SOL    HW211907   5.733   1.455   3.762
 3670SOL     OW11908   2.281   5.364   6.197
 3670SOL    HW111909   2.318   5.375   6.289
 3670SOL    HW211910   2.355   5.375   6.130
 3671SOL     OW11911   1.873   0.793   3.560
 3671SOL    HW111912   1.920   0.791   3.648
 3671SOL    HW211913   1.926   0.742   3.492
 3672SOL     OW11914   6.092   0.308   0.684
 3672SOL    HW111915   6.054   0.393   0.722
 3672SOL    HW211916   6.148   0.262   0.753
 3673SOL     OW11917   4.418   0.311   6.719
 3673SOL    HW111918   4.322   0.331   6.698
 3673SOL    HW211919   4.450   0.372   6.792
 3674SOL     OW11920   1.083   6.485   0.953
 3674SOL    HW111921   1.030   6.479   1.038
 3674SOL    HW211922   1.020   6.482   0.875
 3675SOL     OW11923   1.654   2.494   4.456
 3675SOL    HW111924   1.589   2.479   4.381
 3675SOL    HW211925   1.630   2.435   4.533
 3676SOL     OW11926   1.752   4.599   2.705
 3676SOL    HW111927   1.713   4.545   2.780
 3676SOL    HW211928   1.782   4.688   2.739
 3677SOL     OW11929   6.417   6.597   4.205
 3677SOL    HW111930   6.420   6.649   4.291
 3677SOL    HW211931   6.328   6.612   4.161
 3678SOL     OW11932   1.513   1.777   3.754
 3678SOL    HW111933   1.574   1.842   3.710
 3678SOL    HW211934   1.420   1.815   3.757
 3679SOL     OW11935   6.882   0.654   1.624
 3679SOL    HW111936   6.898   0.592   1.701
 3679SOL    HW211937   6.905   0.748   1.650
 3680SOL     OW11938   5.912   4.416   4.829
 3680SOL    HW111939   5.895   4.371   4.916
 3680SOL    HW211940   5.947   4.509   4.845
 3681SOL     OW11941   5.621   6.233   4.304
 3681SOL    HW111942   5.631   6.138   4.333
 3681SOL    HW211943   5.692   6.255   4.236
 3682SOL     OW11944   0.679   2.807   6.541
 3682SOL    HW111945   0.727   2.893   6.559
 3682SOL    HW211946   0.638   2.773   6.625
 3683SOL     OW11947   5.443   6.124   3.925
 3683SOL    HW111948   5.386   6.115   4.006
 3683SOL    HW211949   5.500   6.042   3.914
 3684SOL     OW11950   1.775   3.445   0.756
 3684SOL    HW111951   1.862   3.407   0.724
 3684SOL    HW211952   1.732   3.382   0.820
 3685SOL     OW11953   5.977   6.923   6.894
 3685SOL    HW111954   6.004   6.866   6.972
 3685SOL    HW211955   6.042   6.910   6.819
 3686SOL     OW11956   0.026   4.325   1.221
 3686SOL    HW111957   6.980   4.268   1.178
 3686SOL    HW211958   0.110   4.321   1.166
 3687SOL     OW11959   3.677   1.378   0.106
 3687SOL    HW111960   3.678   1.322   0.189
 3687SOL    HW211961   3.614   1.337   0.040
 3688SOL     OW11962   6.378   3.414   0.061
 3688SOL    HW111963   6.344   3.405   6.991
 3688SOL    HW211964   6.308   3.383   0.125
 3689SOL     OW11965   2.645   6.874   3.580
 3689SOL    HW111966   2.592   6.914   3.655
 3689SOL    HW211967   2.596   6.888   3.494
 3690SOL     OW11968   4.597   6.043   5.187
 3690SOL    HW111969   4.636   6.058   5.096
 3690SOL    HW211970   4.545   6.124   5.215
 3691SOL     OW11971   2.880   2.719   6.328
 3691SOL    HW111972   2.897   2.622   6.315
 3691SOL    HW211973   2.963   2.771   6.310
 3692SOL     OW11974   0.859   0.133   6.334
 3692SOL    HW111975   0.827   0.176   6.418
 3692SOL    HW211976   0.783   0.086   6.289
 3693SOL     OW11977   1.711   1.357   3.639
 3693SOL    HW111978   1.790   1.308   3.676
 3693SOL    HW211979   1.697   1.331   3.544
 3694SOL     OW11980   2.223   5.671   2.714
 3694SOL    HW111981   2.196   5.607   2.641
 3694SOL    HW211982   2.294   5.629   2.770
 3695SOL     OW11983   1.256   2.517   1.148
 3695SOL    HW111984   1.299   2.471   1.226
 3695SOL    HW211985   1.317   2.588   1.112
 3696SOL     OW11986   3.171   5.849   5.803
 3696SOL    HW111987   3.096   5.905   5.768
 3696SOL    HW211988   3.177   5.860   5.902
 3697SOL     OW11989   5.379   0.407   3.813
 3697SOL    HW111990   5.286   0.410   3.776
 3697SOL    HW211991   5.409   0.500   3.835
 3698SOL     OW11992   3.477   0.607   6.539
 3698SOL    HW111993   3.517   0.565   6.619
 3698SOL    HW211994   3.547   0.618   6.468
 3699SOL     OW11995   0.982   4.616   1.846
 3699SOL    HW111996   1.024   4.593   1.934
 3699SOL    HW211997   0.919   4.693   1.858
 3700SOL     OW11998   0.315   0.620   3.559
 3700SOL    HW111999   0.394   0.573   3.600
 3700SOL    HW212000   0.233   0.565   3.571
 3701SOL     OW12001   5.712   0.585   3.548
 3701SOL    HW112002   5.758   0.533   3.477
 3701SOL    HW212003   5.642   0.643   3.507
 3702SOL     OW12004   5.359   0.803   6.397
 3702SOL    HW112005   5.420   0.760   6.330
 3702SOL    HW212006   5.285   0.851   6.349
 3703SOL     OW12007   3.643   4.745   0.318
 3703SOL    HW112008   3.574   4.677   0.341
 3703SOL    HW212009   3.682   4.723   0.228
 3704SOL     OW12010   2.751   6.781   1.859
 3704SOL    HW112011   2.698   6.851   1.811
 3704SOL    HW212012   2.790   6.819   1.943
 3705SOL     OW12013   6.070   1.361   4.465
 3705SOL    HW112014   6.041   1.445   4.419
 3705SOL    HW212015   6.032   1.282   4.416
 3706SOL     OW12016   2.718   2.407   3.448
 3706SOL    HW112017   2.645   2.422   3.514
 3706SOL    HW212018   2.678   2.403   3.356
 3707SOL     OW12019   4.332   2.514   5.522
 3707SOL    HW112020   4.422   2.545   5.489
 3707SOL    HW212021   4.294   2.583   5.583
 3708SOL     OW12022   6.520   0.296   6.849
 3708SOL    HW112023   6.511   0.367   6.779
 3708SOL    HW212024   6.436   0.291   6.902
 3709SOL     OW12025   5.333   0.277   0.134
 3709SOL    HW112026   5.315   0.321   0.222
 3709SOL    HW212027   5.427   0.296   0.106
 3710SOL     OW12028   0.264   4.617   0.047
 3710SOL    HW112029   0.259   4.560   6.988
 3710SOL    HW212030   0.313   4.702   0.025
 3711SOL     OW12031   0.017   5.246   2.404
 3711SOL    HW112032   0.084   5.249   2.478
 3711SOL    HW212033   0.041   5.172   2.341
 3712SOL     OW12034   1.566   0.450   0.273
 3712SOL    HW112035   1.626   0.401   0.209
 3712SOL    HW212036   1.470   0.431   0.249
 3713SOL     OW12037   3.533   4.830   6.040
 3713SOL    HW112038   3.627   4.839   6.075
 3713SOL    HW212039   3.491   4.920   6.033
 3714SOL     OW12040   4.480   1.504   5.259
 3714SOL    HW112041   4.468   1.565   5.181
 3714SOL    HW212042   4.536   1.425   5.232
 3715SOL     OW12043   5.445   4.133   3.834
 3715SOL    HW112044   5.466   4.214   3.779
 3715SOL    HW212045   5.419   4.161   3.926
 3716SOL     OW12046   0.436   1.501   4.097
 3716SOL    HW112047   0.432   1.408   4.132
 3716SOL    HW212048   0.529   1.522   4.068
 3717SOL     OW12049   6.330   0.653   0.370
 3717SOL    HW112050   6.425   0.622   0.358
 3717SOL    HW212051   6.297   0.623   0.459
 3718SOL     OW12052   0.672   5.435   0.230
 3718SOL    HW112053   0.606   5.400   0.296
 3718SOL    HW212054   0.682   5.533   0.241
 3719SOL     OW12055   3.710   4.660   0.067
 3719SOL    HW112056   3.745   4.721   7.019
 3719SOL    HW212057   3.731   4.565   0.044
 3720SOL     OW12058   0.315   1.217   5.695
 3720SOL    HW112059   0.346   1.262   5.778
 3720SOL    HW212060   0.367   1.251   5.617
 3721SOL     OW12061   4.704   3.678   0.243
 3721SOL    HW112062   4.666   3.588   0.221
 3721SOL    HW212063   4.643   3.749   0.207
 3722SOL     OW12064   5.719   5.985   1.631
 3722SOL    HW112065   5.688   5.915   1.695
 3722SOL    HW212066   5.654   6.061   1.629
 3723SOL     OW12067   4.866   1.072   0.369
 3723SOL    HW112068   4.891   1.043   0.276
 3723SOL    HW212069   4.853   0.991   0.426
 3724SOL     OW12070   0.061   4.707   5.607
 3724SOL    HW112071   0.123   4.706   5.529
 3724SOL    HW212072   0.032   4.613   5.628
 3725SOL     OW12073   5.893   6.160   0.740
 3725SOL    HW112074   5.815   6.166   0.802
 3725SOL    HW212075   5.949   6.243   0.747
 3726SOL     OW12076   6.107   2.890   1.163
 3726SOL    HW112077   6.178   2.868   1.096
 3726SOL    HW212078   6.110   2.824   1.239
 3727SOL     OW12079   2.376   2.812   5.330
 3727SOL    HW112080   2.420   2.859   5.254
 3727SOL    HW212081   2.282   2.845   5.340
 3728SOL     OW12082   0.740   3.575   6.762
 3728SOL    HW112083   0.729   3.536   6.853
 3728SOL    HW212084   0.774   3.506   6.699
 3729SOL     OW12085   0.513   2.520   3.523
 3729SOL    HW112086   0.442   2.563   3.579
 3729SOL    HW212087   0.592   2.581   3.516
 3730SOL     OW12088   2.293   0.407   0.658
 3730SOL    HW112089   2.209   0.373   0.616
 3730SOL    HW212090   2.362   0.335   0.656
 3731SOL     OW12091   3.304   5.840   6.270
 3731SOL    HW112092   3.389   5.879   6.305
 3731SOL    HW212093   3.228   5.902   6.292
 3732SOL     OW12094   2.005   3.736   4.619
 3732SOL    HW112095   2.063   3.813   4.593
 3732SOL    HW212096   1.932   3.725   4.552
 3733SOL     OW12097   3.316   3.153   1.115
 3733SOL    HW112098   3.410   3.188   1.109
 3733SOL    HW212099   3.319   3.055   1.138
 3734SOL     OW12100   4.913   0.028   3.889
 3734SOL    HW112101   4.993   0.018   3.830
 3734SOL    HW212102   4.891   0.125   3.899
 3735SOL     OW12103   3.447   1.978   1.883
 3735SOL    HW112104   3.353   1.964   1.915
 3735SOL    HW212105   3.487   2.055   1.932
 3736SOL     OW12106   5.013   1.033   5.747
 3736SOL    HW112107   4.991   1.077   5.660
 3736SOL    HW212108   4.935   0.980   5.778
 3737SOL     OW12109   3.772   6.681   4.309
 3737SOL    HW112110   3.843   6.667   4.240
 3737SOL    HW212111   3.812   6.727   4.389
 3738SOL     OW12112   0.029   7.022   4.639
 3738SOL    HW112113   0.063   6.929   4.652
 3738SOL    HW212114   6.954   7.020   4.621
 3739SOL     OW12115   1.012   3.291   1.622
 3739SOL    HW112116   1.106   3.320   1.600
 3739SOL    HW212117   1.016   3.209   1.679
 3740SOL     OW12118   5.552   0.403   6.846
 3740SOL    HW112119   5.535   0.309   6.877
 3740SOL    HW212120   5.465   0.452   6.838
 3741SOL     OW12121   3.515   2.274   0.118
 3741SOL    HW112122   3.543   2.344   0.184
 3741SOL    HW212123   3.435   2.307   0.068
 3742SOL     OW12124   3.381   3.379   5.477
 3742SOL    HW112125   3.304   3.358   5.537
 3742SOL    HW212126   3.458   3.412   5.531
 3743SOL     OW12127   1.088   5.671   6.430
 3743SOL    HW112128   1.090   5.646   6.526
 3743SOL    HW212129   1.062   5.767   6.421
 3744SOL     OW12130   6.677   5.145   3.177
 3744SOL    HW112131   6.587   5.117   3.142
 3744SOL    HW212132   6.744   5.073   3.159
 3745SOL     OW12133   5.218   6.054   1.850
 3745SOL    HW112134   5.226   5.955   1.838
 3745SOL    HW212135   5.287   6.085   1.915
 3746SOL     OW12136   4.353   1.251   1.863
 3746SOL    HW112137   4.259   1.285   1.872
 3746SOL    HW212138   4.376   1.243   1.766
 3747SOL     OW12139   2.852   0.340   0.684
 3747SOL    HW112140   2.841   0.424   0.632
 3747SOL    HW212141   2.777   0.277   0.663
 3748SOL     OW12142   5.382   0.359   1.779
 3748SOL    HW112143   5.319   0.388   1.707
 3748SOL    HW212144   5.335   0.361   1.868
 3749SOL     OW12145   1.603   0.488   4.436
 3749SOL    HW112146   1.691   0.451   4.405
 3749SOL    HW212147   1.618   0.546   4.517
 3750SOL     OW12148   6.908   4.403   6.462
 3750SOL    HW112149   6.822   4.446   6.434
 3750SOL    HW212150   6.895   4.358   6.550
 3751SOL     OW12151   1.221   4.255   1.522
 3751SOL    HW112152   1.252   4.198   1.446
 3751SOL    HW212153   1.248   4.350   1.506
 3752SOL     OW12154   5.055   5.942   6.922
 3752SOL    HW112155   4.961   5.969   6.902
 3752SOL    HW212156   5.083   5.983   7.009
 3753SOL     OW12157   0.350   0.194   3.351
 3753SOL    HW112158   0.399   0.249   3.418
 3753SOL    HW212159   0.399   0.108   3.336
 3754SOL     OW12160   2.796   1.346   1.576
 3754SOL    HW112161   2.773   1.374   1.669
 3754SOL    HW212162   2.748   1.261   1.554
 3755SOL     OW12163   2.550   5.446   4.341
 3755SOL    HW112164   2.592   5.504   4.271
 3755SOL    HW212165   2.601   5.454   4.426
 3756SOL     OW12166   1.237   6.781   0.584
 3756SOL    HW112167   1.218   6.686   0.609
 3756SOL    HW212168   1.326   6.787   0.540
 3757SOL     OW12169   0.700   4.124   0.970
 3757SOL    HW112170   0.732   4.032   0.992
 3757SOL    HW212171   0.608   4.137   1.008
 3758SOL     OW12172   1.695   6.956   4.007
 3758SOL    HW112173   1.688   6.954   4.107
 3758SOL    HW212174   1.738   6.872   3.975
 3759SOL     OW12175   5.434   0.373   4.389
 3759SOL    HW112176   5.365   0.317   4.436
 3759SOL    HW212177   5.411   0.381   4.292
 3760SOL     OW12178   1.011   0.813   2.988
 3760SOL    HW112179   0.950   0.770   2.922
 3760SOL    HW212180   0.997   0.912   2.988
 3761SOL     OW12181   4.431   1.853   5.532
 3761SOL    HW112182   4.381   1.916   5.473
 3761SOL    HW212183   4.508   1.814   5.482
 3762SOL     OW12184   0.724   2.491   4.107
 3762SOL    HW112185   0.769   2.578   4.124
 3762SOL    HW212186   0.681   2.492   4.017
 3763SOL     OW12187   0.546   5.449   6.742
 3763SOL    HW112188   0.578   5.540   6.767
 3763SOL    HW212189   0.623   5.395   6.707
 3764SOL     OW12190   3.094   1.182   2.620
 3764SOL    HW112191   3.114   1.096   2.665
 3764SOL    HW212192   3.023   1.168   2.550
 3765SOL     OW12193   5.233   2.591   2.570
 3765SOL    HW112194   5.230   2.667   2.506
 3765SOL    HW212195   5.164   2.604   2.642
 3766SOL     OW12196   1.462   2.859   2.440
 3766SOL    HW112197   1.472   2.885   2.536
 3766SOL    HW212198   1.547   2.820   2.407
 3767SOL     OW12199   1.696   6.011   5.897
 3767SOL    HW112200   1.611   6.042   5.855
 3767SOL    HW212201   1.679   5.987   5.992
 3768SOL     OW12202   1.886   6.605   2.687
 3768SOL    HW112203   1.786   6.610   2.691
 3768SOL    HW212204   1.914   6.561   2.602
 3769SOL     OW12205   4.910   5.391   4.469
 3769SOL    HW112206   4.987   5.330   4.455
 3769SOL    HW212207   4.825   5.338   4.477
 3770SOL     OW12208   2.929   0.476   1.386
 3770SOL    HW112209   2.984   0.560   1.386
 3770SOL    HW212210   2.984   0.401   1.422
 3771SOL     OW12211   6.844   5.903   5.543
 3771SOL    HW112212   6.900   5.918   5.625
 3771SOL    HW212213   6.755   5.946   5.555
 3772SOL     OW12214   1.670   6.268   2.094
 3772SOL    HW112215   1.576   6.237   2.110
 3772SOL    HW212216   1.678   6.364   2.123
 3773SOL     OW12217   4.555   5.073   0.068
 3773SOL    HW112218   4.484   5.068   0.138
 3773SOL    HW212219   4.642   5.098   0.110
 3774SOL     OW12220   6.800   4.718   1.789
 3774SOL    HW112221   6.824   4.625   1.762
 3774SOL    HW212222   6.881   4.776   1.786
 3775SOL     OW12223   5.129   5.138   4.992
 3775SOL    HW112224   5.165   5.184   4.910
 3775SOL    HW212225   5.030   5.147   4.994
 3776SOL     OW12226   4.218   2.952   6.465
 3776SOL    HW112227   4.172   2.995   6.387
 3776SOL    HW212228   4.312   2.929   6.439
 3777SOL     OW12229   2.936   5.186   3.919
 3777SOL    HW112230   2.890   5.125   3.984
 3777SOL    HW212231   2.873   5.206   3.844
 3778SOL     OW12232   3.139   4.878   6.875
 3778SOL    HW112233   3.080   4.876   6.795
 3778SOL    HW212234   3.187   4.966   6.878
 3779SOL     OW12235   6.723   4.664   6.885
 3779SOL    HW112236   6.663   4.743   6.891
 3779SOL    HW212237   6.721   4.627   6.792
 3780SOL     OW12238   6.233   3.211   2.113
 3780SOL    HW112239   6.289   3.130   2.096
 3780SOL    HW212240   6.160   3.216   2.045
 3781SOL     OW12241   1.896   6.848   5.561
 3781SOL    HW112242   1.816   6.893   5.600
 3781SOL    HW212243   1.872   6.755   5.533
 3782SOL     OW12244   4.094   5.430   0.157
 3782SOL    HW112245   4.169   5.377   0.116
 3782SOL    HW212246   4.120   5.459   0.249
 3783SOL     OW12247   4.475   5.270   4.971
 3783SOL    HW112248   4.380   5.282   5.002
 3783SOL    HW212249   4.537   5.283   5.049
 3784SOL     OW12250   5.561   3.274   5.181
 3784SOL    HW112251   5.609   3.231   5.105
 3784SOL    HW212252   5.590   3.233   5.268
 3785SOL     OW12253   1.061   2.622   3.076
 3785SOL    HW112254   1.121   2.604   3.154
 3785SOL    HW212255   1.111   2.675   3.007
 3786SOL     OW12256   1.888   3.040   5.060
 3786SOL    HW112257   1.875   2.981   4.981
 3786SOL    HW212258   1.984   3.043   5.085
 3787SOL     OW12259   5.255   6.390   4.116
 3787SOL    HW112260   5.193   6.314   4.139
 3787SOL    HW212261   5.345   6.353   4.094
 3788SOL     OW12262   5.532   3.207   5.478
 3788SOL    HW112263   5.472   3.128   5.489
 3788SOL    HW212264   5.585   3.221   5.562
 3789SOL     OW12265   2.128   3.214   1.277
 3789SOL    HW112266   2.164   3.163   1.356
 3789SOL    HW212267   2.203   3.232   1.213
 3790SOL     OW12268   0.958   6.844   1.526
 3790SOL    HW112269   1.057   6.831   1.517
 3790SOL    HW212270   0.928   6.812   1.616
 3791SOL     OW12271   4.804   0.669   4.916
 3791SOL    HW112272   4.765   0.760   4.902
 3791SOL    HW212273   4.800   0.644   5.013
 3792SOL     OW12274   6.798   0.046   4.205
 3792SOL    HW112275   6.848   0.096   4.275
 3792SOL    HW212276   6.792   6.973   4.231
 3793SOL     OW12277   3.956   4.351   0.704
 3793SOL    HW112278   3.973   4.449   0.700
 3793SOL    HW212279   3.964   4.311   0.613
 3794SOL     OW12280   1.604   5.196   6.246
 3794SOL    HW112281   1.664   5.116   6.240
 3794SOL    HW212282   1.644   5.262   6.310
 3795SOL     OW12283   3.235   6.341   1.098
 3795SOL    HW112284   3.151   6.396   1.094
 3795SOL    HW212285   3.283   6.360   1.183
 3796SOL     OW12286   5.489   0.784   6.846
 3796SOL    HW112287   5.455   0.831   6.765
 3796SOL    HW212288   5.498   0.849   6.921
 3797SOL     OW12289   0.291   2.841   0.939
 3797SOL    HW112290   0.236   2.884   1.011
 3797SOL    HW212291   0.387   2.863   0.954
 3798SOL     OW12292   1.188   5.061   3.488
 3798SOL    HW112293   1.229   5.106   3.568
 3798SOL    HW212294   1.097   5.099   3.472
 3799SOL     OW12295   0.159   0.934   3.232
 3799SOL    HW112296   0.221   0.895   3.300
 3799SOL    HW212297   0.123   0.861   3.174
 3800SOL     OW12298   5.408   2.669   3.127
 3800SOL    HW112299   5.432   2.719   3.210
 3800SOL    HW212300   5.491   2.640   3.081
 3801SOL     OW12301   5.900   1.215   0.540
 3801SOL    HW112302   5.867   1.155   0.613
 3801SOL    HW212303   5.938   1.160   0.466
 3802SOL     OW12304   6.499   3.339   2.216
 3802SOL    HW112305   6.410   3.333   2.173
 3802SOL    HW212306   6.563   3.275   2.172
 3803SOL     OW12307   4.308   3.941   5.401
 3803SOL    HW112308   4.231   4.000   5.428
 3803SOL    HW212309   4.279   3.880   5.327
 3804SOL     OW12310   3.840   6.464   3.664
 3804SOL    HW112311   3.834   6.384   3.724
 3804SOL    HW212312   3.834   6.435   3.569
 3805SOL     OW12313   2.529   2.153   6.688
 3805SOL    HW112314   2.463   2.150   6.613
 3805SOL    HW212315   2.482   2.137   6.775
 3806SOL     OW12316   2.237   5.201   1.372
 3806SOL    HW112317   2.298   5.196   1.451
 3806SOL    HW212318   2.262   5.131   1.305
 3807SOL     OW12319   0.841   4.342   3.797
 3807SOL    HW112320   0.831   4.254   3.750
 3807SOL    HW212321   0.892   4.405   3.738
 3808SOL     OW12322   2.822   6.591   5.946
 3808SOL    HW112323   2.801   6.531   5.868
 3808SOL    HW212324   2.835   6.535   6.028
 3809SOL     OW12325   5.568   1.277   1.714
 3809SOL    HW112326   5.657   1.311   1.745
 3809SOL    HW212327   5.497   1.308   1.777
 3810SOL     OW12328   5.027   2.312   2.999
 3810SOL    HW112329   5.056   2.351   2.911
 3810SOL    HW212330   5.079   2.356   3.072
 3811SOL     OW12331   6.662   6.123   5.198
 3811SOL    HW112332   6.748   6.139   5.248
 3811SOL    HW212333   6.587   6.167   5.247
 3812SOL     OW12334   4.070   5.844   0.060
 3812SOL    HW112335   4.151   5.785   0.069
 3812SOL    HW212336   4.078   5.921   0.122
 3813SOL     OW12337   5.902   4.185   7.002
 3813SOL    HW112338   5.965   4.137   6.942
 3813SOL    HW212339   5.898   4.139   0.067
 3814SOL     OW12340   0.548   0.235   5.191
 3814SOL    HW112341   0.523   0.166   5.258
 3814SOL    HW212342   0.603   0.306   5.234
 3815SOL     OW12343   5.448   3.218   6.212
 3815SOL    HW112344   5.352   3.209   6.235
 3815SOL    HW212345   5.466   3.312   6.181
 3816SOL     OW12346   6.589   6.395   0.808
 3816SOL    HW112347   6.582   6.492   0.785
 3816SOL    HW212348   6.674   6.358   0.770
 3817SOL     OW12349   4.141   3.676   1.516
 3817SOL    HW112350   4.098   3.633   1.595
 3817SOL    HW212351   4.229   3.715   1.543
 3818SOL     OW12352   5.271   5.978   2.515
 3818SOL    HW112353   5.258   5.902   2.452
 3818SOL    HW212354   5.272   6.064   2.463
 3819SOL     OW12355   6.310   3.591   3.362
 3819SOL    HW112356   6.297   3.629   3.271
 3819SOL    HW212357   6.381   3.642   3.410
 3820SOL     OW12358   3.410   6.734   5.792
 3820SOL    HW112359   3.333   6.686   5.751
 3820SOL    HW212360   3.457   6.673   5.857
 3821SOL     OW12361   1.897   0.090   0.388
 3821SOL    HW112362   1.922   0.006   0.437
 3821SOL    HW212363   1.799   0.090   0.369
 3822SOL     OW12364   4.823   6.947   2.340
 3822SOL    HW112365   4.905   6.962   2.284
 3822SOL    HW212366   4.823   6.853   2.374
 3823SOL     OW12367   5.332   6.304   5.315
 3823SOL    HW112368   5.254   6.356   5.281
 3823SOL    HW212369   5.389   6.363   5.373
 3824SOL     OW12370   2.170   2.914   0.749
 3824SOL    HW112371   2.155   2.815   0.756
 3824SOL    HW212372   2.239   2.943   0.815
 3825SOL     OW12373   0.304   4.986   5.791
 3825SOL    HW112374   0.207   4.963   5.780
 3825SOL    HW212375   0.342   5.011   5.701
 3826SOL     OW12376   5.434   3.742   3.308
 3826SOL    HW112377   5.499   3.812   3.336
 3826SOL    HW212378   5.348   3.785   3.281
 3827SOL     OW12379   0.076   2.001   6.728
 3827SOL    HW112380   0.078   1.993   6.828
 3827SOL    HW212381   0.124   2.084   6.700
 3828SOL     OW12382   4.041   3.235   4.284
 3828SOL    HW112383   4.087   3.228   4.373
 3828SOL    HW212384   3.964   3.172   4.282
 3829SOL     OW12385   0.628   2.999   1.259
 3829SOL    HW112386   0.704   2.981   1.321
 3829SOL    HW212387   0.556   2.931   1.273
 3830SOL     OW12388   5.740   0.083   3.794
 3830SOL    HW112389   5.695   0.167   3.764
 3830SOL    HW212390   5.738   0.015   3.721
 3831SOL     OW12391   4.441   2.487   3.330
 3831SOL    HW112392   4.483   2.543   3.259
 3831SOL    HW212393   4.483   2.397   3.332
 3832SOL     OW12394   6.528   0.959   3.794
 3832SOL    HW112395   6.578   1.000   3.718
 3832SOL    HW212396   6.557   0.864   3.806
 3833SOL     OW12397   1.766   2.964   5.655
 3833SOL    HW112398   1.825   3.002   5.584
 3833SOL    HW212399   1.698   2.903   5.613
 3834SOL     OW12400   5.119   4.575   1.047
 3834SOL    HW112401   5.149   4.626   1.127
 3834SOL    HW212402   5.028   4.537   1.064
 3835SOL     OW12403   4.375   5.698   5.310
 3835SOL    HW112404   4.354   5.778   5.366
 3835SOL    HW212405   4.368   5.616   5.366
 3836SOL     OW12406   6.892   6.445   4.715
 3836SOL    HW112407   6.974   6.419   4.765
 3836SOL    HW212408   6.818   6.465   4.780
 3837SOL     OW12409   4.215   4.953   6.181
 3837SOL    HW112410   4.306   4.987   6.156
 3837SOL    HW212411   4.165   5.024   6.231
 3838SOL     OW12412   6.982   0.645   4.152
 3838SOL    HW112413   6.925   0.727   4.162
 3838SOL    HW212414   6.961   0.580   4.225
 3839SOL     OW12415   5.080   0.676   3.577
 3839SOL    HW112416   5.172   0.712   3.564
 3839SOL    HW212417   5.084   0.579   3.599
 3840SOL     OW12418   3.353   1.334   6.679
 3840SOL    HW112419   3.347   1.234   6.681
 3840SOL    HW212420   3.311   1.368   6.595
 3841SOL     OW12421   6.110   4.153   3.899
 3841SOL    HW112422   6.039   4.186   3.961
 3841SOL    HW212423   6.171   4.091   3.948
 3842SOL     OW12424   2.147   4.341   6.018
 3842SOL    HW112425   2.176   4.248   5.997
 3842SOL    HW212426   2.171   4.402   5.942
 3843SOL     OW12427   5.392   2.353   6.065
 3843SOL    HW112428   5.343   2.373   6.151
 3843SOL    HW212429   5.335   2.382   5.988
 3844SOL     OW12430   6.717   0.344   1.051
 3844SOL    HW112431   6.803   0.394   1.050
 3844SOL    HW212432   6.730   0.256   1.096
 3845SOL     OW12433   1.591   5.901   0.677
 3845SOL    HW112434   1.579   5.901   0.578
 3845SOL    HW212435   1.660   5.833   0.703
 3846SOL     OW12436   0.261   3.446   2.652
 3846SOL    HW112437   0.297   3.524   2.703
 3846SOL    HW212438   0.255   3.469   2.555
 3847SOL     OW12439   0.649   1.870   6.718
 3847SOL    HW112440   0.564   1.853   6.667
 3847SOL    HW212441   0.714   1.918   6.660
 3848SOL     OW12442   6.404   4.275   1.732
 3848SOL    HW112443   6.428   4.333   1.810
 3848SOL    HW212444   6.326   4.217   1.756
 3849SOL     OW12445   0.151   4.760   6.229
 3849SOL    HW112446   0.210   4.786   6.152
 3849SOL    HW212447   0.173   4.817   6.308
 3850SOL     OW12448   3.175   2.439   1.372
 3850SOL    HW112449   3.145   2.396   1.457
 3850SOL    HW212450   3.164   2.375   1.296
 3851SOL     OW12451   0.642   6.112   3.174
 3851SOL    HW112452   0.668   6.181   3.106
 3851SOL    HW212453   0.585   6.042   3.131
 3852SOL     OW12454   1.355   0.503   4.755
 3852SOL    HW112455   1.387   0.408   4.756
 3852SOL    HW212456   1.319   0.527   4.845
 3853SOL     OW12457   2.851   0.669   3.596
 3853SOL    HW112458   2.764   0.686   3.549
 3853SOL    HW212459   2.870   0.744   3.659
 3854SOL     OW12460   0.065   2.231   2.168
 3854SOL    HW112461   0.120   2.313   2.182
 3854SOL    HW212462   0.121   2.150   2.188
 3855SOL     OW12463   3.300   6.863   6.862
 3855SOL    HW112464   3.262   6.933   6.922
 3855SOL    HW212465   3.273   6.772   6.895
 3856SOL     OW12466   0.055   2.757   6.235
 3856SOL    HW112467   0.152   2.741   6.256
 3856SOL    HW212468   0.028   2.701   6.157
 3857SOL     OW12469   2.621   0.427   6.146
 3857SOL    HW112470   2.552   0.445   6.216
 3857SOL    HW212471   2.611   0.333   6.114
 3858SOL     OW12472   4.899   1.145   4.271
 3858SOL    HW112473   4.915   1.102   4.182
 3858SOL    HW212474   4.810   1.117   4.306
 3859SOL     OW12475   5.962   6.726   1.513
 3859SOL    HW112476   5.912   6.659   1.458
 3859SOL    HW212477   5.920   6.816   1.503
 3860SOL     OW12478   1.440   0.015   4.524
 3860SOL    HW112479   1.382   7.007   4.450
 3860SOL    HW212480   1.458   0.113   4.513
 3861SOL     OW12481   2.756   5.302   1.487
 3861SOL    HW112482   2.800   5.212   1.480
 3861SOL    HW212483   2.692   5.314   1.412
 3862SOL     OW12484   1.788   0.728   4.506
 3862SOL    HW112485   1.796   0.817   4.551
 3862SOL    HW212486   1.879   0.687   4.495
 3863SOL     OW12487   3.288   0.566   0.523
 3863SOL    HW112488   3.359   0.617   0.474
 3863SOL    HW212489   3.258   0.489   0.467
 3864SOL     OW12490   1.849   0.116   4.968
 3864SOL    HW112491   1.941   0.149   4.944
 3864SOL    HW212492   1.824   0.041   4.907
 3865SOL     OW12493   5.073   1.534   0.670
 3865SOL    HW112494   5.050   1.440   0.646
 3865SOL    HW212495   5.170   1.540   0.695
 3866SOL     OW12496   2.862   1.854   6.535
 3866SOL    HW112497   2.824   1.915   6.465
 3866SOL    HW212498   2.961   1.848   6.524
 3867SOL     OW12499   0.333   2.870   1.932
 3867SOL    HW112500   0.294   2.812   1.860
 3867SOL    HW212501   0.268   2.878   2.007
 3868SOL     OW12502   4.341   0.751   0.319
 3868SOL    HW112503   4.314   0.838   0.361
 3868SOL    HW212504   4.412   0.708   0.374
 3869SOL     OW12505   4.929   1.336   4.013
 3869SOL    HW112506   5.012   1.383   4.044
 3869SOL    HW212507   4.857   1.349   4.081
 3870SOL     OW12508   0.262   0.632   5.291
 3870SOL    HW112509   0.295   0.724   5.314
 3870SOL    HW212510   0.195   0.639   5.218
 3871SOL     OW12511   2.317   5.836   4.353
 3871SOL    HW112512   2.394   5.827   4.416
 3871SOL    HW212513   2.268   5.748   4.347
 3872SOL     OW12514   2.971   3.293   5.291
 3872SOL    HW112515   3.027   3.258   5.216
 3872SOL    HW212516   3.031   3.324   5.365
 3873SOL     OW12517   4.034   1.805   0.404
 3873SOL    HW112518   3.951   1.761   0.440
 3873SOL    HW212519   4.061   1.880   0.465
 3874SOL     OW12520   2.210   1.278   0.504
 3874SOL    HW112521   2.172   1.346   0.567
 3874SOL    HW212522   2.139   1.211   0.481
 3875SOL     OW12523   1.057   2.308   6.077
 3875SOL    HW112524   1.088   2.394   6.118
 3875SOL    HW212525   1.125   2.275   6.012
 3876SOL     OW12526   3.805   5.268   2.476
 3876SOL    HW112527   3.734   5.207   2.440
 3876SOL    HW212528   3.809   5.259   2.575
 3877SOL     OW12529   0.266   2.000   6.286
 3877SOL    HW112530   0.293   2.094   6.266
 3877SOL    HW212531   0.287   1.942   6.208
 3878SOL     OW12532   5.364   1.071   4.406
 3878SOL    HW112533   5.340   1.076   4.309
 3878SOL    HW212534   5.281   1.068   4.461
 3879SOL     OW12535   5.370   5.656   0.151
 3879SOL    HW112536   5.382   5.700   0.062
 3879SOL    HW212537   5.416   5.567   0.150
 3880SOL     OW12538   4.606   4.439   3.984
 3880SOL    HW112539   4.531   4.492   4.024
 3880SOL    HW212540   4.684   4.440   4.047
 3881SOL     OW12541   1.329   3.249   0.102
 3881SOL    HW112542   1.414   3.222   0.058
 3881SOL    HW212543   1.259   3.266   0.033
 3882SOL     OW12544   0.539   2.133   6.075
 3882SOL    HW112545   0.536   2.090   5.985
 3882SOL    HW212546   0.634   2.154   6.099
 3883SOL     OW12547   4.621   5.579   3.374
 3883SOL    HW112548   4.548   5.518   3.342
 3883SOL    HW212549   4.707   5.528   3.377
 3884SOL     OW12550   0.280   3.853   1.937
 3884SOL    HW112551   0.337   3.862   2.018
 3884SOL    HW212552   0.304   3.925   1.872
 3885SOL     OW12553   5.092   5.638   2.674
 3885SOL    HW112554   5.074   5.584   2.592
 3885SOL    HW212555   5.028   5.612   2.746
 3886SOL     OW12556   2.619   6.244   5.793
 3886SOL    HW112557   2.544   6.288   5.744
 3886SOL    HW212558   2.635   6.153   5.754
 3887SOL     OW12559   1.396   6.221   2.220
 3887SOL    HW112560   1.360   6.146   2.165
 3887SOL    HW212561   1.391   6.197   2.317
 3888SOL     OW12562   5.832   4.984   3.926
 3888SOL    HW112563   5.913   4.966   3.870
 3888SOL    HW212564   5.755   4.928   3.893
 3889SOL     OW12565   5.646   3.910   0.604
 3889SOL    HW112566   5.598   3.881   0.521
 3889SOL    HW212567   5.701   3.991   0.584
 3890SOL     OW12568   5.172   3.145   4.304
 3890SOL    HW112569   5.162   3.235   4.347
 3890SOL    HW212570   5.257   3.102   4.337
 3891SOL     OW12571   5.094   5.470   3.228
 3891SOL    HW112572   5.188   5.439   3.224
 3891SOL    HW212573   5.036   5.407   3.176
 3892SOL     OW12574   0.108   2.136   1.270
 3892SOL    HW112575   0.032   2.111   1.329
 3892SOL    HW212576   0.101   2.232   1.244
 3893SOL     OW12577   3.907   3.862   2.781
 3893SOL    HW112578   3.886   3.787   2.843
 3893SOL    HW212579   3.860   3.945   2.811
 3894SOL     OW12580   4.759   0.462   5.687
 3894SOL    HW112581   4.812   0.542   5.659
 3894SOL    HW212582   4.813   0.407   5.751
 3895SOL     OW12583   0.910   0.254   4.022
 3895SOL    HW112584   0.911   0.162   3.983
 3895SOL    HW212585   1.004   0.287   4.031
 3896SOL     OW12586   1.234   1.439   6.292
 3896SOL    HW112587   1.168   1.453   6.365
 3896SOL    HW212588   1.188   1.453   6.204
 3897SOL     OW12589   4.107   6.434   1.520
 3897SOL    HW112590   4.082   6.530   1.507
 3897SOL    HW212591   4.033   6.375   1.489
 3898SOL     OW12592   3.762   3.033   1.145
 3898SOL    HW112593   3.712   2.950   1.120
 3898SOL    HW212594   3.809   3.017   1.232
 3899SOL     OW12595   3.448   0.497   5.878
 3899SOL    HW112596   3.486   0.462   5.793
 3899SOL    HW212597   3.439   0.597   5.871
 3900SOL     OW12598   4.850   3.714   3.217
 3900SOL    HW112599   4.794   3.768   3.154
 3900SOL    HW212600   4.895   3.640   3.166
 3901SOL     OW12601   2.736   0.477   6.726
 3901SOL    HW112602   2.822   0.524   6.748
 3901SOL    HW212603   2.659   0.537   6.746
 3902SOL     OW12604   5.859   2.828   2.609
 3902SOL    HW112605   5.850   2.750   2.546
 3902SOL    HW212606   5.919   2.802   2.684
 3903SOL     OW12607   3.187   4.635   6.232
 3903SOL    HW112608   3.179   4.587   6.319
 3903SOL    HW212609   3.141   4.582   6.161
 3904SOL     OW12610   1.412   0.535   0.590
 3904SOL    HW112611   1.420   0.503   0.684
 3904SOL    HW212612   1.356   0.470   0.538
 3905SOL     OW12613   6.631   6.159   4.945
 3905SOL    HW112614   6.652   6.136   5.040
 3905SOL    HW212615   6.598   6.253   4.940
 3906SOL     OW12616   6.313   6.620   5.058
 3906SOL    HW112617   6.355   6.552   4.998
 3906SOL    HW212618   6.275   6.695   5.004
 3907SOL     OW12619   6.422   2.125   3.613
 3907SOL    HW112620   6.513   2.153   3.582
 3907SOL    HW212621   6.390   2.048   3.558
 3908SOL     OW12622   2.238   3.713   6.042
 3908SOL    HW112623   2.231   3.773   6.122
 3908SOL    HW212624   2.321   3.657   6.048
 3909SOL     OW12625   5.486   5.317   3.939
 3909SOL    HW112626   5.506   5.374   3.859
 3909SOL    HW212627   5.422   5.245   3.913
 3910SOL     OW12628   3.991   3.491   2.719
 3910SOL    HW112629   3.904   3.491   2.670
 3910SOL    HW212630   4.064   3.457   2.659
 3911SOL     OW12631   6.547   2.353   5.500
 3911SOL    HW112632   6.619   2.400   5.551
 3911SOL    HW212633   6.540   2.259   5.534
 3912SOL     OW12634   5.074   2.696   6.430
 3912SOL    HW112635   5.079   2.665   6.335
 3912SOL    HW212636   5.101   2.792   6.436
 3913SOL     OW12637   0.960   6.757   1.241
 3913SOL    HW112638   0.984   6.752   1.338
 3913SOL    HW212639   0.923   6.848   1.222
 3914SOL     OW12640   3.265   5.604   5.735
 3914SOL    HW112641   3.239   5.700   5.747
 3914SOL    HW212642   3.192   5.545   5.771
 3915SOL     OW12643   6.738   6.107   1.808
 3915SOL    HW112644   6.825   6.139   1.770
 3915SOL    HW212645   6.723   6.011   1.782
 3916SOL     OW12646   0.895   7.009   3.255
 3916SOL    HW112647   0.916   0.062   3.316
 3916SOL    HW212648   0.822   0.012   3.191
 3917SOL     OW12649   2.271   0.292   6.961
 3917SOL    HW112650   2.183   0.257   6.927
 3917SOL    HW212651   2.335   0.216   6.973
 3918SOL     OW12652   5.535   3.335   0.420
 3918SOL    HW112653   5.449   3.324   0.371
 3918SOL    HW212654   5.551   3.254   0.477
 3919SOL     OW12655   3.300   6.641   0.752
 3919SOL    HW112656   3.300   6.554   0.802
 3919SOL    HW212657   3.393   6.680   0.754
 3920SOL     OW12658   1.908   1.623   6.922
 3920SOL    HW112659   1.813   1.637   6.895
 3920SOL    HW212660   1.949   1.711   6.946
 3921SOL     OW12661   1.570   3.930   1.753
 3921SOL    HW112662   1.663   3.945   1.786
 3921SOL    HW212663   1.546   4.002   1.687
 3922SOL     OW12664   0.896   4.659   1.192
 3922SOL    HW112665   0.903   4.563   1.163
 3922SOL    HW212666   0.986   4.702   1.188
 3923SOL     OW12667   6.503   0.410   0.877
 3923SOL    HW112668   6.564   0.393   0.954
 3923SOL    HW212669   6.541   0.482   0.819
 3924SOL     OW12670   6.906   4.917   4.362
 3924SOL    HW112671   6.895   4.820   4.380
 3924SOL    HW212672   6.964   4.958   4.433
 3925SOL     OW12673   1.646   5.197   1.697
 3925SOL    HW112674   1.705   5.162   1.769
 3925SOL    HW212675   1.621   5.292   1.717
 3926SOL     OW12676   3.732   4.994   2.777
 3926SOL    HW112677   3.655   4.954   2.828
 3926SOL    HW212678   3.719   4.978   2.679
 3927SOL     OW12679   0.882   3.289   6.126
 3927SOL    HW112680   0.924   3.208   6.166
 3927SOL    HW212681   0.852   3.269   6.033
 3928SOL     OW12682   5.593   5.629   6.511
 3928SOL    HW112683   5.608   5.723   6.542
 3928SOL    HW212684   5.543   5.579   6.582
 3929SOL     OW12685   0.846   2.165   4.299
 3929SOL    HW112686   0.746   2.158   4.303
 3929SOL    HW212687   0.880   2.122   4.215
 3930SOL     OW12688   2.722   1.691   4.108
 3930SOL    HW112689   2.782   1.622   4.068
 3930SOL    HW212690   2.720   1.772   4.049
 3931SOL     OW12691   5.483   0.443   2.101
 3931SOL    HW112692   5.398   0.399   2.072
 3931SOL    HW212693   5.560   0.380   2.083
 3932SOL     OW12694   1.952   1.627   4.202
 3932SOL    HW112695   1.894   1.564   4.151
 3932SOL    HW212696   1.977   1.705   4.143
 3933SOL     OW12697   0.745   6.949   5.527
 3933SOL    HW112698   0.731   0.006   5.585
 3933SOL    HW212699   0.730   6.867   5.582
 3934SOL     OW12700   5.263   6.749   6.829
 3934SOL    HW112701   5.312   6.688   6.892
 3934SOL    HW212702   5.235   6.697   6.748
 3935SOL     OW12703   4.870   0.261   0.753
 3935SOL    HW112704   4.886   0.255   0.655
 3935SOL    HW212705   4.868   0.357   0.781
 3936SOL     OW12706   0.407   4.477   2.571
 3936SOL    HW112707   0.399   4.378   2.581
 3936SOL    HW212708   0.342   4.522   2.633
 3937SOL     OW12709   0.419   1.418   2.546
 3937SOL    HW112710   0.340   1.387   2.598
 3937SOL    HW212711   0.495   1.436   2.608
 3938SOL     OW12712   6.989   2.225   2.632
 3938SOL    HW112713   0.031   2.299   2.645
 3938SOL    HW212714   6.896   2.262   2.638
 3939SOL     OW12715   2.686   1.892   1.697
 3939SOL    HW112716   2.657   1.824   1.763
 3939SOL    HW212717   2.780   1.873   1.667
 3940SOL     OW12718   4.405   3.450   1.387
 3940SOL    HW112719   4.502   3.463   1.408
 3940SOL    HW212720   4.353   3.444   1.472
 3941SOL     OW12721   4.726   3.778   6.637
 3941SOL    HW112722   4.648   3.716   6.622
 3941SOL    HW212723   4.698   3.872   6.618
 3942SOL     OW12724   6.795   0.253   6.660
 3942SOL    HW112725   6.739   0.275   6.580
 3942SOL    HW212726   6.735   0.231   6.738
 3943SOL     OW12727   0.066   3.230   4.740
 3943SOL    HW112728   0.067   3.196   4.834
 3943SOL    HW212729   0.004   3.176   4.685
 3944SOL     OW12730   4.931   2.306   4.684
 3944SOL    HW112731   4.919   2.233   4.752
 3944SOL    HW212732   5.002   2.279   4.618
 3945SOL     OW12733   6.966   0.846   0.702
 3945SOL    HW112734   6.983   0.818   0.796
 3945SOL    HW212735   0.025   0.833   0.647
 3946SOL     OW12736   4.110   4.739   2.944
 3946SOL    HW112737   4.140   4.712   2.853
 3946SOL    HW212738   4.164   4.692   3.014
 3947SOL     OW12739   6.059   5.251   6.676
 3947SOL    HW112740   6.149   5.277   6.640
 3947SOL    HW212741   5.990   5.316   6.643
 3948SOL     OW12742   6.402   3.873   0.753
 3948SOL    HW112743   6.322   3.859   0.812
 3948SOL    HW212744   6.393   3.816   0.671
 3949SOL     OW12745   5.582   6.271   3.338
 3949SOL    HW112746   5.620   6.356   3.302
 3949SOL    HW212747   5.561   6.208   3.263
 3950SOL     OW12748   1.672   6.278   0.600
 3950SOL    HW112749   1.751   6.238   0.647
 3950SOL    HW212750   1.664   6.374   0.625
 3951SOL     OW12751   5.205   6.890   1.669
 3951SOL    HW112752   5.164   6.970   1.625
 3951SOL    HW212753   5.304   6.894   1.659
 3952SOL     OW12754   5.668   2.050   6.989
 3952SOL    HW112755   5.602   2.064   6.915
 3952SOL    HW212756   5.625   2.071   0.053
 3953SOL     OW12757   3.750   4.044   2.928
 3953SOL    HW112758   3.725   4.051   3.025
 3953SOL    HW212759   3.722   4.128   2.881
 3954SOL     OW12760   4.152   4.928   5.648
 3954SOL    HW112761   4.217   4.855   5.667
 3954SOL    HW212762   4.126   4.973   5.733
 3955SOL     OW12763   3.859   1.108   4.805
 3955SOL    HW112764   3.906   1.022   4.825
 3955SOL    HW212765   3.769   1.088   4.766
 3956SOL     OW12766   2.337   1.288   1.503
 3956SOL    HW112767   2.371   1.214   1.446
 3956SOL    HW212768   2.248   1.264   1.541
 3957SOL     OW12769   3.921   0.702   4.621
 3957SOL    HW112770   3.908   0.637   4.546
 3957SOL    HW212771   3.867   0.784   4.603
 3958SOL     OW12772   5.672   0.328   5.748
 3958SOL    HW112773   5.612   0.288   5.680
 3958SOL    HW212774   5.728   0.399   5.706
 3959SOL     OW12775   4.736   5.643   0.191
 3959SOL    HW112776   4.686   5.567   0.149
 3959SOL    HW212777   4.691   5.669   0.277
 3960SOL     OW12778   5.217   1.968   4.593
 3960SOL    HW112779   5.297   1.920   4.630
 3960SOL    HW212780   5.157   1.901   4.548
 3961SOL     OW12781   5.818   6.342   4.121
 3961SOL    HW112782   5.891   6.409   4.136
 3961SOL    HW212783   5.782   6.352   4.029
 3962SOL     OW12784   0.171   5.619   5.288
 3962SOL    HW112785   0.153   5.595   5.383
 3962SOL    HW212786   0.085   5.639   5.241
 3963SOL     OW12787   4.541   0.021   1.947
 3963SOL    HW112788   4.545   0.025   2.047
 3963SOL    HW212789   4.488   6.964   1.919
 3964SOL     OW12790   5.845   3.092   3.179
 3964SOL    HW112791   5.891   3.151   3.246
 3964SOL    HW212792   5.867   2.996   3.199
 3965SOL     OW12793   4.780   3.938   4.362
 3965SOL    HW112794   4.826   3.913   4.447
 3965SOL    HW212795   4.752   4.034   4.365
 3966SOL     OW12796   2.825   6.159   6.324
 3966SOL    HW112797   2.894   6.120   6.385
 3966SOL    HW212798   2.775   6.231   6.371
 3967SOL     OW12799   2.067   4.572   3.198
 3967SOL    HW112800   2.146   4.512   3.210
 3967SOL    HW212801   2.082   4.629   3.117
 3968SOL     OW12802   3.587   6.733   0.699
 3968SOL    HW112803   3.655   6.661   0.689
 3968SOL    HW212804   3.618   6.800   0.767
 3969SOL     OW12805   0.713   4.998   2.710
 3969SOL    HW112806   0.763   5.053   2.776
 3969SOL    HW212807   0.770   4.984   2.629
 3970SOL     OW12808   4.839   6.174   2.361
 3970SOL    HW112809   4.880   6.160   2.271
 3970SOL    HW212810   4.887   6.118   2.429
 3971SOL     OW12811   2.126   6.175   3.270
 3971SOL    HW112812   2.140   6.092   3.216
 3971SOL    HW212813   2.045   6.223   3.238
 3972SOL     OW12814   1.978   3.761   0.485
 3972SOL    HW112815   2.020   3.679   0.446
 3972SOL    HW212816   1.996   3.839   0.425
 3973SOL     OW12817   1.655   5.100   0.943
 3973SOL    HW112818   1.669   5.172   1.012
 3973SOL    HW212819   1.730   5.103   0.877
 3974SOL     OW12820   2.135   1.007   5.034
 3974SOL    HW112821   2.055   0.980   4.980
 3974SOL    HW212822   2.106   1.067   5.108
 3975SOL     OW12823   5.761   2.592   6.123
 3975SOL    HW112824   5.711   2.525   6.069
 3975SOL    HW212825   5.737   2.583   6.220
 3976SOL     OW12826   2.112   5.190   2.162
 3976SOL    HW112827   2.211   5.185   2.176
 3976SOL    HW212828   2.065   5.167   2.247
 3977SOL     OW12829   1.129   3.492   6.558
 3977SOL    HW112830   1.092   3.515   6.649
 3977SOL    HW212831   1.064   3.520   6.488
 3978SOL     OW12832   6.574   4.421   3.805
 3978SOL    HW112833   6.533   4.330   3.812
 3978SOL    HW212834   6.502   4.489   3.791
 3979SOL     OW12835   3.879   6.881   6.506
 3979SOL    HW112836   3.856   6.963   6.557
 3979SOL    HW212837   3.845   6.889   6.412
 3980SOL     OW12838   5.336   6.066   5.902
 3980SOL    HW112839   5.433   6.067   5.925
 3980SOL    HW212840   5.323   6.115   5.815
 3981SOL     OW12841   4.434   6.376   6.919
 3981SOL    HW112842   4.424   6.371   7.019
 3981SOL    HW212843   4.371   6.311   6.877
 3982SOL     OW12844   2.958   6.694   3.072
 3982SOL    HW112845   2.971   6.717   3.169
 3982SOL    HW212846   3.018   6.617   3.049
 3983SOL     OW12847   3.396   5.697   4.169
 3983SOL    HW112848   3.491   5.718   4.195
 3983SOL    HW212849   3.368   5.611   4.212
 3984SOL     OW12850   6.781   2.479   2.801
 3984SOL    HW112851   6.773   2.413   2.876
 3984SOL    HW212852   6.769   2.431   2.714
 3985SOL     OW12853   4.060   4.889   6.589
 3985SOL    HW112854   4.106   4.803   6.567
 3985SOL    HW212855   4.092   4.922   6.677
 3986SOL     OW12856   5.403   0.772   2.903
 3986SOL    HW112857   5.380   0.869   2.897
 3986SOL    HW212858   5.494   0.757   2.864
 3987SOL     OW12859   3.310   5.400   4.891
 3987SOL    HW112860   3.351   5.397   4.982
 3987SOL    HW212861   3.223   5.350   4.891
 3988SOL     OW12862   3.878   6.048   0.607
 3988SOL    HW112863   3.890   6.144   0.584
 3988SOL    HW212864   3.922   6.029   0.694
 3989SOL     OW12865   5.641   2.151   0.254
 3989SOL    HW112866   5.571   2.104   0.308
 3989SOL    HW212867   5.610   2.244   0.233
 3990SOL     OW12868   6.362   1.568   2.493
 3990SOL    HW112869   6.345   1.667   2.500
 3990SOL    HW212870   6.438   1.552   2.431
 3991SOL     OW12871   6.520   0.601   3.026
 3991SOL    HW112872   6.581   0.526   3.051
 3991SOL    HW212873   6.517   0.611   2.926
 3992SOL     OW12874   3.037   2.019   1.124
 3992SOL    HW112875   3.010   1.985   1.215
 3992SOL    HW212876   3.136   2.021   1.118
 3993SOL     OW12877   1.180   2.822   1.772
 3993SOL    HW112878   1.234   2.800   1.691
 3993SOL    HW212879   1.216   2.770   1.850
 3994SOL     OW12880   2.555   6.372   4.866
 3994SOL    HW112881   2.563   6.409   4.774
 3994SOL    HW212882   2.530   6.275   4.861
 3995SOL     OW12883   1.420   2.106   4.680
 3995SOL    HW112884   1.365   2.148   4.607
 3995SOL    HW212885   1.503   2.160   4.694
 3996SOL     OW12886   6.856   6.445   4.438
 3996SOL    HW112887   6.872   6.412   4.531
 3996SOL    HW212888   6.790   6.520   4.440
 3997SOL     OW12889   4.421   0.943   4.577
 3997SOL    HW112890   4.479   0.916   4.500
 3997SOL    HW212891   4.357   0.869   4.598
 3998SOL     OW12892   4.456   1.857   3.148
 3998SOL    HW112893   4.433   1.886   3.240
 3998SOL    HW212894   4.442   1.933   3.084
 3999SOL     OW12895   4.756   2.402   4.093
 3999SOL    HW112896   4.681   2.394   4.027
 3999SOL    HW212897   4.801   2.313   4.103
 4000SOL     OW12898   4.233   6.633   4.317
 4000SOL    HW112899   4.238   6.543   4.360
 4000SOL    HW212900   4.326   6.666   4.299
 4001SOL     OW12901   0.994   2.370   4.233
 4001SOL    HW112902   0.940   2.291   4.260
 4001SOL    HW212903   0.942   2.426   4.168
 4002SOL     OW12904   2.323   3.934   1.813
 4002SOL    HW112905   2.272   3.938   1.898
 4002SOL    HW212906   2.272   3.878   1.747
 4003SOL     OW12907   3.692   2.099   4.782
 4003SOL    HW112908   3.737   2.128   4.866
 4003SOL    HW212909   3.620   2.033   4.803
 4004SOL     OW12910   6.801   1.654   5.274
 4004SOL    HW112911   6.871   1.691   5.335
 4004SOL    HW212912   6.752   1.728   5.229
 4005SOL     OW12913   6.404   5.108   5.264
 4005SOL    HW112914   6.489   5.159   5.256
 4005SOL    HW212915   6.419   5.013   5.235
 4006SOL     OW12916   3.583   5.711   2.733
 4006SOL    HW112917   3.612   5.637   2.793
 4006SOL    HW212918   3.616   5.693   2.640
 4007SOL     OW12919   6.426   1.935   6.515
 4007SOL    HW112920   6.517   1.971   6.537
 4007SOL    HW212921   6.390   1.885   6.593
 4008SOL     OW12922   2.518   2.449   4.782
 4008SOL    HW112923   2.499   2.541   4.818
 4008SOL    HW212924   2.594   2.408   4.833
 4009SOL     OW12925   3.125   3.425   3.229
 4009SOL    HW112926   3.193   3.497   3.212
 4009SOL    HW212927   3.048   3.436   3.166
 4010SOL     OW12928   1.914   3.061   6.708
 4010SOL    HW112929   1.882   3.154   6.725
 4010SOL    HW212930   1.867   3.023   6.628
 4011SOL     OW12931   1.399   2.710   1.013
 4011SOL    HW112932   1.339   2.722   0.934
 4011SOL    HW212933   1.495   2.717   0.983
 4012SOL     OW12934   5.798   2.533   3.555
 4012SOL    HW112935   5.781   2.493   3.645
 4012SOL    HW212936   5.815   2.631   3.565
 4013SOL     OW12937   4.256   2.326   3.454
 4013SOL    HW112938   4.323   2.376   3.398
 4013SOL    HW212939   4.284   2.327   3.550
 4014SOL     OW12940   5.585   6.600   2.412
 4014SOL    HW112941   5.663   6.659   2.389
 4014SOL    HW212942   5.501   6.655   2.412
 4015SOL     OW12943   4.480   3.601   6.836
 4015SOL    HW112944   4.481   3.606   6.736
 4015SOL    HW212945   4.569   3.630   6.871
 4016SOL     OW12946   3.351   6.130   5.114
 4016SOL    HW112947   3.320   6.200   5.178
 4016SOL    HW212948   3.296   6.047   5.127
 4017SOL     OW12949   5.968   6.768   0.302
 4017SOL    HW112950   6.018   6.834   0.359
 4017SOL    HW212951   5.903   6.717   0.359
 4018SOL     OW12952   1.880   6.488   0.308
 4018SOL    HW112953   1.836   6.494   0.218
 4018SOL    HW212954   1.813   6.506   0.379
 4019SOL     OW12955   4.975   5.244   3.117
 4019SOL    HW112956   5.035   5.168   3.091
 4019SOL    HW212957   4.880   5.220   3.098
 4020SOL     OW12958   5.210   1.715   5.130
 4020SOL    HW112959   5.273   1.667   5.191
 4020SOL    HW212960   5.262   1.773   5.066
 4021SOL     OW12961   4.390   4.248   0.083
 4021SOL    HW112962   4.364   4.337   0.047
 4021SOL    HW212963   4.316   4.212   0.140
 4022SOL     OW12964   5.193   0.370   0.606
 4022SOL    HW112965   5.248   0.330   0.680
 4022SOL    HW212966   5.141   0.448   0.642
 4023SOL     OW12967   0.102   0.400   5.684
 4023SOL    HW112968   0.190   0.393   5.730
 4023SOL    HW212969   0.040   0.329   5.718
 4024SOL     OW12970   4.418   4.755   4.406
 4024SOL    HW112971   4.459   4.740   4.496
 4024SOL    HW212972   4.337   4.813   4.416
 4025SOL     OW12973   1.204   4.223   3.746
 4025SOL    HW112974   1.298   4.195   3.729
 4025SOL    HW212975   1.187   4.222   3.845
 4026SOL     OW12976   4.694   6.870   4.956
 4026SOL    HW112977   4.762   6.798   4.944
 4026SOL    HW212978   4.687   6.924   4.872
 4027SOL     OW12979   3.997   5.083   2.323
 4027SOL    HW112980   3.952   5.082   2.234
 4027SOL    HW212981   3.951   5.148   2.383
 4028SOL     OW12982   2.694   6.054   3.677
 4028SOL    HW112983   2.663   5.992   3.605
 4028SOL    HW212984   2.644   6.036   3.761
 4029SOL     OW12985   1.955   3.603   3.854
 4029SOL    HW112986   1.985   3.584   3.947
 4029SOL    HW212987   2.030   3.587   3.790
 4030SOL     OW12988   1.217   1.707   6.031
 4030SOL    HW112989   1.291   1.688   5.966
 4030SOL    HW212990   1.162   1.624   6.043
 4031SOL     OW12991   5.651   5.708   4.057
 4031SOL    HW112992   5.742   5.720   4.098
 4031SOL    HW212993   5.588   5.774   4.098
 4032SOL     OW12994   3.872   6.938   5.357
 4032SOL    HW112995   3.968   6.923   5.331
 4032SOL    HW212996   3.865   6.941   5.457
 4033SOL     OW12997   3.328   3.735   5.957
 4033SOL    HW112998   3.240   3.689   5.958
 4033SOL    HW212999   3.325   3.815   6.018
 4034SOL     OW13000   5.775   3.080   4.686
 4034SOL    HW113001   5.780   3.139   4.767
 4034SOL    HW213002   5.742   3.133   4.608
 4035SOL     OW13003   0.364   5.133   1.556
 4035SOL    HW113004   0.433   5.061   1.543
 4035SOL    HW213005   0.378   5.205   1.488
 4036SOL     OW13006   6.729   6.171   2.537
 4036SOL    HW113007   6.809   6.112   2.539
 4036SOL    HW213008   6.752   6.257   2.491
 4037SOL     OW13009   6.807   4.017   6.018
 4037SOL    HW113010   6.848   3.927   6.029
 4037SOL    HW213011   6.712   4.014   6.048
 4038SOL     OW13012   6.638   5.274   3.480
 4038SOL    HW113013   6.664   5.233   3.393
 4038SOL    HW213014   6.557   5.331   3.468
 4039SOL     OW13015   3.553   5.744   1.344
 4039SOL    HW113016   3.599   5.739   1.433
 4039SOL    HW213017   3.522   5.838   1.328
 4040SOL     OW13018   3.208   6.517   0.518
 4040SOL    HW113019   3.232   6.557   0.606
 4040SOL    HW213020   3.154   6.434   0.532
 4041SOL     OW13021   1.139   6.338   3.129
 4041SOL    HW113022   1.186   6.252   3.152
 4041SOL    HW213023   1.196   6.415   3.155
 4042SOL     OW13024   5.892   5.915   2.336
 4042SOL    HW113025   5.938   5.835   2.376
 4042SOL    HW213026   5.876   5.899   2.239
 4043SOL     OW13027   6.574   3.554   1.439
 4043SOL    HW113028   6.495   3.570   1.498
 4043SOL    HW213029   6.563   3.604   1.354
 4044SOL     OW13030   6.029   5.661   2.925
 4044SOL    HW113031   6.103   5.718   2.890
 4044SOL    HW213032   6.028   5.665   3.025
 4045SOL     OW13033   2.376   4.688   5.818
 4045SOL    HW113034   2.471   4.661   5.833
 4045SOL    HW213035   2.361   4.780   5.853
 4046SOL     OW13036   0.143   3.084   0.417
 4046SOL    HW113037   0.144   3.063   0.515
 4046SOL    HW213038   0.053   3.060   0.379
 4047SOL     OW13039   2.926   3.812   2.658
 4047SOL    HW113040   2.938   3.714   2.638
 4047SOL    HW213041   2.829   3.834   2.658
 4048SOL     OW13042   4.757   2.476   0.396
 4048SOL    HW113043   4.783   2.549   0.458
 4048SOL    HW213044   4.664   2.493   0.363
 4049SOL     OW13045   6.803   0.659   5.970
 4049SOL    HW113046   6.892   0.630   5.935
 4049SOL    HW213047   6.814   0.738   6.030
 4050SOL     OW13048   3.110   0.489   2.238
 4050SOL    HW113049   3.051   0.526   2.166
 4050SOL    HW213050   3.174   0.560   2.269
 4051SOL     OW13051   1.176   4.059   0.906
 4051SOL    HW113052   1.085   4.099   0.916
 4051SOL    HW213053   1.201   4.011   0.991
 4052SOL     OW13054   1.548   0.008   1.312
 4052SOL    HW113055   1.618   0.075   1.337
 4052SOL    HW213056   1.488   7.016   1.390
 4053SOL     OW13057   3.102   5.273   3.712
 4053SOL    HW113058   3.061   5.223   3.788
 4053SOL    HW213059   3.120   5.367   3.739
 4054SOL     OW13060   5.387   1.717   6.330
 4054SOL    HW113061   5.403   1.717   6.232
 4054SOL    HW213062   5.474   1.730   6.378
 4055SOL     OW13063   4.846   2.883   0.368
 4055SOL    HW113064   4.903   2.956   0.329
 4055SOL    HW213065   4.773   2.861   0.303
 4056SOL     OW13066   4.560   2.721   0.686
 4056SOL    HW113067   4.645   2.710   0.635
 4056SOL    HW213068   4.498   2.779   0.635
 4057SOL     OW13069   6.375   2.282   0.223
 4057SOL    HW113070   6.278   2.307   0.216
 4057SOL    HW213071   6.383   2.183   0.231
 4058SOL     OW13072   0.964   2.040   4.067
 4058SOL    HW113073   0.884   1.981   4.065
 4058SOL    HW213074   1.039   1.992   4.113
 4059SOL     OW13075   6.972   2.291   5.409
 4059SOL    HW113076   0.032   2.240   5.429
 4059SOL    HW213077   6.941   2.270   5.316
 4060SOL     OW13078   3.381   5.950   5.613
 4060SOL    HW113079   3.430   5.940   5.700
 4060SOL    HW213080   3.295   6.000   5.629
 4061SOL     OW13081   2.303   2.753   1.391
 4061SOL    HW113082   2.390   2.800   1.409
 4061SOL    HW213083   2.313   2.693   1.312
 4062SOL     OW13084   3.220   6.402   2.557
 4062SOL    HW113085   3.263   6.326   2.509
 4062SOL    HW213086   3.148   6.442   2.499
 4063SOL     OW13087   2.354   5.169   6.492
 4063SOL    HW113088   2.267   5.121   6.480
 4063SOL    HW213089   2.358   5.208   6.584
 4064SOL     OW13090   6.239   6.940   4.074
 4064SOL    HW113091   6.216   6.935   3.977
 4064SOL    HW213092   6.218   0.008   4.108
 4065SOL     OW13093   0.066   4.469   6.267
 4065SOL    HW113094   7.023   4.441   6.335
 4065SOL    HW213095   0.053   4.566   6.246
 4066SOL     OW13096   5.782   5.412   1.509
 4066SOL    HW113097   5.839   5.468   1.449
 4066SOL    HW213098   5.841   5.354   1.566
 4067SOL     OW13099   5.765   0.940   1.395
 4067SOL    HW113100   5.764   0.851   1.441
 4067SOL    HW213101   5.684   0.992   1.423
 4068SOL     OW13102   5.497   0.959   4.639
 4068SOL    HW113103   5.576   0.899   4.644
 4068SOL    HW213104   5.482   0.986   4.544
 4069SOL     OW13105   6.798   6.251   0.628
 4069SOL    HW113106   6.745   6.168   0.643
 4069SOL    HW213107   6.835   6.251   0.535
 4070SOL     OW13108   0.290   3.677   3.186
 4070SOL    HW113109   0.268   3.601   3.125
 4070SOL    HW213110   0.389   3.682   3.199
 4071SOL     OW13111   2.827   0.468   4.059
 4071SOL    HW113112   2.913   0.432   4.021
 4071SOL    HW213113   2.756   0.398   4.052
 4072SOL     OW13114   1.094   7.004   4.158
 4072SOL    HW113115   1.156   0.024   4.092
 4072SOL    HW213116   1.054   6.922   4.117
 4073SOL     OW13117   2.377   5.183   2.181
 4073SOL    HW113118   2.407   5.276   2.202
 4073SOL    HW213119   2.430   5.118   2.236
 4074SOL     OW13120   0.540   2.929   6.917
 4074SOL    HW113121   0.593   2.999   6.869
 4074SOL    HW213122   0.588   2.902   7.000
 4075SOL     OW13123   5.652   0.319   3.699
 4075SOL    HW113124   5.559   0.354   3.704
 4075SOL    HW213125   5.700   0.361   3.621
 4076SOL     OW13126   1.891   2.572   2.889
 4076SOL    HW113127   1.981   2.530   2.877
 4076SOL    HW213128   1.901   2.659   2.937
 4077SOL     OW13129   3.756   0.789   0.623
 4077SOL    HW113130   3.756   0.705   0.677
 4077SOL    HW213131   3.712   0.862   0.675
 4078SOL     OW13132   5.043   4.107   2.700
 4078SOL    HW113133   5.033   4.160   2.783
 4078SOL    HW213134   5.135   4.119   2.663
 4079SOL     OW13135   5.717   0.393   4.363
 4079SOL    HW113136   5.743   0.367   4.269
 4079SOL    HW213137   5.618   0.405   4.368
 4080SOL     OW13138   3.299   2.948   3.569
 4080SOL    HW113139   3.203   2.963   3.543
 4080SOL    HW213140   3.356   2.945   3.487
 4081SOL     OW13141   2.425   2.125   6.933
 4081SOL    HW113142   2.361   2.056   6.967
 4081SOL    HW213143   2.515   2.110   6.975
 4082SOL     OW13144   0.844   1.920   5.992
 4082SOL    HW113145   0.913   1.974   5.944
 4082SOL    HW213146   0.807   1.852   5.929
 4083SOL     OW13147   6.134   5.365   2.910
 4083SOL    HW113148   6.062   5.304   2.943
 4083SOL    HW213149   6.092   5.442   2.860
 4084SOL     OW13150   4.860   0.242   1.837
 4084SOL    HW113151   4.760   0.245   1.845
 4084SOL    HW213152   4.899   0.231   1.929
 4085SOL     OW13153   2.255   4.331   2.925
 4085SOL    HW113154   2.332   4.384   2.960
 4085SOL    HW213155   2.268   4.235   2.950
 4086SOL     OW13156   5.986   5.291   5.158
 4086SOL    HW113157   5.966   5.385   5.187
 4086SOL    HW213158   6.030   5.242   5.232
 4087SOL     OW13159   2.033   0.777   1.793
 4087SOL    HW113160   2.120   0.778   1.743
 4087SOL    HW213161   2.020   0.865   1.838
 4088SOL     OW13162   0.171   1.454   5.657
 4088SOL    HW113163   0.192   1.428   5.562
 4088SOL    HW213164   0.161   1.372   5.712
 4089SOL     OW13165   1.281   0.783   2.629
 4089SOL    HW113166   1.369   0.740   2.609
 4089SOL    HW213167   1.291   0.882   2.629
 4090SOL     OW13168   3.006   2.471   5.781
 4090SOL    HW113169   3.014   2.376   5.750
 4090SOL    HW213170   2.991   2.472   5.880
 4091SOL     OW13171   3.317   6.185   2.424
 4091SOL    HW113172   3.246   6.115   2.424
 4091SOL    HW213173   3.396   6.153   2.371
 4092SOL     OW13174   5.699   1.796   5.900
 4092SOL    HW113175   5.682   1.832   5.992
 4092SOL    HW213176   5.627   1.732   5.875
 4093SOL     OW13177   5.578   3.968   3.140
 4093SOL    HW113178   5.490   3.932   3.109
 4093SOL    HW213179   5.651   3.932   3.082
 4094SOL     OW13180   6.844   6.755   0.349
 4094SOL    HW113181   6.790   6.698   0.410
 4094SOL    HW213182   6.929   6.708   0.324
 4095SOL     OW13183   1.945   5.396   0.697
 4095SOL    HW113184   1.933   5.320   0.634
 4095SOL    HW213185   1.959   5.360   0.790
 4096SOL     OW13186   0.614   0.268   6.778
 4096SOL    HW113187   0.703   0.273   6.733
 4096SOL    HW213188   0.542   0.292   6.713
 4097SOL     OW13189   0.665   3.656   5.853
 4097SOL    HW113190   0.641   3.579   5.793
 4097SOL    HW213191   0.582   3.692   5.895
 4098SOL     OW13192   1.279   5.980   1.907
 4098SOL    HW113193   1.212   5.961   1.835
 4098SOL    HW213194   1.232   5.987   1.995
 4099SOL     OW13195   6.670   3.476   5.243
 4099SOL    HW113196   6.690   3.381   5.268
 4099SOL    HW213197   6.606   3.515   5.308
 4100SOL     OW13198   2.504   0.597   3.367
 4100SOL    HW113199   2.575   0.532   3.342
 4100SOL    HW213200   2.531   0.648   3.449
 4101SOL     OW13201   6.049   5.549   5.947
 4101SOL    HW113202   6.035   5.646   5.927
 4101SOL    HW213203   5.984   5.520   6.019
 4102SOL     OW13204   1.395   5.797   0.464
 4102SOL    HW113205   1.486   5.791   0.423
 4102SOL    HW213206   1.373   5.710   0.508
 4103SOL     OW13207   2.644   5.345   2.796
 4103SOL    HW113208   2.705   5.327   2.874
 4103SOL    HW213209   2.677   5.295   2.716
 4104SOL     OW13210   1.759   6.243   5.318
 4104SOL    HW113211   1.731   6.151   5.290
 4104SOL    HW213212   1.846   6.266   5.274
 4105SOL     OW13213   3.780   6.762   1.759
 4105SOL    HW113214   3.835   6.698   1.705
 4105SOL    HW213215   3.692   6.777   1.714
 4106SOL     OW13216   1.685   0.154   2.500
 4106SOL    HW113217   1.756   0.085   2.490
 4106SOL    HW213218   1.637   0.167   2.413
 4107SOL     OW13219   1.462   1.200   0.829
 4107SOL    HW113220   1.451   1.295   0.803
 4107SOL    HW213221   1.500   1.148   0.752
 4108SOL     OW13222   6.647   6.714   5.398
 4108SOL    HW113223   6.597   6.659   5.465
 4108SOL    HW213224   6.711   6.655   5.348
 4109SOL     OW13225   4.954   6.382   4.822
 4109SOL    HW113226   4.970   6.288   4.792
 4109SOL    HW213227   5.033   6.438   4.796
 4110SOL     OW13228   4.536   3.044   0.325
 4110SOL    HW113229   4.621   3.095   0.329
 4110SOL    HW213230   4.542   2.975   0.253
 4111SOL     OW13231   5.683   4.779   3.812
 4111SOL    HW113232   5.689   4.808   3.716
 4111SOL    HW213233   5.656   4.683   3.817
 4112SOL     OW13234   4.118   5.809   4.685
 4112SOL    HW113235   4.190   5.765   4.739
 4112SOL    HW213236   4.048   5.741   4.663
 4113SOL     OW13237   4.792   5.158   5.074
 4113SOL    HW113238   4.783   5.252   5.042
 4113SOL    HW213239   4.814   5.157   5.171
 4114SOL     OW13240   0.231   0.705   2.137
 4114SOL    HW113241   0.253   0.637   2.206
 4114SOL    HW213242   0.277   0.791   2.159
 4115SOL     OW13243   3.942   5.527   4.549
 4115SOL    HW113244   3.989   5.509   4.635
 4115SOL    HW213245   4.007   5.521   4.473
 4116SOL     OW13246   6.178   3.513   3.586
 4116SOL    HW113247   6.217   3.561   3.507
 4116SOL    HW213248   6.223   3.425   3.596
 4117SOL     OW13249   0.038   1.318   2.925
 4117SOL    HW113250   6.968   1.285   2.918
 4117SOL    HW213251   0.086   1.269   2.998
 4118SOL     OW13252   1.589   0.322   1.053
 4118SOL    HW113253   1.504   0.269   1.042
 4118SOL    HW213254   1.566   0.414   1.085
 4119SOL     OW13255   0.165   0.874   4.971
 4119SOL    HW113256   0.217   0.839   4.893
 4119SOL    HW213257   0.151   0.800   5.037
 4120SOL     OW13258   2.201   0.954   6.248
 4120SOL    HW113259   2.234   1.034   6.198
 4120SOL    HW213260   2.121   0.916   6.201
 4121SOL     OW13261   6.457   1.145   1.720
 4121SOL    HW113262   6.452   1.241   1.695
 4121SOL    HW213263   6.406   1.090   1.653
 4122SOL     OW13264   1.114   4.955   2.808
 4122SOL    HW113265   1.088   4.858   2.808
 4122SOL    HW213266   1.033   5.012   2.800
 4123SOL     OW13267   5.817   4.499   1.465
 4123SOL    HW113268   5.889   4.436   1.493
 4123SOL    HW213269   5.798   4.486   1.367
 4124SOL     OW13270   6.273   0.105   0.236
 4124SOL    HW113271   6.348   0.056   0.281
 4124SOL    HW213272   6.215   0.148   0.306
 4125SOL     OW13273   0.110   2.997   6.851
 4125SOL    HW113274   0.103   3.052   6.935
 4125SOL    HW213275   0.078   3.052   6.774
 4126SOL     OW13276   1.524   4.230   4.018
 4126SOL    HW113277   1.554   4.314   4.063
 4126SOL    HW213278   1.499   4.162   4.087
 4127SOL     OW13279   5.236   2.019   3.880
 4127SOL    HW113280   5.247   1.976   3.970
 4127SOL    HW213281   5.178   2.100   3.888
 4128SOL     OW13282   6.818   2.317   6.133
 4128SOL    HW113283   6.756   2.383   6.090
 4128SOL    HW213284   6.765   2.254   6.190
 4129SOL     OW13285   3.319   1.264   1.195
 4129SOL    HW113286   3.223   1.270   1.167
 4129SOL    HW213287   3.377   1.299   1.122
 4130SOL     OW13288   5.525   2.676   0.339
 4130SOL    HW113289   5.580   2.754   0.311
 4130SOL    HW213290   5.432   2.707   0.360
 4131SOL     OW13291   4.741   6.068   3.818
 4131SOL    HW113292   4.824   6.124   3.811
 4131SOL    HW213293   4.669   6.121   3.862
 4132SOL     OW13294   6.494   4.267   3.072
 4132SOL    HW113295   6.405   4.265   3.026
 4132SOL    HW213296   6.557   4.324   3.019
 4133SOL     OW13297   5.257   6.031   3.565
 4133SOL    HW113298   5.319   5.963   3.526
 4133SOL    HW213299   5.274   6.119   3.522
 4134SOL     OW13300   1.395   3.751   1.306
 4134SOL    HW113301   1.458   3.752   1.384
 4134SOL    HW213302   1.433   3.696   1.232
 4135SOL     OW13303   6.384   1.308   0.971
 4135SOL    HW113304   6.429   1.286   0.884
 4135SOL    HW213305   6.325   1.232   0.997
 4136SOL     OW13306   0.789   4.422   0.350
 4136SOL    HW113307   0.836   4.415   0.438
 4136SOL    HW213308   0.752   4.514   0.338
 4137SOL     OW13309   6.873   2.704   5.712
 4137SOL    HW113310   6.902   2.744   5.799
 4137SOL    HW213311   6.941   2.726   5.641
 4138SOL     OW13312   5.142   0.166   6.304
 4138SOL    HW113313   5.064   0.198   6.358
 4138SOL    HW213314   5.128   0.191   6.208
 4139SOL     OW13315   1.702   4.277   2.269
 4139SOL    HW113316   1.606   4.255   2.283
 4139SOL    HW213317   1.721   4.368   2.305
 4140SOL     OW13318   2.380   0.073   6.769
 4140SOL    HW113319   2.454   0.140   6.761
 4140SOL    HW213320   2.379   0.014   6.688
 4141SOL     OW13321   5.570   0.760   6.213
 4141SOL    HW113322   5.562   0.662   6.195
 4141SOL    HW213323   5.660   0.780   6.251
 4142SOL     OW13324   6.277   5.946   1.301
 4142SOL    HW113325   6.296   5.975   1.207
 4142SOL    HW213326   6.313   5.854   1.315
 4143SOL     OW13327   6.220   3.775   6.495
 4143SOL    HW113328   6.229   3.868   6.530
 4143SOL    HW213329   6.125   3.746   6.500
 4144SOL     OW13330   4.308   0.696   1.372
 4144SOL    HW113331   4.309   0.596   1.378
 4144SOL    HW213332   4.398   0.730   1.345
 4145SOL     OW13333   5.194   0.356   1.188
 4145SOL    HW113334   5.097   0.376   1.173
 4145SOL    HW213335   5.249   0.423   1.138
 4146SOL     OW13336   4.537   0.223   2.149
 4146SOL    HW113337   4.443   0.257   2.156
 4146SOL    HW213338   4.601   0.298   2.164
 4147SOL     OW13339   4.382   4.719   6.905
 4147SOL    HW113340   4.319   4.787   6.942
 4147SOL    HW213341   4.475   4.756   6.908
 4148SOL     OW13342   2.895   1.530   5.991
 4148SOL    HW113343   2.860   1.479   6.070
 4148SOL    HW213344   2.821   1.587   5.953
 4149SOL     OW13345   1.340   3.634   6.095
 4149SOL    HW113346   1.298   3.709   6.045
 4149SOL    HW213347   1.433   3.659   6.122
 4150SOL     OW13348   5.699   1.346   0.216
 4150SOL    HW113349   5.666   1.367   0.308
 4150SOL    HW213350   5.797   1.365   0.211
 4151SOL     OW13351   2.605   5.850   4.849
 4151SOL    HW113352   2.688   5.827   4.799
 4151SOL    HW213353   2.617   5.830   4.946
 4152SOL     OW13354   2.949   3.849   1.271
 4152SOL    HW113355   3.035   3.874   1.315
 4152SOL    HW213356   2.956   3.864   1.173
 4153SOL     OW13357   6.847   5.899   1.999
 4153SOL    HW113358   6.942   5.868   1.995
 4153SOL    HW213359   6.838   5.969   2.070
 4154SOL     OW13360   0.384   6.967   4.342
 4154SOL    HW113361   0.285   6.978   4.351
 4154SOL    HW213362   0.407   6.952   4.246
 4155SOL     OW13363   6.296   0.863   2.086
 4155SOL    HW113364   6.297   0.874   2.186
 4155SOL    HW213365   6.216   0.811   2.059
 4156SOL     OW13366   0.659   4.393   5.825
 4156SOL    HW113367   0.658   4.493   5.833
 4156SOL    HW213368   0.696   4.368   5.736
 4157SOL     OW13369   5.056   5.798   1.017
 4157SOL    HW113370   5.152   5.794   0.990
 4157SOL    HW213371   5.016   5.706   1.012
 4158SOL     OW13372   0.362   2.864   0.588
 4158SOL    HW113373   0.297   2.937   0.611
 4158SOL    HW213374   0.346   2.785   0.647
 4159SOL     OW13375   3.219   0.705   4.855
 4159SOL    HW113376   3.207   0.804   4.861
 4159SOL    HW213377   3.210   0.676   4.759
 4160SOL     OW13378   1.776   6.880   5.973
 4160SOL    HW113379   1.760   6.915   6.066
 4160SOL    HW213380   1.840   6.804   5.977
 4161SOL     OW13381   3.558   2.982   3.384
 4161SOL    HW113382   3.534   3.077   3.364
 4161SOL    HW213383   3.547   2.928   3.300
 4162SOL     OW13384   5.353   6.075   1.585
 4162SOL    HW113385   5.337   6.059   1.682
 4162SOL    HW213386   5.313   6.000   1.532
 4163SOL     OW13387   4.001   5.377   1.400
 4163SOL    HW113388   3.942   5.395   1.322
 4163SOL    HW213389   3.997   5.454   1.464
 4164SOL     OW13390   5.315   1.849   6.575
 4164SOL    HW113391   5.246   1.862   6.647
 4164SOL    HW213392   5.271   1.857   6.486
 4165SOL     OW13393   3.365   1.681   4.187
 4165SOL    HW113394   3.423   1.732   4.251
 4165SOL    HW213395   3.372   1.724   4.096
 4166SOL     OW13396   6.117   1.933   1.741
 4166SOL    HW113397   6.196   1.884   1.778
 4166SOL    HW213398   6.058   1.962   1.817
 4167SOL     OW13399   3.865   5.273   4.486
 4167SOL    HW113400   3.885   5.366   4.518
 4167SOL    HW213401   3.795   5.276   4.416
 4168SOL     OW13402   5.363   4.410   0.247
 4168SOL    HW113403   5.441   4.435   0.305
 4168SOL    HW213404   5.337   4.488   0.191
 4169SOL     OW13405   5.247   3.330   6.946
 4169SOL    HW113406   5.279   3.400   6.882
 4169SOL    HW213407   5.296   3.338   0.009
 4170SOL     OW13408   1.021   2.921   5.257
 4170SOL    HW113409   0.963   2.962   5.327
 4170SOL    HW213410   0.975   2.927   5.168
 4171SOL     OW13411   0.510   1.497   6.070
 4171SOL    HW113412   0.440   1.569   6.062
 4171SOL    HW213413   0.599   1.539   6.083
 4172SOL     OW13414   2.430   2.327   6.407
 4172SOL    HW113415   2.403   2.366   6.495
 4172SOL    HW213416   2.349   2.315   6.349
 4173SOL     OW13417   4.898   1.596   5.438
 4173SOL    HW113418   4.935   1.632   5.352
 4173SOL    HW213419   4.912   1.497   5.441
 4174SOL     OW13420   3.571   6.519   4.262
 4174SOL    HW113421   3.538   6.473   4.344
 4174SOL    HW213422   3.638   6.588   4.287
 4175SOL     OW13423   1.373   4.557   6.470
 4175SOL    HW113424   1.279   4.583   6.449
 4175SOL    HW213425   1.426   4.639   6.491
 4176SOL     OW13426   4.958   6.910   5.761
 4176SOL    HW113427   5.007   6.953   5.685
 4176SOL    HW213428   5.004   6.824   5.785
 4177SOL     OW13429   4.058   5.288   3.043
 4177SOL    HW113430   4.151   5.311   3.013
 4177SOL    HW213431   3.997   5.365   3.023
 4178SOL     OW13432   3.905   6.276   1.450
 4178SOL    HW113433   3.955   6.206   1.501
 4178SOL    HW213434   3.809   6.278   1.481
 4179SOL     OW13435   4.440   2.744   6.930
 4179SOL    HW113436   4.521   2.697   6.966
 4179SOL    HW213437   4.372   2.676   6.904
 4180SOL     OW13438   3.774   3.645   0.365
 4180SOL    HW113439   3.864   3.686   0.376
 4180SOL    HW213440   3.781   3.546   0.371
 4181SOL     OW13441   5.605   6.268   5.797
 4181SOL    HW113442   5.673   6.290   5.726
 4181SOL    HW213443   5.516   6.306   5.771
 4182SOL     OW13444   0.559   5.899   5.714
 4182SOL    HW113445   0.564   5.808   5.674
 4182SOL    HW213446   0.467   5.915   5.750
 4183SOL     OW13447   4.480   2.072   0.092
 4183SOL    HW113448   4.506   2.083   0.188
 4183SOL    HW213449   4.499   2.157   0.043
 4184SOL     OW13450   3.615   5.634   3.361
 4184SOL    HW113451   3.647   5.693   3.287
 4184SOL    HW213452   3.515   5.627   3.356
 4185SOL     OW13453   4.889   3.641   3.473
 4185SOL    HW113454   4.855   3.719   3.526
 4185SOL    HW213455   4.865   3.653   3.377
 4186SOL     OW13456   1.864   5.304   0.131
 4186SOL    HW113457   1.888   5.214   0.093
 4186SOL    HW213458   1.796   5.347   0.073
 4187SOL     OW13459   2.227   4.025   5.998
 4187SOL    HW113460   2.224   3.941   5.945
 4187SOL    HW213461   2.319   4.064   5.993
 4188SOL     OW13462   4.699   0.375   6.573
 4188SOL    HW113463   4.713   0.358   6.670
 4188SOL    HW213464   4.697   0.473   6.556
 4189SOL     OW13465   4.682   5.220   3.197
 4189SOL    HW113466   4.734   5.231   3.281
 4189SOL    HW213467   4.602   5.280   3.198
 4190SOL     OW13468   6.046   6.751   1.784
 4190SOL    HW113469   5.958   6.752   1.833
 4190SOL    HW213470   6.029   6.751   1.685
 4191SOL     OW13471   4.356   3.206   6.508
 4191SOL    HW113472   4.304   3.251   6.581
 4191SOL    HW213473   4.325   3.111   6.499
 4192SOL     OW13474   1.650   3.519   6.333
 4192SOL    HW113475   1.561   3.486   6.363
 4192SOL    HW213476   1.692   3.451   6.272
 4193SOL     OW13477   0.062   0.821   0.082
 4193SOL    HW113478   0.114   0.745   0.044
 4193SOL    HW213479   0.119   0.903   0.085
 4194SOL     OW13480   5.886   1.135   6.476
 4194SOL    HW113481   5.929   1.133   6.385
 4194SOL    HW213482   5.955   1.161   6.544
 4195SOL     OW13483   2.631   6.630   1.104
 4195SOL    HW113484   2.644   6.693   1.181
 4195SOL    HW213485   2.566   6.669   1.039
 4196SOL     OW13486   0.193   2.466   3.079
 4196SOL    HW113487   0.224   2.374   3.054
 4196SOL    HW213488   0.224   2.488   3.171
 4197SOL     OW13489   3.277   1.223   0.152
 4197SOL    HW113490   3.361   1.256   0.109
 4197SOL    HW213491   3.198   1.261   0.105
 4198SOL     OW13492   6.674   2.042   2.212
 4198SOL    HW113493   6.771   2.031   2.191
 4198SOL    HW213494   6.660   2.124   2.266
 4199SOL     OW13495   0.580   3.789   6.646
 4199SOL    HW113496   0.644   3.718   6.674
 4199SOL    HW213497   0.610   3.827   6.558
 4200SOL     OW13498   4.585   1.653   3.643
 4200SOL    HW113499   4.565   1.738   3.692
 4200SOL    HW213500   4.555   1.575   3.697
 4201SOL     OW13501   5.771   6.878   4.780
 4201SOL    HW113502   5.782   6.793   4.730
 4201SOL    HW213503   5.847   6.890   4.844
 4202SOL     OW13504   4.493   4.102   1.567
 4202SOL    HW113505   4.520   4.198   1.568
 4202SOL    HW213506   4.405   4.091   1.615
 4203SOL     OW13507   5.627   4.355   5.769
 4203SOL    HW113508   5.618   4.454   5.762
 4203SOL    HW213509   5.550   4.311   5.722
 4204SOL     OW13510   1.624   4.232   6.411
 4204SOL    HW113511   1.602   4.318   6.365
 4204SOL    HW213512   1.542   4.175   6.416
 4205SOL     OW13513   4.663   6.653   6.363
 4205SOL    HW113514   4.705   6.574   6.319
 4205SOL    HW213515   4.579   6.624   6.409
 4206SOL     OW13516   2.362   1.867   4.524
 4206SOL    HW113517   2.266   1.846   4.507
 4206SOL    HW213518   2.418   1.786   4.506
 4207SOL     OW13519   1.421   1.989   2.277
 4207SOL    HW113520   1.363   2.012   2.355
 4207SOL    HW213521   1.364   1.978   2.196
 4208SOL     OW13522   2.534   2.359   3.903
 4208SOL    HW113523   2.530   2.416   3.985
 4208SOL    HW213524   2.621   2.311   3.900
 4209SOL     OW13525   6.665   5.675   1.988
 4209SOL    HW113526   6.686   5.593   2.041
 4209SOL    HW213527   6.748   5.731   1.977
 4210SOL     OW13528   3.068   4.314   5.276
 4210SOL    HW113529   3.017   4.392   5.239
 4210SOL    HW213530   3.035   4.292   5.368
 4211SOL     OW13531   3.559   2.864   5.444
 4211SOL    HW113532   3.484   2.922   5.476
 4211SOL    HW213533   3.609   2.828   5.523
 4212SOL     OW13534   0.541   2.258   2.950
 4212SOL    HW113535   0.515   2.340   3.001
 4212SOL    HW213536   0.620   2.215   2.995
 4213SOL     OW13537   3.847   0.267   4.071
 4213SOL    HW113538   3.919   0.205   4.102
 4213SOL    HW213539   3.842   0.264   3.971
 4214SOL     OW13540   6.507   5.845   3.309
 4214SOL    HW113541   6.455   5.790   3.244
 4214SOL    HW213542   6.458   5.849   3.396
 4215SOL     OW13543   5.881   0.373   5.950
 4215SOL    HW113544   5.811   0.383   5.879
 4215SOL    HW213545   5.971   0.394   5.912
 4216SOL     OW13546   2.458   5.461   2.213
 4216SOL    HW113547   2.381   5.511   2.255
 4216SOL    HW213548   2.516   5.525   2.163
 4217SOL     OW13549   1.676   0.161   3.161
 4217SOL    HW113550   1.696   0.241   3.216
 4217SOL    HW213551   1.585   0.126   3.185
 4218SOL     OW13552   2.862   1.132   2.074
 4218SOL    HW113553   2.765   1.147   2.055
 4218SOL    HW213554   2.870   1.071   2.153
 4219SOL     OW13555   3.707   4.888   3.510
 4219SOL    HW113556   3.770   4.828   3.558
 4219SOL    HW213557   3.723   4.983   3.538
 4220SOL     OW13558   6.285   1.969   0.943
 4220SOL    HW113559   6.367   1.924   0.907
 4220SOL    HW213560   6.311   2.055   0.986
 4221SOL     OW13561   0.263   6.443   0.298
 4221SOL    HW113562   0.265   6.532   0.251
 4221SOL    HW213563   0.314   6.376   0.244
 4222SOL     OW13564   4.870   3.160   4.374
 4222SOL    HW113565   4.828   3.105   4.301
 4222SOL    HW213566   4.910   3.242   4.335
 4223SOL     OW13567   3.463   3.880   2.791
 4223SOL    HW113568   3.484   3.816   2.717
 4223SOL    HW213569   3.364   3.890   2.799
 4224SOL     OW13570   4.557   4.943   4.231
 4224SOL    HW113571   4.524   4.853   4.257
 4224SOL    HW213572   4.551   5.005   4.309
 4225SOL     OW13573   1.074   2.046   5.890
 4225SOL    HW113574   1.123   1.993   5.959
 4225SOL    HW213575   1.128   2.127   5.866
 4226SOL     OW13576   0.233   4.813   4.799
 4226SOL    HW113577   0.250   4.899   4.848
 4226SOL    HW213578   0.222   4.739   4.865
 4227SOL     OW13579   4.766   5.304   1.861
 4227SOL    HW113580   4.814   5.217   1.851
 4227SOL    HW213581   4.721   5.308   1.950
 4228SOL     OW13582   1.501   4.802   3.487
 4228SOL    HW113583   1.466   4.739   3.556
 4228SOL    HW213584   1.491   4.896   3.519
 4229SOL     OW13585   5.895   6.035   5.557
 4229SOL    HW113586   5.809   6.084   5.541
 4229SOL    HW213587   5.972   6.090   5.524
 4230SOL     OW13588   6.764   1.560   1.501
 4230SOL    HW113589   6.812   1.484   1.545
 4230SOL    HW213590   6.748   1.539   1.405
 4231SOL     OW13591   0.360   0.610   6.193
 4231SOL    HW113592   0.279   0.557   6.168
 4231SOL    HW213593   0.436   0.583   6.134
 4232SOL     OW13594   1.671   5.005   4.248
 4232SOL    HW113595   1.768   5.027   4.249
 4232SOL    HW213596   1.659   4.906   4.253
 4233SOL     OW13597   4.611   5.355   2.568
 4233SOL    HW113598   4.543   5.429   2.568
 4233SOL    HW213599   4.670   5.365   2.488
 4234SOL     OW13600   3.470   5.274   5.672
 4234SOL    HW113601   3.407   5.330   5.617
 4234SOL    HW213602   3.562   5.313   5.668
 4235SOL     OW13603   6.985   5.821   6.519
 4235SOL    HW113604   6.980   5.787   6.613
 4235SOL    HW213605   6.956   5.916   6.516
 4236SOL     OW13606   0.113   5.618   3.009
 4236SOL    HW113607   0.116   5.710   2.970
 4236SOL    HW213608   0.031   5.570   2.976
 4237SOL     OW13609   0.129   4.524   3.806
 4237SOL    HW113610   0.204   4.589   3.793
 4237SOL    HW213611   0.161   4.432   3.782
 4238SOL     OW13612   2.947   6.081   2.607
 4238SOL    HW113613   2.980   6.112   2.696
 4238SOL    HW213614   2.871   6.140   2.578
 4239SOL     OW13615   4.263   1.168   3.694
 4239SOL    HW113616   4.362   1.168   3.682
 4239SOL    HW213617   4.221   1.114   3.621
 4240SOL     OW13618   5.828   6.962   1.464
 4240SOL    HW113619   5.762   6.913   1.407
 4240SOL    HW213620   5.853   0.024   1.420
 4241SOL     OW13621   6.393   4.502   0.267
 4241SOL    HW113622   6.446   4.480   0.185
 4241SOL    HW213623   6.448   4.481   0.348
 4242SOL     OW13624   3.244   2.069   3.447
 4242SOL    HW113625   3.332   2.055   3.402
 4242SOL    HW213626   3.258   2.084   3.544
 4243SOL     OW13627   4.351   1.517   2.583
 4243SOL    HW113628   4.390   1.575   2.654
 4243SOL    HW213629   4.306   1.573   2.514
 4244SOL     OW13630   3.283   3.107   4.740
 4244SOL    HW113631   3.194   3.132   4.702
 4244SOL    HW213632   3.278   3.015   4.779
 4245SOL     OW13633   6.039   0.285   6.968
 4245SOL    HW113634   5.986   0.212   7.011
 4245SOL    HW213635   6.135   0.277   6.996
 4246SOL     OW13636   6.569   4.331   6.741
 4246SOL    HW113637   6.545   4.340   6.644
 4246SOL    HW213638   6.487   4.346   6.797
 4247SOL     OW13639   0.416   5.998   5.027
 4247SOL    HW113640   0.439   6.074   4.967
 4247SOL    HW213641   0.480   5.997   5.104
 4248SOL     OW13642   2.296   3.781   6.299
 4248SOL    HW113643   2.342   3.701   6.338
 4248SOL    HW213644   2.278   3.848   6.371
 4249SOL     OW13645   5.212   3.802   5.419
 4249SOL    HW113646   5.167   3.743   5.353
 4249SOL    HW213647   5.187   3.774   5.512
 4250SOL     OW13648   1.215   4.074   3.297
 4250SOL    HW113649   1.194   4.093   3.392
 4250SOL    HW213650   1.246   4.158   3.252
 4251SOL     OW13651   5.527   4.824   0.101
 4251SOL    HW113652   5.593   4.852   0.030
 4251SOL    HW213653   5.500   4.729   0.085
 4252SOL     OW13654   6.954   5.657   5.160
 4252SOL    HW113655   6.880   5.636   5.224
 4252SOL    HW213656   6.919   5.714   5.086
 4253SOL     OW13657   3.723   5.943   2.709
 4253SOL    HW113658   3.635   5.986   2.728
 4253SOL    HW213659   3.713   5.844   2.708
 4254SOL     OW13660   2.995   4.007   1.767
 4254SOL    HW113661   2.904   3.966   1.759
 4254SOL    HW213662   3.064   3.935   1.776
 4255SOL     OW13663   0.253   1.912   4.384
 4255SOL    HW113664   0.201   1.991   4.414
 4255SOL    HW213665   0.203   1.865   4.311
 4256SOL     OW13666   2.032   1.073   1.896
 4256SOL    HW113667   2.093   1.024   1.958
 4256SOL    HW213668   1.982   1.143   1.946
 4257SOL     OW13669   4.369   2.398   4.861
 4257SOL    HW113670   4.296   2.422   4.925
 4257SOL    HW213671   4.359   2.303   4.833
 4258SOL     OW13672   5.000   6.274   3.250
 4258SOL    HW113673   4.955   6.242   3.333
 4258SOL    HW213674   5.021   6.195   3.192
 4259SOL     OW13675   1.898   3.319   1.048
 4259SOL    HW113676   1.956   3.262   1.106
 4259SOL    HW213677   1.836   3.261   0.996
 4260SOL     OW13678   3.936   5.465   3.923
 4260SOL    HW113679   3.975   5.521   3.849
 4260SOL    HW213680   3.938   5.517   4.008
 4261SOL     OW13681   1.137   1.352   2.855
 4261SOL    HW113682   1.041   1.379   2.851
 4261SOL    HW213683   1.154   1.304   2.942
 4262SOL     OW13684   6.983   6.617   6.260
 4262SOL    HW113685   6.927   6.682   6.209
 4262SOL    HW213686   0.050   6.611   6.218
 4263SOL     OW13687   4.094   5.125   6.366
 4263SOL    HW113688   4.059   5.062   6.436
 4263SOL    HW213689   4.169   5.179   6.405
 4264SOL     OW13690   6.979   0.410   1.557
 4264SOL    HW113691   0.046   0.402   1.600
 4264SOL    HW213692   6.936   0.495   1.587
 4265SOL     OW13693   1.315   2.089   7.010
 4265SOL    HW113694   1.238   2.109   0.046
 4265SOL    HW213695   1.328   2.164   6.945
 4266SOL     OW13696   3.133   4.646   1.273
 4266SOL    HW113697   3.214   4.646   1.215
 4266SOL    HW213698   3.161   4.652   1.369
 4267SOL     OW13699   1.844   4.531   5.982
 4267SOL    HW113700   1.803   4.611   5.937
 4267SOL    HW213701   1.858   4.459   5.915
 4268SOL     OW13702   1.945   0.611   0.843
 4268SOL    HW113703   1.942   0.616   0.743
 4268SOL    HW213704   1.909   0.522   0.873
 4269SOL     OW13705   2.642   4.423   0.721
 4269SOL    HW113706   2.736   4.388   0.718
 4269SOL    HW213707   2.623   4.462   0.811
 4270SOL     OW13708   3.657   2.778   6.383
 4270SOL    HW113709   3.637   2.833   6.302
 4270SOL    HW213710   3.615   2.822   6.463
 4271SOL     OW13711   1.299   0.288   0.505
 4271SOL    HW113712   1.225   0.335   0.458
 4271SOL    HW213713   1.261   0.232   0.579
 4272SOL     OW13714   6.998   3.948   3.823
 4272SOL    HW113715   6.955   4.011   3.887
 4272SOL    HW213716   6.931   3.916   3.756
 4273SOL     OW13717   5.681   6.689   4.240
 4273SOL    HW113718   5.621   6.655   4.313
 4273SOL    HW213719   5.744   6.617   4.213
 4274SOL     OW13720   2.142   0.557   3.903
 4274SOL    HW113721   2.056   0.575   3.855
 4274SOL    HW213722   2.162   0.633   3.966
 4275SOL     OW13723   1.050   0.247   6.192
 4275SOL    HW113724   1.124   0.276   6.252
 4275SOL    HW213725   0.994   0.178   6.237
 4276SOL     OW13726   1.909   4.687   2.344
 4276SOL    HW113727   1.941   4.781   2.331
 4276SOL    HW213728   1.895   4.644   2.255
 4277SOL     OW13729   0.928   5.432   4.938
 4277SOL    HW113730   0.846   5.393   4.896
 4277SOL    HW213731   0.924   5.421   5.037
 4278SOL     OW13732   1.489   6.706   6.058
 4278SOL    HW113733   1.537   6.675   5.976
 4278SOL    HW213734   1.525   6.656   6.138
 4279SOL     OW13735   3.001   5.945   4.170
 4279SOL    HW113736   3.056   5.867   4.143
 4279SOL    HW213737   3.059   6.026   4.181
 4280SOL     OW13738   4.829   2.803   3.575
 4280SOL    HW113739   4.826   2.899   3.604
 4280SOL    HW213740   4.736   2.768   3.568
 4281SOL     OW13741   2.543   4.111   5.418
 4281SOL    HW113742   2.526   4.210   5.418
 4281SOL    HW213743   2.518   4.073   5.329
 4282SOL     OW13744   0.648   2.886   0.604
 4282SOL    HW113745   0.696   2.843   0.527
 4282SOL    HW213746   0.550   2.869   0.596
 4283SOL     OW13747   2.480   0.748   4.883
 4283SOL    HW113748   2.570   0.792   4.878
 4283SOL    HW213749   2.490   0.651   4.864
 4284SOL     OW13750   0.113   1.803   2.815
 4284SOL    HW113751   0.064   1.738   2.756
 4284SOL    HW213752   0.149   1.755   2.895
 4285SOL     OW13753   0.828   6.090   4.440
 4285SOL    HW113754   0.909   6.051   4.395
 4285SOL    HW213755   0.779   6.018   4.490
 4286SOL     OW13756   5.335   5.862   6.599
 4286SOL    HW113757   5.386   5.933   6.646
 4286SOL    HW213758   5.291   5.803   6.666
 4287SOL     OW13759   4.053   6.655   5.435
 4287SOL    HW113760   4.071   6.753   5.428
 4287SOL    HW213761   4.133   6.603   5.408
 4288SOL     OW13762   1.456   5.989   3.429
 4288SOL    HW113763   1.365   6.031   3.429
 4288SOL    HW213764   1.479   5.963   3.335
 4289SOL     OW13765   6.675   3.733   0.224
 4289SOL    HW113766   6.716   3.821   0.201
 4289SOL    HW213767   6.722   3.695   0.304
 4290SOL     OW13768   2.224   1.797   3.335
 4290SOL    HW113769   2.208   1.887   3.375
 4290SOL    HW213770   2.141   1.765   3.289
 4291SOL     OW13771   6.622   4.486   1.235
 4291SOL    HW113772   6.620   4.426   1.155
 4291SOL    HW213773   6.705   4.468   1.288
 4292SOL     OW13774   5.444   5.436   5.933
 4292SOL    HW113775   5.358   5.398   5.899
 4292SOL    HW213776   5.427   5.526   5.973
 4293SOL     OW13777   0.220   2.460   6.280
 4293SOL    HW113778   0.290   2.390   6.265
 4293SOL    HW213779   0.264   2.546   6.305
 4294SOL     OW13780   4.968   2.398   5.814
 4294SOL    HW113781   4.936   2.487   5.783
 4294SOL    HW213782   4.956   2.391   5.913
 4295SOL     OW13783   3.758   6.293   5.531
 4295SOL    HW113784   3.706   6.267   5.612
 4295SOL    HW213785   3.703   6.276   5.449
 4296SOL     OW13786   2.379   1.331   2.710
 4296SOL    HW113787   2.360   1.234   2.723
 4296SOL    HW213788   2.468   1.342   2.664
 4297SOL     OW13789   5.781   0.863   0.152
 4297SOL    HW113790   5.844   0.850   0.075
 4297SOL    HW213791   5.788   0.786   0.215
 4298SOL     OW13792   2.555   5.376   1.316
 4298SOL    HW113793   2.493   5.317   1.264
 4298SOL    HW213794   2.553   5.468   1.279
 4299SOL     OW13795   1.018   4.405   5.654
 4299SOL    HW113796   0.997   4.414   5.751
 4299SOL    HW213797   1.099   4.459   5.632
 4300SOL     OW13798   5.700   6.745   6.134
 4300SOL    HW113799   5.736   6.659   6.170
 4300SOL    HW213800   5.775   6.809   6.118
 4301SOL     OW13801   2.610   1.168   0.274
 4301SOL    HW113802   2.562   1.256   0.278
 4301SOL    HW213803   2.569   1.112   0.202
 4302SOL     OW13804   0.825   6.832   6.577
 4302SOL    HW113805   0.899   6.787   6.527
 4302SOL    HW213806   0.850   6.841   6.673
 4303SOL     OW13807   6.891   4.049   1.377
 4303SOL    HW113808   6.934   3.962   1.353
 4303SOL    HW213809   6.862   4.096   1.294
 4304SOL     OW13810   3.272   2.898   4.915
 4304SOL    HW113811   3.348   2.858   4.966
 4304SOL    HW213812   3.186   2.866   4.954
 4305SOL     OW13813   5.976   1.018   4.956
 4305SOL    HW113814   5.998   1.038   4.860
 4305SOL    HW213815   6.057   1.034   5.012
 4306SOL     OW13816   5.914   5.942   6.312
 4306SOL    HW113817   5.949   5.860   6.356
 4306SOL    HW213818   5.871   5.918   6.225
 4307SOL     OW13819   5.150   3.435   0.425
 4307SOL    HW113820   5.201   3.349   0.417
 4307SOL    HW213821   5.126   3.451   0.521
 4308SOL     OW13822   4.034   6.925   5.631
 4308SOL    HW113823   4.059   7.021   5.642
 4308SOL    HW213824   4.064   6.873   5.712
 4309SOL     OW13825   1.733   0.809   1.312
 4309SOL    HW113826   1.691   0.877   1.252
 4309SOL    HW213827   1.819   0.778   1.273
 4310SOL     OW13828   1.538   0.691   2.621
 4310SOL    HW113829   1.616   0.734   2.575
 4310SOL    HW213830   1.532   0.595   2.594
 4311SOL     OW13831   1.302   5.804   4.435
 4311SOL    HW113832   1.315   5.763   4.525
 4311SOL    HW213833   1.337   5.742   4.365
 4312SOL     OW13834   1.714   5.676   1.475
 4312SOL    HW113835   1.772   5.596   1.490
 4312SOL    HW213836   1.746   5.726   1.394
 4313SOL     OW13837   5.171   0.429   2.009
 4313SOL    HW113838   5.127   0.340   2.023
 4313SOL    HW213839   5.112   0.502   2.044
 4314SOL     OW13840   5.482   3.650   2.539
 4314SOL    HW113841   5.474   3.627   2.441
 4314SOL    HW213842   5.434   3.736   2.557
 4315SOL     OW13843   2.488   1.404   2.352
 4315SOL    HW113844   2.552   1.457   2.296
 4315SOL    HW213845   2.416   1.465   2.386
 4316SOL     OW13846   0.345   0.926   2.226
 4316SOL    HW113847   0.419   0.939   2.293
 4316SOL    HW213848   0.373   0.966   2.139
 4317SOL     OW13849   3.932   0.496   3.923
 4317SOL    HW113850   3.906   0.579   3.875
 4317SOL    HW213851   3.852   0.459   3.971
 4318SOL     OW13852   6.530   2.455   3.778
 4318SOL    HW113853   6.530   2.554   3.761
 4318SOL    HW213854   6.448   2.431   3.830
 4319SOL     OW13855   2.982   3.195   5.948
 4319SOL    HW113856   2.931   3.126   5.999
 4319SOL    HW213857   2.979   3.172   5.850
 4320SOL     OW13858   0.296   5.584   3.522
 4320SOL    HW113859   0.225   5.591   3.451
 4320SOL    HW213860   0.274   5.509   3.584
 4321SOL     OW13861   0.611   0.550   4.897
 4321SOL    HW113862   0.604   0.455   4.865
 4321SOL    HW213863   0.525   0.598   4.876
 4322SOL     OW13864   5.612   1.606   0.993
 4322SOL    HW113865   5.515   1.623   1.010
 4322SOL    HW213866   5.647   1.544   1.064
 4323SOL     OW13867   0.010   1.986   3.949
 4323SOL    HW113868   6.934   1.986   3.950
 4323SOL    HW213869   0.045   2.061   4.005
 4324SOL     OW13870   5.637   2.650   6.355
 4324SOL    HW113871   5.652   2.749   6.355
 4324SOL    HW213872   5.543   2.630   6.382
 4325SOL     OW13873   1.840   2.007   5.696
 4325SOL    HW113874   1.860   2.010   5.598
 4325SOL    HW213875   1.774   2.079   5.718
 4326SOL     OW13876   6.440   2.519   5.320
 4326SOL    HW113877   6.510   2.487   5.257
 4326SOL    HW213878   6.441   2.463   5.403
 4327SOL     OW13879   5.433   0.447   3.385
 4327SOL    HW113880   5.498   0.379   3.350
 4327SOL    HW213881   5.470   0.539   3.372
 4328SOL     OW13882   5.555   5.143   0.456
 4328SOL    HW113883   5.483   5.106   0.397
 4328SOL    HW213884   5.515   5.209   0.519
 4329SOL     OW13885   5.127   1.648   6.298
 4329SOL    HW113886   5.222   1.678   6.306
 4329SOL    HW213887   5.087   1.686   6.215
 4330SOL     OW13888   0.877   0.739   6.450
 4330SOL    HW113889   0.833   0.819   6.491
 4330SOL    HW213890   0.811   0.665   6.442
 4331SOL     OW13891   5.181   2.507   6.959
 4331SOL    HW113892   5.134   2.434   6.909
 4331SOL    HW213893   5.244   2.555   6.897
 4332SOL     OW13894   5.302   3.524   2.047
 4332SOL    HW113895   5.284   3.582   1.968
 4332SOL    HW213896   5.231   3.455   2.055
 4333SOL     OW13897   6.076   1.808   5.457
 4333SOL    HW113898   6.032   1.859   5.531
 4333SOL    HW213899   6.113   1.873   5.390
 4334SOL     OW13900   4.621   0.195   1.354
 4334SOL    HW113901   4.574   0.192   1.442
 4334SOL    HW213902   4.626   0.290   1.322
 4335SOL     OW13903   3.864   4.520   5.731
 4335SOL    HW113904   3.890   4.451   5.799
 4335SOL    HW213905   3.869   4.611   5.773
 4336SOL     OW13906   1.353   6.159   5.305
 4336SOL    HW113907   1.392   6.148   5.213
 4336SOL    HW213908   1.346   6.070   5.350
 4337SOL     OW13909   0.375   5.328   0.096
 4337SOL    HW113910   0.463   5.285   0.078
 4337SOL    HW213911   0.362   5.338   0.195
 4338SOL     OW13912   5.825   5.831   3.701
 4338SOL    HW113913   5.852   5.905   3.640
 4338SOL    HW213914   5.840   5.858   3.796
 4339SOL     OW13915   6.727   1.193   6.641
 4339SOL    HW113916   6.820   1.219   6.668
 4339SOL    HW213917   6.675   1.275   6.617
 4340SOL     OW13918   4.894   3.366   1.648
 4340SOL    HW113919   4.802   3.339   1.677
 4340SOL    HW213920   4.925   3.443   1.704
 4341SOL     OW13921   0.681   4.135   6.920
 4341SOL    HW113922   0.706   4.042   6.946
 4341SOL    HW213923   0.643   4.135   6.828
 4342SOL     OW13924   0.073   2.063   2.812
 4342SOL    HW113925   0.014   2.105   2.743
 4342SOL    HW213926   0.060   1.964   2.811
 4343SOL     OW13927   2.276   1.675   1.619
 4343SOL    HW113928   2.350   1.607   1.615
 4343SOL    HW213929   2.245   1.686   1.713
 4344SOL     OW13930   2.246   4.113   2.153
 4344SOL    HW113931   2.303   4.191   2.177
 4344SOL    HW213932   2.215   4.067   2.237
 4345SOL     OW13933   2.404   1.565   6.134
 4345SOL    HW113934   2.335   1.603   6.073
 4345SOL    HW213935   2.488   1.620   6.129
 4346SOL     OW13936   7.008   3.134   0.888
 4346SOL    HW113937   0.035   3.102   0.968
 4346SOL    HW213938   6.910   3.119   0.902
 4347SOL     OW13939   5.577   5.830   2.789
 4347SOL    HW113940   5.520   5.910   2.772
 4347SOL    HW213941   5.522   5.747   2.782
 4348SOL     OW13942   1.150   4.101   6.974
 4348SOL    HW113943   1.150   4.054   0.038
 4348SOL    HW213944   1.090   4.181   6.980
 4349SOL     OW13945   6.948   0.794   2.020
 4349SOL    HW113946   6.857   0.754   2.031
 4349SOL    HW213947   7.011   0.752   2.085
 4350SOL     OW13948   4.730   0.473   3.435
 4350SOL    HW113949   4.741   0.447   3.531
 4350SOL    HW213950   4.813   0.519   3.403
 4351SOL     OW13951   2.427   6.540   0.681
 4351SOL    HW113952   2.520   6.558   0.715
 4351SOL    HW213953   2.381   6.627   0.665
 4352SOL     OW13954   6.314   1.317   2.718
 4352SOL    HW113955   6.255   1.236   2.721
 4352SOL    HW213956   6.268   1.393   2.765
 4353SOL     OW13957   2.913   5.608   1.833
 4353SOL    HW113958   3.009   5.585   1.842
 4353SOL    HW213959   2.862   5.529   1.799
 4354SOL     OW13960   2.413   1.088   1.339
 4354SOL    HW113961   2.397   1.100   1.241
 4354SOL    HW213962   2.399   0.992   1.364
 4355SOL     OW13963   4.757   0.815   0.737
 4355SOL    HW113964   4.759   0.877   0.815
 4355SOL    HW213965   4.672   0.762   0.739
 4356SOL     OW13966   3.399   3.960   0.253
 4356SOL    HW113967   3.329   4.006   0.200
 4356SOL    HW213968   3.382   3.861   0.253
 4357SOL     OW13969   6.520   0.794   6.877
 4357SOL    HW113970   6.560   0.767   6.965
 4357SOL    HW213971   6.564   0.877   6.845
 4358SOL     OW13972   6.231   1.104   1.023
 4358SOL    HW113973   6.246   1.053   0.938
 4358SOL    HW213974   6.162   1.057   1.078
 4359SOL     OW13975   5.923   2.735   4.128
 4359SOL    HW113976   5.879   2.709   4.043
 4359SOL    HW213977   5.935   2.834   4.131
 4360SOL     OW13978   2.189   3.293   0.953
 4360SOL    HW113979   2.266   3.324   1.009
 4360SOL    HW213980   2.108   3.347   0.975
 4361SOL     OW13981   5.787   1.524   2.324
 4361SOL    HW113982   5.699   1.480   2.339
 4361SOL    HW213983   5.860   1.455   2.328
 4362SOL     OW13984   5.178   4.154   2.976
 4362SOL    HW113985   5.100   4.094   2.958
 4362SOL    HW213986   5.148   4.234   3.027
 4363SOL     OW13987   5.501   1.039   6.190
 4363SOL    HW113988   5.465   0.946   6.188
 4363SOL    HW213989   5.451   1.093   6.257
 4364SOL     OW13990   3.344   3.744   4.877
 4364SOL    HW113991   3.255   3.711   4.906
 4364SOL    HW213992   3.377   3.813   4.942
 4365SOL     OW13993   3.653   1.574   0.408
 4365SOL    HW113994   3.708   1.607   0.331
 4365SOL    HW213995   3.667   1.476   0.419
 4366SOL     OW13996   5.192   5.062   1.278
 4366SOL    HW113997   5.185   5.159   1.301
 4366SOL    HW213998   5.280   5.045   1.232
 4367SOL     OW13999   0.018   6.845   0.603
 4367SOL    HW114000   0.016   6.902   0.685
 4367SOL    HW214001   7.016   6.900   0.524
 4368SOL     OW14002   4.715   4.472   1.935
 4368SOL    HW114003   4.801   4.428   1.908
 4368SOL    HW214004   4.642   4.403   1.940
 4369SOL     OW14005   3.208   5.799   1.525
 4369SOL    HW114006   3.169   5.872   1.470
 4369SOL    HW214007   3.212   5.714   1.472
 4370SOL     OW14008   5.953   4.161   2.428
 4370SOL    HW114009   5.906   4.147   2.515
 4370SOL    HW214010   5.957   4.074   2.378
 4371SOL     OW14011   0.486   2.241   2.233
 4371SOL    HW114012   0.465   2.338   2.226
 4371SOL    HW214013   0.532   2.223   2.320
 4372SOL     OW14014   4.645   0.098   3.470
 4372SOL    HW114015   4.675   0.077   3.563
 4372SOL    HW214016   4.590   0.181   3.471
 4373SOL     OW14017   6.417   1.755   6.228
 4373SOL    HW114018   6.449   1.846   6.251
 4373SOL    HW214019   6.337   1.761   6.168
 4374SOL     OW14020   3.494   1.496   1.131
 4374SOL    HW114021   3.531   1.517   1.222
 4374SOL    HW214022   3.536   1.557   1.064
 4375SOL     OW14023   3.645   5.807   4.192
 4375SOL    HW114024   3.689   5.812   4.281
 4375SOL    HW214025   3.682   5.879   4.132
 4376SOL     OW14026   6.663   1.905   4.179
 4376SOL    HW114027   6.705   1.982   4.132
 4376SOL    HW214028   6.618   1.938   4.263
 4377SOL     OW14029   6.958   4.998   6.364
 4377SOL    HW114030   6.961   5.097   6.370
 4377SOL    HW214031   6.950   4.970   6.268
 4378SOL     OW14032   2.959   1.544   4.029
 4378SOL    HW114033   3.013   1.595   3.963
 4378SOL    HW214034   2.979   1.447   4.021
 4379SOL     OW14035   3.464   2.007   5.780
 4379SOL    HW114036   3.379   2.058   5.769
 4379SOL    HW214037   3.445   1.916   5.815
 4380SOL     OW14038   0.364   2.101   2.540
 4380SOL    HW114039   0.362   2.201   2.530
 4380SOL    HW214040   0.422   2.077   2.617
 4381SOL     OW14041   1.458   6.446   6.836
 4381SOL    HW114042   1.447   6.534   6.790
 4381SOL    HW214043   1.551   6.438   6.870
 4382SOL     OW14044   0.586   4.995   4.558
 4382SOL    HW114045   0.606   4.920   4.495
 4382SOL    HW214046   0.655   5.067   4.548
 4383SOL     OW14047   6.441   3.837   0.280
 4383SOL    HW114048   6.373   3.782   0.232
 4383SOL    HW214049   6.533   3.803   0.260
 4384SOL     OW14050   5.492   0.322   4.118
 4384SOL    HW114051   5.557   0.372   4.061
 4384SOL    HW214052   5.501   0.224   4.101
 4385SOL     OW14053   4.613   1.562   5.847
 4385SOL    HW114054   4.711   1.556   5.826
 4385SOL    HW214055   4.595   1.517   5.934
 4386SOL     OW14056   1.939   3.634   5.159
 4386SOL    HW114057   2.001   3.614   5.083
 4386SOL    HW214058   1.915   3.548   5.206
 4387SOL     OW14059   5.397   1.871   0.761
 4387SOL    HW114060   5.455   1.952   0.750
 4387SOL    HW214061   5.301   1.898   0.752
 4388SOL     OW14062   4.967   4.014   0.134
 4388SOL    HW114063   4.999   3.971   0.219
 4388SOL    HW214064   5.032   3.995   0.061
 4389SOL     OW14065   1.328   2.265   0.255
 4389SOL    HW114066   1.290   2.341   0.306
 4389SOL    HW214067   1.348   2.293   0.161
 4390SOL     OW14068   0.386   1.755   0.567
 4390SOL    HW114069   0.391   1.835   0.507
 4390SOL    HW214070   0.363   1.785   0.660
 4391SOL     OW14071   0.966   5.837   0.902
 4391SOL    HW114072   1.042   5.887   0.861
 4391SOL    HW214073   0.890   5.831   0.837
 4392SOL     OW14074   0.736   3.203   5.912
 4392SOL    HW114075   0.820   3.148   5.912
 4392SOL    HW214076   0.714   3.229   5.818
 4393SOL     OW14077   5.351   0.627   1.834
 4393SOL    HW114078   5.268   0.608   1.887
 4393SOL    HW214079   5.402   0.541   1.819
 4394SOL     OW14080   1.063   6.896   2.840
 4394SOL    HW114081   1.027   6.988   2.825
 4394SOL    HW214082   1.074   6.850   2.752
 4395SOL     OW14083   1.855   4.876   1.985
 4395SOL    HW114084   1.832   4.863   1.888
 4395SOL    HW214085   1.908   4.797   2.017
 4396SOL     OW14086   3.153   0.978   2.796
 4396SOL    HW114087   3.121   0.888   2.827
 4396SOL    HW214088   3.108   1.049   2.850
 4397SOL     OW14089   3.070   1.371   4.752
 4397SOL    HW114090   3.169   1.384   4.744
 4397SOL    HW214091   3.041   1.301   4.687
 4398SOL     OW14092   1.501   3.089   5.436
 4398SOL    HW114093   1.479   3.174   5.485
 4398SOL    HW214094   1.599   3.088   5.414
 4399SOL     OW14095   2.378   6.399   2.123
 4399SOL    HW114096   2.335   6.417   2.035
 4399SOL    HW214097   2.417   6.307   2.123
 4400SOL     OW14098   1.953   5.838   4.578
 4400SOL    HW114099   1.864   5.818   4.619
 4400SOL    HW214100   1.949   5.821   4.480
 4401SOL     OW14101   3.202   6.832   6.617
 4401SOL    HW114102   3.157   6.743   6.622
 4401SOL    HW214103   3.250   6.851   6.703
 4402SOL     OW14104   2.454   0.736   2.809
 4402SOL    HW114105   2.361   0.769   2.828
 4402SOL    HW214106   2.501   0.719   2.896
 4403SOL     OW14107   0.734   5.198   1.561
 4403SOL    HW114108   0.698   5.221   1.651
 4403SOL    HW214109   0.673   5.132   1.516
 4404SOL     OW14110   0.236   6.631   6.244
 4404SOL    HW114111   0.285   6.636   6.331
 4404SOL    HW214112   0.288   6.575   6.179
 4405SOL     OW14113   1.735   5.278   2.379
 4405SOL    HW114114   1.750   5.287   2.281
 4405SOL    HW214115   1.654   5.331   2.405
 4406SOL     OW14116   6.158   3.877   1.949
 4406SOL    HW114117   6.210   3.799   1.983
 4406SOL    HW214118   6.064   3.872   1.983
 4407SOL     OW14119   6.307   6.245   1.125
 4407SOL    HW114120   6.316   6.343   1.106
 4407SOL    HW214121   6.210   6.219   1.121
 4408SOL     OW14122   4.099   0.696   0.205
 4408SOL    HW114123   4.039   0.642   0.263
 4408SOL    HW214124   4.190   0.700   0.246
 4409SOL     OW14125   3.146   0.754   3.651
 4409SOL    HW114126   3.133   0.702   3.566
 4409SOL    HW214127   3.059   0.764   3.698
 4410SOL     OW14128   0.173   0.534   0.942
 4410SOL    HW114129   0.254   0.476   0.930
 4410SOL    HW214130   0.161   0.556   1.038
 4411SOL     OW14131   4.429   4.747   5.278
 4411SOL    HW114132   4.440   4.844   5.257
 4411SOL    HW214133   4.350   4.735   5.338
 4412SOL     OW14134   4.582   6.216   1.790
 4412SOL    HW114135   4.552   6.244   1.882
 4412SOL    HW214136   4.540   6.275   1.722
 4413SOL     OW14137   4.620   5.190   4.024
 4413SOL    HW114138   4.585   5.110   3.976
 4413SOL    HW214139   4.545   5.234   4.074
 4414SOL     OW14140   5.663   3.774   1.587
 4414SOL    HW114141   5.663   3.724   1.501
 4414SOL    HW214142   5.755   3.806   1.608
 4415SOL     OW14143   1.731   3.490   1.227
 4415SOL    HW114144   1.785   3.416   1.186
 4415SOL    HW214145   1.667   3.453   1.294
 4416SOL     OW14146   5.148   2.552   3.978
 4416SOL    HW114147   5.151   2.632   3.918
 4416SOL    HW214148   5.165   2.580   4.072
 4417SOL     OW14149   0.083   4.001   1.690
 4417SOL    HW114150   0.057   4.077   1.632
 4417SOL    HW214151   0.037   3.917   1.659
 4418SOL     OW14152   6.645   0.677   5.753
 4418SOL    HW114153   6.704   0.676   5.834
 4418SOL    HW214154   6.685   0.618   5.683
 4419SOL     OW14155   6.409   5.700   6.547
 4419SOL    HW114156   6.355   5.774   6.586
 4419SOL    HW214157   6.349   5.639   6.494
 4420SOL     OW14158   3.779   1.416   1.024
 4420SOL    HW114159   3.823   1.414   0.934
 4420SOL    HW214160   3.828   1.479   1.084
 4421SOL     OW14161   1.979   3.235   0.399
 4421SOL    HW114162   1.954   3.140   0.379
 4421SOL    HW214163   2.065   3.257   0.355
 4422SOL     OW14164   6.787   3.017   5.943
 4422SOL    HW114165   6.768   3.041   6.039
 4422SOL    HW214166   6.707   3.040   5.887
 4423SOL     OW14167   6.399   4.455   4.644
 4423SOL    HW114168   6.352   4.451   4.732
 4423SOL    HW214169   6.458   4.374   4.635
 4424SOL     OW14170   4.973   6.007   2.532
 4424SOL    HW114171   5.054   5.988   2.476
 4424SOL    HW214172   4.926   5.921   2.554
 4425SOL     OW14173   0.743   5.849   1.159
 4425SOL    HW114174   0.767   5.914   1.231
 4425SOL    HW214175   0.800   5.866   1.079
 4426SOL     OW14176   0.550   0.820   4.455
 4426SOL    HW114177   0.612   0.781   4.387
 4426SOL    HW214178   0.600   0.886   4.511
 4427SOL     OW14179   2.319   5.715   2.434
 4427SOL    HW114180   2.408   5.747   2.403
 4427SOL    HW214181   2.323   5.696   2.532
 4428SOL     OW14182   6.567   5.385   3.080
 4428SOL    HW114183   6.595   5.441   3.159
 4428SOL    HW214184   6.608   5.294   3.088
 4429SOL     OW14185   3.038   6.701   3.335
 4429SOL    HW114186   3.117   6.686   3.395
 4429SOL    HW214187   2.957   6.717   3.391
 4430SOL     OW14188   5.745   3.551   5.299
 4430SOL    HW114189   5.706   3.632   5.342
 4430SOL    HW214190   5.682   3.517   5.229
 4431SOL     OW14191   3.941   6.692   4.766
 4431SOL    HW114192   4.029   6.719   4.728
 4431SOL    HW214193   3.949   6.676   4.864
 4432SOL     OW14194   0.837   3.570   6.061
 4432SOL    HW114195   0.816   3.475   6.085
 4432SOL    HW214196   0.799   3.591   5.971
 4433SOL     OW14197   0.787   1.101   4.396
 4433SOL    HW114198   0.876   1.070   4.428
 4433SOL    HW214199   0.799   1.164   4.319
 4434SOL     OW14200   6.728   0.978   1.594
 4434SOL    HW114201   6.651   1.037   1.615
 4434SOL    HW214202   6.803   0.997   1.658
 4435SOL     OW14203   2.465   4.218   0.873
 4435SOL    HW114204   2.542   4.275   0.902
 4435SOL    HW214205   2.486   4.175   0.786
 4436SOL     OW14206   4.321   2.227   2.132
 4436SOL    HW114207   4.349   2.296   2.198
 4436SOL    HW214208   4.222   2.235   2.115
 4437SOL     OW14209   6.258   4.470   6.997
 4437SOL    HW114210   6.355   4.466   7.019
 4437SOL    HW214211   6.204   4.454   0.056
 4438SOL     OW14212   4.296   1.263   4.915
 4438SOL    HW114213   4.393   1.247   4.931
 4438SOL    HW214214   4.242   1.205   4.975
 4439SOL     OW14215   2.468   6.033   3.036
 4439SOL    HW114216   2.368   6.032   3.030
 4439SOL    HW214217   2.496   6.008   3.129
 4440SOL     OW14218   1.220   4.577   5.599
 4440SOL    HW114219   1.307   4.528   5.588
 4440SOL    HW214220   1.238   4.675   5.609
 4441SOL     OW14221   6.834   2.423   0.851
 4441SOL    HW114222   6.860   2.478   0.772
 4441SOL    HW214223   6.834   2.481   0.933
 4442SOL     OW14224   1.536   5.123   0.505
 4442SOL    HW114225   1.553   5.025   0.509
 4442SOL    HW214226   1.463   5.141   0.438
 4443SOL     OW14227   0.372   5.596   5.857
 4443SOL    HW114228   0.324   5.684   5.862
 4443SOL    HW214229   0.328   5.538   5.788
 4444SOL     OW14230   5.758   5.381   0.796
 4444SOL    HW114231   5.727   5.476   0.802
 4444SOL    HW214232   5.858   5.378   0.799
 4445SOL     OW14233   1.636   4.191   0.108
 4445SOL    HW114234   1.688   4.142   0.039
 4445SOL    HW214235   1.540   4.195   0.081
 4446SOL     OW14236   4.545   1.738   2.032
 4446SOL    HW114237   4.447   1.715   2.036
 4446SOL    HW214238   4.570   1.758   1.937
 4447SOL     OW14239   4.030   5.606   5.721
 4447SOL    HW114240   4.025   5.560   5.632
 4447SOL    HW214241   3.973   5.557   5.787
 4448SOL     OW14242   3.460   6.390   1.681
 4448SOL    HW114243   3.363   6.385   1.658
 4448SOL    HW214244   3.470   6.414   1.778
 4449SOL     OW14245   3.721   1.958   5.678
 4449SOL    HW114246   3.635   1.990   5.719
 4449SOL    HW214247   3.716   1.968   5.579
 4450SOL     OW14248   2.138   6.448   0.268
 4450SOL    HW114249   2.182   6.531   0.304
 4450SOL    HW214250   2.043   6.445   0.298
 4451SOL     OW14251   4.768   5.228   3.448
 4451SOL    HW114252   4.842   5.166   3.424
 4451SOL    HW214253   4.805   5.321   3.460
 4452SOL     OW14254   5.113   4.882   3.918
 4452SOL    HW114255   5.120   4.975   3.951
 4452SOL    HW214256   5.017   4.861   3.898
 4453SOL     OW14257   6.809   4.525   0.936
 4453SOL    HW114258   6.729   4.540   0.878
 4453SOL    HW214259   6.823   4.604   0.996
 4454SOL     OW14260   1.482   2.065   0.411
 4454SOL    HW114261   1.425   1.984   0.421
 4454SOL    HW214262   1.468   2.105   0.320
 4455SOL     OW14263   2.046   0.657   4.369
 4455SOL    HW114264   2.133   0.627   4.408
 4455SOL    HW214265   2.061   0.738   4.312
 4456SOL     OW14266   2.192   5.959   3.887
 4456SOL    HW114267   2.126   6.003   3.948
 4456SOL    HW214268   2.230   6.027   3.825
 4457SOL     OW14269   1.222   1.840   4.275
 4457SOL    HW114270   1.141   1.795   4.311
 4457SOL    HW214271   1.276   1.877   4.350
 4458SOL     OW14272   1.448   3.252   6.388
 4458SOL    HW114273   1.369   3.224   6.333
 4458SOL    HW214274   1.426   3.336   6.438
 4459SOL     OW14275   0.920   3.473   2.894
 4459SOL    HW114276   0.878   3.438   2.810
 4459SOL    HW214277   0.850   3.519   2.949
 4460SOL     OW14278   0.237   2.864   4.658
 4460SOL    HW114279   0.178   2.887   4.735
 4460SOL    HW214280   0.191   2.888   4.572
 4461SOL     OW14281   2.316   1.084   0.787
 4461SOL    HW114282   2.235   1.026   0.781
 4461SOL    HW214283   2.367   1.079   0.701
 4462SOL     OW14284   6.472   4.214   2.293
 4462SOL    HW114285   6.557   4.183   2.250
 4462SOL    HW214286   6.432   4.138   2.346
 4463SOL     OW14287   5.509   1.673   0.199
 4463SOL    HW114288   5.493   1.737   0.123
 4463SOL    HW214289   5.518   1.580   0.163
 4464SOL     OW14290   0.463   3.623   1.408
 4464SOL    HW114291   0.509   3.680   1.476
 4464SOL    HW214292   0.531   3.568   1.360
 4465SOL     OW14293   3.920   5.378   1.997
 4465SOL    HW114294   4.010   5.416   2.018
 4465SOL    HW214295   3.915   5.283   2.029
 4466SOL     OW14296   0.550   2.955   2.178
 4466SOL    HW114297   0.613   2.990   2.110
 4466SOL    HW214298   0.497   3.030   2.216
 4467SOL     OW14299   5.397   4.677   1.964
 4467SOL    HW114300   5.483   4.685   1.914
 4467SOL    HW214301   5.416   4.653   2.059
 4468SOL     OW14302   1.806   2.994   1.232
 4468SOL    HW114303   1.819   2.954   1.322
 4468SOL    HW214304   1.728   3.057   1.234
 4469SOL     OW14305   2.257   5.531   1.548
 4469SOL    HW114306   2.163   5.540   1.580
 4469SOL    HW214307   2.257   5.499   1.453
 4470SOL     OW14308   0.733   0.040   2.780
 4470SOL    HW114309   0.682   0.051   2.694
 4470SOL    HW214310   0.831   0.055   2.762
 4471SOL     OW14311   0.772   0.306   6.546
 4471SOL    HW114312   0.750   0.346   6.457
 4471SOL    HW214313   0.841   0.362   6.592
 4472SOL     OW14314   1.715   2.997   0.648
 4472SOL    HW114315   1.806   3.018   0.685
 4472SOL    HW214316   1.724   2.932   0.572
 4473SOL     OW14317   0.380   3.196   4.952
 4473SOL    HW114318   0.448   3.122   4.954
 4473SOL    HW214319   0.422   3.278   4.913
 4474SOL     OW14320   2.394   6.131   0.744
 4474SOL    HW114321   2.355   6.125   0.836
 4474SOL    HW214322   2.490   6.156   0.751
 4475SOL     OW14323   0.891   3.720   0.545
 4475SOL    HW114324   0.860   3.640   0.493
 4475SOL    HW214325   0.819   3.749   0.609
 4476SOL     OW14326   5.530   1.397   3.490
 4476SOL    HW114327   5.443   1.444   3.506
 4476SOL    HW214328   5.522   1.340   3.407
 4477SOL     OW14329   0.111   1.389   4.755
 4477SOL    HW114330   0.011   1.379   4.755
 4477SOL    HW214331   0.153   1.307   4.792
 4478SOL     OW14332   1.783   0.594   1.825
 4478SOL    HW114333   1.867   0.595   1.878
 4478SOL    HW214334   1.705   0.611   1.885
 4479SOL     OW14335   2.267   2.681   6.686
 4479SOL    HW114336   2.221   2.749   6.743
 4479SOL    HW214337   2.289   2.722   6.597
 4480SOL     OW14338   0.446   6.848   3.185
 4480SOL    HW114339   0.525   6.791   3.162
 4480SOL    HW214340   0.369   6.789   3.208
 4481SOL     OW14341   1.777   3.390   5.585
 4481SOL    HW114342   1.686   3.349   5.589
 4481SOL    HW214343   1.769   3.489   5.570
 4482SOL     OW14344   2.220   0.368   1.278
 4482SOL    HW114345   2.200   0.273   1.255
 4482SOL    HW214346   2.150   0.428   1.239
 4483SOL     OW14347   1.447   3.676   0.572
 4483SOL    HW114348   1.522   3.638   0.518
 4483SOL    HW214349   1.463   3.657   0.669
 4484SOL     OW14350   2.934   0.617   6.877
 4484SOL    HW114351   2.943   0.595   6.973
 4484SOL    HW214352   3.016   0.666   6.846
 4485SOL     OW14353   0.306   3.764   4.744
 4485SOL    HW114354   0.386   3.740   4.689
 4485SOL    HW214355   0.263   3.680   4.779
 4486SOL     OW14356   5.232   4.449   3.849
 4486SOL    HW114357   5.203   4.541   3.825
 4486SOL    HW214358   5.187   4.421   3.934
 4487SOL     OW14359   0.406   2.997   6.329
 4487SOL    HW114360   0.347   3.064   6.372
 4487SOL    HW214361   0.470   3.043   6.267
 4488SOL     OW14362   6.734   3.868   3.281
 4488SOL    HW114363   6.756   3.792   3.219
 4488SOL    HW214364   6.811   3.883   3.342
 4489SOL     OW14365   3.557   5.971   6.361
 4489SOL    HW114366   3.621   5.917   6.305
 4489SOL    HW214367   3.547   6.062   6.322
 4490SOL     OW14368   5.751   1.591   1.751
 4490SOL    HW114369   5.769   1.517   1.687
 4490SOL    HW214370   5.720   1.672   1.701
 4491SOL     OW14371   1.035   3.710   2.771
 4491SOL    HW114372   1.130   3.685   2.751
 4491SOL    HW214373   0.995   3.642   2.832
 4492SOL     OW14374   6.587   1.057   2.481
 4492SOL    HW114375   6.490   1.046   2.503
 4492SOL    HW214376   6.609   1.154   2.473
 4493SOL     OW14377   5.322   1.817   5.528
 4493SOL    HW114378   5.234   1.854   5.557
 4493SOL    HW214379   5.307   1.739   5.467
 4494SOL     OW14380   1.751   0.778   2.155
 4494SOL    HW114381   1.834   0.827   2.184
 4494SOL    HW214382   1.674   0.810   2.210
 4495SOL     OW14383   4.075   6.739   0.978
 4495SOL    HW114384   4.160   6.790   0.971
 4495SOL    HW214385   4.052   6.698   0.890
 4496SOL     OW14386   2.745   6.055   5.611
 4496SOL    HW114387   2.742   5.989   5.535
 4496SOL    HW214388   2.722   6.007   5.696
 4497SOL     OW14389   4.301   0.782   5.867
 4497SOL    HW114390   4.325   0.748   5.777
 4497SOL    HW214391   4.210   0.822   5.864
 4498SOL     OW14392   0.555   5.086   4.815
 4498SOL    HW114393   0.557   5.050   4.722
 4498SOL    HW214394   0.619   5.035   4.872
 4499SOL     OW14395   6.051   0.986   2.584
 4499SOL    HW114396   5.982   0.935   2.534
 4499SOL    HW214397   6.054   0.955   2.679
 4500SOL     OW14398   3.384   6.551   0.182
 4500SOL    HW114399   3.445   6.630   0.173
 4500SOL    HW214400   3.326   6.544   0.101
 4501SOL     OW14401   6.041   0.509   2.058
 4501SOL    HW114402   5.989   0.468   2.133
 4501SOL    HW214403   6.137   0.481   2.064
 4502SOL     OW14404   1.216   4.178   6.535
 4502SOL    HW114405   1.213   4.110   6.608
 4502SOL    HW214406   1.281   4.251   6.560
 4503SOL     OW14407   3.747   1.849   2.740
 4503SOL    HW114408   3.667   1.808   2.784
 4503SOL    HW214409   3.829   1.802   2.773
 4504SOL     OW14410   1.105   2.478   3.535
 4504SOL    HW114411   1.062   2.501   3.448
 4504SOL    HW214412   1.056   2.401   3.576
 4505SOL     OW14413   6.256   2.736   3.571
 4505SOL    HW114414   6.266   2.811   3.506
 4505SOL    HW214415   6.205   2.661   3.528
 4506SOL     OW14416   4.073   3.853   0.056
 4506SOL    HW114417   4.045   3.757   0.062
 4506SOL    HW214418   4.151   3.861   7.017
 4507SOL     OW14419   6.082   2.485   3.050
 4507SOL    HW114420   6.085   2.399   3.100
 4507SOL    HW214421   6.026   2.473   2.968
 4508SOL     OW14422   6.380   4.956   0.723
 4508SOL    HW114423   6.327   4.873   0.739
 4508SOL    HW214424   6.323   5.022   0.673
 4509SOL     OW14425   5.618   2.008   2.161
 4509SOL    HW114426   5.599   1.910   2.155
 4509SOL    HW214427   5.583   2.043   2.248
 4510SOL     OW14428   4.858   1.583   4.493
 4510SOL    HW114429   4.847   1.484   4.502
 4510SOL    HW214430   4.836   1.610   4.399
 4511SOL     OW14431   6.976   4.769   6.848
 4511SOL    HW114432   7.012   4.852   6.891
 4511SOL    HW214433   6.882   4.754   6.879
 4512SOL     OW14434   3.235   3.331   5.717
 4512SOL    HW114435   3.254   3.234   5.736
 4512SOL    HW214436   3.176   3.367   5.789
 4513SOL     OW14437   0.016   0.387   0.634
 4513SOL    HW114438   6.994   0.308   0.676
 4513SOL    HW214439   0.014   0.463   0.698
 4514SOL     OW14440   4.757   4.910   6.721
 4514SOL    HW114441   4.764   4.826   6.668
 4514SOL    HW214442   4.830   4.973   6.694
 4515SOL     OW14443   4.277   0.866   6.156
 4515SOL    HW114444   4.332   0.946   6.181
 4515SOL    HW214445   4.302   0.836   6.064
 4516SOL     OW14446   3.219   2.134   5.785
 4516SOL    HW114447   3.170   2.125   5.698
 4516SOL    HW214448   3.157   2.173   5.854
 4517SOL     OW14449   4.067   0.339   4.656
 4517SOL    HW114450   4.148   0.282   4.646
 4517SOL    HW214451   4.012   0.306   4.733
 4518SOL     OW14452   0.060   7.005   0.828
 4518SOL    HW114453   0.080   7.015   0.925
 4518SOL    HW214454   0.010   0.062   0.795
 4519SOL     OW14455   4.851   6.836   6.700
 4519SOL    HW114456   4.904   6.903   6.647
 4519SOL    HW214457   4.883   6.836   6.795
 4520SOL     OW14458   4.593   4.822   5.715
 4520SOL    HW114459   4.689   4.799   5.729
 4520SOL    HW214460   4.579   4.853   5.621
 4521SOL     OW14461   4.570   2.079   4.030
 4521SOL    HW114462   4.480   2.043   4.053
 4521SOL    HW214463   4.638   2.039   4.091
 4522SOL     OW14464   5.812   3.707   3.405
 4522SOL    HW114465   5.868   3.658   3.339
 4522SOL    HW214466   5.868   3.734   3.483
 4523SOL     OW14467   7.015   3.343   6.261
 4523SOL    HW114468   0.017   3.253   6.224
 4523SOL    HW214469   0.064   3.377   6.320
 4524SOL     OW14470   1.949   3.639   2.316
 4524SOL    HW114471   1.970   3.641   2.219
 4524SOL    HW214472   1.857   3.603   2.330
 4525SOL     OW14473   3.673   2.176   6.114
 4525SOL    HW114474   3.732   2.138   6.044
 4525SOL    HW214475   3.713   2.261   6.149
 4526SOL     OW14476   1.698   0.345   5.373
 4526SOL    HW114477   1.654   0.256   5.362
 4526SOL    HW214478   1.679   0.380   5.465
 4527SOL     OW14479   0.179   1.641   2.585
 4527SOL    HW114480   0.230   1.565   2.624
 4527SOL    HW214481   0.081   1.625   2.596
 4528SOL     OW14482   4.717   0.741   4.538
 4528SOL    HW114483   4.759   0.818   4.586
 4528SOL    HW214484   4.760   0.656   4.567
 4529SOL     OW14485   2.340   2.115   4.305
 4529SOL    HW114486   2.325   2.023   4.342
 4529SOL    HW214487   2.423   2.114   4.249
 4530SOL     OW14488   3.735   5.251   6.655
 4530SOL    HW114489   3.771   5.344   6.651
 4530SOL    HW214490   3.734   5.212   6.563
 4531SOL     OW14491   1.995   6.517   5.426
 4531SOL    HW114492   2.033   6.445   5.484
 4531SOL    HW214493   1.905   6.543   5.460
 4532SOL     OW14494   6.314   1.030   2.477
 4532SOL    HW114495   6.311   1.130   2.468
 4532SOL    HW214496   6.233   0.999   2.526
 4533SOL     OW14497   2.871   6.339   1.299
 4533SOL    HW114498   2.789   6.362   1.350
 4533SOL    HW214499   2.933   6.287   1.357
 4534SOL     OW14500   5.849   1.567   4.575
 4534SOL    HW114501   5.922   1.606   4.519
 4534SOL    HW214502   5.765   1.563   4.520
 4535SOL     OW14503   1.527   0.717   0.118
 4535SOL    HW114504   1.602   0.717   0.052
 4535SOL    HW214505   1.537   0.639   0.180
 4536SOL     OW14506   3.693   1.308   5.709
 4536SOL    HW114507   3.692   1.220   5.755
 4536SOL    HW214508   3.757   1.369   5.756
 4537SOL     OW14509   3.545   3.506   3.256
 4537SOL    HW114510   3.502   3.568   3.190
 4537SOL    HW214511   3.479   3.483   3.327
 4538SOL     OW14512   1.027   2.477   0.040
 4538SOL    HW114513   1.124   2.455   0.042
 4538SOL    HW214514   0.997   2.489   6.969
 4539SOL     OW14515   1.069   5.538   4.550
 4539SOL    HW114516   1.096   5.448   4.584
 4539SOL    HW214517   1.081   5.541   4.451
 4540SOL     OW14518   1.430   1.344   0.343
 4540SOL    HW114519   1.376   1.266   0.374
 4540SOL    HW214520   1.508   1.312   0.290
 4541SOL     OW14521   4.038   3.564   0.046
 4541SOL    HW114522   4.101   3.523   7.004
 4541SOL    HW214523   4.032   3.506   0.127
 4542SOL     OW14524   0.590   1.561   6.625
 4542SOL    HW114525   0.594   1.659   6.606
 4542SOL    HW214526   0.674   1.518   6.595
 4543SOL     OW14527   4.355   1.662   0.681
 4543SOL    HW114528   4.432   1.606   0.649
 4543SOL    HW214529   4.389   1.753   0.707
 4544SOL     OW14530   4.712   6.381   0.744
 4544SOL    HW114531   4.723   6.418   0.836
 4544SOL    HW214532   4.640   6.431   0.696
 4545SOL     OW14533   2.746   2.820   5.677
 4545SOL    HW114534   2.659   2.869   5.678
 4545SOL    HW214535   2.778   2.806   5.770
 4546SOL     OW14536   4.041   0.194   6.333
 4546SOL    HW114537   4.031   0.118   6.398
 4546SOL    HW214538   4.033   0.160   6.240
 4547SOL     OW14539   0.367   0.512   0.231
 4547SOL    HW114540   0.428   0.524   0.309
 4547SOL    HW214541   0.275   0.490   0.263
 4548SOL     OW14542   3.522   1.117   2.222
 4548SOL    HW114543   3.513   1.088   2.317
 4548SOL    HW214544   3.437   1.097   2.173
 4549SOL     OW14545   6.612   3.496   3.981
 4549SOL    HW114546   6.660   3.550   4.051
 4549SOL    HW214547   6.651   3.517   3.891
 4550SOL     OW14548   1.833   5.480   5.542
 4550SOL    HW114549   1.893   5.528   5.605
 4550SOL    HW214550   1.770   5.422   5.593
 4551SOL     OW14551   2.960   2.537   6.043
 4551SOL    HW114552   3.057   2.561   6.050
 4551SOL    HW214553   2.927   2.506   6.132
 4552SOL     OW14554   4.994   0.882   6.732
 4552SOL    HW114555   5.057   0.817   6.690
 4552SOL    HW214556   4.905   0.838   6.747
 4553SOL     OW14557   0.152   6.034   0.401
 4553SOL    HW114558   0.124   6.122   0.440
 4553SOL    HW214559   0.113   6.025   0.310
 4554SOL     OW14560   5.912   6.583   3.515
 4554SOL    HW114561   5.876   6.612   3.604
 4554SOL    HW214562   5.843   6.600   3.444
 4555SOL     OW14563   0.729   0.733   1.620
 4555SOL    HW114564   0.778   0.807   1.574
 4555SOL    HW214565   0.644   0.713   1.571
 4556SOL     OW14566   5.322   4.190   4.098
 4556SOL    HW114567   5.340   4.268   4.157
 4556SOL    HW214568   5.294   4.112   4.153
 4557SOL     OW14569   6.522   4.806   4.268
 4557SOL    HW114570   6.457   4.838   4.337
 4557SOL    HW214571   6.615   4.822   4.301
 4558SOL     OW14572   0.955   4.079   4.802
 4558SOL    HW114573   0.997   4.076   4.711
 4558SOL    HW214574   1.011   4.028   4.866
 4559SOL     OW14575   0.349   2.738   4.041
 4559SOL    HW114576   0.305   2.745   4.130
 4559SOL    HW214577   0.280   2.716   3.972
 4560SOL     OW14578   6.147   4.662   3.249
 4560SOL    HW114579   6.169   4.760   3.252
 4560SOL    HW214580   6.214   4.614   3.194
 4561SOL     OW14581   4.318   2.354   4.338
 4561SOL    HW114582   4.382   2.401   4.278
 4561SOL    HW214583   4.364   2.332   4.424
 4562SOL     OW14584   3.991   1.205   0.734
 4562SOL    HW114585   3.920   1.276   0.730
 4562SOL    HW214586   4.029   1.191   0.642
 4563SOL     OW14587   0.936   3.874   1.701
 4563SOL    HW114588   1.027   3.914   1.703
 4563SOL    HW214589   0.874   3.933   1.648
 4564SOL     OW14590   1.978   4.302   2.339
 4564SOL    HW114591   1.923   4.290   2.256
 4564SOL    HW214592   1.921   4.343   2.411
 4565SOL     OW14593   2.115   0.211   5.589
 4565SOL    HW114594   2.180   0.261   5.533
 4565SOL    HW214595   2.144   0.116   5.598
 4566SOL     OW14596   6.986   4.195   3.192
 4566SOL    HW114597   0.021   4.248   3.131
 4566SOL    HW214598   6.902   4.247   3.210
 4567SOL     OW14599   6.902   7.013   6.704
 4567SOL    HW114600   6.916   0.065   6.640
 4567SOL    HW214601   6.850   0.021   6.783
 4568SOL     OW14602   0.937   5.148   3.529
 4568SOL    HW114603   0.971   5.242   3.520
 4568SOL    HW214604   0.896   5.137   3.620
 4569SOL     OW14605   1.450   2.003   3.238
 4569SOL    HW114606   1.399   2.073   3.189
 4569SOL    HW214607   1.387   1.932   3.271
 4570SOL     OW14608   4.924   5.526   1.039
 4570SOL    HW114609   5.010   5.523   0.988
 4570SOL    HW214610   4.866   5.449   1.011
 4571SOL     OW14611   2.046   4.321   5.600
 4571SOL    HW114612   2.072   4.228   5.627
 4571SOL    HW214613   1.970   4.317   5.536
 4572SOL     OW14614   4.349   3.172   1.807
 4572SOL    HW114615   4.282   3.110   1.767
 4572SOL    HW214616   4.432   3.121   1.829
 4573SOL     OW14617   2.159   4.886   0.717
 4573SOL    HW114618   2.130   4.811   0.657
 4573SOL    HW214619   2.087   4.907   0.783
 4574SOL     OW14620   4.854   0.662   1.881
 4574SOL    HW114621   4.856   0.756   1.845
 4574SOL    HW214622   4.921   0.654   1.955
 4575SOL     OW14623   6.688   1.194   5.207
 4575SOL    HW114624   6.677   1.256   5.285
 4575SOL    HW214625   6.606   1.198   5.150
 4576SOL     OW14626   3.501   3.832   6.906
 4576SOL    HW114627   3.471   3.864   6.996
 4576SOL    HW214628   3.423   3.833   6.843
 4577SOL     OW14629   0.726   1.750   1.855
 4577SOL    HW114630   0.797   1.778   1.790
 4577SOL    HW214631   0.688   1.831   1.900
 4578SOL     OW14632   1.889   0.993   3.065
 4578SOL    HW114633   1.946   1.072   3.043
 4578SOL    HW214634   1.834   0.968   2.986
 4579SOL     OW14635   4.571   0.943   3.560
 4579SOL    HW114636   4.626   0.962   3.641
 4579SOL    HW214637   4.629   0.900   3.491
 4580SOL     OW14638   1.179   1.341   1.059
 4580SOL    HW114639   1.246   1.355   0.986
 4580SOL    HW214640   1.088   1.366   1.026
 4581SOL     OW14641   2.477   0.599   0.997
 4581SOL    HW114642   2.485   0.545   1.081
 4581SOL    HW214643   2.539   0.562   0.928
 4582SOL     OW14644   6.966   0.935   3.605
 4582SOL    HW114645   0.010   0.861   3.603
 4582SOL    HW214646   7.013   1.023   3.596
 4583SOL     OW14647   1.829   6.939   0.051
 4583SOL    HW114648   1.756   6.987   0.100
 4583SOL    HW214649   1.914   6.991   0.059
 4584SOL     OW14650   0.258   1.861   4.003
 4584SOL    HW114651   0.239   1.764   3.991
 4584SOL    HW214652   0.176   1.914   3.979
 4585SOL     OW14653   1.725   3.172   2.768
 4585SOL    HW114654   1.782   3.097   2.800
 4585SOL    HW214655   1.652   3.189   2.835
 4586SOL     OW14656   6.524   5.047   5.731
 4586SOL    HW114657   6.513   5.142   5.702
 4586SOL    HW214658   6.479   4.987   5.665
 4587SOL     OW14659   4.194   4.182   5.777
 4587SOL    HW114660   4.143   4.136   5.704
 4587SOL    HW214661   4.279   4.220   5.740
 4588SOL     OW14662   3.103   4.097   6.526
 4588SOL    HW114663   3.124   3.999   6.529
 4588SOL    HW214664   3.186   4.149   6.547
 4589SOL     OW14665   5.425   6.469   2.624
 4589SOL    HW114666   5.517   6.455   2.588
 4589SOL    HW214667   5.398   6.564   2.611
 4590SOL     OW14668   2.791   5.532   1.132
 4590SOL    HW114669   2.710   5.494   1.086
 4590SOL    HW214670   2.848   5.579   1.065
 4591SOL     OW14671   2.380   0.903   5.080
 4591SOL    HW114672   2.281   0.915   5.080
 4591SOL    HW214673   2.405   0.837   5.009
 4592SOL     OW14674   2.744   1.925   3.976
 4592SOL    HW114675   2.826   1.983   3.974
 4592SOL    HW214676   2.671   1.970   3.925
 4593SOL     OW14677   1.122   6.005   4.283
 4593SOL    HW114678   1.195   5.996   4.350
 4593SOL    HW214679   1.098   6.102   4.273
 4594SOL     OW14680   2.093   6.253   4.059
 4594SOL    HW114681   2.113   6.293   4.149
 4594SOL    HW214682   2.005   6.286   4.026
 4595SOL     OW14683   5.690   2.093   6.391
 4595SOL    HW114684   5.714   2.059   6.300
 4595SOL    HW214685   5.750   2.051   6.459
 4596SOL     OW14686   1.315   0.945   2.239
 4596SOL    HW114687   1.395   1.005   2.245
 4596SOL    HW214688   1.240   0.985   2.291
 4597SOL     OW14689   2.387   6.011   0.487
 4597SOL    HW114690   2.377   6.036   0.584
 4597SOL    HW214691   2.484   6.000   0.466
 4598SOL     OW14692   0.671   3.402   0.080
 4598SOL    HW114693   0.766   3.424   0.102
 4598SOL    HW214694   0.616   3.403   0.164
 4599SOL     OW14695   3.406   6.397   2.791
 4599SOL    HW114696   3.472   6.472   2.789
 4599SOL    HW214697   3.329   6.418   2.732
 4600SOL     OW14698   6.804   6.365   6.220
 4600SOL    HW114699   6.854   6.442   6.260
 4600SOL    HW214700   6.868   6.302   6.177
 4601SOL     OW14701   1.687   0.690   5.761
 4601SOL    HW114702   1.704   0.745   5.679
 4601SOL    HW214703   1.674   0.595   5.736
 4602SOL     OW14704   4.037   1.611   6.368
 4602SOL    HW114705   3.968   1.658   6.313
 4602SOL    HW214706   4.090   1.679   6.419
 4603SOL     OW14707   4.201   0.095   1.278
 4603SOL    HW114708   4.237   0.007   1.309
 4603SOL    HW214709   4.167   0.147   1.357
 4604SOL     OW14710   0.677   0.200   3.704
 4604SOL    HW114711   0.739   0.226   3.778
 4604SOL    HW214712   0.587   0.177   3.743
 4605SOL     OW14713   4.209   1.087   1.597
 4605SOL    HW114714   4.172   1.178   1.615
 4605SOL    HW214715   4.177   1.023   1.667
 4606SOL     OW14716   6.956   6.718   5.163
 4606SOL    HW114717   6.980   6.815   5.157
 4606SOL    HW214718   0.016   6.664   5.171
 4607SOL     OW14719   2.653   1.757   0.989
 4607SOL    HW114720   2.604   1.740   1.074
 4607SOL    HW214721   2.602   1.822   0.933
 4608SOL     OW14722   0.022   2.938   4.822
 4608SOL    HW114723   6.989   2.856   4.827
 4608SOL    HW214724   7.006   3.010   4.878
 4609SOL     OW14725   5.103   4.873   6.602
 4609SOL    HW114726   5.059   4.787   6.578
 4609SOL    HW214727   5.040   4.929   6.654
 4610SOL     OW14728   5.075   5.063   0.202
 4610SOL    HW114729   5.147   5.109   0.150
 4610SOL    HW214730   5.096   5.069   0.300
 4611SOL     OW14731   7.000   1.168   6.843
 4611SOL    HW114732   0.011   1.263   6.844
 4611SOL    HW214733   0.029   1.115   6.777
 4612SOL     OW14734   2.777   1.137   2.818
 4612SOL    HW114735   2.706   1.084   2.772
 4612SOL    HW214736   2.850   1.075   2.848
 4613SOL     OW14737   1.418   5.696   1.935
 4613SOL    HW114738   1.481   5.735   1.868
 4613SOL    HW214739   1.344   5.761   1.952
 4614SOL     OW14740   0.262   4.549   3.214
 4614SOL    HW114741   0.337   4.600   3.172
 4614SOL    HW214742   0.274   4.452   3.196
 4615SOL     OW14743   1.377   4.368   6.648
 4615SOL    HW114744   1.351   4.443   6.587
 4615SOL    HW214745   1.469   4.383   6.683
 4616SOL     OW14746   1.396   4.072   6.367
 4616SOL    HW114747   1.322   4.103   6.427
 4616SOL    HW214748   1.407   3.973   6.375
 4617SOL     OW14749   6.972   3.400   3.339
 4617SOL    HW114750   0.019   3.419   3.407
 4617SOL    HW214751   6.912   3.327   3.373
 4618SOL     OW14752   2.467   3.493   5.672
 4618SOL    HW114753   2.482   3.588   5.699
 4618SOL    HW214754   2.369   3.476   5.663
 4619SOL     OW14755   4.625   5.970   6.308
 4619SOL    HW114756   4.611   6.054   6.256
 4619SOL    HW214757   4.537   5.937   6.343
 4620SOL     OW14758   1.198   4.426   1.781
 4620SOL    HW114759   1.236   4.517   1.767
 4620SOL    HW214760   1.103   4.423   1.749
 4621SOL     OW14761   3.413   0.170   2.920
 4621SOL    HW114762   3.361   0.122   2.849
 4621SOL    HW214763   3.508   0.138   2.919
 4622SOL     OW14764   5.230   0.050   0.608
 4622SOL    HW114765   5.241   0.041   0.509
 4622SOL    HW214766   5.320   0.045   0.652
 4623SOL     OW14767   3.301   5.004   2.398
 4623SOL    HW114768   3.246   5.044   2.325
 4623SOL    HW214769   3.243   4.987   2.477
 4624SOL     OW14770   4.974   1.484   1.461
 4624SOL    HW114771   4.914   1.539   1.401
 4624SOL    HW214772   4.963   1.515   1.555
 4625SOL     OW14773   1.588   6.340   1.584
 4625SOL    HW114774   1.525   6.305   1.654
 4625SOL    HW214775   1.620   6.264   1.528
 4626SOL     OW14776   4.118   3.179   1.986
 4626SOL    HW114777   4.057   3.148   1.913
 4626SOL    HW214778   4.212   3.181   1.951
 4627SOL     OW14779   5.661   0.384   5.029
 4627SOL    HW114780   5.721   0.341   4.961
 4627SOL    HW214781   5.714   0.405   5.111
 4628SOL     OW14782   6.096   4.751   2.794
 4628SOL    HW114783   6.066   4.817   2.862
 4628SOL    HW214784   6.069   4.783   2.703
 4629SOL     OW14785   1.800   5.229   0.492
 4629SOL    HW114786   1.709   5.194   0.511
 4629SOL    HW214787   1.796   5.329   0.483
 4630SOL     OW14788   1.846   3.869   1.504
 4630SOL    HW114789   1.813   3.775   1.498
 4630SOL    HW214790   1.911   3.886   1.430
 4631SOL     OW14791   6.556   1.085   2.895
 4631SOL    HW114792   6.650   1.117   2.882
 4631SOL    HW214793   6.497   1.163   2.916
 4632SOL     OW14794   2.878   4.791   3.359
 4632SOL    HW114795   2.971   4.805   3.323
 4632SOL    HW214796   2.880   4.802   3.459
 4633SOL     OW14797   5.128   2.520   4.465
 4633SOL    HW114798   5.222   2.551   4.482
 4633SOL    HW214799   5.130   2.426   4.431
 4634SOL     OW14800   3.908   3.048   4.527
 4634SOL    HW114801   3.990   2.990   4.526
 4634SOL    HW214802   3.854   3.032   4.445
 4635SOL     OW14803   4.586   6.175   2.569
 4635SOL    HW114804   4.522   6.225   2.511
 4635SOL    HW214805   4.674   6.221   2.569
 4636SOL     OW14806   1.612   6.365   6.238
 4636SOL    HW114807   1.602   6.305   6.317
 4636SOL    HW214808   1.522   6.383   6.198
 4637SOL     OW14809   1.854   2.418   3.122
 4637SOL    HW114810   1.940   2.369   3.110
 4637SOL    HW214811   1.827   2.461   3.036
 4638SOL     OW14812   3.522   4.774   0.694
 4638SOL    HW114813   3.551   4.804   0.785
 4638SOL    HW214814   3.485   4.852   0.643
 4639SOL     OW14815   3.836   2.032   2.094
 4639SOL    HW114816   3.765   2.088   2.050
 4639SOL    HW214817   3.803   1.938   2.102
 4640SOL     OW14818   6.193   3.166   0.820
 4640SOL    HW114819   6.104   3.134   0.852
 4640SOL    HW214820   6.203   3.264   0.841
 4641SOL     OW14821   1.698   5.725   4.625
 4641SOL    HW114822   1.733   5.647   4.572
 4641SOL    HW214823   1.617   5.696   4.676
 4642SOL     OW14824   6.048   1.384   5.477
 4642SOL    HW114825   6.062   1.420   5.569
 4642SOL    HW214826   6.124   1.323   5.453
 4643SOL     OW14827   0.673   1.712   0.287
 4643SOL    HW114828   0.749   1.668   0.239
 4643SOL    HW214829   0.595   1.649   0.289
 4644SOL     OW14830   0.881   0.593   0.890
 4644SOL    HW114831   0.930   0.665   0.939
 4644SOL    HW214832   0.902   0.599   0.793
 4645SOL     OW14833   6.371   2.339   4.765
 4645SOL    HW114834   6.311   2.398   4.819
 4645SOL    HW214835   6.317   2.267   4.722
 4646SOL     OW14836   2.125   3.781   2.776
 4646SOL    HW114837   2.144   3.810   2.682
 4646SOL    HW214838   2.133   3.681   2.782
 4647SOL     OW14839   1.992   6.470   1.788
 4647SOL    HW114840   2.021   6.397   1.851
 4647SOL    HW214841   2.072   6.506   1.740
 4648SOL     OW14842   2.990   1.185   4.573
 4648SOL    HW114843   3.018   1.091   4.593
 4648SOL    HW214844   2.968   1.194   4.476
 4649SOL     OW14845   5.589   1.732   0.556
 4649SOL    HW114846   5.567   1.820   0.599
 4649SOL    HW214847   5.628   1.671   0.625
 4650SOL     OW14848   4.563   5.477   1.017
 4650SOL    HW114849   4.499   5.415   0.972
 4650SOL    HW214850   4.557   5.465   1.116
 4651SOL     OW14851   0.461   4.109   6.491
 4651SOL    HW114852   0.398   4.127   6.567
 4651SOL    HW214853   0.432   4.027   6.442
 4652SOL     OW14854   6.932   0.249   5.186
 4652SOL    HW114855   7.000   0.257   5.259
 4652SOL    HW214856   6.879   0.334   5.181
 4653SOL     OW14857   6.992   5.662   1.114
 4653SOL    HW114858   0.027   5.732   1.073
 4653SOL    HW214859   6.916   5.641   1.053
 4654SOL     OW14860   0.859   1.082   5.817
 4654SOL    HW114861   0.957   1.063   5.810
 4654SOL    HW214862   0.822   1.103   5.726
 4655SOL     OW14863   5.128   3.564   2.824
 4655SOL    HW114864   5.162   3.526   2.738
 4655SOL    HW214865   5.179   3.648   2.846
 4656SOL     OW14866   5.994   1.040   1.980
 4656SOL    HW114867   6.033   1.111   1.922
 4656SOL    HW214868   5.932   0.983   1.926
 4657SOL     OW14869   3.767   1.375   2.911
 4657SOL    HW114870   3.860   1.369   2.874
 4657SOL    HW214871   3.722   1.287   2.901
 4658SOL     OW14872   1.228   1.762   6.440
 4658SOL    HW114873   1.254   1.845   6.389
 4658SOL    HW214874   1.293   1.689   6.419
 4659SOL     OW14875   2.119   4.459   0.712
 4659SOL    HW114876   2.112   4.531   0.643
 4659SOL    HW214877   2.157   4.376   0.670
 4660SOL     OW14878   0.201   5.317   4.046
 4660SOL    HW114879   0.234   5.231   4.085
 4660SOL    HW214880   0.102   5.323   4.057
 4661SOL     OW14881   0.714   1.611   5.571
 4661SOL    HW114882   0.714   1.513   5.593
 4661SOL    HW214883   0.759   1.625   5.483
 4662SOL     OW14884   2.654   0.692   6.088
 4662SOL    HW114885   2.662   0.685   5.988
 4662SOL    HW214886   2.647   0.600   6.127
 4663SOL     OW14887   0.945   7.019   0.615
 4663SOL    HW114888   0.870   7.015   0.681
 4663SOL    HW214889   1.031   6.994   0.659
 4664SOL     OW14890   6.085   6.717   5.972
 4664SOL    HW114891   6.068   6.806   6.014
 4664SOL    HW214892   6.004   6.660   5.982
 4665SOL     OW14893   0.251   0.275   3.083
 4665SOL    HW114894   0.284   0.270   3.177
 4665SOL    HW214895   0.264   0.368   3.048
 4666SOL     OW14896   1.624   2.612   5.999
 4666SOL    HW114897   1.556   2.539   6.001
 4666SOL    HW214898   1.613   2.670   6.080
 4667SOL     OW14899   6.221   3.432   0.879
 4667SOL    HW114900   6.306   3.484   0.881
 4667SOL    HW214901   6.151   3.480   0.933
 4668SOL     OW14902   4.655   2.109   4.666
 4668SOL    HW114903   4.645   2.206   4.642
 4668SOL    HW214904   4.712   2.064   4.598
 4669SOL     OW14905   5.257   6.962   6.609
 4669SOL    HW114906   5.276   6.905   6.689
 4669SOL    HW214907   5.300   6.922   6.528
 4670SOL     OW14908   0.159   3.580   6.337
 4670SOL    HW114909   0.091   3.648   6.310
 4670SOL    HW214910   0.184   3.594   6.432
 4671SOL     OW14911   6.941   2.768   2.018
 4671SOL    HW114912   6.964   2.703   1.946
 4671SOL    HW214913   7.019   2.827   2.037
 4672SOL     OW14914   2.860   3.554   0.118
 4672SOL    HW114915   2.871   3.627   0.186
 4672SOL    HW214916   2.941   3.496   0.118
 4673SOL     OW14917   5.716   0.769   0.831
 4673SOL    HW114918   5.790   0.796   0.770
 4673SOL    HW214919   5.687   0.848   0.886
 4674SOL     OW14920   0.890   2.917   0.469
 4674SOL    HW114921   0.918   2.958   0.555
 4674SOL    HW214922   0.927   2.825   0.462
 4675SOL     OW14923   1.868   5.738   6.515
 4675SOL    HW114924   1.911   5.818   6.558
 4675SOL    HW214925   1.769   5.749   6.516
 4676SOL     OW14926   0.514   5.917   4.397
 4676SOL    HW114927   0.472   5.957   4.315
 4676SOL    HW214928   0.613   5.910   4.384
 4677SOL     OW14929   3.592   6.749   0.162
 4677SOL    HW114930   3.604   6.843   0.131
 4677SOL    HW214931   3.661   6.727   0.231
 4678SOL     OW14932   2.198   4.213   0.091
 4678SOL    HW114933   2.271   4.205   0.023
 4678SOL    HW214934   2.212   4.296   0.145
 4679SOL     OW14935   2.540   6.628   5.525
 4679SOL    HW114936   2.468   6.640   5.593
 4679SOL    HW214937   2.503   6.646   5.434
 4680SOL     OW14938   0.779   4.982   0.158
 4680SOL    HW114939   0.850   4.979   0.087
 4680SOL    HW214940   0.775   4.893   0.204
 4681SOL     OW14941   6.540   5.614   4.933
 4681SOL    HW114942   6.444   5.594   4.916
 4681SOL    HW214943   6.582   5.536   4.981
 4682SOL     OW14944   2.685   6.993   0.547
 4682SOL    HW114945   2.782   6.984   0.568
 4682SOL    HW214946   2.631   6.955   0.622
 4683SOL     OW14947   0.436   4.711   3.079
 4683SOL    HW114948   0.440   4.782   3.149
 4683SOL    HW214949   0.356   4.725   3.021
 4684SOL     OW14950   1.541   1.413   5.053
 4684SOL    HW114951   1.570   1.393   4.960
 4684SOL    HW214952   1.581   1.345   5.115
 4685SOL     OW14953   4.970   4.787   4.998
 4685SOL    HW114954   4.899   4.807   4.930
 4685SOL    HW214955   5.060   4.800   4.957
 4686SOL     OW14956   4.667   5.932   0.173
 4686SOL    HW114957   4.718   5.856   0.133
 4686SOL    HW214958   4.730   5.997   0.215
 4687SOL     OW14959   5.014   6.623   4.544
 4687SOL    HW114960   4.928   6.582   4.576
 4687SOL    HW214961   5.001   6.664   4.454
 4688SOL     OW14962   0.181   1.995   0.674
 4688SOL    HW114963   0.246   2.016   0.601
 4688SOL    HW214964   0.154   2.080   0.719
 4689SOL     OW14965   1.615   4.998   4.800
 4689SOL    HW114966   1.527   5.042   4.781
 4689SOL    HW214967   1.660   4.974   4.714
 4690SOL     OW14968   1.618   1.408   0.670
 4690SOL    HW114969   1.664   1.332   0.624
 4690SOL    HW214970   1.654   1.418   0.762
 4691SOL     OW14971   3.822   4.417   0.271
 4691SOL    HW114972   3.773   4.382   0.350
 4691SOL    HW214973   3.817   4.351   0.196
 4692SOL     OW14974   0.653   5.807   3.587
 4692SOL    HW114975   0.614   5.715   3.588
 4692SOL    HW214976   0.730   5.810   3.523
 4693SOL     OW14977   0.792   0.524   2.660
 4693SOL    HW114978   0.712   0.476   2.625
 4693SOL    HW214979   0.851   0.459   2.708
 4694SOL     OW14980   1.543   0.956   5.679
 4694SOL    HW114981   1.636   0.948   5.645
 4694SOL    HW214982   1.490   1.016   5.617
 4695SOL     OW14983   3.247   2.919   2.444
 4695SOL    HW114984   3.187   2.948   2.370
 4695SOL    HW214985   3.193   2.901   2.526
 4696SOL     OW14986   6.095   3.280   0.468
 4696SOL    HW114987   6.164   3.333   0.517
 4696SOL    HW214988   6.040   3.342   0.411
 4697SOL     OW14989   1.221   5.817   6.787
 4697SOL    HW114990   1.265   5.754   6.852
 4697SOL    HW214991   1.208   5.906   6.831
 4698SOL     OW14992   6.289   2.954   2.426
 4698SOL    HW114993   6.192   2.972   2.412
 4698SOL    HW214994   6.332   3.033   2.470
 4699SOL     OW14995   6.965   6.553   3.123
 4699SOL    HW114996   6.931   6.530   3.031
 4699SOL    HW214997   6.979   6.651   3.130
 4700SOL     OW14998   5.436   6.601   6.993
 4700SOL    HW114999   5.420   6.525   0.032
 4700SOL    HW215000   5.481   6.567   6.910
 4701SOL     OW15001   0.850   0.601   0.040
 4701SOL    HW115002   0.884   0.639   6.978
 4701SOL    HW215003   0.821   0.675   0.100
 4702SOL     OW15004   2.705   3.642   0.345
 4702SOL    HW115005   2.750   3.566   0.299
 4702SOL    HW215006   2.632   3.608   0.404
 4703SOL     OW15007   0.687   0.858   1.917
 4703SOL    HW115008   0.707   0.791   1.846
 4703SOL    HW215009   0.676   0.948   1.877
 4704SOL     OW15010   4.626   7.023   6.930
 4704SOL    HW115011   4.677   0.083   6.913
 4704SOL    HW215012   4.688   6.953   6.965
 4705SOL     OW15013   3.606   4.188   4.234
 4705SOL    HW115014   3.603   4.170   4.332
 4705SOL    HW215015   3.518   4.166   4.193
 4706SOL     OW15016   5.152   4.818   0.443
 4706SOL    HW115017   5.178   4.739   0.499
 4706SOL    HW215018   5.088   4.789   0.372
 4707SOL     OW15019   3.079   5.561   0.959
 4707SOL    HW115020   3.126   5.649   0.954
 4707SOL    HW215021   3.124   5.502   1.026
 4708SOL     OW15022   1.841   3.126   2.515
 4708SOL    HW115023   1.792   3.150   2.599
 4708SOL    HW215024   1.878   3.209   2.474
 4709SOL     OW15025   2.549   4.533   0.487
 4709SOL    HW115026   2.639   4.568   0.462
 4709SOL    HW215027   2.557   4.468   0.562
 4710SOL     OW15028   4.853   3.221   1.433
 4710SOL    HW115029   4.757   3.197   1.446
 4710SOL    HW215030   4.883   3.281   1.507
 4711SOL     OW15031   2.824   0.003   3.100
 4711SOL    HW115032   2.922   0.019   3.110
 4711SOL    HW215033   2.807   6.971   3.018
 4712SOL     OW15034   1.658   4.303   6.677
 4712SOL    HW115035   1.724   4.232   6.700
 4712SOL    HW215036   1.613   4.281   6.590
 4713SOL     OW15037   1.711   5.523   1.076
 4713SOL    HW115038   1.638   5.544   1.011
 4713SOL    HW215039   1.709   5.426   1.099
 4714SOL     OW15040   3.794   2.045   0.809
 4714SOL    HW115041   3.747   2.035   0.897
 4714SOL    HW215042   3.769   2.133   0.768
 4715SOL     OW15043   4.818   3.896   4.841
 4715SOL    HW115044   4.802   3.966   4.910
 4715SOL    HW215045   4.819   3.806   4.885
 4716SOL     OW15046   2.400   5.219   0.040
 4716SOL    HW115047   2.491   5.215   7.023
 4716SOL    HW215048   2.349   5.137   0.017
 4717SOL     OW15049   2.213   5.218   4.017
 4717SOL    HW115050   2.257   5.260   4.096
 4717SOL    HW215051   2.256   5.130   3.998
 4718SOL     OW15052   5.271   0.990   0.143
 4718SOL    HW115053   5.356   0.949   0.111
 4718SOL    HW215054   5.280   1.089   0.145
 4719SOL     OW15055   4.750   2.904   1.635
 4719SOL    HW115056   4.830   2.937   1.583
 4719SOL    HW215057   4.696   2.982   1.665
 4720SOL     OW15058   3.021   1.160   3.708
 4720SOL    HW115059   3.003   1.258   3.704
 4720SOL    HW215060   3.033   1.124   3.616
 4721SOL     OW15061   1.484   1.524   1.176
 4721SOL    HW115062   1.530   1.605   1.212
 4721SOL    HW215063   1.389   1.522   1.209
 4722SOL     OW15064   3.400   0.468   2.771
 4722SOL    HW115065   3.468   0.540   2.757
 4722SOL    HW215066   3.443   0.379   2.760
 4723SOL     OW15067   3.192   0.305   5.326
 4723SOL    HW115068   3.152   0.233   5.383
 4723SOL    HW215069   3.230   0.376   5.385
 4724SOL     OW15070   4.795   4.801   1.326
 4724SOL    HW115071   4.829   4.805   1.420
 4724SOL    HW215072   4.725   4.731   1.319
 4725SOL     OW15073   5.623   5.389   2.872
 4725SOL    HW115074   5.538   5.420   2.915
 4725SOL    HW215075   5.683   5.467   2.856
 4726SOL     OW15076   0.116   6.420   4.884
 4726SOL    HW115077   0.215   6.403   4.886
 4726SOL    HW215078   0.082   6.428   4.978
 4727SOL     OW15079   6.391   6.487   1.057
 4727SOL    HW115080   6.453   6.460   0.983
 4727SOL    HW215081   6.405   6.584   1.078
 4728SOL     OW15082   6.840   0.902   7.004
 4728SOL    HW115083   6.765   0.851   0.023
 4728SOL    HW215084   6.926   0.855   7.020
 4729SOL     OW15085   2.763   0.811   0.627
 4729SOL    HW115086   2.797   0.865   0.550
 4729SOL    HW215087   2.686   0.859   0.670
 4730SOL     OW15088   2.024   0.805   5.558
 4730SOL    HW115089   2.052   0.790   5.653
 4730SOL    HW215090   2.098   0.779   5.497
 4731SOL     OW15091   5.030   2.101   6.897
 4731SOL    HW115092   5.068   2.011   6.921
 4731SOL    HW215093   4.956   2.089   6.831
 4732SOL     OW15094   0.171   1.069   0.101
 4732SOL    HW115095   0.245   1.101   0.041
 4732SOL    HW215096   0.101   1.139   0.107
 4733SOL     OW15097   6.914   3.276   3.830
 4733SOL    HW115098   6.907   3.305   3.734
 4733SOL    HW215099   7.000   3.309   3.868
 4734SOL     OW15100   5.273   4.637   5.753
 4734SOL    HW115101   5.232   4.708   5.697
 4734SOL    HW215102   5.370   4.627   5.729
 4735SOL     OW15103   0.283   3.888   3.972
 4735SOL    HW115104   0.189   3.916   3.953
 4735SOL    HW215105   0.340   3.902   3.891
 4736SOL     OW15106   2.030   0.132   1.186
 4736SOL    HW115107   1.935   0.123   1.156
 4736SOL    HW215108   2.058   0.050   1.236
 4737SOL     OW15109   3.289   5.039   1.770
 4737SOL    HW115110   3.196   5.021   1.800
 4737SOL    HW215111   3.325   5.120   1.818
 4738SOL     OW15112   0.214   6.239   2.931
 4738SOL    HW115113   0.201   6.167   2.863
 4738SOL    HW215114   0.131   6.246   2.988
 4739SOL     OW15115   4.276   0.043   1.681
 4739SOL    HW115116   4.278   6.967   1.683
 4739SOL    HW215117   4.224   0.074   1.601
 4740SOL     OW15118   0.402   2.181   3.719
 4740SOL    HW115119   0.444   2.251   3.661
 4740SOL    HW215120   0.450   2.176   3.807
 4741SOL     OW15121   3.747   3.436   1.635
 4741SOL    HW115122   3.695   3.416   1.718
 4741SOL    HW215123   3.826   3.492   1.657
 4742SOL     OW15124   4.310   0.869   0.696
 4742SOL    HW115125   4.377   0.940   0.672
 4742SOL    HW215126   4.238   0.866   0.627
 4743SOL     OW15127   1.624   6.336   0.937
 4743SOL    HW115128   1.643   6.292   0.849
 4743SOL    HW215129   1.578   6.424   0.920
 4744SOL     OW15130   2.023   5.619   1.597
 4744SOL    HW115131   1.963   5.635   1.676
 4744SOL    HW215132   1.988   5.541   1.545
 4745SOL     OW15133   2.033   3.569   0.299
 4745SOL    HW115134   2.100   3.540   0.231
 4745SOL    HW215135   1.951   3.512   0.291
 4746SOL     OW15136   4.961   5.453   4.190
 4746SOL    HW115137   4.940   5.458   4.288
 4746SOL    HW215138   5.039   5.392   4.176
 4747SOL     OW15139   3.183   0.605   6.602
 4747SOL    HW115140   3.156   0.519   6.644
 4747SOL    HW215141   3.276   0.597   6.566
 4748SOL     OW15142   1.942   0.249   1.953
 4748SOL    HW115143   2.024   0.300   1.978
 4748SOL    HW215144   1.914   0.273   1.861
 4749SOL     OW15145   2.119   1.897   0.898
 4749SOL    HW115146   2.112   1.820   0.834
 4749SOL    HW215147   2.183   1.873   0.971
 4750SOL     OW15148   4.559   3.335   6.064
 4750SOL    HW115149   4.543   3.279   6.146
 4750SOL    HW215150   4.481   3.395   6.050
 4751SOL     OW15151   4.768   1.441   2.727
 4751SOL    HW115152   4.835   1.507   2.694
 4751SOL    HW215153   4.700   1.488   2.783
 4752SOL     OW15154   5.918   1.850   7.019
 4752SOL    HW115155   5.873   1.913   6.955
 4752SOL    HW215156   5.892   1.873   0.089
 4753SOL     OW15157   2.628   6.123   5.259
 4753SOL    HW115158   2.630   6.220   5.234
 4753SOL    HW215159   2.719   6.095   5.290
 4754SOL     OW15160   4.977   4.316   0.110
 4754SOL    HW115161   5.026   4.332   0.024
 4754SOL    HW215162   4.958   4.219   0.120
 4755SOL     OW15163   0.702   1.638   0.721
 4755SOL    HW115164   0.649   1.622   0.804
 4755SOL    HW215165   0.704   1.736   0.701
 4756SOL     OW15166   6.889   3.930   5.644
 4756SOL    HW115167   6.790   3.914   5.647
 4756SOL    HW215168   6.920   3.931   5.549
 4757SOL     OW15169   2.356   3.530   0.366
 4757SOL    HW115170   2.316   3.520   0.274
 4757SOL    HW215171   2.419   3.454   0.383
 4758SOL     OW15172   2.477   5.198   3.216
 4758SOL    HW115173   2.460   5.275   3.156
 4758SOL    HW215174   2.524   5.229   3.299
 4759SOL     OW15175   0.587   6.331   2.517
 4759SOL    HW115176   0.642   6.414   2.513
 4759SOL    HW215177   0.615   6.276   2.595
 4760SOL     OW15178   1.669   6.326   1.217
 4760SOL    HW115179   1.641   6.237   1.254
 4760SOL    HW215180   1.663   6.324   1.117
 4761SOL     OW15181   5.082   6.484   1.680
 4761SOL    HW115182   5.044   6.424   1.750
 4761SOL    HW215183   5.008   6.538   1.639
 4762SOL     OW15184   1.739   0.597   3.029
 4762SOL    HW115185   1.695   0.667   2.973
 4762SOL    HW215186   1.712   0.507   2.997
 4763SOL     OW15187   5.216   5.622   2.074
 4763SOL    HW115188   5.201   5.631   2.172
 4763SOL    HW215189   5.176   5.536   2.042
 4764SOL     OW15190   4.728   3.303   6.973
 4764SOL    HW115191   4.820   3.328   7.005
 4764SOL    HW215192   4.660   3.357   7.023
 4765SOL     OW15193   3.861   2.101   5.894
 4765SOL    HW115194   3.831   2.041   5.820
 4765SOL    HW215195   3.957   2.082   5.916
 4766SOL     OW15196   1.067   1.075   4.438
 4766SOL    HW115197   1.093   1.127   4.520
 4766SOL    HW215198   1.092   1.128   4.356
 4767SOL     OW15199   1.932   4.945   3.546
 4767SOL    HW115200   2.015   4.961   3.493
 4767SOL    HW215201   1.944   4.981   3.639
 4768SOL     OW15202   4.846   2.360   6.049
 4768SOL    HW115203   4.904   2.303   6.107
 4768SOL    HW215204   4.854   2.455   6.078
 4769SOL     OW15205   1.515   3.229   0.546
 4769SOL    HW115206   1.522   3.257   0.451
 4769SOL    HW215207   1.604   3.197   0.579
 4770SOL     OW15208   6.779   1.499   3.494
 4770SOL    HW115209   6.700   1.490   3.433
 4770SOL    HW215210   6.810   1.408   3.520
 4771SOL     OW15211   1.998   0.292   4.009
 4771SOL    HW115212   1.946   0.262   3.928
 4771SOL    HW215213   2.047   0.376   3.988
 4772SOL     OW15214   2.821   5.139   3.034
 4772SOL    HW115215   2.882   5.196   3.088
 4772SOL    HW215216   2.855   5.045   3.033
 4773SOL     OW15217   2.981   5.075   4.945
 4773SOL    HW115218   3.078   5.053   4.956
 4773SOL    HW215219   2.961   5.161   4.992
 4774SOL     OW15220   0.924   4.211   0.535
 4774SOL    HW115221   0.878   4.124   0.519
 4774SOL    HW215222   1.023   4.196   0.545
 4775SOL     OW15223   5.754   5.267   5.025
 4775SOL    HW115224   5.742   5.205   4.947
 4775SOL    HW215225   5.842   5.249   5.069
 4776SOL     OW15226   0.049   1.713   4.910
 4776SOL    HW115227   0.131   1.656   4.903
 4776SOL    HW215228   7.006   1.668   4.969
 4777SOL     OW15229   1.649   6.790   3.071
 4777SOL    HW115230   1.674   6.729   3.147
 4777SOL    HW215231   1.629   6.736   2.990
 4778SOL     OW15232   2.024   0.412   0.082
 4778SOL    HW115233   2.064   0.448   0.167
 4778SOL    HW215234   2.076   0.447   0.004
 4779SOL     OW15235   4.780   1.078   4.725
 4779SOL    HW115236   4.744   1.165   4.691
 4779SOL    HW215237   4.705   1.018   4.752
 4780SOL     OW15238   4.985   3.207   4.599
 4780SOL    HW115239   4.941   3.289   4.636
 4780SOL    HW215240   4.953   3.191   4.506
 4781SOL     OW15241   1.415   5.304   1.965
 4781SOL    HW115242   1.460   5.216   1.974
 4781SOL    HW215243   1.433   5.342   1.874
 4782SOL     OW15244   0.811   6.086   3.628
 4782SOL    HW115245   0.810   6.079   3.728
 4782SOL    HW215246   0.717   6.093   3.595
 4783SOL     OW15247   0.593   3.289   6.380
 4783SOL    HW115248   0.512   3.348   6.382
 4783SOL    HW215249   0.613   3.262   6.286
 4784SOL     OW15250   5.383   3.317   0.157
 4784SOL    HW115251   5.433   3.251   0.102
 4784SOL    HW215252   5.432   3.404   0.158
 4785SOL     OW15253   0.622   0.048   4.139
 4785SOL    HW115254   0.711   0.027   4.101
 4785SOL    HW215255   0.628   0.053   4.239
 4786SOL     OW15256   1.085   5.626   0.017
 4786SOL    HW115257   0.992   5.658   7.022
 4786SOL    HW215258   1.113   5.656   0.108
 4787SOL     OW15259   5.099   1.326   4.740
 4787SOL    HW115260   5.128   1.407   4.791
 4787SOL    HW215261   4.999   1.322   4.739
 4788SOL     OW15262   6.641   5.754   1.089
 4788SOL    HW115263   6.575   5.719   1.156
 4788SOL    HW215264   6.688   5.676   1.046
 4789SOL     OW15265   6.212   0.665   2.934
 4789SOL    HW115266   6.237   0.694   3.026
 4789SOL    HW215267   6.205   0.565   2.931
 4790SOL     OW15268   6.947   2.208   4.452
 4790SOL    HW115269   6.909   2.132   4.400
 4790SOL    HW215270   0.022   2.197   4.460
 4791SOL     OW15271   0.710   0.138   0.078
 4791SOL    HW115272   0.764   0.087   0.144
 4791SOL    HW215273   0.651   0.075   0.028
 4792SOL     OW15274   1.061   3.772   2.093
 4792SOL    HW115275   1.059   3.744   2.189
 4792SOL    HW215276   1.124   3.714   2.042
 4793SOL     OW15277   0.863   3.958   5.194
 4793SOL    HW115278   0.832   3.876   5.241
 4793SOL    HW215279   0.880   4.030   5.262
 4794SOL     OW15280   5.072   1.919   5.573
 4794SOL    HW115281   5.024   1.909   5.660
 4794SOL    HW215282   5.010   1.956   5.504
 4795SOL     OW15283   0.158   1.011   6.441
 4795SOL    HW115284   0.207   1.089   6.402
 4795SOL    HW215285   0.204   0.983   6.525
 4796SOL     OW15286   4.940   1.138   5.522
 4796SOL    HW115287   4.967   1.214   5.463
 4796SOL    HW215288   4.915   1.059   5.465
 4797SOL     OW15289   2.524   5.250   5.711
 4797SOL    HW115290   2.579   5.227   5.630
 4797SOL    HW215291   2.442   5.300   5.681
 4798SOL     OW15292   2.994   6.177   0.147
 4798SOL    HW115293   3.012   6.142   0.055
 4798SOL    HW215294   2.967   6.273   0.141
 4799SOL     OW15295   3.622   3.003   0.356
 4799SOL    HW115296   3.639   3.067   0.282
 4799SOL    HW215297   3.686   3.019   0.431
 4800SOL     OW15298   0.985   4.838   0.491
 4800SOL    HW115299   1.008   4.751   0.448
 4800SOL    HW215300   1.068   4.882   0.524
 4801SOL     OW15301   4.801   2.402   3.168
 4801SOL    HW115302   4.877   2.437   3.113
 4801SOL    HW215303   4.822   2.308   3.198
 4802SOL     OW15304   7.008   0.670   4.732
 4802SOL    HW115305   6.917   0.669   4.775
 4802SOL    HW215306   0.043   0.602   4.776
 4803SOL     OW15307   4.995   4.044   5.582
 4803SOL    HW115308   4.960   3.951   5.570
 4803SOL    HW215309   4.961   4.102   5.508
 4804SOL     OW15310   5.152   2.233   0.791
 4804SOL    HW115311   5.135   2.153   0.735
 4804SOL    HW215312   5.233   2.282   0.758
 4805SOL     OW15313   5.672   1.660   6.741
 4805SOL    HW115314   5.757   1.610   6.731
 4805SOL    HW215315   5.649   1.705   6.655
 4806SOL     OW15316   0.996   2.152   2.997
 4806SOL    HW115317   0.956   2.242   3.013
 4806SOL    HW215318   1.054   2.156   2.915
 4807SOL     OW15319   6.867   4.303   6.725
 4807SOL    HW115320   6.938   4.234   6.742
 4807SOL    HW215321   6.781   4.273   6.766
 4808SOL     OW15322   3.551   6.043   2.393
 4808SOL    HW115323   3.589   6.098   2.467
 4808SOL    HW215324   3.622   5.985   2.354
 4809SOL     OW15325   3.008   3.573   1.632
 4809SOL    HW115326   2.998   3.605   1.538
 4809SOL    HW215327   2.918   3.555   1.671
 4810SOL     OW15328   1.768   5.305   4.310
 4810SOL    HW115329   1.784   5.308   4.409
 4810SOL    HW215330   1.856   5.301   4.262
 4811SOL     OW15331   3.662   3.142   4.408
 4811SOL    HW115332   3.736   3.200   4.444
 4811SOL    HW215333   3.577   3.164   4.455
 4812SOL     OW15334   2.007   6.447   2.416
 4812SOL    HW115335   1.996   6.461   2.317
 4812SOL    HW215336   2.094   6.485   2.445
 4813SOL     OW15337   0.816   2.610   4.931
 4813SOL    HW115338   0.756   2.600   4.852
 4813SOL    HW215339   0.911   2.593   4.904
 4814SOL     OW15340   6.420   3.005   0.835
 4814SOL    HW115341   6.335   3.056   0.822
 4814SOL    HW215342   6.401   2.907   0.829
 4815SOL     OW15343   6.067   4.275   2.137
 4815SOL    HW115344   6.007   4.197   2.117
 4815SOL    HW215345   6.136   4.248   2.204
 4816SOL     OW15346   2.791   0.339   2.517
 4816SOL    HW115347   2.802   0.384   2.429
 4816SOL    HW215348   2.781   0.241   2.503
 4817SOL     OW15349   4.364   2.493   0.589
 4817SOL    HW115350   4.375   2.430   0.511
 4817SOL    HW215351   4.443   2.555   0.592
 4818SOL     OW15352   4.528   6.747   4.271
 4818SOL    HW115353   4.531   6.698   4.184
 4818SOL    HW215354   4.542   6.683   4.346
 4819SOL     OW15355   2.945   1.037   0.181
 4819SOL    HW115356   3.021   1.055   0.244
 4819SOL    HW215357   2.925   0.939   0.180
 4820SOL     OW15358   6.603   3.867   1.620
 4820SOL    HW115359   6.520   3.884   1.673
 4820SOL    HW215360   6.661   3.801   1.668
 4821SOL     OW15361   0.012   5.612   1.774
 4821SOL    HW115362   6.986   5.663   1.704
 4821SOL    HW215363   0.110   5.629   1.764
 4822SOL     OW15364   0.687   3.475   1.195
 4822SOL    HW115365   0.737   3.533   1.260
 4822SOL    HW215366   0.670   3.386   1.236
 4823SOL     OW15367   0.490   1.127   3.429
 4823SOL    HW115368   0.463   1.071   3.508
 4823SOL    HW215369   0.526   1.214   3.461
 4824SOL     OW15370   5.626   1.745   2.408
 4824SOL    HW115371   5.546   1.686   2.401
 4824SOL    HW215372   5.697   1.713   2.345
 4825SOL     OW15373   1.045   3.490   3.946
 4825SOL    HW115374   1.134   3.531   3.923
 4825SOL    HW215375   1.058   3.424   4.020
 4826SOL     OW15376   6.696   6.959   0.086
 4826SOL    HW115377   6.776   6.952   0.027
 4826SOL    HW215378   6.659   0.028   0.079
 4827SOL     OW15379   5.099   1.842   6.781
 4827SOL    HW115380   5.110   1.757   6.833
 4827SOL    HW215381   5.019   1.835   6.721
 4828SOL     OW15382   5.026   3.376   6.617
 4828SOL    HW115383   4.993   3.460   6.659
 4828SOL    HW215384   5.124   3.366   6.635
 4829SOL     OW15385   3.621   0.429   5.204
 4829SOL    HW115386   3.596   0.345   5.253
 4829SOL    HW215387   3.587   0.424   5.110
 4830SOL     OW15388   4.509   5.530   4.791
 4830SOL    HW115389   4.533   5.482   4.707
 4830SOL    HW215390   4.546   5.623   4.789
 4831SOL     OW15391   6.025   2.400   6.830
 4831SOL    HW115392   5.972   2.484   6.818
 4831SOL    HW215393   6.079   2.382   6.748
 4832SOL     OW15394   1.919   2.598   6.368
 4832SOL    HW115395   1.989   2.659   6.407
 4832SOL    HW215396   1.902   2.624   6.273
 4833SOL     OW15397   6.325   1.660   3.386
 4833SOL    HW115398   6.343   1.709   3.301
 4833SOL    HW215399   6.311   1.563   3.366
 4834SOL     OW15400   6.052   0.251   3.494
 4834SOL    HW115401   6.148   0.251   3.467
 4834SOL    HW215402   6.046   0.243   3.593
 4835SOL     OW15403   1.761   1.457   6.054
 4835SOL    HW115404   1.859   1.446   6.036
 4835SOL    HW215405   1.722   1.369   6.081
 4836SOL     OW15406   5.782   3.181   2.312
 4836SOL    HW115407   5.853   3.231   2.264
 4836SOL    HW215408   5.768   3.221   2.402
 4837SOL     OW15409   0.671   4.572   0.677
 4837SOL    HW115410   0.674   4.666   0.643
 4837SOL    HW215411   0.579   4.534   0.664
 4838SOL     OW15412   2.482   5.788   2.647
 4838SOL    HW115413   2.386   5.787   2.675
 4838SOL    HW215414   2.530   5.861   2.695
 4839SOL     OW15415   0.504   7.019   6.644
 4839SOL    HW115416   0.596   7.019   6.606
 4839SOL    HW215417   0.449   0.064   6.597
 4840SOL     OW15418   6.352   6.109   5.939
 4840SOL    HW115419   6.297   6.063   6.008
 4840SOL    HW215420   6.399   6.041   5.882
 4841SOL     OW15421   2.075   5.938   1.208
 4841SOL    HW115422   2.161   5.900   1.173
 4841SOL    HW215423   2.066   5.916   1.305
 4842SOL     OW15424   3.430   6.851   1.368
 4842SOL    HW115425   3.489   6.803   1.304
 4842SOL    HW215426   3.429   6.949   1.345
 4843SOL     OW15427   1.421   3.639   7.010
 4843SOL    HW115428   1.344   3.612   0.043
 4843SOL    HW215429   1.440   3.736   0.000
 4844SOL     OW15430   0.844   1.773   4.992
 4844SOL    HW115431   0.835   1.718   4.909
 4844SOL    HW215432   0.768   1.838   4.998
 4845SOL     OW15433   5.714   5.601   3.814
 4845SOL    HW115434   5.671   5.659   3.884
 4845SOL    HW215435   5.739   5.657   3.736
 4846SOL     OW15436   0.552   5.055   6.842
 4846SOL    HW115437   0.615   4.987   6.805
 4846SOL    HW215438   0.526   5.120   6.771
 4847SOL     OW15439   4.825   3.067   4.836
 4847SOL    HW115440   4.751   3.001   4.826
 4847SOL    HW215441   4.868   3.084   4.747
 4848SOL     OW15442   2.716   2.801   1.549
 4848SOL    HW115443   2.678   2.832   1.462
 4848SOL    HW215444   2.666   2.845   1.624
 4849SOL     OW15445   1.918   6.634   5.977
 4849SOL    HW115446   2.012   6.616   6.008
 4849SOL    HW215447   1.863   6.552   5.990
 4850SOL     OW15448   3.455   6.817   3.428
 4850SOL    HW115449   3.441   6.886   3.499
 4850SOL    HW215450   3.535   6.842   3.374
 4851SOL     OW15451   4.968   1.327   5.327
 4851SOL    HW115452   4.944   1.339   5.231
 4851SOL    HW215453   5.066   1.341   5.339
 4852SOL     OW15454   1.916   1.823   1.971
 4852SOL    HW115455   1.928   1.879   2.053
 4852SOL    HW215456   1.826   1.841   1.931
 4853SOL     OW15457   3.697   1.903   1.812
 4853SOL    HW115458   3.606   1.942   1.813
 4853SOL    HW215459   3.758   1.961   1.759
 4854SOL     OW15460   3.643   0.221   6.780
 4854SOL    HW115461   3.543   0.225   6.778
 4854SOL    HW215462   3.674   0.229   6.874
 4855SOL     OW15463   6.629   2.983   2.861
 4855SOL    HW115464   6.548   3.023   2.904
 4855SOL    HW215465   6.673   3.051   2.803
 4856SOL     OW15466   1.001   4.249   2.348
 4856SOL    HW115467   1.026   4.167   2.297
 4856SOL    HW215468   1.069   4.268   2.418
 4857SOL     OW15469   0.442   0.988   5.615
 4857SOL    HW115470   0.461   0.932   5.696
 4857SOL    HW215471   0.379   1.061   5.639
 4858SOL     OW15472   1.508   0.663   4.112
 4858SOL    HW115473   1.449   0.619   4.179
 4858SOL    HW215474   1.603   0.661   4.144
 4859SOL     OW15475   3.762   5.883   6.205
 4859SOL    HW115476   3.781   5.981   6.191
 4859SOL    HW215477   3.848   5.835   6.221
 4860SOL     OW15478   3.381   4.183   0.429
 4860SOL    HW115479   3.362   4.146   0.338
 4860SOL    HW215480   3.454   4.251   0.422
 4861SOL     OW15481   4.455   4.251   6.415
 4861SOL    HW115482   4.428   4.321   6.349
 4861SOL    HW215483   4.375   4.200   6.445
 4862SOL     OW15484   0.309   0.010   0.676
 4862SOL    HW115485   0.212   0.018   0.698
 4862SOL    HW215486   0.358   6.994   0.754
 4863SOL     OW15487   5.103   4.474   6.338
 4863SOL    HW115488   5.152   4.547   6.290
 4863SOL    HW215489   5.169   4.409   6.375
 4864SOL     OW15490   3.602   1.120   4.245
 4864SOL    HW115491   3.598   1.158   4.337
 4864SOL    HW215492   3.512   1.130   4.201
 4865SOL     OW15493   1.620   0.075   5.228
 4865SOL    HW115494   1.561   0.018   5.286
 4865SOL    HW215495   1.687   0.017   5.182
 4866SOL     OW15496   6.669   4.457   6.340
 4866SOL    HW115497   6.668   4.400   6.259
 4866SOL    HW215498   6.588   4.515   6.342
 4867SOL     OW15499   4.554   1.350   2.992
 4867SOL    HW115500   4.530   1.413   3.067
 4867SOL    HW215501   4.477   1.290   2.973
 4868SOL     OW15502   6.797   4.394   0.522
 4868SOL    HW115503   6.836   4.485   0.538
 4868SOL    HW215504   6.859   4.324   0.559
 4869SOL     OW15505   0.907   1.728   0.948
 4869SOL    HW115506   0.836   1.790   0.914
 4869SOL    HW215507   0.973   1.709   0.875
 4870SOL     OW15508   0.084   6.972   1.102
 4870SOL    HW115509   0.085   6.969   1.202
 4870SOL    HW215510   0.093   6.879   1.066
 4871SOL     OW15511   0.947   1.675   3.152
 4871SOL    HW115512   0.983   1.767   3.170
 4871SOL    HW215513   0.986   1.610   3.218
 4872SOL     OW15514   5.559   6.724   3.030
 4872SOL    HW115515   5.589   6.755   2.940
 4872SOL    HW215516   5.462   6.701   3.026
 4873SOL     OW15517   6.926   5.412   4.592
 4873SOL    HW115518   6.994   5.346   4.560
 4873SOL    HW215519   6.967   5.503   4.597
 4874SOL     OW15520   4.801   3.064   3.179
 4874SOL    HW115521   4.788   2.973   3.217
 4874SOL    HW215522   4.711   3.107   3.166
 4875SOL     OW15523   5.845   6.263   5.266
 4875SOL    HW115524   5.815   6.191   5.203
 4875SOL    HW215525   5.916   6.318   5.223
 4876SOL     OW15526   0.050   1.072   2.052
 4876SOL    HW115527   7.009   1.148   2.048
 4876SOL    HW215528   0.002   0.986   2.038
 4877SOL     OW15529   6.770   1.493   6.371
 4877SOL    HW115530   6.711   1.458   6.444
 4877SOL    HW215531   6.795   1.588   6.391
 4878SOL     OW15532   6.394   3.527   2.530
 4878SOL    HW115533   6.341   3.551   2.448
 4878SOL    HW215534   6.469   3.466   2.504
 4879SOL     OW15535   5.500   0.847   3.153
 4879SOL    HW115536   5.449   0.934   3.155
 4879SOL    HW215537   5.459   0.786   3.086
 4880SOL     OW15538   0.053   3.038   6.203
 4880SOL    HW115539   0.021   3.038   6.108
 4880SOL    HW215540   0.039   2.947   6.243
 4881SOL     OW15541   1.434   3.070   1.811
 4881SOL    HW115542   1.461   3.001   1.878
 4881SOL    HW215543   1.372   3.136   1.853
 4882SOL     OW15544   4.861   2.143   4.472
 4882SOL    HW115545   4.837   2.167   4.378
 4882SOL    HW215546   4.867   2.226   4.527
 4883SOL     OW15547   5.987   4.589   0.591
 4883SOL    HW115548   5.986   4.491   0.613
 4883SOL    HW215549   6.003   4.600   0.492
 4884SOL     OW15550   1.821   1.044   1.671
 4884SOL    HW115551   1.793   1.128   1.624
 4884SOL    HW215552   1.914   1.020   1.645
 4885SOL     OW15553   1.084   5.094   0.239
 4885SOL    HW115554   1.134   5.009   0.259
 4885SOL    HW215555   0.993   5.071   0.204
 4886SOL     OW15556   3.304   0.256   2.240
 4886SOL    HW115557   3.395   0.276   2.202
 4886SOL    HW215558   3.242   0.332   2.220
 4887SOL     OW15559   4.478   5.965   0.367
 4887SOL    HW115560   4.394   5.912   0.356
 4887SOL    HW215561   4.537   5.952   0.288
 4888SOL     OW15562   4.763   0.330   3.172
 4888SOL    HW115563   4.766   0.377   3.260
 4888SOL    HW215564   4.719   0.241   3.183
 4889SOL     OW15565   6.548   3.136   3.773
 4889SOL    HW115566   6.455   3.110   3.799
 4889SOL    HW215567   6.607   3.134   3.854
 4890SOL     OW15568   6.530   1.711   5.173
 4890SOL    HW115569   6.546   1.794   5.226
 4890SOL    HW215570   6.433   1.704   5.149
 4891SOL     OW15571   2.393   5.775   0.163
 4891SOL    HW115572   2.458   5.782   0.239
 4891SOL    HW215573   2.300   5.786   0.197
 4892SOL     OW15574   5.406   4.985   2.904
 4892SOL    HW115575   5.384   4.887   2.909
 4892SOL    HW215576   5.458   5.002   2.820
 4893SOL     OW15577   1.631   3.229   0.874
 4893SOL    HW115578   1.662   3.161   0.808
 4893SOL    HW215579   1.557   3.191   0.929
 4894SOL     OW15580   4.722   5.948   1.225
 4894SOL    HW115581   4.648   5.896   1.183
 4894SOL    HW215582   4.798   5.957   1.160
 4895SOL     OW15583   0.439   3.896   5.425
 4895SOL    HW115584   0.437   3.995   5.407
 4895SOL    HW215585   0.454   3.881   5.523
 4896SOL     OW15586   2.793   5.004   4.784
 4896SOL    HW115587   2.868   5.036   4.842
 4896SOL    HW215588   2.795   5.052   4.697
 4897SOL     OW15589   1.948   0.995   5.314
 4897SOL    HW115590   1.943   1.068   5.247
 4897SOL    HW215591   1.885   0.921   5.288
 4898SOL     OW15592   4.959   1.905   4.035
 4898SOL    HW115593   4.860   1.919   4.030
 4898SOL    HW215594   4.992   1.866   3.949
 4899SOL     OW15595   6.284   6.395   2.044
 4899SOL    HW115596   6.187   6.371   2.045
 4899SOL    HW215597   6.298   6.482   2.092
 4900SOL     OW15598   3.967   6.147   6.112
 4900SOL    HW115599   3.970   6.137   6.211
 4900SOL    HW215600   4.060   6.140   6.075
 4901SOL     OW15601   1.603   0.470   6.850
 4901SOL    HW115602   1.505   0.477   6.868
 4901SOL    HW215603   1.653   0.535   6.907
 4902SOL     OW15604   2.886   0.375   5.477
 4902SOL    HW115605   2.828   0.368   5.558
 4902SOL    HW215606   2.942   0.293   5.469
 4903SOL     OW15607   5.176   3.771   3.171
 4903SOL    HW115608   5.137   3.837   3.235
 4903SOL    HW215609   5.122   3.687   3.172
 4904SOL     OW15610   1.919   0.486   1.605
 4904SOL    HW115611   1.934   0.541   1.523
 4904SOL    HW215612   1.878   0.542   1.677
 4905SOL     OW15613   2.397   0.475   2.689
 4905SOL    HW115614   2.458   0.553   2.706
 4905SOL    HW215615   2.450   0.399   2.652
 4906SOL     OW15616   5.422   3.441   4.886
 4906SOL    HW115617   5.407   3.528   4.840
 4906SOL    HW215618   5.355   3.430   4.959
 4907SOL     OW15619   3.829   2.448   6.962
 4907SOL    HW115620   3.730   2.453   6.963
 4907SOL    HW215621   3.867   2.514   0.003
 4908SOL     OW15622   3.552   6.880   6.557
 4908SOL    HW115623   3.565   6.890   6.656
 4908SOL    HW215624   3.495   6.956   6.524
 4909SOL     OW15625   4.859   5.119   4.163
 4909SOL    HW115626   4.844   5.140   4.260
 4909SOL    HW215627   4.778   5.147   4.110
 4910SOL     OW15628   4.085   2.197   6.747
 4910SOL    HW115629   3.986   2.211   6.755
 4910SOL    HW215630   4.129   2.225   6.832
 4911SOL     OW15631   6.601   4.621   3.007
 4911SOL    HW115632   6.657   4.703   3.015
 4911SOL    HW215633   6.517   4.642   2.958
 4912SOL     OW15634   5.687   2.814   4.343
 4912SOL    HW115635   5.608   2.754   4.337
 4912SOL    HW215636   5.768   2.761   4.364
 4913SOL     OW15637   0.636   3.923   4.790
 4913SOL    HW115638   0.619   3.979   4.709
 4913SOL    HW215639   0.571   3.947   4.862
 4914SOL     OW15640   4.008   6.653   4.151
 4914SOL    HW115641   4.022   6.606   4.064
 4914SOL    HW215642   4.087   6.638   4.210
 4915SOL     OW15643   3.954   5.842   5.162
 4915SOL    HW115644   4.005   5.914   5.115
 4915SOL    HW215645   3.921   5.877   5.250
 4916SOL     OW15646   5.104   1.901   3.680
 4916SOL    HW115647   5.136   1.959   3.756
 4916SOL    HW215648   5.042   1.953   3.623
 4917SOL     OW15649   4.143   6.498   6.417
 4917SOL    HW115650   4.205   6.419   6.420
 4917SOL    HW215651   4.184   6.575   6.466
 4918SOL     OW15652   5.614   5.124   3.688
 4918SOL    HW115653   5.659   5.035   3.683
 4918SOL    HW215654   5.627   5.173   3.602
 4919SOL     OW15655   3.485   3.691   2.242
 4919SOL    HW115656   3.576   3.729   2.257
 4919SOL    HW215657   3.478   3.602   2.287
 4920SOL     OW15658   6.044   1.483   6.262
 4920SOL    HW115659   5.949   1.469   6.232
 4920SOL    HW215660   6.106   1.437   6.199
 4921SOL     OW15661   6.852   6.516   1.504
 4921SOL    HW115662   6.778   6.453   1.523
 4921SOL    HW215663   6.820   6.610   1.513
 4922SOL     OW15664   4.542   1.959   5.964
 4922SOL    HW115665   4.460   1.954   6.022
 4922SOL    HW215666   4.543   1.882   5.901
 4923SOL     OW15667   3.868   1.590   1.700
 4923SOL    HW115668   3.908   1.613   1.789
 4923SOL    HW215669   3.777   1.550   1.715
 4924SOL     OW15670   2.375   0.665   5.312
 4924SOL    HW115671   2.448   0.596   5.308
 4924SOL    HW215672   2.359   0.701   5.220
 4925SOL     OW15673   4.884   5.481   3.411
 4925SOL    HW115674   4.954   5.491   3.341
 4925SOL    HW215675   4.895   5.553   3.480
 4926SOL     OW15676   5.837   3.033   1.871
 4926SOL    HW115677   5.737   3.030   1.866
 4926SOL    HW215678   5.866   3.010   1.964
 4927SOL     OW15679   2.498   1.750   0.055
 4927SOL    HW115680   2.597   1.747   0.069
 4927SOL    HW215681   2.467   1.666   0.012
 4928SOL     OW15682   0.075   1.770   0.557
 4928SOL    HW115683   0.055   1.706   0.631
 4928SOL    HW215684   0.122   1.850   0.594
 4929SOL     OW15685   0.140   0.462   4.835
 4929SOL    HW115686   0.196   0.471   4.917
 4929SOL    HW215687   0.199   0.457   4.755
 4930SOL     OW15688   4.900   5.536   2.848
 4930SOL    HW115689   4.898   5.581   2.938
 4930SOL    HW215690   4.821   5.476   2.839
 4931SOL     OW15691   6.366   0.142   1.093
 4931SOL    HW115692   6.430   0.208   1.131
 4931SOL    HW215693   6.337   0.078   1.165
 4932SOL     OW15694   3.385   3.352   2.856
 4932SOL    HW115695   3.449   3.366   2.781
 4932SOL    HW215696   3.427   3.293   2.925
 4933SOL     OW15697   1.307   0.609   5.344
 4933SOL    HW115698   1.253   0.694   5.340
 4933SOL    HW215699   1.335   0.592   5.438
 4934SOL     OW15700   3.263   6.689   2.871
 4934SOL    HW115701   3.272   6.706   2.969
 4934SOL    HW215702   3.344   6.723   2.823
 4935SOL     OW15703   0.432   0.934   5.094
 4935SOL    HW115704   0.413   0.991   5.174
 4935SOL    HW215705   0.349   0.925   5.039
 4936SOL     OW15706   4.788   2.385   0.790
 4936SOL    HW115707   4.757   2.473   0.827
 4936SOL    HW215708   4.751   2.311   0.846
 4937SOL     OW15709   4.236   2.937   5.400
 4937SOL    HW115710   4.167   2.871   5.432
 4937SOL    HW215711   4.191   3.010   5.349
 4938SOL     OW15712   3.898   4.183   6.808
 4938SOL    HW115713   3.857   4.093   6.795
 4938SOL    HW215714   3.996   4.178   6.786
 4939SOL     OW15715   4.233   4.091   6.521
 4939SOL    HW115716   4.232   4.009   6.463
 4939SOL    HW215717   4.160   4.153   6.492
 4940SOL     OW15718   2.325   5.636   3.715
 4940SOL    HW115719   2.368   5.685   3.791
 4940SOL    HW215720   2.359   5.541   3.713
 4941SOL     OW15721   5.577   0.606   1.004
 4941SOL    HW115722   5.618   0.609   1.095
 4941SOL    HW215723   5.624   0.672   0.945
 4942SOL     OW15724   4.805   2.629   5.986
 4942SOL    HW115725   4.865   2.645   5.908
 4942SOL    HW215726   4.776   2.717   6.024
 4943SOL     OW15727   5.592   2.858   1.092
 4943SOL    HW115728   5.620   2.895   1.003
 4943SOL    HW215729   5.668   2.868   1.157
 4944SOL     OW15730   2.020   3.640   2.061
 4944SOL    HW115731   2.101   3.582   2.053
 4944SOL    HW215732   2.048   3.735   2.076
 4945SOL     OW15733   0.142   6.189   4.219
 4945SOL    HW115734   0.061   6.148   4.260
 4945SOL    HW215735   0.208   6.116   4.197
 4946SOL     OW15736   0.005   3.787   1.965
 4946SOL    HW115737   7.015   3.871   2.017
 4946SOL    HW215738   0.097   3.786   1.926
 4947SOL     OW15739   6.190   0.863   0.848
 4947SOL    HW115740   6.180   0.798   0.924
 4947SOL    HW215741   6.287   0.880   0.832
 4948SOL     OW15742   2.275   1.483   2.509
 4948SOL    HW115743   2.286   1.428   2.591
 4948SOL    HW215744   2.322   1.570   2.520
 4949SOL     OW15745   5.388   2.564   4.518
 4949SOL    HW115746   5.458   2.536   4.452
 4949SOL    HW215747   5.430   2.577   4.608
 4950SOL     OW15748   3.265   5.054   4.950
 4950SOL    HW115749   3.315   5.072   4.865
 4950SOL    HW215750   3.314   5.096   5.027
 4951SOL     OW15751   4.260   1.620   4.278
 4951SOL    HW115752   4.192   1.691   4.260
 4951SOL    HW215753   4.257   1.594   4.374
 4952SOL     OW15754   6.419   4.535   4.360
 4952SOL    HW115755   6.489   4.600   4.333
 4952SOL    HW215756   6.427   4.516   4.458
 4953SOL     OW15757   1.150   4.661   2.147
 4953SOL    HW115758   1.231   4.604   2.165
 4953SOL    HW215759   1.068   4.610   2.173
 4954SOL     OW15760   6.362   6.309   6.967
 4954SOL    HW115761   6.393   6.384   6.908
 4954SOL    HW215762   6.263   6.298   6.957
 4955SOL     OW15763   1.984   0.667   1.378
 4955SOL    HW115764   2.013   0.763   1.373
 4955SOL    HW215765   2.013   0.619   1.295
 4956SOL     OW15766   6.263   6.549   3.584
 4956SOL    HW115767   6.193   6.520   3.649
 4956SOL    HW215768   6.269   6.483   3.509
 4957SOL     OW15769   1.817   5.560   3.828
 4957SOL    HW115770   1.898   5.618   3.833
 4957SOL    HW215771   1.735   5.618   3.827
 4958SOL     OW15772   6.928   6.811   6.958
 4958SOL    HW115773   6.940   6.723   7.003
 4958SOL    HW215774   6.929   6.798   6.859
 4959SOL     OW15775   0.509   1.770   6.978
 4959SOL    HW115776   0.577   1.775   6.905
 4959SOL    HW215777   0.548   1.722   0.033
 4960SOL     OW15778   4.221   0.038   5.833
 4960SOL    HW115779   4.158   6.988   5.856
 4960SOL    HW215780   4.305   0.028   5.887
 4961SOL     OW15781   5.126   0.668   5.446
 4961SOL    HW115782   5.039   0.673   5.494
 4961SOL    HW215783   5.198   0.638   5.510
 4962SOL     OW15784   6.969   2.620   2.580
 4962SOL    HW115785   0.011   2.559   2.622
 4962SOL    HW215786   6.939   2.688   2.648
 4963SOL     OW15787   6.872   4.705   1.180
 4963SOL    HW115788   6.956   4.732   1.134
 4963SOL    HW215789   6.886   4.620   1.230
 4964SOL     OW15790   3.720   6.463   3.391
 4964SOL    HW115791   3.788   6.535   3.404
 4964SOL    HW215792   3.682   6.468   3.299
 4965SOL     OW15793   0.037   6.090   4.458
 4965SOL    HW115794   0.036   6.116   4.554
 4965SOL    HW215795   0.048   5.991   4.451
 4966SOL     OW15796   4.232   5.414   4.594
 4966SOL    HW115797   4.169   5.420   4.672
 4966SOL    HW215798   4.324   5.442   4.624
 4967SOL     OW15799   5.822   1.948   6.621
 4967SOL    HW115800   5.913   1.906   6.618
 4967SOL    HW215801   5.820   2.018   6.692
 4968SOL     OW15802   5.339   4.157   7.004
 4968SOL    HW115803   5.361   4.253   6.986
 4968SOL    HW215804   5.417   4.099   6.978
 4969SOL     OW15805   1.653   1.679   1.305
 4969SOL    HW115806   1.726   1.656   1.240
 4969SOL    HW215807   1.674   1.767   1.348
 4970SOL     OW15808   1.965   2.678   5.662
 4970SOL    HW115809   2.017   2.750   5.708
 4970SOL    HW215810   1.876   2.668   5.706
 4971SOL     OW15811   6.675   5.427   3.855
 4971SOL    HW115812   6.582   5.400   3.879
 4971SOL    HW215813   6.736   5.407   3.932
 4972SOL     OW15814   1.550   2.130   5.097
 4972SOL    HW115815   1.647   2.120   5.076
 4972SOL    HW215816   1.512   2.206   5.043
 4973SOL     OW15817   5.361   5.513   2.906
 4973SOL    HW115818   5.334   5.417   2.896
 4973SOL    HW215819   5.380   5.552   2.816
 4974SOL     OW15820   4.058   6.472   6.926
 4974SOL    HW115821   3.984   6.507   6.869
 4974SOL    HW215822   4.109   6.548   6.966
 4975SOL     OW15823   3.787   6.665   0.372
 4975SOL    HW115824   3.796   6.572   0.337
 4975SOL    HW215825   3.819   6.729   0.302
 4976SOL     OW15826   2.955   0.870   4.300
 4976SOL    HW115827   2.939   0.922   4.216
 4976SOL    HW215828   3.038   0.903   4.344
 4977SOL     OW15829   3.391   2.618   0.682
 4977SOL    HW115830   3.491   2.610   0.681
 4977SOL    HW215831   3.354   2.577   0.599
 4978SOL     OW15832   5.957   4.260   6.340
 4978SOL    HW115833   5.990   4.241   6.248
 4978SOL    HW215834   6.028   4.310   6.391
 4979SOL     OW15835   1.999   2.021   4.131
 4979SOL    HW115836   1.963   1.945   4.185
 4979SOL    HW215837   1.965   2.014   4.037
 4980SOL     OW15838   2.118   4.785   3.015
 4980SOL    HW115839   2.091   4.769   2.920
 4980SOL    HW215840   2.060   4.857   3.054
 4981SOL     OW15841   5.130   6.033   5.322
 4981SOL    HW115842   5.118   6.086   5.406
 4981SOL    HW215843   5.120   6.093   5.243
 4982SOL     OW15844   2.730   2.352   6.687
 4982SOL    HW115845   2.773   2.346   6.597
 4982SOL    HW215846   2.676   2.269   6.704
 4983SOL     OW15847   6.701   3.110   4.718
 4983SOL    HW115848   6.609   3.096   4.753
 4983SOL    HW215849   6.763   3.133   4.793
 4984SOL     OW15850   5.084   3.890   3.370
 4984SOL    HW115851   4.999   3.942   3.368
 4984SOL    HW215852   5.076   3.813   3.433
 4985SOL     OW15853   5.912   3.862   2.048
 4985SOL    HW115854   5.823   3.858   2.002
 4985SOL    HW215855   5.902   3.828   2.142
 4986SOL     OW15856   4.481   4.513   3.104
 4986SOL    HW115857   4.459   4.572   3.182
 4986SOL    HW215858   4.456   4.560   3.019
 4987SOL     OW15859   0.593   3.150   0.548
 4987SOL    HW115860   0.618   3.061   0.586
 4987SOL    HW215861   0.614   3.151   0.450
 4988SOL     OW15862   1.824   2.101   5.080
 4988SOL    HW115863   1.863   2.021   5.034
 4988SOL    HW215864   1.894   2.172   5.088
 4989SOL     OW15865   6.764   1.313   0.949
 4989SOL    HW115866   6.732   1.408   0.956
 4989SOL    HW215867   6.856   1.307   0.988
 4990SOL     OW15868   1.538   2.210   6.327
 4990SOL    HW115869   1.620   2.190   6.273
 4990SOL    HW215870   1.543   2.302   6.364
 4991SOL     OW15871   2.971   1.953   5.384
 4991SOL    HW115872   2.873   1.934   5.393
 4991SOL    HW215873   2.985   2.013   5.305
 4992SOL     OW15874   4.769   6.447   4.631
 4992SOL    HW115875   4.762   6.444   4.731
 4992SOL    HW215876   4.831   6.376   4.599
 4993SOL     OW15877   1.720   6.327   4.460
 4993SOL    HW115878   1.629   6.296   4.434
 4993SOL    HW215879   1.785   6.252   4.449
 4994SOL     OW15880   0.586   6.488   2.867
 4994SOL    HW115881   0.627   6.573   2.833
 4994SOL    HW215882   0.489   6.486   2.839
 4995SOL     OW15883   5.703   2.965   5.290
 4995SOL    HW115884   5.714   2.894   5.359
 4995SOL    HW215885   5.753   3.047   5.319
 4996SOL     OW15886   0.667   1.529   3.356
 4996SOL    HW115887   0.745   1.483   3.397
 4996SOL    HW215888   0.678   1.531   3.256
 4997SOL     OW15889   0.152   2.614   3.875
 4997SOL    HW115890   0.062   2.654   3.858
 4997SOL    HW215891   0.142   2.525   3.919
 4998SOL     OW15892   0.876   5.646   5.623
 4998SOL    HW115893   0.942   5.592   5.675
 4998SOL    HW215894   0.848   5.726   5.676
 4999SOL     OW15895   6.203   4.314   0.872
 4999SOL    HW115896   6.208   4.410   0.901
 4999SOL    HW215897   6.154   4.261   0.941
 5000SOL     OW15898   6.879   5.007   4.115
 5000SOL    HW115899   6.879   4.958   4.028
 5000SOL    HW215900   6.887   4.941   4.190
 5001SOL     OW15901   5.174   4.268   5.589
 5001SOL    HW115902   5.124   4.191   5.550
 5001SOL    HW215903   5.112   4.347   5.596
 5002SOL     OW15904   1.945   2.588   1.466
 5002SOL    HW115905   1.916   2.496   1.494
 5002SOL    HW215906   1.915   2.655   1.534
 5003SOL     OW15907   6.858   4.866   3.886
 5003SOL    HW115908   6.759   4.874   3.871
 5003SOL    HW215909   6.906   4.925   3.822
 5004SOL     OW15910   2.199   4.656   6.048
 5004SOL    HW115911   2.113   4.605   6.052
 5004SOL    HW215912   2.234   4.654   5.954
 5005SOL     OW15913   4.693   1.821   0.357
 5005SOL    HW115914   4.748   1.739   0.373
 5005SOL    HW215915   4.750   1.891   0.314
 5006SOL     OW15916   5.426   4.573   2.594
 5006SOL    HW115917   5.383   4.594   2.506
 5006SOL    HW215918   5.482   4.491   2.584
 5007SOL     OW15919   4.618   1.263   5.231
 5007SOL    HW115920   4.677   1.213   5.295
 5007SOL    HW215921   4.636   1.231   5.138
 5008SOL     OW15922   6.237   0.770   3.796
 5008SOL    HW115923   6.274   0.834   3.729
 5008SOL    HW215924   6.156   0.724   3.757
 5009SOL     OW15925   1.977   5.896   1.927
 5009SOL    HW115926   2.033   5.894   2.009
 5009SOL    HW215927   1.918   5.977   1.929
 5010SOL     OW15928   3.464   3.460   5.914
 5010SOL    HW115929   3.378   3.415   5.890
 5010SOL    HW215930   3.453   3.513   5.998
 5011SOL     OW15931   1.515   2.131   3.781
 5011SOL    HW115932   1.557   2.054   3.734
 5011SOL    HW215933   1.534   2.126   3.879
 5012SOL     OW15934   5.961   3.532   7.023
 5012SOL    HW115935   5.933   3.444   6.985
 5012SOL    HW215936   5.888   3.599   7.007
 5013SOL     OW15937   4.615   2.258   5.513
 5013SOL    HW115938   4.586   2.257   5.609
 5013SOL    HW215939   4.714   2.273   5.509
 5014SOL     OW15940   6.828   5.794   6.808
 5014SOL    HW115941   6.752   5.793   6.743
 5014SOL    HW215942   6.793   5.783   6.901
 5015SOL     OW15943   5.430   1.781   3.260
 5015SOL    HW115944   5.407   1.834   3.341
 5015SOL    HW215945   5.398   1.687   3.272
 5016SOL     OW15946   2.894   6.303   1.967
 5016SOL    HW115947   2.882   6.207   1.939
 5016SOL    HW215948   2.961   6.347   1.907
 5017SOL     OW15949   1.014   2.156   1.638
 5017SOL    HW115950   1.083   2.084   1.630
 5017SOL    HW215951   1.038   2.232   1.576
 5018SOL     OW15952   6.748   4.665   3.496
 5018SOL    HW115953   6.807   4.662   3.576
 5018SOL    HW215954   6.667   4.609   3.512
 5019SOL     OW15955   2.179   5.321   5.419
 5019SOL    HW115956   2.121   5.402   5.404
 5019SOL    HW215957   2.237   5.307   5.339
 5020SOL     OW15958   4.080   5.326   6.778
 5020SOL    HW115959   4.010   5.382   6.733
 5020SOL    HW215960   4.037   5.266   6.846
 5021SOL     OW15961   2.183   4.457   5.784
 5021SOL    HW115962   2.142   4.407   5.707
 5021SOL    HW215963   2.257   4.515   5.751
 5022SOL     OW15964   2.432   3.841   0.511
 5022SOL    HW115965   2.355   3.830   0.447
 5022SOL    HW215966   2.483   3.756   0.516
 5023SOL     OW15967   0.486   3.001   4.600
 5023SOL    HW115968   0.519   3.005   4.694
 5023SOL    HW215969   0.389   2.978   4.600
 5024SOL     OW15970   4.891   3.784   5.531
 5024SOL    HW115971   4.853   3.809   5.621
 5024SOL    HW215972   4.901   3.685   5.526
 5025SOL     OW15973   6.009   0.864   4.213
 5025SOL    HW115974   6.090   0.826   4.168
 5025SOL    HW215975   6.037   0.932   4.280
 5026SOL     OW15976   0.994   5.635   2.964
 5026SOL    HW115977   0.929   5.561   2.946
 5026SOL    HW215978   1.087   5.600   2.959
 5027SOL     OW15979   1.211   5.997   3.642
 5027SOL    HW115980   1.180   6.035   3.729
 5027SOL    HW215981   1.181   6.055   3.567
 5028SOL     OW15982   0.970   6.647   2.969
 5028SOL    HW115983   1.045   6.712   2.980
 5028SOL    HW215984   0.921   6.637   3.055
 5029SOL     OW15985   6.708   1.016   3.559
 5029SOL    HW115986   6.724   1.112   3.583
 5029SOL    HW215987   6.795   0.966   3.561
 5030SOL     OW15988   1.158   6.086   6.922
 5030SOL    HW115989   1.176   6.124   6.831
 5030SOL    HW215990   1.120   6.157   6.981
 5031SOL     OW15991   5.718   0.655   6.812
 5031SOL    HW115992   5.726   0.558   6.787
 5031SOL    HW215993   5.624   0.674   6.842
 5032SOL     OW15994   1.384   5.534   2.647
 5032SOL    HW115995   1.353   5.464   2.711
 5032SOL    HW215996   1.447   5.596   2.694
 5033SOL     OW15997   0.520   4.375   4.747
 5033SOL    HW115998   0.587   4.360   4.674
 5033SOL    HW215999   0.518   4.295   4.807
 5034SOL     OW16000   6.950   3.787   6.030
 5034SOL    HW116001   6.948   3.747   6.122
 5034SOL    HW216002   6.995   3.723   5.967
 5035SOL     OW16003   6.879   4.113   1.104
 5035SOL    HW116004   6.805   4.131   1.040
 5035SOL    HW216005   6.930   4.032   1.074
 5036SOL     OW16006   1.510   0.806   2.340
 5036SOL    HW116007   1.481   0.723   2.388
 5036SOL    HW216008   1.432   0.846   2.291
 5037SOL     OW16009   4.942   3.063   2.726
 5037SOL    HW116010   5.006   3.136   2.749
 5037SOL    HW216011   4.990   2.993   2.673
 5038SOL     OW16012   3.316   5.468   5.489
 5038SOL    HW116013   3.292   5.518   5.573
 5038SOL    HW216014   3.301   5.527   5.410
 5039SOL     OW16015   1.855   2.180   2.769
 5039SOL    HW116016   1.938   2.159   2.820
 5039SOL    HW216017   1.793   2.234   2.826
 5040SOL     OW16018   3.194   3.395   6.019
 5040SOL    HW116019   3.175   3.491   6.003
 5040SOL    HW216020   3.108   3.343   6.016
 5041SOL     OW16021   0.025   5.432   0.829
 5041SOL    HW116022   6.976   5.437   0.897
 5041SOL    HW216023   0.096   5.369   0.862
 5042SOL     OW16024   5.963   1.771   5.784
 5042SOL    HW116025   5.878   1.774   5.835
 5042SOL    HW216026   5.986   1.863   5.753
 5043SOL     OW16027   5.276   6.087   4.140
 5043SOL    HW116028   5.279   6.111   4.237
 5043SOL    HW216029   5.184   6.057   4.116
 5044SOL     OW16030   6.004   4.565   1.800
 5044SOL    HW116031   6.103   4.557   1.812
 5044SOL    HW216032   5.984   4.634   1.730
 5045SOL     OW16033   6.112   3.262   5.398
 5045SOL    HW116034   6.173   3.291   5.324
 5045SOL    HW216035   6.118   3.327   5.474
 5046SOL     OW16036   4.002   3.380   5.942
 5046SOL    HW116037   3.986   3.282   5.952
 5046SOL    HW216038   3.919   3.431   5.963
 5047SOL     OW16039   0.599   1.752   2.156
 5047SOL    HW116040   0.568   1.786   2.245
 5047SOL    HW216041   0.649   1.666   2.170
 5048SOL     OW16042   5.667   3.522   1.003
 5048SOL    HW116043   5.717   3.567   1.078
 5048SOL    HW216044   5.669   3.580   0.922
 5049SOL     OW16045   1.123   1.817   1.490
 5049SOL    HW116046   1.043   1.809   1.431
 5049SOL    HW216047   1.129   1.909   1.526
 5050SOL     OW16048   1.955   4.369   7.002
 5050SOL    HW116049   1.925   4.422   0.058
 5050SOL    HW216050   2.040   4.322   0.000
 5051SOL     OW16051   2.723   3.786   6.554
 5051SOL    HW116052   2.627   3.756   6.551
 5051SOL    HW216053   2.774   3.739   6.482
 5052SOL     OW16054   5.695   2.909   0.373
 5052SOL    HW116055   5.745   2.851   0.438
 5052SOL    HW216056   5.747   2.992   0.355
 5053SOL     OW16057   1.581   4.034   1.183
 5053SOL    HW116058   1.602   4.037   1.085
 5053SOL    HW216059   1.647   3.975   1.229
 5054SOL     OW16060   4.002   6.152   5.478
 5054SOL    HW116061   3.936   6.221   5.508
 5054SOL    HW216062   4.043   6.108   5.558
 5055SOL     OW16063   1.226   0.953   4.046
 5055SOL    HW116064   1.313   0.973   4.000
 5055SOL    HW216065   1.212   0.854   4.049
 5056SOL     OW16066   3.427   2.350   5.825
 5056SOL    HW116067   3.347   2.411   5.830
 5056SOL    HW216068   3.403   2.268   5.772
 5057SOL     OW16069   0.122   3.886   3.267
 5057SOL    HW116070   0.161   3.797   3.241
 5057SOL    HW216071   0.075   3.925   3.188
 5058SOL     OW16072   3.473   1.927   0.766
 5058SOL    HW116073   3.451   2.019   0.734
 5058SOL    HW216074   3.517   1.875   0.693
 5059SOL     OW16075   5.243   2.106   2.367
 5059SOL    HW116076   5.207   2.191   2.405
 5059SOL    HW216077   5.167   2.048   2.337
 5060SOL     OW16078   0.007   3.682   5.204
 5060SOL    HW116079   6.982   3.694   5.117
 5060SOL    HW216080   0.085   3.622   5.190
 5061SOL     OW16081   3.940   2.775   6.046
 5061SOL    HW116082   3.914   2.755   6.140
 5061SOL    HW216083   3.918   2.697   5.988
 5062SOL     OW16084   5.452   1.148   3.048
 5062SOL    HW116085   5.420   1.152   2.954
 5062SOL    HW216086   5.550   1.127   3.050
 5063SOL     OW16087   0.507   1.786   1.148
 5063SOL    HW116088   0.534   1.864   1.092
 5063SOL    HW216089   0.457   1.818   1.229
 5064SOL     OW16090   5.601   4.671   1.542
 5064SOL    HW116091   5.531   4.711   1.601
 5064SOL    HW216092   5.575   4.577   1.519
 5065SOL     OW16093   2.357   1.738   2.500
 5065SOL    HW116094   2.379   1.793   2.581
 5065SOL    HW216095   2.316   1.797   2.430
 5066SOL     OW16096   1.322   5.229   2.617
 5066SOL    HW116097   1.380   5.209   2.697
 5066SOL    HW216098   1.309   5.146   2.564
 5067SOL     OW16099   5.550   2.584   1.183
 5067SOL    HW116100   5.564   2.683   1.178
 5067SOL    HW216101   5.479   2.563   1.250
 5068SOL     OW16102   1.292   6.313   1.095
 5068SOL    HW116103   1.347   6.277   1.019
 5068SOL    HW216104   1.212   6.360   1.058
 5069SOL     OW16105   4.613   5.361   5.797
 5069SOL    HW116106   4.651   5.300   5.728
 5069SOL    HW216107   4.514   5.367   5.786
 5070SOL     OW16108   6.400   3.500   6.082
 5070SOL    HW116109   6.493   3.498   6.046
 5070SOL    HW216110   6.386   3.420   6.141
 5071SOL     OW16111   2.740   6.109   3.157
 5071SOL    HW116112   2.732   6.154   3.246
 5071SOL    HW216113   2.651   6.076   3.127
 5072SOL     OW16114   0.810   1.267   1.980
 5072SOL    HW116115   0.873   1.262   1.903
 5072SOL    HW216116   0.816   1.183   2.034
 5073SOL     OW16117   1.613   1.287   3.392
 5073SOL    HW116118   1.601   1.378   3.351
 5073SOL    HW216119   1.682   1.236   3.340
 5074SOL     OW16120   3.706   1.943   1.317
 5074SOL    HW116121   3.690   1.873   1.386
 5074SOL    HW216122   3.761   2.017   1.357
 5075SOL     OW16123   6.292   2.589   0.331
 5075SOL    HW116124   6.232   2.526   0.381
 5075SOL    HW216125   6.387   2.570   0.356
 5076SOL     OW16126   0.206   0.869   5.879
 5076SOL    HW116127   0.157   0.877   5.966
 5076SOL    HW216128   0.300   0.842   5.897
 5077SOL     OW16129   0.714   4.501   3.985
 5077SOL    HW116130   0.659   4.433   4.034
 5077SOL    HW216131   0.766   4.455   3.913
 5078SOL     OW16132   6.208   2.262   3.467
 5078SOL    HW116133   6.148   2.324   3.516
 5078SOL    HW216134   6.301   2.270   3.502
 5079SOL     OW16135   1.863   3.779   4.859
 5079SOL    HW116136   1.936   3.829   4.907
 5079SOL    HW216137   1.893   3.759   4.766
 5080SOL     OW16138   6.444   5.730   6.994
 5080SOL    HW116139   6.507   5.805   7.012
 5080SOL    HW216140   6.358   5.745   0.019
 5081SOL     OW16141   2.289   5.011   5.489
 5081SOL    HW116142   2.296   4.912   5.495
 5081SOL    HW216143   2.201   5.041   5.526
 5082SOL     OW16144   5.838   6.806   1.989
 5082SOL    HW116145   5.744   6.819   1.958
 5082SOL    HW216146   5.838   6.786   2.087
 5083SOL     OW16147   1.564   0.023   3.579
 5083SOL    HW116148   1.644   6.993   3.608
 5083SOL    HW216149   1.543   0.001   3.483
 5084SOL     OW16150   3.619   5.013   5.786
 5084SOL    HW116151   3.664   5.018   5.697
 5084SOL    HW216152   3.521   4.998   5.773
 5085SOL     OW16153   0.418   4.403   5.529
 5085SOL    HW116154   0.328   4.403   5.484
 5085SOL    HW216155   0.413   4.457   5.613
 5086SOL     OW16156   0.448   4.649   2.364
 5086SOL    HW116157   0.458   4.573   2.428
 5086SOL    HW216158   0.457   4.615   2.270
 5087SOL     OW16159   0.327   5.013   1.827
 5087SOL    HW116160   0.332   5.062   1.740
 5087SOL    HW216161   0.255   5.052   1.884
 5088SOL     OW16162   4.870   5.274   2.326
 5088SOL    HW116163   4.967   5.261   2.344
 5088SOL    HW216164   4.856   5.361   2.279
 5089SOL     OW16165   5.300   6.621   6.293
 5089SOL    HW116166   5.347   6.654   6.375
 5089SOL    HW216167   5.315   6.684   6.218
 5090SOL     OW16168   2.269   6.686   4.583
 5090SOL    HW116169   2.249   6.624   4.659
 5090SOL    HW216170   2.329   6.760   4.614
 5091SOL     OW16171   6.383   6.293   6.166
 5091SOL    HW116172   6.415   6.225   6.100
 5091SOL    HW216173   6.297   6.333   6.135
 5092SOL     OW16174   4.122   3.475   4.094
 5092SOL    HW116175   4.115   3.388   4.044
 5092SOL    HW216176   4.176   3.461   4.177
 5093SOL     OW16177   3.043   2.198   3.342
 5093SOL    HW116178   3.110   2.135   3.383
 5093SOL    HW216179   2.990   2.243   3.414
 5094SOL     OW16180   2.262   5.847   5.049
 5094SOL    HW116181   2.267   5.870   4.952
 5094SOL    HW216182   2.352   5.861   5.091
 5095SOL     OW16183   0.115   1.365   3.357
 5095SOL    HW116184   0.204   1.360   3.403
 5095SOL    HW216185   0.085   1.460   3.352
 5096SOL     OW16186   6.610   3.235   6.029
 5096SOL    HW116187   6.652   3.284   5.953
 5096SOL    HW216188   6.655   3.262   6.115
 5097SOL     OW16189   0.801   1.128   5.554
 5097SOL    HW116190   0.794   1.175   5.466
 5097SOL    HW216191   0.882   1.069   5.554
 5098SOL     OW16192   2.712   2.463   0.437
 5098SOL    HW116193   2.790   2.401   0.427
 5098SOL    HW216194   2.737   2.553   0.403
 5099SOL     OW16195   2.570   5.876   2.322
 5099SOL    HW116196   2.597   5.971   2.310
 5099SOL    HW216197   2.623   5.834   2.396
 5100SOL     OW16198   5.460   3.577   2.274
 5100SOL    HW116199   5.391   3.545   2.209
 5100SOL    HW216200   5.545   3.527   2.261
 5101SOL     OW16201   3.128   1.383   5.188
 5101SOL    HW116202   3.075   1.434   5.255
 5101SOL    HW216203   3.224   1.381   5.215
 5102SOL     OW16204   5.690   4.537   5.031
 5102SOL    HW116205   5.717   4.631   5.012
 5102SOL    HW216206   5.590   4.530   5.025
 5103SOL     OW16207   0.601   0.497   6.041
 5103SOL    HW116208   0.602   0.518   5.943
 5103SOL    HW216209   0.612   0.399   6.054
 5104SOL     OW16210   4.154   3.474   3.460
 5104SOL    HW116211   4.116   3.385   3.487
 5104SOL    HW216212   4.252   3.464   3.442
 5105SOL     OW16213   4.236   3.302   6.744
 5105SOL    HW116214   4.223   3.398   6.769
 5105SOL    HW216215   4.227   3.245   6.826
 5106SOL     OW16216   3.606   1.517   1.736
 5106SOL    HW116217   3.595   1.507   1.637
 5106SOL    HW216218   3.515   1.522   1.779
 5107SOL     OW16219   6.175   5.396   0.258
 5107SOL    HW116220   6.208   5.440   0.341
 5107SOL    HW216221   6.251   5.383   0.195
 5108SOL     OW16222   3.997   4.383   1.346
 5108SOL    HW116223   4.018   4.447   1.272
 5108SOL    HW216224   4.007   4.289   1.312
 5109SOL     OW16225   1.577   2.818   2.754
 5109SOL    HW116226   1.671   2.846   2.734
 5109SOL    HW216227   1.558   2.833   2.851
 5110SOL     OW16228   4.031   6.695   5.035
 5110SOL    HW116229   3.957   6.729   5.092
 5110SOL    HW216230   4.106   6.662   5.093
 5111SOL     OW16231   1.948   5.619   5.744
 5111SOL    HW116232   2.024   5.678   5.720
 5111SOL    HW216233   1.868   5.675   5.766
 5112SOL     OW16234   1.268   5.489   2.965
 5112SOL    HW116235   1.209   5.410   2.946
 5112SOL    HW216236   1.363   5.465   2.946
 5113SOL     OW16237   2.046   4.041   0.805
 5113SOL    HW116238   2.092   3.955   0.825
 5113SOL    HW216239   1.954   4.022   0.770
 5114SOL     OW16240   4.396   4.457   1.228
 5114SOL    HW116241   4.337   4.476   1.305
 5114SOL    HW216242   4.341   4.435   1.147
 5115SOL     OW16243   1.542   4.307   0.429
 5115SOL    HW116244   1.466   4.339   0.373
 5115SOL    HW216245   1.509   4.239   0.494
 5116SOL     OW16246   0.214   6.680   5.207
 5116SOL    HW116247   0.287   6.612   5.200
 5116SOL    HW216248   0.240   6.763   5.158
 5117SOL     OW16249   0.137   3.184   3.219
 5117SOL    HW116250   0.140   3.253   3.291
 5117SOL    HW216251   0.074   3.214   3.147
 5118SOL     OW16252   3.945   5.561   6.961
 5118SOL    HW116253   3.992   5.650   6.956
 5118SOL    HW216254   3.975   5.513   0.019
 5119SOL     OW16255   5.965   1.435   0.233
 5119SOL    HW116256   5.996   1.474   0.147
 5119SOL    HW216257   6.033   1.369   0.266
 5120SOL     OW16258   5.593   6.646   6.404
 5120SOL    HW116259   5.660   6.572   6.396
 5120SOL    HW216260   5.560   6.671   6.313
 5121SOL     OW16261   1.559   3.190   6.985
 5121SOL    HW116262   1.638   3.128   6.988
 5121SOL    HW216263   1.543   3.218   6.891
 5122SOL     OW16264   4.258   4.697   3.207
 5122SOL    HW116265   4.178   4.659   3.252
 5122SOL    HW216266   4.259   4.796   3.219
 5123SOL     OW16267   4.687   2.293   1.728
 5123SOL    HW116268   4.608   2.315   1.670
 5123SOL    HW216269   4.657   2.239   1.806
 5124SOL     OW16270   0.698   6.260   4.651
 5124SOL    HW116271   0.727   6.178   4.602
 5124SOL    HW216272   0.663   6.328   4.585
 5125SOL     OW16273   6.309   2.253   3.829
 5125SOL    HW116274   6.345   2.212   3.745
 5125SOL    HW216275   6.286   2.181   3.895
 5126SOL     OW16276   2.329   1.186   1.956
 5126SOL    HW116277   2.275   1.263   1.922
 5126SOL    HW216278   2.323   1.110   1.892
 5127SOL     OW16279   2.240   6.429   6.720
 5127SOL    HW116280   2.243   6.331   6.702
 5127SOL    HW216281   2.169   6.448   6.788
 5128SOL     OW16282   4.953   0.046   1.527
 5128SOL    HW116283   4.947   6.987   1.471
 5128SOL    HW216284   4.862   0.075   1.554
 5129SOL     OW16285   6.357   6.088   0.601
 5129SOL    HW116286   6.334   6.179   0.636
 5129SOL    HW216287   6.280   6.026   0.617
 5130SOL     OW16288   5.865   4.712   2.234
 5130SOL    HW116289   5.930   4.731   2.160
 5130SOL    HW216290   5.840   4.615   2.233
 5131SOL     OW16291   2.304   2.712   2.593
 5131SOL    HW116292   2.374   2.654   2.635
 5131SOL    HW216293   2.311   2.805   2.630
 5132SOL     OW16294   2.718   5.765   5.481
 5132SOL    HW116295   2.643   5.830   5.481
 5132SOL    HW216296   2.686   5.676   5.448
 5133SOL     OW16297   3.512   6.291   5.364
 5133SOL    HW116298   3.434   6.271   5.422
 5133SOL    HW216299   3.487   6.360   5.296
 5134SOL     OW16300   6.317   4.178   6.403
 5134SOL    HW116301   6.292   4.115   6.476
 5134SOL    HW216302   6.301   4.135   6.314
 5135SOL     OW16303   6.820   1.683   4.163
 5135SOL    HW116304   6.820   1.651   4.068
 5135SOL    HW216305   6.776   1.773   4.167
 5136SOL     OW16306   3.455   2.399   6.407
 5136SOL    HW116307   3.525   2.409   6.479
 5136SOL    HW216308   3.450   2.303   6.380
 5137SOL     OW16309   3.561   3.408   0.356
 5137SOL    HW116310   3.640   3.359   0.393
 5137SOL    HW216311   3.565   3.408   0.256
 5138SOL     OW16312   2.011   3.535   6.053
 5138SOL    HW116313   2.074   3.611   6.068
 5138SOL    HW216314   1.959   3.550   5.969
 5139SOL     OW16315   0.994   6.996   3.735
 5139SOL    HW116316   1.087   0.007   3.726
 5139SOL    HW216317   0.938   0.005   3.659
 5140SOL     OW16318   2.976   2.812   1.559
 5140SOL    HW116319   2.878   2.805   1.541
 5140SOL    HW216320   2.995   2.900   1.603
 5141SOL     OW16321   0.868   4.262   5.922
 5141SOL    HW116322   0.872   4.175   5.873
 5141SOL    HW216323   0.784   4.311   5.897
 5142SOL     OW16324   5.645   3.273   2.619
 5142SOL    HW116325   5.618   3.178   2.605
 5142SOL    HW216326   5.631   3.299   2.714
 5143SOL     OW16327   0.164   5.269   5.127
 5143SOL    HW116328   0.174   5.221   5.040
 5143SOL    HW216329   0.148   5.366   5.109
 5144SOL     OW16330   1.899   1.886   4.952
 5144SOL    HW116331   1.938   1.863   4.863
 5144SOL    HW216332   1.877   1.802   5.002
 5145SOL     OW16333   3.356   5.205   5.903
 5145SOL    HW116334   3.417   5.174   5.976
 5145SOL    HW216335   3.410   5.240   5.827
 5146SOL     OW16336   2.716   4.664   0.172
 5146SOL    HW116337   2.731   4.584   0.230
 5146SOL    HW216338   2.714   4.747   0.229
 5147SOL     OW16339   0.012   5.282   6.420
 5147SOL    HW116340   7.017   5.316   6.328
 5147SOL    HW216341   7.010   5.352   6.487
 5148SOL     OW16342   0.351   0.914   0.663
 5148SOL    HW116343   0.318   1.007   0.682
 5148SOL    HW216344   0.276   0.858   0.630
 5149SOL     OW16345   0.319   0.245   5.764
 5149SOL    HW116346   0.305   0.257   5.862
 5149SOL    HW216347   0.387   0.174   5.748
 5150SOL     OW16348   1.734   5.514   4.917
 5150SOL    HW116349   1.682   5.459   4.981
 5150SOL    HW216350   1.832   5.499   4.932
 5151SOL     OW16351   4.240   1.314   5.597
 5151SOL    HW116352   4.285   1.404   5.599
 5151SOL    HW216353   4.203   1.298   5.505
 5152SOL     OW16354   0.279   4.906   0.446
 5152SOL    HW116355   0.277   4.943   0.353
 5152SOL    HW216356   0.214   4.957   0.503
 5153SOL     OW16357   1.931   2.307   1.144
 5153SOL    HW116358   1.937   2.232   1.079
 5153SOL    HW216359   1.901   2.273   1.233
 5154SOL     OW16360   1.667   4.633   4.940
 5154SOL    HW116361   1.622   4.714   4.979
 5154SOL    HW216362   1.694   4.571   5.014
 5155SOL     OW16363   3.606   0.614   3.048
 5155SOL    HW116364   3.558   0.527   3.062
 5155SOL    HW216365   3.705   0.600   3.056
 5156SOL     OW16366   5.359   2.978   5.518
 5156SOL    HW116367   5.282   2.919   5.494
 5156SOL    HW216368   5.443   2.924   5.522
 5157SOL     OW16369   6.270   2.258   4.192
 5157SOL    HW116370   6.230   2.187   4.250
 5157SOL    HW216371   6.294   2.218   4.103
 5158SOL     OW16372   3.566   0.651   0.968
 5158SOL    HW116373   3.639   0.593   1.005
 5158SOL    HW216374   3.523   0.702   1.042
 5159SOL     OW16375   2.126   3.315   4.788
 5159SOL    HW116376   2.076   3.342   4.870
 5159SOL    HW216377   2.181   3.234   4.807
 5160SOL     OW16378   2.797   2.268   3.898
 5160SOL    HW116379   2.859   2.197   3.931
 5160SOL    HW216380   2.793   2.342   3.964
 5161SOL     OW16381   2.102   3.129   6.339
 5161SOL    HW116382   2.112   3.218   6.293
 5161SOL    HW216383   2.124   3.056   6.275
 5162SOL     OW16384   6.477   5.273   4.510
 5162SOL    HW116385   6.405   5.312   4.569
 5162SOL    HW216386   6.483   5.327   4.426
 5163SOL     OW16387   5.405   4.244   1.211
 5163SOL    HW116388   5.347   4.212   1.286
 5163SOL    HW216389   5.350   4.256   1.129
 5164SOL     OW16390   6.575   5.851   5.182
 5164SOL    HW116391   6.637   5.805   5.119
 5164SOL    HW216392   6.614   5.938   5.210
 5165SOL     OW16393   5.782   3.724   4.496
 5165SOL    HW116394   5.861   3.666   4.477
 5165SOL    HW216395   5.710   3.706   4.428
 5166SOL     OW16396   1.607   0.250   2.208
 5166SOL    HW116397   1.562   0.281   2.125
 5166SOL    HW216398   1.695   0.298   2.218
 5167SOL     OW16399   2.101   7.023   5.922
 5167SOL    HW116400   2.101   6.933   5.966
 5167SOL    HW216401   2.137   0.067   5.986
 5168SOL     OW16402   3.574   2.106   3.010
 5168SOL    HW116403   3.630   2.025   3.021
 5168SOL    HW216404   3.484   2.080   2.974
 5169SOL     OW16405   4.197   4.175   6.801
 5169SOL    HW116406   4.261   4.151   6.729
 5169SOL    HW216407   4.235   4.249   6.857
 5170SOL     OW16408   4.223   5.112   4.259
 5170SOL    HW116409   4.166   5.135   4.339
 5170SOL    HW216410   4.172   5.048   4.200
 5171SOL     OW16411   2.360   4.618   4.948
 5171SOL    HW116412   2.445   4.610   4.999
 5171SOL    HW216413   2.284   4.589   5.006
 5172SOL     OW16414   1.619   4.679   6.886
 5172SOL    HW116415   1.615   4.679   6.786
 5172SOL    HW216416   1.645   4.588   6.918
 5173SOL     OW16417   0.030   2.520   5.536
 5173SOL    HW116418   0.064   2.576   5.460
 5173SOL    HW216419   6.998   2.445   5.499
 5174SOL     OW16420   2.295   4.946   5.860
 5174SOL    HW116421   2.197   4.964   5.850
 5174SOL    HW216422   2.337   5.020   5.912
 5175SOL     OW16423   0.057   5.787   6.239
 5175SOL    HW116424   0.048   5.786   6.339
 5175SOL    HW216425   0.066   5.694   6.205
 5176SOL     OW16426   5.439   3.757   6.302
 5176SOL    HW116427   5.354   3.719   6.265
 5176SOL    HW216428   5.474   3.827   6.240
 5177SOL     OW16429   5.152   5.469   6.237
 5177SOL    HW116430   5.214   5.522   6.296
 5177SOL    HW216431   5.120   5.527   6.163
 5178SOL     OW16432   2.887   3.403   1.252
 5178SOL    HW116433   2.894   3.482   1.312
 5178SOL    HW216434   2.979   3.364   1.238
 5179SOL     OW16435   3.174   6.628   5.675
 5179SOL    HW116436   3.142   6.564   5.744
 5179SOL    HW216437   3.097   6.660   5.620
 5180SOL     OW16438   3.641   1.869   0.255
 5180SOL    HW116439   3.694   1.797   0.211
 5180SOL    HW216440   3.694   1.954   0.258
 5181SOL     OW16441   2.832   5.835   2.824
 5181SOL    HW116442   2.885   5.904   2.874
 5181SOL    HW216443   2.778   5.782   2.890
 5182SOL     OW16444   4.431   3.908   1.358
 5182SOL    HW116445   4.488   3.975   1.405
 5182SOL    HW216446   4.456   3.903   1.262
 5183SOL     OW16447   3.892   0.759   3.756
 5183SOL    HW116448   3.906   0.852   3.722
 5183SOL    HW216449   3.798   0.731   3.738
 5184SOL     OW16450   1.291   2.191   3.065
 5184SOL    HW116451   1.262   2.231   3.152
 5184SOL    HW216452   1.211   2.172   3.009
 5185SOL     OW16453   3.944   0.088   1.188
 5185SOL    HW116454   4.042   0.074   1.206
 5185SOL    HW216455   3.916   0.177   1.224
 5186SOL     OW16456   4.844   4.245   0.366
 5186SOL    HW116457   4.768   4.311   0.356
 5186SOL    HW216458   4.927   4.284   0.327
 5187SOL     OW16459   4.891   2.164   4.145
 5187SOL    HW116460   4.947   2.089   4.180
 5187SOL    HW216461   4.937   2.207   4.068
 5188SOL     OW16462   0.935   1.807   3.728
 5188SOL    HW116463   0.990   1.891   3.723
 5188SOL    HW216464   0.970   1.740   3.662
 5189SOL     OW16465   4.165   6.282   6.778
 5189SOL    HW116466   4.141   6.356   6.841
 5189SOL    HW216467   4.089   6.218   6.771
 5190SOL     OW16468   2.305   2.500   1.991
 5190SOL    HW116469   2.296   2.437   2.068
 5190SOL    HW216470   2.400   2.504   1.961
 5191SOL     OW16471   5.042   0.012   2.513
 5191SOL    HW116472   4.958   7.018   2.463
 5191SOL    HW216473   5.108   0.058   2.453
 5192SOL     OW16474   6.085   3.825   1.318
 5192SOL    HW116475   6.031   3.755   1.365
 5192SOL    HW216476   6.028   3.871   1.250
 5193SOL     OW16477   4.341   4.846   2.299
 5193SOL    HW116478   4.398   4.770   2.332
 5193SOL    HW216479   4.245   4.827   2.320
 5194SOL     OW16480   5.263   1.327   0.129
 5194SOL    HW116481   5.342   1.368   0.086
 5194SOL    HW216482   5.275   1.327   0.228
 5195SOL     OW16483   6.810   6.930   5.411
 5195SOL    HW116484   6.872   6.950   5.334
 5195SOL    HW216485   6.756   6.849   5.390
 5196SOL     OW16486   6.486   3.790   2.611
 5196SOL    HW116487   6.460   3.701   2.575
 5196SOL    HW216488   6.460   3.796   2.708
 5197SOL     OW16489   3.741   5.629   5.495
 5197SOL    HW116490   3.792   5.713   5.516
 5197SOL    HW216491   3.667   5.650   5.431
 5198SOL     OW16492   3.969   1.523   4.916
 5198SOL    HW116493   3.949   1.502   4.821
 5198SOL    HW216494   3.933   1.451   4.975
 5199SOL     OW16495   6.896   5.745   1.572
 5199SOL    HW116496   6.875   5.801   1.492
 5199SOL    HW216497   6.811   5.724   1.621
 5200SOL     OW16498   6.957   0.329   4.668
 5200SOL    HW116499   0.007   0.361   4.728
 5200SOL    HW216500   6.888   0.281   4.721
 5201SOL     OW16501   5.925   4.781   5.516
 5201SOL    HW116502   6.014   4.739   5.533
 5201SOL    HW216503   5.938   4.876   5.488
 5202SOL     OW16504   3.642   2.460   6.198
 5202SOL    HW116505   3.611   2.519   6.125
 5202SOL    HW216506   3.572   2.454   6.269
 5203SOL     OW16507   1.332   0.646   6.229
 5203SOL    HW116508   1.239   0.613   6.211
 5203SOL    HW216509   1.392   0.569   6.247
 5204SOL     OW16510   2.230   0.865   1.603
 5204SOL    HW116511   2.164   0.915   1.546
 5204SOL    HW216512   2.245   0.774   1.563
 5205SOL     OW16513   6.701   0.230   1.689
 5205SOL    HW116514   6.719   0.328   1.699
 5205SOL    HW216515   6.664   0.212   1.598
 5206SOL     OW16516   0.835   5.146   3.793
 5206SOL    HW116517   0.866   5.195   3.874
 5206SOL    HW216518   0.735   5.153   3.786
 5207SOL     OW16519   5.387   0.030   4.948
 5207SOL    HW116520   5.441   0.040   4.864
 5207SOL    HW216521   5.389   0.115   5.000
 5208SOL     OW16522   0.111   2.066   7.016
 5208SOL    HW116523   0.026   2.029   0.030
 5208SOL    HW216524   0.131   2.154   0.034
 5209SOL     OW16525   5.509   6.521   3.587
 5209SOL    HW116526   5.436   6.452   3.579
 5209SOL    HW216527   5.560   6.505   3.671
 5210SOL     OW16528   5.597   4.444   1.222
 5210SOL    HW116529   5.535   4.366   1.225
 5210SOL    HW216530   5.658   4.436   1.144
 5211SOL     OW16531   5.294   3.108   5.255
 5211SOL    HW116532   5.367   3.138   5.194
 5211SOL    HW216533   5.316   3.016   5.289
 5212SOL     OW16534   6.947   4.231   0.099
 5212SOL    HW116535   0.015   4.234   0.140
 5212SOL    HW216536   6.890   4.301   0.141
 5213SOL     OW16537   3.460   2.911   3.104
 5213SOL    HW116538   3.426   2.928   3.012
 5213SOL    HW216539   3.560   2.916   3.105
 5214SOL     OW16540   5.554   3.487   6.026
 5214SOL    HW116541   5.484   3.557   6.013
 5214SOL    HW216542   5.552   3.423   5.949
 5215SOL     OW16543   0.405   5.500   5.223
 5215SOL    HW116544   0.332   5.565   5.202
 5215SOL    HW216545   0.382   5.450   5.306
 5216SOL     OW16546   6.497   3.666   1.152
 5216SOL    HW116547   6.557   3.744   1.167
 5216SOL    HW216548   6.469   3.664   1.056
 5217SOL     OW16549   4.445   7.001   3.056
 5217SOL    HW116550   4.356   6.987   3.100
 5217SOL    HW216551   4.433   0.033   2.973
 5218SOL     OW16552   5.797   6.673   0.504
 5218SOL    HW116553   5.823   6.754   0.556
 5218SOL    HW216554   5.791   6.595   0.566
 5219SOL     OW16555   3.647   1.717   5.116
 5219SOL    HW116556   3.728   1.659   5.101
 5219SOL    HW216557   3.565   1.662   5.104
 5220SOL     OW16558   1.943   4.878   4.778
 5220SOL    HW116559   1.986   4.943   4.842
 5220SOL    HW216560   1.951   4.785   4.814
 5221SOL     OW16561   5.183   6.035   1.341
 5221SOL    HW116562   5.086   6.016   1.326
 5221SOL    HW216563   5.200   6.132   1.326
 5222SOL     OW16564   6.909   3.712   2.358
 5222SOL    HW116565   6.998   3.754   2.371
 5222SOL    HW216566   6.839   3.769   2.402
 5223SOL     OW16567   6.685   2.751   0.902
 5223SOL    HW116568   6.654   2.675   0.844
 5223SOL    HW216569   6.780   2.773   0.881
 5224SOL     OW16570   1.384   1.595   4.572
 5224SOL    HW116571   1.298   1.598   4.621
 5224SOL    HW216572   1.376   1.532   4.494
 5225SOL     OW16573   6.767   2.476   5.362
 5225SOL    HW116574   6.833   2.410   5.398
 5225SOL    HW216575   6.693   2.489   5.428
 5226SOL     OW16576   0.543   6.408   4.490
 5226SOL    HW116577   0.464   6.348   4.502
 5226SOL    HW216578   0.545   6.443   4.397
 5227SOL     OW16579   1.002   3.101   5.875
 5227SOL    HW116580   1.088   3.126   5.920
 5227SOL    HW216581   1.022   3.064   5.784
 5228SOL     OW16582   1.287   2.064   5.236
 5228SOL    HW116583   1.367   2.103   5.191
 5228SOL    HW216584   1.308   1.971   5.268
 5229SOL     OW16585   3.813   2.181   6.739
 5229SOL    HW116586   3.741   2.206   6.803
 5229SOL    HW216587   3.781   2.197   6.645
 5230SOL     OW16588   6.374   0.024   1.913
 5230SOL    HW116589   6.473   0.009   1.911
 5230SOL    HW216590   6.338   7.022   2.002
 5231SOL     OW16591   6.351   3.670   2.015
 5231SOL    HW116592   6.450   3.676   2.029
 5231SOL    HW216593   6.314   3.596   2.070
 5232SOL     OW16594   1.627   2.164   5.752
 5232SOL    HW116595   1.609   2.198   5.844
 5232SOL    HW216596   1.567   2.086   5.733
 5233SOL     OW16597   3.322   0.050   3.846
 5233SOL    HW116598   3.385   0.078   3.919
 5233SOL    HW216599   3.229   0.077   3.870
 5234SOL     OW16600   2.920   2.446   6.341
 5234SOL    HW116601   3.012   2.413   6.363
 5234SOL    HW216602   2.853   2.377   6.365
 5235SOL     OW16603   2.537   2.188   1.726
 5235SOL    HW116604   2.594   2.111   1.756
 5235SOL    HW216605   2.593   2.270   1.719
 5236SOL     OW16606   3.354   5.238   2.004
 5236SOL    HW116607   3.436   5.249   2.060
 5236SOL    HW216608   3.290   5.176   2.049
 5237SOL     OW16609   2.018   1.312   2.300
 5237SOL    HW116610   2.019   1.410   2.280
 5237SOL    HW216611   1.955   1.294   2.375
 5238SOL     OW16612   6.881   0.412   2.643
 5238SOL    HW116613   6.826   0.482   2.687
 5238SOL    HW216614   6.832   0.325   2.644
 5239SOL     OW16615   2.544   4.069   1.224
 5239SOL    HW116616   2.469   4.097   1.164
 5239SOL    HW216617   2.628   4.113   1.194
 5240SOL     OW16618   2.206   4.120   6.275
 5240SOL    HW116619   2.171   4.086   6.187
 5240SOL    HW216620   2.140   4.098   6.347
 5241SOL     OW16621   1.985   6.635   3.241
 5241SOL    HW116622   1.885   6.634   3.236
 5241SOL    HW216623   2.014   6.582   3.321
 5242SOL     OW16624   4.085   6.798   5.874
 5242SOL    HW116625   4.013   6.734   5.900
 5242SOL    HW216626   4.162   6.748   5.835
 5243SOL     OW16627   3.162   5.535   3.776
 5243SOL    HW116628   3.117   5.546   3.864
 5243SOL    HW216629   3.241   5.596   3.771
 5244SOL     OW16630   4.492   1.025   6.653
 5244SOL    HW116631   4.468   1.091   6.724
 5244SOL    HW216632   4.475   0.932   6.687
 5245SOL     OW16633   3.044   3.968   2.223
 5245SOL    HW116634   3.072   3.916   2.304
 5245SOL    HW216635   2.976   4.037   2.250
 5246SOL     OW16636   6.098   3.520   6.265
 5246SOL    HW116637   6.169   3.527   6.334
 5246SOL    HW216638   6.136   3.481   6.181
 5247SOL     OW16639   5.024   1.243   5.965
 5247SOL    HW116640   5.005   1.160   5.911
 5247SOL    HW216641   5.034   1.321   5.904
 5248SOL     OW16642   4.733   0.974   3.850
 5248SOL    HW116643   4.795   0.963   3.928
 5248SOL    HW216644   4.782   0.954   3.765
 5249SOL     OW16645   6.815   5.160   1.083
 5249SOL    HW116646   6.852   5.136   1.173
 5249SOL    HW216647   6.737   5.222   1.094
 5250SOL     OW16648   2.208   5.151   0.870
 5250SOL    HW116649   2.233   5.087   0.797
 5250SOL    HW216650   2.243   5.242   0.847
 5251SOL     OW16651   0.454   4.454   6.597
 5251SOL    HW116652   0.451   4.377   6.533
 5251SOL    HW216653   0.522   4.520   6.567
 5252SOL     OW16654   4.049   5.638   2.727
 5252SOL    HW116655   4.047   5.716   2.665
 5252SOL    HW216656   3.987   5.655   2.804
 5253SOL     OW16657   0.392   6.402   4.908
 5253SOL    HW116658   0.447   6.462   4.850
 5253SOL    HW216659   0.436   6.312   4.913
 5254SOL     OW16660   4.491   6.249   2.855
 5254SOL    HW116661   4.483   6.239   2.756
 5254SOL    HW216662   4.580   6.216   2.885
 5255SOL     OW16663   7.016   1.353   5.931
 5255SOL    HW116664   0.003   1.446   5.966
 5255SOL    HW216665   6.922   1.323   5.943
 5256SOL     OW16666   5.056   1.275   2.681
 5256SOL    HW116667   5.026   1.186   2.645
 5256SOL    HW216668   5.041   1.346   2.613
 5257SOL     OW16669   4.825   2.073   6.697
 5257SOL    HW116670   4.839   1.976   6.681
 5257SOL    HW216671   4.727   2.092   6.707
 5258SOL     OW16672   4.964   1.658   5.171
 5258SOL    HW116673   5.050   1.703   5.150
 5258SOL    HW216674   4.963   1.567   5.129
 5259SOL     OW16675   5.438   5.842   4.165
 5259SOL    HW116676   5.385   5.927   4.161
 5259SOL    HW216677   5.383   5.767   4.128
 5260SOL     OW16678   2.095   5.852   1.486
 5260SOL    HW116679   2.156   5.860   1.564
 5260SOL    HW216680   2.048   5.764   1.489
 5261SOL     OW16681   6.215   4.873   0.081
 5261SOL    HW116682   6.209   4.809   0.004
 5261SOL    HW216683   6.181   4.962   0.052
 5262SOL     OW16684   1.646   1.841   1.865
 5262SOL    HW116685   1.609   1.934   1.862
 5262SOL    HW216686   1.575   1.778   1.897
 5263SOL     OW16687   1.768   6.030   3.183
 5263SOL    HW116688   1.830   5.968   3.136
 5263SOL    HW216689   1.790   6.032   3.281
 5264SOL     OW16690   0.124   2.922   2.102
 5264SOL    HW116691   0.063   2.988   2.147
 5264SOL    HW216692   0.197   2.895   2.166
 5265SOL     OW16693   6.744   6.282   5.632
 5265SOL    HW116694   6.684   6.345   5.682
 5265SOL    HW216695   6.690   6.205   5.597
 5266SOL     OW16696   1.512   7.000   6.095
 5266SOL    HW116697   1.572   6.948   6.156
 5266SOL    HW216698   1.526   6.968   6.001
 5267SOL     OW16699   5.648   1.655   4.411
 5267SOL    HW116700   5.615   1.746   4.386
 5267SOL    HW216701   5.572   1.589   4.406
 5268SOL     OW16702   5.289   0.408   5.974
 5268SOL    HW116703   5.224   0.347   6.019
 5268SOL    HW216704   5.277   0.402   5.875
 5269SOL     OW16705   1.469   0.281   4.522
 5269SOL    HW116706   1.482   0.311   4.617
 5269SOL    HW216707   1.506   0.351   4.461
 5270SOL     OW16708   0.803   2.175   6.141
 5270SOL    HW116709   0.831   2.083   6.114
 5270SOL    HW216710   0.877   2.240   6.120
 5271SOL     OW16711   1.367   5.706   4.682
 5271SOL    HW116712   1.405   5.745   4.765
 5271SOL    HW216713   1.331   5.614   4.701
 5272SOL     OW16714   4.336   0.623   6.564
 5272SOL    HW116715   4.343   0.524   6.549
 5272SOL    HW216716   4.290   0.665   6.486
 5273SOL     OW16717   2.809   1.401   2.935
 5273SOL    HW116718   2.797   1.329   2.867
 5273SOL    HW216719   2.837   1.485   2.889
 5274SOL     OW16720   5.714   4.866   1.400
 5274SOL    HW116721   5.678   4.795   1.462
 5274SOL    HW216722   5.759   4.822   1.323
 5275SOL     OW16723   4.989   1.655   6.022
 5275SOL    HW116724   5.046   1.593   5.968
 5275SOL    HW216725   5.004   1.749   5.993
 5276SOL     OW16726   3.891   6.428   1.738
 5276SOL    HW116727   3.965   6.433   1.672
 5276SOL    HW216728   3.866   6.332   1.753
 5277SOL     OW16729   2.205   3.202   1.853
 5277SOL    HW116730   2.249   3.283   1.890
 5277SOL    HW216731   2.107   3.203   1.875
 5278SOL     OW16732   3.481   3.159   2.337
 5278SOL    HW116733   3.488   3.074   2.286
 5278SOL    HW216734   3.525   3.148   2.426
 5279SOL     OW16735   1.819   5.863   2.795
 5279SOL    HW116736   1.796   5.863   2.698
 5279SOL    HW216737   1.911   5.900   2.807
 5280SOL     OW16738   4.071   1.140   4.540
 5280SOL    HW116739   4.048   1.101   4.630
 5280SOL    HW216740   4.013   1.098   4.471
 5281SOL     OW16741   6.882   2.192   3.762
 5281SOL    HW116742   6.978   2.204   3.734
 5281SOL    HW216743   6.855   2.096   3.749
 5282SOL     OW16744   4.965   2.204   1.200
 5282SOL    HW116745   4.921   2.293   1.192
 5282SOL    HW216746   4.900   2.132   1.174
 5283SOL     OW16747   4.569   4.431   6.025
 5283SOL    HW116748   4.633   4.507   6.014
 5283SOL    HW216749   4.613   4.345   6.000
 5284SOL     OW16750   4.813   3.001   4.115
 5284SOL    HW116751   4.793   3.043   4.026
 5284SOL    HW216752   4.907   2.966   4.115
 5285SOL     OW16753   4.139   6.320   2.483
 5285SOL    HW116754   4.057   6.294   2.431
 5285SOL    HW216755   4.164   6.414   2.461
 5286SOL     OW16756   2.156   4.997   1.944
 5286SOL    HW116757   2.090   5.010   2.018
 5286SOL    HW216758   2.184   5.087   1.910
 5287SOL     OW16759   1.068   1.082   2.316
 5287SOL    HW116760   1.073   1.177   2.284
 5287SOL    HW216761   1.053   1.081   2.414
 5288SOL     OW16762   4.378   0.131   1.062
 5288SOL    HW116763   4.460   0.079   1.085
 5288SOL    HW216764   4.314   0.129   1.138
 5289SOL     OW16765   1.318   6.174   1.313
 5289SOL    HW116766   1.343   6.082   1.282
 5289SOL    HW216767   1.317   6.236   1.235
 5290SOL     OW16768   5.663   6.047   7.003
 5290SOL    HW116769   5.631   5.984   0.050
 5290SOL    HW216770   5.763   6.048   7.003
 5291SOL     OW16771   0.814   5.783   0.042
 5291SOL    HW116772   0.833   5.870   7.020
 5291SOL    HW216773   0.794   5.713   6.997
 5292SOL     OW16774   5.119   1.882   0.907
 5292SOL    HW116775   5.122   1.945   0.984
 5292SOL    HW216776   5.024   1.859   0.886
 5293SOL     OW16777   2.141   1.574   4.393
 5293SOL    HW116778   2.118   1.493   4.447
 5293SOL    HW216779   2.068   1.592   4.327
 5294SOL     OW16780   4.078   2.576   6.527
 5294SOL    HW116781   4.120   2.502   6.476
 5294SOL    HW216782   4.009   2.539   6.590
 5295SOL     OW16783   6.668   1.319   2.507
 5295SOL    HW116784   6.686   1.367   2.593
 5295SOL    HW216785   6.612   1.376   2.448
 5296SOL     OW16786   0.332   2.727   6.289
 5296SOL    HW116787   0.374   2.679   6.367
 5296SOL    HW216788   0.352   2.825   6.295
 5297SOL     OW16789   1.136   2.529   2.161
 5297SOL    HW116790   1.186   2.449   2.127
 5297SOL    HW216791   1.039   2.505   2.170
 5298SOL     OW16792   1.344   4.684   1.735
 5298SOL    HW116793   1.432   4.665   1.779
 5298SOL    HW216794   1.350   4.768   1.682
 5299SOL     OW16795   3.436   0.317   0.393
 5299SOL    HW116796   3.475   0.359   0.311
 5299SOL    HW216797   3.499   0.330   0.470
 5300SOL     OW16798   0.074   5.211   3.580
 5300SOL    HW116799   0.156   5.212   3.638
 5300SOL    HW216800   0.026   5.298   3.588
 5301SOL     OW16801   5.480   0.440   6.466
 5301SOL    HW116802   5.461   0.342   6.471
 5301SOL    HW216803   5.452   0.475   6.377
 5302SOL     OW16804   6.712   3.935   4.090
 5302SOL    HW116805   6.645   3.890   4.031
 5302SOL    HW216806   6.733   3.876   4.168
 5303SOL     OW16807   1.773   4.761   3.442
 5303SOL    HW116808   1.675   4.772   3.458
 5303SOL    HW216809   1.823   4.832   3.492
 5304SOL     OW16810   4.517   2.741   5.547
 5304SOL    HW116811   4.545   2.733   5.451
 5304SOL    HW216812   4.447   2.813   5.555
 5305SOL     OW16813   3.278   1.648   4.750
 5305SOL    HW116814   3.184   1.680   4.755
 5305SOL    HW216815   3.307   1.644   4.654
 5306SOL     OW16816   2.567   6.957   4.052
 5306SOL    HW116817   2.512   0.016   4.059
 5306SOL    HW216818   2.657   6.973   4.094
 5307SOL     OW16819   5.127   6.887   0.176
 5307SOL    HW116820   5.114   6.828   0.096
 5307SOL    HW216821   5.107   6.982   0.151
 5308SOL     OW16822   6.287   1.739   1.890
 5308SOL    HW116823   6.359   1.763   1.956
 5308SOL    HW216824   6.265   1.642   1.898
 5309SOL     OW16825   4.122   3.490   5.364
 5309SOL    HW116826   4.133   3.457   5.457
 5309SOL    HW216827   4.175   3.433   5.301
 5310SOL     OW16828   5.243   2.885   0.615
 5310SOL    HW116829   5.324   2.866   0.670
 5310SOL    HW216830   5.181   2.806   0.617
 5311SOL     OW16831   0.010   6.475   0.093
 5311SOL    HW116832   0.065   6.391   0.101
 5311SOL    HW216833   0.036   6.539   0.165
 5312SOL     OW16834   0.459   3.157   1.437
 5312SOL    HW116835   0.419   3.122   1.522
 5312SOL    HW216836   0.557   3.137   1.436
 5313SOL     OW16837   0.156   6.329   0.506
 5313SOL    HW116838   0.061   6.358   0.514
 5313SOL    HW216839   0.200   6.377   0.431
 5314SOL     OW16840   3.550   5.311   1.187
 5314SOL    HW116841   3.531   5.227   1.238
 5314SOL    HW216842   3.499   5.387   1.227
 5315SOL     OW16843   5.821   1.384   1.956
 5315SOL    HW116844   5.800   1.463   1.898
 5315SOL    HW216845   5.897   1.408   2.017
 5316SOL     OW16846   5.260   5.558   4.581
 5316SOL    HW116847   5.357   5.561   4.608
 5316SOL    HW216848   5.245   5.478   4.523
 5317SOL     OW16849   6.514   5.116   2.037
 5317SOL    HW116850   6.487   5.186   1.972
 5317SOL    HW216851   6.466   5.031   2.016
 5318SOL     OW16852   6.978   2.641   3.338
 5318SOL    HW116853   6.986   2.576   3.262
 5318SOL    HW216854   6.913   2.606   3.405
 5319SOL     OW16855   3.255   6.320   3.183
 5319SOL    HW116856   3.221   6.252   3.248
 5319SOL    HW216857   3.293   6.272   3.103
 5320SOL     OW16858   6.892   2.860   6.741
 5320SOL    HW116859   6.977   2.901   6.773
 5320SOL    HW216860   6.826   2.932   6.721
 5321SOL     OW16861   2.769   4.299   6.397
 5321SOL    HW116862   2.691   4.275   6.455
 5321SOL    HW216863   2.850   4.249   6.428
 5322SOL     OW16864   2.270   5.750   0.474
 5322SOL    HW116865   2.331   5.673   0.456
 5322SOL    HW216866   2.320   5.821   0.524
 5323SOL     OW16867   5.508   3.040   0.206
 5323SOL    HW116868   5.415   3.021   0.236
 5323SOL    HW216869   5.572   3.007   0.276
 5324SOL     OW16870   4.557   3.196   1.423
 5324SOL    HW116871   4.504   3.252   1.359
 5324SOL    HW216872   4.503   3.115   1.449
 5325SOL     OW16873   3.295   6.453   5.500
 5325SOL    HW116874   3.364   6.458   5.572
 5325SOL    HW216875   3.215   6.506   5.527
 5326SOL     OW16876   0.274   0.539   2.394
 5326SOL    HW116877   0.180   0.543   2.427
 5326SOL    HW216878   0.337   0.554   2.470
 5327SOL     OW16879   6.312   0.523   4.076
 5327SOL    HW116880   6.261   0.608   4.069
 5327SOL    HW216881   6.331   0.504   4.173
 5328SOL     OW16882   3.266   5.238   7.002
 5328SOL    HW116883   3.280   5.269   0.072
 5328SOL    HW216884   3.321   5.156   6.986
 5329SOL     OW16885   0.597   6.028   6.442
 5329SOL    HW116886   0.569   5.948   6.389
 5329SOL    HW216887   0.597   6.006   6.539
 5330SOL     OW16888   3.970   5.083   0.483
 5330SOL    HW116889   3.887   5.029   0.493
 5330SOL    HW216890   4.046   5.023   0.459
 5331SOL     OW16891   5.736   1.441   6.534
 5331SOL    HW116892   5.674   1.397   6.469
 5331SOL    HW216893   5.806   1.493   6.484
 5332SOL     OW16894   6.492   2.818   6.595
 5332SOL    HW116895   6.563   2.811   6.665
 5332SOL    HW216896   6.505   2.747   6.526
 5333SOL     OW16897   1.295   0.054   3.977
 5333SOL    HW116898   1.349   0.137   3.968
 5333SOL    HW216899   1.248   0.034   3.891
 5334SOL     OW16900   3.036   6.177   1.460
 5334SOL    HW116901   3.087   6.116   1.400
 5334SOL    HW216902   2.995   6.124   1.535
 5335SOL     OW16903   0.098   5.091   1.961
 5335SOL    HW116904   0.129   5.050   2.047
 5335SOL    HW216905   0.059   5.181   1.979
 5336SOL     OW16906   1.621   3.478   5.019
 5336SOL    HW116907   1.696   3.461   5.083
 5336SOL    HW216908   1.542   3.422   5.045
 5337SOL     OW16909   6.582   3.029   0.625
 5337SOL    HW116910   6.564   2.951   0.565
 5337SOL    HW216911   6.533   3.016   0.712
 5338SOL     OW16912   0.120   3.581   0.587
 5338SOL    HW116913   0.115   3.531   0.500
 5338SOL    HW216914   0.109   3.517   0.663
 5339SOL     OW16915   5.678   2.808   3.215
 5339SOL    HW116916   5.669   2.733   3.149
 5339SOL    HW216917   5.774   2.815   3.244
 5340SOL     OW16918   4.939   3.354   1.172
 5340SOL    HW116919   5.000   3.303   1.112
 5340SOL    HW216920   4.927   3.306   1.258
 5341SOL     OW16921   4.901   4.645   3.611
 5341SOL    HW116922   4.888   4.701   3.692
 5341SOL    HW216923   4.844   4.681   3.536
 5342SOL     OW16924   6.216   6.014   5.026
 5342SOL    HW116925   6.182   6.043   4.937
 5342SOL    HW216926   6.141   5.972   5.078
 5343SOL     OW16927   3.608   3.492   6.720
 5343SOL    HW116928   3.644   3.552   6.792
 5343SOL    HW216929   3.683   3.463   6.662
 5344SOL     OW16930   6.456   2.191   6.715
 5344SOL    HW116931   6.383   2.128   6.742
 5344SOL    HW216932   6.538   2.139   6.692
 5345SOL     OW16933   3.144   1.861   0.370
 5345SOL    HW116934   3.117   1.795   0.301
 5345SOL    HW216935   3.129   1.823   0.461
 5346SOL     OW16936   2.370   6.538   3.496
 5346SOL    HW116937   2.398   6.447   3.465
 5346SOL    HW216938   2.428   6.565   3.573
 5347SOL     OW16939   5.911   1.602   5.383
 5347SOL    HW116940   5.940   1.530   5.445
 5347SOL    HW216941   5.971   1.682   5.394
 5348SOL     OW16942   4.786   2.927   5.573
 5348SOL    HW116943   4.781   2.959   5.478
 5348SOL    HW216944   4.714   2.860   5.590
 5349SOL     OW16945   0.611   4.208   0.618
 5349SOL    HW116946   0.654   4.184   0.531
 5349SOL    HW216947   0.621   4.132   0.682
 5350SOL     OW16948   1.014   6.674   6.442
 5350SOL    HW116949   1.039   6.579   6.424
 5350SOL    HW216950   1.052   6.733   6.369
 5351SOL     OW16951   0.197   5.808   3.727
 5351SOL    HW116952   0.237   5.734   3.674
 5351SOL    HW216953   0.205   5.894   3.676
 5352SOL     OW16954   1.030   2.579   6.183
 5352SOL    HW116955   0.941   2.535   6.175
 5352SOL    HW216956   1.042   2.614   6.276
 5353SOL     OW16957   2.988   6.629   3.760
 5353SOL    HW116958   3.081   6.666   3.766
 5353SOL    HW216959   2.966   6.582   3.846
 5354SOL     OW16960   3.893   5.795   2.053
 5354SOL    HW116961   3.932   5.754   1.971
 5354SOL    HW216962   3.965   5.811   2.121
 5355SOL     OW16963   5.422   5.287   5.414
 5355SOL    HW116964   5.464   5.373   5.445
 5355SOL    HW216965   5.437   5.216   5.483
 5356SOL     OW16966   0.830   0.056   1.502
 5356SOL    HW116967   0.866   6.988   1.518
 5356SOL    HW216968   0.735   0.061   1.533
 5357SOL     OW16969   6.259   3.426   2.750
 5357SOL    HW116970   6.307   3.447   2.665
 5357SOL    HW216971   6.248   3.327   2.758
 5358SOL     OW16972   6.192   1.508   6.529
 5358SOL    HW116973   6.139   1.552   6.455
 5358SOL    HW216974   6.287   1.538   6.525
 5359SOL     OW16975   2.551   2.634   6.667
 5359SOL    HW116976   2.478   2.673   6.724
 5359SOL    HW216977   2.530   2.538   6.648
 5360SOL     OW16978   5.812   5.606   3.448
 5360SOL    HW116979   5.830   5.700   3.478
 5360SOL    HW216980   5.736   5.606   3.383
 5361SOL     OW16981   1.744   3.766   2.902
 5361SOL    HW116982   1.813   3.837   2.913
 5361SOL    HW216983   1.779   3.679   2.938
 5362SOL     OW16984   6.236   1.215   4.159
 5362SOL    HW116985   6.164   1.282   4.145
 5362SOL    HW216986   6.231   1.179   4.253
 5363SOL     OW16987   6.135   5.324   4.450
 5363SOL    HW116988   6.106   5.229   4.463
 5363SOL    HW216989   6.167   5.337   4.356
 5364SOL     OW16990   4.369   2.232   1.775
 5364SOL    HW116991   4.402   2.262   1.685
 5364SOL    HW216992   4.426   2.273   1.846
 5365SOL     OW16993   3.506   3.739   5.420
 5365SOL    HW116994   3.469   3.831   5.408
 5365SOL    HW216995   3.509   3.717   5.518
 5366SOL     OW16996   0.441   4.916   3.336
 5366SOL    HW116997   0.500   4.844   3.373
 5366SOL    HW216998   0.465   5.003   3.378
 5367SOL     OW16999   6.182   6.046   1.530
 5367SOL    HW117000   6.244   6.048   1.608
 5367SOL    HW217001   6.233   6.030   1.446
 5368SOL     OW17002   0.504   5.678   4.647
 5368SOL    HW117003   0.493   5.750   4.579
 5368SOL    HW217004   0.573   5.613   4.615
 5369SOL     OW17005   4.263   6.856   2.802
 5369SOL    HW117006   4.272   6.896   2.893
 5369SOL    HW217007   4.175   6.881   2.763
 5370SOL     OW17008   2.672   2.814   0.802
 5370SOL    HW117009   2.701   2.744   0.736
 5370SOL    HW217010   2.694   2.784   0.894
 5371SOL     OW17011   6.267   5.175   3.370
 5371SOL    HW117012   6.319   5.236   3.430
 5371SOL    HW217013   6.224   5.103   3.424
 5372SOL     OW17014   1.398   6.822   4.036
 5372SOL    HW117015   1.498   6.827   4.029
 5372SOL    HW217016   1.358   6.912   4.019
 5373SOL     OW17017   3.728   0.257   7.018
 5373SOL    HW117018   3.809   0.306   0.027
 5373SOL    HW217019   3.692   0.201   0.069
 5374SOL     OW17020   1.114   4.083   1.702
 5374SOL    HW117021   1.184   4.058   1.769
 5374SOL    HW217022   1.143   4.166   1.654
 5375SOL     OW17023   2.557   4.585   5.133
 5375SOL    HW117024   2.547   4.657   5.202
 5375SOL    HW217025   2.651   4.584   5.099
 5376SOL     OW17026   0.879   0.912   1.511
 5376SOL    HW117027   0.950   0.893   1.579
 5376SOL    HW217028   0.921   0.941   1.425
 5377SOL     OW17029   1.214   2.569   2.425
 5377SOL    HW117030   1.172   2.657   2.448
 5377SOL    HW217031   1.224   2.561   2.326
 5378SOL     OW17032   5.671   6.659   3.383
 5378SOL    HW117033   5.697   6.616   3.296
 5378SOL    HW217034   5.586   6.618   3.416
 5379SOL     OW17035   2.722   2.327   4.342
 5379SOL    HW117036   2.687   2.316   4.435
 5379SOL    HW217037   2.802   2.269   4.330
 5380SOL     OW17038   5.216   6.616   1.892
 5380SOL    HW117039   5.152   6.583   1.822
 5380SOL    HW217040   5.263   6.538   1.933
 5381SOL     OW17041   3.139   1.908   2.763
 5381SOL    HW117042   3.140   1.811   2.741
 5381SOL    HW217043   3.190   1.923   2.848
 5382SOL     OW17044   4.920   0.569   2.741
 5382SOL    HW117045   5.008   0.617   2.739
 5382SOL    HW217046   4.911   0.519   2.826
 5383SOL     OW17047   2.613   3.811   5.343
 5383SOL    HW117048   2.548   3.871   5.297
 5383SOL    HW217049   2.649   3.857   5.424
 5384SOL     OW17050   4.973   6.550   6.167
 5384SOL    HW117051   5.001   6.454   6.167
 5384SOL    HW217052   5.040   6.604   6.219
 5385SOL     OW17053   3.601   3.770   0.526
 5385SOL    HW117054   3.637   3.725   0.445
 5385SOL    HW217055   3.649   3.735   0.607
 5386SOL     OW17056   4.500   4.562   3.442
 5386SOL    HW117057   4.565   4.530   3.511
 5386SOL    HW217058   4.412   4.583   3.485
 5387SOL     OW17059   0.801   2.459   3.795
 5387SOL    HW117060   0.730   2.394   3.765
 5387SOL    HW217061   0.882   2.408   3.824
 5388SOL     OW17062   0.086   6.473   3.658
 5388SOL    HW117063   0.132   6.418   3.728
 5388SOL    HW217064   0.078   6.420   3.574
 5389SOL     OW17065   5.550   1.875   4.301
 5389SOL    HW117066   5.461   1.901   4.265
 5389SOL    HW217067   5.599   1.820   4.233
 5390SOL     OW17068   5.912   2.798   3.590
 5390SOL    HW117069   5.860   2.862   3.646
 5390SOL    HW217070   5.999   2.841   3.563
 5391SOL     OW17071   4.351   2.901   1.235
 5391SOL    HW117072   4.403   2.904   1.321
 5391SOL    HW217073   4.387   2.969   1.172
 5392SOL     OW17074   5.156   0.621   4.607
 5392SOL    HW117075   5.149   0.631   4.508
 5392SOL    HW217076   5.132   0.527   4.632
 5393SOL     OW17077   3.877   2.153   3.168
 5393SOL    HW117078   3.841   2.138   3.260
 5393SOL    HW217079   3.801   2.161   3.104
 5394SOL     OW17080   0.206   2.620   2.861
 5394SOL    HW117081   0.248   2.703   2.899
 5394SOL    HW217082   0.167   2.565   2.935
 5395SOL     OW17083   0.024   1.339   1.021
 5395SOL    HW117084   0.007   1.433   0.990
 5395SOL    HW217085   0.121   1.317   1.010
 5396SOL     OW17086   4.648   2.781   0.216
 5396SOL    HW117087   4.585   2.706   0.234
 5396SOL    HW217088   4.660   2.792   0.117
 5397SOL     OW17089   0.298   0.120   2.038
 5397SOL    HW117090   0.314   0.212   2.074
 5397SOL    HW217091   0.372   0.095   1.976
 5398SOL     OW17092   5.911   1.866   3.214
 5398SOL    HW117093   5.840   1.823   3.271
 5398SOL    HW217094   5.971   1.921   3.272
 5399SOL     OW17095   3.005   2.949   0.100
 5399SOL    HW117096   2.949   3.031   0.089
 5399SOL    HW217097   2.968   2.875   0.045
 5400SOL     OW17098   5.838   2.509   1.116
 5400SOL    HW117099   5.759   2.551   1.161
 5400SOL    HW217100   5.876   2.438   1.175
 5401SOL     OW17101   4.971   3.775   1.429
 5401SOL    HW117102   4.882   3.790   1.386
 5401SOL    HW217103   5.006   3.685   1.402
 5402SOL     OW17104   1.490   6.138   1.878
 5402SOL    HW117105   1.411   6.082   1.907
 5402SOL    HW217106   1.465   6.234   1.881
 5403SOL     OW17107   5.930   2.246   5.572
 5403SOL    HW117108   5.879   2.222   5.490
 5403SOL    HW217109   5.867   2.274   5.644
 5404SOL     OW17110   4.532   6.547   0.635
 5404SOL    HW117111   4.554   6.539   0.537
 5404SOL    HW217112   4.564   6.636   0.669
 5405SOL     OW17113   6.951   5.373   6.159
 5405SOL    HW117114   6.917   5.280   6.146
 5405SOL    HW217115   6.886   5.424   6.216
 5406SOL     OW17116   2.139   1.102   5.495
 5406SOL    HW117117   2.165   1.075   5.588
 5406SOL    HW217118   2.080   1.032   5.456
 5407SOL     OW17119   2.515   0.634   2.405
 5407SOL    HW117120   2.519   0.549   2.353
 5407SOL    HW217121   2.420   0.665   2.412
 5408SOL     OW17122   1.610   2.090   4.322
 5408SOL    HW117123   1.530   2.096   4.382
 5408SOL    HW217124   1.691   2.124   4.370
 5409SOL     OW17125   0.661   3.635   2.879
 5409SOL    HW117126   0.703   3.692   2.949
 5409SOL    HW217127   0.699   3.658   2.790
 5410SOL     OW17128   6.366   1.996   0.253
 5410SOL    HW117129   6.311   1.914   0.272
 5410SOL    HW217130   6.394   1.995   0.157
 5411SOL     OW17131   3.423   5.277   1.589
 5411SOL    HW117132   3.431   5.376   1.580
 5411SOL    HW217133   3.329   5.253   1.612
 5412SOL     OW17134   1.460   2.309   6.022
 5412SOL    HW117135   1.557   2.289   6.039
 5412SOL    HW217136   1.414   2.328   6.109
 5413SOL     OW17137   6.750   5.499   5.634
 5413SOL    HW117138   6.773   5.446   5.716
 5413SOL    HW217139   6.829   5.555   5.608
 5414SOL     OW17140   5.610   5.532   6.244
 5414SOL    HW117141   5.629   5.561   6.338
 5414SOL    HW217142   5.578   5.610   6.191
 5415SOL     OW17143   1.693   1.539   6.572
 5415SOL    HW117144   1.627   1.519   6.500
 5415SOL    HW217145   1.782   1.558   6.531
 5416SOL     OW17146   4.000   5.703   6.257
 5416SOL    HW117147   4.074   5.769   6.264
 5416SOL    HW217148   3.961   5.684   6.347
 5417SOL     OW17149   5.657   0.253   2.000
 5417SOL    HW117150   5.576   0.217   1.953
 5417SOL    HW217151   5.739   0.213   1.960
 5418SOL     OW17152   0.636   3.525   5.373
 5418SOL    HW117153   0.621   3.522   5.471
 5418SOL    HW217154   0.691   3.605   5.350
 5419SOL     OW17155   4.157   1.774   6.026
 5419SOL    HW117156   4.216   1.697   6.051
 5419SOL    HW217157   4.152   1.780   5.926
 5420SOL     OW17158   2.311   1.857   1.076
 5420SOL    HW117159   2.340   1.921   1.148
 5420SOL    HW217160   2.368   1.870   0.995
 5421SOL     OW17161   4.256   4.736   1.377
 5421SOL    HW117162   4.349   4.773   1.385
 5421SOL    HW217163   4.254   4.643   1.413
 5422SOL     OW17164   2.721   6.553   3.268
 5422SOL    HW117165   2.626   6.583   3.263
 5422SOL    HW217166   2.758   6.572   3.359
 5423SOL     OW17167   4.140   0.062   2.031
 5423SOL    HW117168   4.043   0.041   2.028
 5423SOL    HW217169   4.160   0.137   1.968
 5424SOL     OW17170   3.753   3.438   5.129
 5424SOL    HW117171   3.682   3.448   5.199
 5424SOL    HW217172   3.756   3.342   5.099
 5425SOL     OW17173   1.120   5.059   5.451
 5425SOL    HW117174   1.138   4.975   5.399
 5425SOL    HW217175   1.201   5.117   5.447
 5426SOL     OW17176   1.031   4.220   0.195
 5426SOL    HW117177   1.009   4.216   0.293
 5426SOL    HW217178   0.950   4.251   0.145
 5427SOL     OW17179   4.227   1.974   6.720
 5427SOL    HW117180   4.189   2.066   6.730
 5427SOL    HW217181   4.174   1.910   6.775
 5428SOL     OW17182   4.280   6.095   2.899
 5428SOL    HW117183   4.343   6.166   2.868
 5428SOL    HW217184   4.315   6.054   2.983
 5429SOL     OW17185   2.329   6.569   4.006
 5429SOL    HW117186   2.326   6.636   4.080
 5429SOL    HW217187   2.240   6.565   3.960
 5430SOL     OW17188   1.536   4.616   5.357
 5430SOL    HW117189   1.518   4.543   5.292
 5430SOL    HW217190   1.587   4.581   5.435
 5431SOL     OW17191   5.125   4.659   1.523
 5431SOL    HW117192   5.189   4.707   1.582
 5431SOL    HW217193   5.158   4.566   1.505
 5432SOL     OW17194   0.417   5.114   6.193
 5432SOL    HW117195   0.422   5.016   6.173
 5432SOL    HW217196   0.351   5.158   6.132
 5433SOL     OW17197   2.565   0.538   1.515
 5433SOL    HW117198   2.595   0.631   1.538
 5433SOL    HW217199   2.628   0.471   1.555
 5434SOL     OW17200   5.201   5.735   4.369
 5434SOL    HW117201   5.231   5.825   4.399
 5434SOL    HW217202   5.198   5.673   4.447
 5435SOL     OW17203   6.461   3.746   6.673
 5435SOL    HW117204   6.407   3.743   6.589
 5435SOL    HW217205   6.401   3.730   6.752
 5436SOL     OW17206   1.469   4.184   1.936
 5436SOL    HW117207   1.554   4.202   1.886
 5436SOL    HW217208   1.404   4.258   1.921
 5437SOL     OW17209   3.736   6.616   6.505
 5437SOL    HW117210   3.752   6.715   6.498
 5437SOL    HW217211   3.663   6.599   6.572
 5438SOL     OW17212   5.593   6.868   2.735
 5438SOL    HW117213   5.566   6.804   2.662
 5438SOL    HW217214   5.531   6.946   2.736
 5439SOL     OW17215   1.526   3.680   1.586
 5439SOL    HW117216   1.620   3.656   1.563
 5439SOL    HW217217   1.525   3.767   1.636
 5440SOL     OW17218   6.467   0.006   4.315
 5440SOL    HW117219   6.518   7.019   4.229
 5440SOL    HW217220   6.431   0.099   4.322
 5441SOL     OW17221   5.673   1.481   4.946
 5441SOL    HW117222   5.693   1.394   4.901
 5441SOL    HW217223   5.683   1.470   5.045
 5442SOL     OW17224   2.535   0.219   6.416
 5442SOL    HW117225   2.438   0.243   6.405
 5442SOL    HW217226   2.565   0.241   6.508
 5443SOL     OW17227   5.794   0.825   3.693
 5443SOL    HW117228   5.767   0.729   3.695
 5443SOL    HW217229   5.886   0.833   3.653
 5444SOL     OW17230   1.060   0.881   6.023
 5444SOL    HW117231   0.970   0.880   6.067
 5444SOL    HW217232   1.103   0.792   6.035
 5445SOL     OW17233   5.972   6.588   5.338
 5445SOL    HW117234   6.022   6.675   5.338
 5445SOL    HW217235   5.876   6.605   5.314
 5446SOL     OW17236   1.527   5.116   5.583
 5446SOL    HW117237   1.484   5.107   5.672
 5446SOL    HW217238   1.586   5.037   5.566
 5447SOL     OW17239   6.433   1.878   1.339
 5447SOL    HW117240   6.531   1.870   1.356
 5447SOL    HW217241   6.383   1.867   1.425
 5448SOL     OW17242   6.626   4.634   1.575
 5448SOL    HW117243   6.626   4.549   1.523
 5448SOL    HW217244   6.647   4.615   1.671
 5449SOL     OW17245   2.166   0.249   2.326
 5449SOL    HW117246   2.171   0.155   2.293
 5449SOL    HW217247   2.242   0.268   2.387
 5450SOL     OW17248   4.603   5.643   1.670
 5450SOL    HW117249   4.699   5.632   1.695
 5450SOL    HW217250   4.596   5.672   1.575
 5451SOL     OW17251   0.763   6.220   3.887
 5451SOL    HW117252   0.732   6.307   3.925
 5451SOL    HW217253   0.688   6.154   3.888
 5452SOL     OW17254   1.918   3.975   2.816
 5452SOL    HW117255   1.994   3.921   2.782
 5452SOL    HW217256   1.905   4.055   2.758
 5453SOL     OW17257   6.048   5.019   4.560
 5453SOL    HW117258   6.066   5.082   4.635
 5453SOL    HW217259   5.981   5.059   4.498
 5454SOL     OW17260   5.968   3.902   2.347
 5454SOL    HW117261   6.048   3.929   2.294
 5454SOL    HW217262   5.997   3.855   2.430
 5455SOL     OW17263   2.173   2.091   3.398
 5455SOL    HW117264   2.259   2.129   3.431
 5455SOL    HW217265   2.133   2.152   3.330
 5456SOL     OW17266   5.424   2.356   0.821
 5456SOL    HW117267   5.466   2.331   0.734
 5456SOL    HW217268   5.492   2.344   0.894
 5457SOL     OW17269   6.644   1.952   0.289
 5457SOL    HW117270   6.546   1.944   0.305
 5457SOL    HW217271   6.691   1.971   0.375
 5458SOL     OW17272   5.882   5.188   5.710
 5458SOL    HW117273   5.843   5.160   5.797
 5458SOL    HW217274   5.981   5.175   5.712
 5459SOL     OW17275   2.284   3.557   5.295
 5459SOL    HW117276   2.382   3.566   5.313
 5459SOL    HW217277   2.259   3.618   5.219
 5460SOL     OW17278   0.483   0.799   1.351
 5460SOL    HW117279   0.428   0.866   1.400
 5460SOL    HW217280   0.460   0.707   1.383
 5461SOL     OW17281   6.086   1.851   6.613
 5461SOL    HW117282   6.079   1.800   6.528
 5461SOL    HW217283   6.134   1.797   6.682
 5462SOL     OW17284   5.129   5.187   6.253
 5462SOL    HW117285   5.138   5.286   6.255
 5462SOL    HW217286   5.199   5.148   6.193
 5463SOL     OW17287   2.022   5.304   6.382
 5463SOL    HW117288   2.117   5.333   6.390
 5463SOL    HW217289   1.963   5.384   6.376
 5464SOL     OW17290   2.023   5.652   4.109
 5464SOL    HW117291   1.997   5.556   4.117
 5464SOL    HW217292   2.040   5.674   4.013
 5465SOL     OW17293   0.844   0.664   4.798
 5465SOL    HW117294   0.762   0.629   4.844
 5465SOL    HW217295   0.909   0.589   4.787
 5466SOL     OW17296   4.702   2.423   5.127
 5466SOL    HW117297   4.748   2.459   5.046
 5466SOL    HW217298   4.768   2.416   5.202
 5467SOL     OW17299   6.246   3.086   3.865
 5467SOL    HW117300   6.226   2.988   3.870
 5467SOL    HW217301   6.246   3.125   3.957
 5468SOL     OW17302   0.478   2.382   1.705
 5468SOL    HW117303   0.413   2.314   1.672
 5468SOL    HW217304   0.497   2.366   1.802
 5469SOL     OW17305   4.011   1.726   3.866
 5469SOL    HW117306   3.941   1.719   3.795
 5469SOL    HW217307   3.975   1.688   3.952
 5470SOL     OW17308   3.006   4.875   3.591
 5470SOL    HW117309   3.081   4.860   3.526
 5470SOL    HW217310   3.037   4.854   3.684
 5471SOL     OW17311   5.847   0.404   3.402
 5471SOL    HW117312   5.930   0.363   3.439
 5471SOL    HW217313   5.869   0.458   3.321
 5472SOL     OW17314   2.270   4.207   6.651
 5472SOL    HW117315   2.190   4.147   6.646
 5472SOL    HW217316   2.246   4.299   6.619
 5473SOL     OW17317   2.659   4.798   2.024
 5473SOL    HW117318   2.734   4.732   2.028
 5473SOL    HW217319   2.573   4.752   2.043
 5474SOL     OW17320   1.248   4.995   1.822
 5474SOL    HW117321   1.344   4.987   1.798
 5474SOL    HW217322   1.200   5.043   1.748
 5475SOL     OW17323   1.175   0.818   5.183
 5475SOL    HW117324   1.257   0.807   5.127
 5475SOL    HW217325   1.095   0.788   5.130
 5476SOL     OW17326   2.033   0.641   4.811
 5476SOL    HW117327   2.081   0.596   4.886
 5476SOL    HW217328   2.018   0.737   4.834
 5477SOL     OW17329   2.168   3.484   2.672
 5477SOL    HW117330   2.227   3.545   2.619
 5477SOL    HW217331   2.113   3.429   2.610
 5478SOL     OW17332   6.460   3.488   5.772
 5478SOL    HW117333   6.559   3.499   5.765
 5478SOL    HW217334   6.435   3.394   5.749
 5479SOL     OW17335   5.463   2.983   3.836
 5479SOL    HW117336   5.364   2.971   3.840
 5479SOL    HW217337   5.495   2.969   3.742
 5480SOL     OW17338   1.325   3.229   4.334
 5480SOL    HW117339   1.321   3.274   4.423
 5480SOL    HW217340   1.290   3.291   4.264
 5481SOL     OW17341   4.594   1.528   6.583
 5481SOL    HW117342   4.628   1.593   6.651
 5481SOL    HW217343   4.661   1.516   6.511
 5482SOL     OW17344   5.555   4.160   2.667
 5482SOL    HW117345   5.562   4.064   2.693
 5482SOL    HW217346   5.590   4.217   2.741
 5483SOL     OW17347   6.493   2.637   6.948
 5483SOL    HW117348   6.484   2.539   6.928
 5483SOL    HW217349   6.429   2.662   7.020
 5484SOL     OW17350   6.424   0.687   5.343
 5484SOL    HW117351   6.424   0.589   5.360
 5484SOL    HW217352   6.345   0.711   5.286
 5485SOL     OW17353   3.357   1.080   4.144
 5485SOL    HW117354   3.305   1.062   4.227
 5485SOL    HW217355   3.301   1.058   4.064
 5486SOL     OW17356   1.050   0.451   3.508
 5486SOL    HW117357   1.100   0.406   3.581
 5486SOL    HW217358   0.997   0.526   3.546
 5487SOL     OW17359   4.492   5.391   1.265
 5487SOL    HW117360   4.550   5.345   1.332
 5487SOL    HW217361   4.426   5.450   1.312
 5488SOL     OW17362   5.384   1.245   5.723
 5488SOL    HW117363   5.385   1.345   5.722
 5488SOL    HW217364   5.386   1.213   5.817
 5489SOL     OW17365   0.149   3.848   2.339
 5489SOL    HW117366   0.112   3.882   2.253
 5489SOL    HW217367   0.153   3.922   2.406
 5490SOL     OW17368   3.100   1.962   6.435
 5490SOL    HW117369   3.144   2.008   6.358
 5490SOL    HW217370   3.160   1.888   6.468
 5491SOL     OW17371   0.005   5.391   2.796
 5491SOL    HW117372   6.970   5.344   2.862
 5491SOL    HW217373   6.972   5.438   2.728
 5492SOL     OW17374   0.954   1.373   4.784
 5492SOL    HW117375   0.897   1.452   4.806
 5492SOL    HW217376   1.023   1.399   4.717
 5493SOL     OW17377   3.403   1.833   1.016
 5493SOL    HW117378   3.431   1.831   0.920
 5493SOL    HW217379   3.320   1.778   1.028
 5494SOL     OW17380   5.380   2.953   2.670
 5494SOL    HW117381   5.476   2.942   2.643
 5494SOL    HW217382   5.374   3.020   2.744
 5495SOL     OW17383   3.924   3.008   3.905
 5495SOL    HW117384   3.873   3.075   3.853
 5495SOL    HW217385   3.877   2.919   3.901
 5496SOL     OW17386   4.960   5.688   1.916
 5496SOL    HW117387   4.907   5.647   1.841
 5496SOL    HW217388   5.053   5.706   1.884
 5497SOL     OW17389   5.622   0.144   0.832
 5497SOL    HW117390   5.597   0.103   0.744
 5497SOL    HW217391   5.706   0.197   0.822
 5498SOL     OW17392   4.812   1.328   4.466
 5498SOL    HW117393   4.719   1.305   4.439
 5498SOL    HW217394   4.876   1.297   4.395
 5499SOL     OW17395   0.619   0.752   5.473
 5499SOL    HW117396   0.609   0.752   5.373
 5499SOL    HW217397   0.580   0.836   5.510
 5500SOL     OW17398   1.959   6.665   0.959
 5500SOL    HW117399   1.865   6.694   0.977
 5500SOL    HW217400   1.991   6.606   1.033
 5501SOL     OW17401   3.114   0.504   2.554
 5501SOL    HW117402   3.208   0.486   2.584
 5501SOL    HW217403   3.103   0.474   2.459
 5502SOL     OW17404   4.556   3.510   0.549
 5502SOL    HW117405   4.520   3.442   0.613
 5502SOL    HW217406   4.651   3.487   0.526
 5503SOL     OW17407   0.253   6.816   4.073
 5503SOL    HW117408   0.337   6.767   4.097
 5503SOL    HW217409   0.198   6.760   4.012
 5504SOL     OW17410   2.926   2.231   4.634
 5504SOL    HW117411   2.871   2.310   4.661
 5504SOL    HW217412   2.922   2.221   4.534
 5505SOL     OW17413   3.447   4.565   0.354
 5505SOL    HW117414   3.415   4.515   0.274
 5505SOL    HW217415   3.380   4.634   0.379
 5506SOL     OW17416   0.198   6.495   5.708
 5506SOL    HW117417   0.113   6.445   5.692
 5506SOL    HW217418   0.275   6.430   5.712
 5507SOL     OW17419   3.182   5.180   5.514
 5507SOL    HW117420   3.281   5.193   5.510
 5507SOL    HW217421   3.152   5.130   5.433
 5508SOL     OW17422   1.507   0.641   5.541
 5508SOL    HW117423   1.542   0.672   5.629
 5508SOL    HW217424   1.537   0.705   5.470
 5509SOL     OW17425   6.353   0.218   6.493
 5509SOL    HW117426   6.320   0.213   6.398
 5509SOL    HW217427   6.281   0.190   6.555
 5510SOL     OW17428   6.463   0.836   6.252
 5510SOL    HW117429   6.458   0.830   6.351
 5510SOL    HW217430   6.504   0.753   6.215
 5511SOL     OW17431   0.114   3.006   1.578
 5511SOL    HW117432   0.111   3.045   1.486
 5511SOL    HW217433   0.022   2.976   1.605
 5512SOL     OW17434   6.607   0.620   0.356
 5512SOL    HW117435   6.696   0.638   0.398
 5512SOL    HW217436   6.593   0.521   0.349
 5513SOL     OW17437   2.966   6.205   5.245
 5513SOL    HW117438   2.930   6.204   5.152
 5513SOL    HW217439   2.983   6.111   5.274
 5514SOL     OW17440   6.140   5.566   3.826
 5514SOL    HW117441   6.090   5.574   3.740
 5514SOL    HW217442   6.141   5.471   3.856
 5515SOL     OW17443   6.685   3.769   3.010
 5515SOL    HW117444   6.588   3.760   3.032
 5515SOL    HW217445   6.698   3.838   2.939
 5516SOL     OW17446   1.084   2.196   0.067
 5516SOL    HW117447   1.093   2.247   0.154
 5516SOL    HW217448   0.993   2.157   0.060
 5517SOL     OW17449   2.658   1.207   2.300
 5517SOL    HW117450   2.624   1.116   2.325
 5517SOL    HW217451   2.583   1.273   2.308
 5518SOL     OW17452   5.299   4.224   5.273
 5518SOL    HW117453   5.205   4.242   5.302
 5518SOL    HW217454   5.317   4.271   5.187
 5519SOL     OW17455   5.302   3.923   2.983
 5519SOL    HW117456   5.264   3.873   3.061
 5519SOL    HW217457   5.255   4.011   2.974
 5520SOL     OW17458   2.078   2.655   0.766
 5520SOL    HW117459   2.116   2.563   0.753
 5520SOL    HW217460   2.017   2.654   0.846
 5521SOL     OW17461   5.328   5.338   6.966
 5521SOL    HW117462   5.329   5.250   6.918
 5521SOL    HW217463   5.263   5.399   6.921
 5522SOL     OW17464   1.984   2.369   2.082
 5522SOL    HW117465   2.064   2.324   2.121
 5522SOL    HW217466   1.979   2.350   1.984
 5523SOL     OW17467   3.568   0.467   1.786
 5523SOL    HW117468   3.629   0.471   1.865
 5523SOL    HW217469   3.485   0.417   1.810
 5524SOL     OW17470   5.984   5.829   5.864
 5524SOL    HW117471   5.955   5.883   5.784
 5524SOL    HW217472   6.059   5.877   5.911
 5525SOL     OW17473   6.420   5.597   3.689
 5525SOL    HW117474   6.519   5.604   3.694
 5525SOL    HW217475   6.382   5.602   3.782
 5526SOL     OW17476   5.013   2.887   4.449
 5526SOL    HW117477   5.001   2.975   4.402
 5526SOL    HW217478   4.972   2.814   4.394
 5527SOL     OW17479   1.934   3.550   6.890
 5527SOL    HW117480   1.884   3.533   6.975
 5527SOL    HW217481   1.869   3.557   6.814
 5528SOL     OW17482   6.613   3.427   2.820
 5528SOL    HW117483   6.664   3.463   2.742
 5528SOL    HW217484   6.531   3.483   2.836
 5529SOL     OW17485   1.479   0.856   3.891
 5529SOL    HW117486   1.509   0.820   3.802
 5529SOL    HW217487   1.500   0.789   3.962
 5530SOL     OW17488   6.537   3.076   6.977
 5530SOL    HW117489   6.502   3.036   0.038
 5530SOL    HW217490   6.598   3.152   6.999
 5531SOL     OW17491   2.189   3.297   6.989
 5531SOL    HW117492   2.105   3.262   0.007
 5531SOL    HW217493   2.242   3.221   6.951
 5532SOL     OW17494   2.335   2.001   1.287
 5532SOL    HW117495   2.303   2.072   1.351
 5532SOL    HW217496   2.374   1.925   1.339
 5533SOL     OW17497   3.585   0.269   0.638
 5533SOL    HW117498   3.546   0.329   0.707
 5533SOL    HW217499   3.685   0.273   0.643
 5534SOL     OW17500   0.446   4.153   5.397
 5534SOL    HW117501   0.449   4.218   5.321
 5534SOL    HW217502   0.462   4.202   5.483
 5535SOL     OW17503   5.960   3.728   3.871
 5535SOL    HW117504   6.006   3.761   3.953
 5535SOL    HW217505   5.907   3.646   3.893
 5536SOL     OW17506   3.212   0.698   4.322
 5536SOL    HW117507   3.203   0.625   4.254
 5536SOL    HW217508   3.304   0.695   4.362
 5537SOL     OW17509   4.162   1.086   5.112
 5537SOL    HW117510   4.118   0.996   5.119
 5537SOL    HW217511   4.261   1.075   5.122
 5538SOL     OW17512   5.645   1.966   2.600
 5538SOL    HW117513   5.599   2.036   2.547
 5538SOL    HW217514   5.637   1.878   2.553
 5539SOL     OW17515   2.738   0.075   6.854
 5539SOL    HW117516   2.722   7.002   6.877
 5539SOL    HW217517   2.834   0.087   6.830
 5540SOL     OW17518   5.677   6.964   5.576
 5540SOL    HW117519   5.649   0.012   5.513
 5540SOL    HW217520   5.621   6.969   5.659
 5541SOL     OW17521   4.364   3.453   0.039
 5541SOL    HW117522   4.408   3.502   6.988
 5541SOL    HW217523   4.333   3.364   0.007
 5542SOL     OW17524   4.611   4.687   0.543
 5542SOL    HW117525   4.604   4.715   0.639
 5542SOL    HW217526   4.609   4.587   0.538
 5543SOL     OW17527   1.186   0.422   6.443
 5543SOL    HW117528   1.209   0.507   6.490
 5543SOL    HW217529   1.256   0.354   6.461
 5544SOL     OW17530   3.724   4.966   0.471
 5544SOL    HW117531   3.665   5.020   0.531
 5544SOL    HW217532   3.675   4.884   0.441
 5545SOL     OW17533   5.201   1.079   3.476
 5545SOL    HW117534   5.151   1.014   3.419
 5545SOL    HW217535   5.146   1.162   3.487
 5546SOL     OW17536   0.342   5.071   4.096
 5546SOL    HW117537   0.281   5.025   4.031
 5546SOL    HW217538   0.336   5.024   4.185
 5547SOL     OW17539   4.834   2.500   4.896
 5547SOL    HW117540   4.873   2.592   4.892
 5547SOL    HW217541   4.888   2.439   4.837
 5548SOL     OW17542   0.451   4.329   5.183
 5548SOL    HW117543   0.461   4.271   5.101
 5548SOL    HW217544   0.491   4.419   5.165
 5549SOL     OW17545   3.758   3.153   0.598
 5549SOL    HW117546   3.779   3.138   0.695
 5549SOL    HW217547   3.801   3.238   0.568
 5550SOL     OW17548   2.409   4.154   1.696
 5550SOL    HW117549   2.365   4.206   1.769
 5550SOL    HW217550   2.401   4.056   1.716
 5551SOL     OW17551   2.085   5.131   2.483
 5551SOL    HW117552   2.097   5.035   2.457
 5551SOL    HW217553   2.174   5.177   2.482
 5552SOL     OW17554   1.064   0.154   0.232
 5552SOL    HW117555   1.097   0.230   0.175
 5552SOL    HW217556   0.980   0.181   0.278
 5553SOL     OW17557   5.254   0.242   6.710
 5553SOL    HW117558   5.320   0.190   6.656
 5553SOL    HW217559   5.169   0.190   6.720
 5554SOL     OW17560   6.820   2.342   1.448
 5554SOL    HW117561   6.732   2.360   1.405
 5554SOL    HW217562   6.892   2.346   1.378
 5555SOL     OW17563   1.361   4.847   2.048
 5555SOL    HW117564   1.318   4.898   1.974
 5555SOL    HW217565   1.291   4.791   2.094
 5556SOL     OW17566   0.000   1.147   4.399
 5556SOL    HW117567   6.986   1.123   4.489
 5556SOL    HW217568   0.085   1.198   4.411
 5557SOL     OW17569   4.119   6.304   3.295
 5557SOL    HW117570   4.152   6.398   3.285
 5557SOL    HW217571   4.105   6.264   3.205
 5558SOL     OW17572   4.521   4.060   6.958
 5558SOL    HW117573   4.570   4.107   6.885
 5558SOL    HW217574   4.474   4.127   7.016
 5559SOL     OW17575   3.639   0.668   2.787
 5559SOL    HW117576   3.620   0.639   2.881
 5559SOL    HW217577   3.587   0.751   2.766
 5560SOL     OW17578   0.667   5.396   3.588
 5560SOL    HW117579   0.654   5.300   3.562
 5560SOL    HW217580   0.589   5.427   3.642
 5561SOL     OW17581   4.011   6.754   2.998
 5561SOL    HW117582   4.004   6.677   2.934
 5561SOL    HW217583   3.922   6.796   3.010
 5562SOL     OW17584   3.484   3.647   1.006
 5562SOL    HW117585   3.516   3.739   1.025
 5562SOL    HW217586   3.391   3.650   0.969
 5563SOL     OW17587   2.625   4.670   2.452
 5563SOL    HW117588   2.689   4.639   2.382
 5563SOL    HW217589   2.656   4.758   2.490
 5564SOL     OW17590   4.744   6.910   6.373
 5564SOL    HW117591   4.727   6.811   6.379
 5564SOL    HW217592   4.838   6.930   6.400
 5565SOL     OW17593   3.716   1.496   6.243
 5565SOL    HW117594   3.759   1.439   6.314
 5565SOL    HW217595   3.772   1.494   6.160
 5566SOL     OW17596   1.591   4.386   6.097
 5566SOL    HW117597   1.654   4.409   6.023
 5566SOL    HW217598   1.532   4.311   6.069
 5567SOL     OW17599   0.480   4.660   0.371
 5567SOL    HW117600   0.405   4.718   0.339
 5567SOL    HW217601   0.510   4.691   0.461
 5568SOL     OW17602   4.865   4.696   1.590
 5568SOL    HW117603   4.844   4.732   1.681
 5568SOL    HW217604   4.964   4.702   1.574
 5569SOL     OW17605   2.456   2.531   2.707
 5569SOL    HW117606   2.457   2.526   2.807
 5569SOL    HW217607   2.521   2.464   2.670
 5570SOL     OW17608   6.822   3.742   1.768
 5570SOL    HW117609   6.879   3.754   1.687
 5570SOL    HW217610   6.881   3.722   1.847
 5571SOL     OW17611   6.619   4.755   1.118
 5571SOL    HW117612   6.567   4.669   1.115
 5571SOL    HW217613   6.714   4.735   1.141
 5572SOL     OW17614   1.949   4.069   5.043
 5572SOL    HW117615   1.871   4.026   5.090
 5572SOL    HW217616   2.015   4.101   5.110
 5573SOL     OW17617   3.322   4.941   3.757
 5573SOL    HW117618   3.384   4.922   3.680
 5573SOL    HW217619   3.304   5.039   3.762
 5574SOL     OW17620   0.666   1.979   4.987
 5574SOL    HW117621   0.676   2.024   4.898
 5574SOL    HW217622   0.579   2.006   5.029
 5575SOL     OW17623   0.101   0.111   1.792
 5575SOL    HW117624   0.111   0.190   1.731
 5575SOL    HW217625   0.164   0.121   1.869
 5576SOL     OW17626   1.466   5.142   2.858
 5576SOL    HW117627   1.393   5.157   2.925
 5576SOL    HW217628   1.507   5.052   2.873
 5577SOL     OW17629   1.919   2.666   6.028
 5577SOL    HW117630   1.970   2.699   5.948
 5577SOL    HW217631   1.822   2.688   6.016
 5578SOL     OW17632   3.255   4.100   3.394
 5578SOL    HW117633   3.308   4.163   3.337
 5578SOL    HW217634   3.303   4.084   3.480
 5579SOL     OW17635   6.597   2.927   2.284
 5579SOL    HW117636   6.497   2.923   2.282
 5579SOL    HW217637   6.631   2.881   2.366
 5580SOL     OW17638   5.620   2.225   5.384
 5580SOL    HW117639   5.640   2.312   5.430
 5580SOL    HW217640   5.704   2.187   5.346
 5581SOL     OW17641   1.605   2.475   6.772
 5581SOL    HW117642   1.643   2.450   6.861
 5581SOL    HW217643   1.678   2.510   6.713
 5582SOL     OW17644   2.832   2.749   5.962
 5582SOL    HW117645   2.871   2.661   5.988
 5582SOL    HW217646   2.739   2.757   5.999
 5583SOL     OW17647   5.487   0.020   1.081
 5583SOL    HW117648   5.523   0.056   0.996
 5583SOL    HW217649   5.389   0.041   1.088
 5584SOL     OW17650   1.930   3.369   4.352
 5584SOL    HW117651   1.993   3.302   4.312
 5584SOL    HW217652   1.836   3.337   4.340
 5585SOL     OW17653   5.267   5.293   1.895
 5585SOL    HW117654   5.208   5.300   1.975
 5585SOL    HW217655   5.360   5.319   1.920
 5586SOL     OW17656   0.753   4.724   0.289
 5586SOL    HW117657   0.796   4.773   0.365
 5586SOL    HW217658   0.654   4.722   0.302
 5587SOL     OW17659   6.396   0.752   5.857
 5587SOL    HW117660   6.476   0.737   5.799
 5587SOL    HW217661   6.398   0.846   5.892
 5588SOL     OW17662   3.848   6.852   1.062
 5588SOL    HW117663   3.872   6.937   1.108
 5588SOL    HW217664   3.931   6.804   1.035
 5589SOL     OW17665   5.967   4.954   5.929
 5589SOL    HW117666   5.928   4.876   5.880
 5589SOL    HW217667   6.013   4.922   6.012
 5590SOL     OW17668   6.110   5.352   3.219
 5590SOL    HW117669   6.141   5.270   3.266
 5590SOL    HW217670   6.115   5.338   3.120
 5591SOL     OW17671   5.234   1.151   1.787
 5591SOL    HW117672   5.284   1.212   1.849
 5591SOL    HW217673   5.289   1.071   1.767
 5592SOL     OW17674   0.741   4.281   3.013
 5592SOL    HW117675   0.686   4.276   3.096
 5592SOL    HW217676   0.718   4.365   2.963
 5593SOL     OW17677   0.613   3.839   0.543
 5593SOL    HW117678   0.558   3.818   0.624
 5593SOL    HW217679   0.567   3.803   0.462
 5594SOL     OW17680   6.542   2.038   5.858
 5594SOL    HW117681   6.639   2.044   5.834
 5594SOL    HW217682   6.496   1.976   5.794
 5595SOL     OW17683   1.106   2.136   6.823
 5595SOL    HW117684   1.076   2.195   6.748
 5595SOL    HW217685   1.074   2.174   6.910
 5596SOL     OW17686   3.347   5.993   3.365
 5596SOL    HW117687   3.251   6.011   3.342
 5596SOL    HW217688   3.359   6.002   3.464
 5597SOL     OW17689   5.216   3.210   2.597
 5597SOL    HW117690   5.155   3.235   2.672
 5597SOL    HW217691   5.310   3.209   2.630
 5598SOL     OW17692   5.255   1.302   5.270
 5598SOL    HW117693   5.282   1.292   5.174
 5598SOL    HW217694   5.297   1.228   5.324
 5599SOL     OW17695   1.271   0.401   3.360
 5599SOL    HW117696   1.190   0.438   3.405
 5599SOL    HW217697   1.246   0.367   3.269
 5600SOL     OW17698   1.666   2.593   5.141
 5600SOL    HW117699   1.675   2.508   5.089
 5600SOL    HW217700   1.596   2.651   5.099
 5601SOL     OW17701   2.512   1.048   6.177
 5601SOL    HW117702   2.584   1.021   6.113
 5601SOL    HW217703   2.425   1.057   6.127
 5602SOL     OW17704   1.611   0.871   0.308
 5602SOL    HW117705   1.537   0.861   0.375
 5602SOL    HW217706   1.599   0.804   0.235
 5603SOL     OW17707   5.764   5.137   5.975
 5603SOL    HW117708   5.835   5.070   5.958
 5603SOL    HW217709   5.687   5.093   6.022
 5604SOL     OW17710   5.717   1.469   5.933
 5604SOL    HW117711   5.774   1.504   6.008
 5604SOL    HW217712   5.661   1.392   5.967
 5605SOL     OW17713   1.512   2.416   6.513
 5605SOL    HW117714   1.511   2.397   6.611
 5605SOL    HW217715   1.541   2.511   6.498
 5606SOL     OW17716   5.758   0.134   3.068
 5606SOL    HW117717   5.791   0.079   2.991
 5606SOL    HW217718   5.799   0.101   3.153
 5607SOL     OW17719   5.648   0.513   1.283
 5607SOL    HW117720   5.748   0.510   1.289
 5607SOL    HW217721   5.609   0.510   1.375
 5608SOL     OW17722   3.691   6.777   5.236
 5608SOL    HW117723   3.594   6.798   5.251
 5608SOL    HW217724   3.747   6.851   5.273
 5609SOL     OW17725   1.340   5.243   5.415
 5609SOL    HW117726   1.370   5.323   5.362
 5609SOL    HW217727   1.417   5.205   5.466
 5610SOL     OW17728   4.656   0.212   6.246
 5610SOL    HW117729   4.676   0.294   6.192
 5610SOL    HW217730   4.562   0.218   6.281
 5611SOL     OW17731   2.080   4.509   3.846
 5611SOL    HW117732   2.103   4.440   3.914
 5611SOL    HW217733   1.986   4.541   3.860
 5612SOL     OW17734   2.561   0.257   5.051
 5612SOL    HW117735   2.648   0.222   5.015
 5612SOL    HW217736   2.491   0.252   4.980
 5613SOL     OW17737   3.849   5.197   1.559
 5613SOL    HW117738   3.847   5.284   1.608
 5613SOL    HW217739   3.910   5.205   1.480
 5614SOL     OW17740   4.567   2.324   3.581
 5614SOL    HW117741   4.575   2.416   3.620
 5614SOL    HW217742   4.476   2.287   3.600
 5615SOL     OW17743   1.603   1.340   1.604
 5615SOL    HW117744   1.506   1.318   1.596
 5615SOL    HW217745   1.646   1.334   1.513
 5616SOL     OW17746   2.188   0.056   4.541
 5616SOL    HW117747   2.121   7.019   4.584
 5616SOL    HW217748   2.147   0.100   4.461
 5617SOL     OW17749   0.889   0.512   5.186
 5617SOL    HW117750   0.912   0.504   5.283
 5617SOL    HW217751   0.906   0.606   5.156
 5618SOL     OW17752   6.717   4.276   3.270
 5618SOL    HW117753   6.653   4.261   3.195
 5618SOL    HW217754   6.727   4.374   3.286
 5619SOL     OW17755   2.216   3.746   5.108
 5619SOL    HW117756   2.253   3.839   5.100
 5619SOL    HW217757   2.231   3.697   5.022
 5620SOL     OW17758   3.969   1.691   6.720
 5620SOL    HW117759   4.031   1.614   6.734
 5620SOL    HW217760   3.977   1.755   6.796
 5621SOL     OW17761   2.514   2.071   6.371
 5621SOL    HW117762   2.614   2.062   6.377
 5621SOL    HW217763   2.490   2.167   6.363
 5622SOL     OW17764   5.333   0.787   4.991
 5622SOL    HW117765   5.415   0.808   5.044
 5622SOL    HW217766   5.349   0.808   4.895
 5623SOL     OW17767   0.386   6.194   0.184
 5623SOL    HW117768   0.293   6.206   0.150
 5623SOL    HW217769   0.417   6.101   0.164
 5624SOL     OW17770   0.488   4.064   2.087
 5624SOL    HW117771   0.563   4.031   2.029
 5624SOL    HW217772   0.445   3.987   2.134
 5625SOL     OW17773   6.220   2.316   5.672
 5625SOL    HW117774   6.147   2.303   5.604
 5625SOL    HW217775   6.303   2.270   5.641
 5626SOL     OW17776   4.855   6.594   4.014
 5626SOL    HW117777   4.791   6.538   4.068
 5626SOL    HW217778   4.946   6.589   4.055
 5627SOL     OW17779   0.975   6.475   1.224
 5627SOL    HW117780   0.988   6.438   1.316
 5627SOL    HW217781   0.989   6.574   1.226
 5628SOL     OW17782   1.736   1.599   4.484
 5628SOL    HW117783   1.657   1.538   4.486
 5628SOL    HW217784   1.731   1.659   4.405
 5629SOL     OW17785   3.726   2.923   3.017
 5629SOL    HW117786   3.736   2.887   2.925
 5629SOL    HW217787   3.814   2.957   3.050
 5630SOL     OW17788   6.786   4.072   1.633
 5630SOL    HW117789   6.712   4.006   1.625
 5630SOL    HW217790   6.840   4.073   1.549
 5631SOL     OW17791   5.191   0.739   6.618
 5631SOL    HW117792   5.254   0.773   6.549
 5631SOL    HW217793   5.233   0.661   6.665
 5632SOL     OW17794   3.280   2.988   0.108
 5632SOL    HW117795   3.306   2.922   0.037
 5632SOL    HW217796   3.184   3.014   0.096
 5633SOL     OW17797   6.985   3.141   5.182
 5633SOL    HW117798   6.962   3.176   5.273
 5633SOL    HW217799   0.058   3.115   5.180
 5634SOL     OW17800   5.291   5.813   4.698
 5634SOL    HW117801   5.291   5.723   4.655
 5634SOL    HW217802   5.300   5.803   4.797
 5635SOL     OW17803   3.397   2.039   5.505
 5635SOL    HW117804   3.334   1.962   5.492
 5635SOL    HW217805   3.443   2.029   5.593
 5636SOL     OW17806   3.945   6.021   4.731
 5636SOL    HW117807   4.028   5.981   4.693
 5636SOL    HW217808   3.894   6.067   4.658
 5637SOL     OW17809   6.457   0.210   3.022
 5637SOL    HW117810   6.470   0.287   3.084
 5637SOL    HW217811   6.506   0.130   3.057
 5638SOL     OW17812   5.566   4.003   6.977
 5638SOL    HW117813   5.612   3.980   6.892
 5638SOL    HW217814   5.591   3.936   0.023
 5639SOL     OW17815   3.688   0.628   0.041
 5639SOL    HW117816   3.722   0.585   6.982
 5639SOL    HW217817   3.616   0.694   0.018
 5640SOL     OW17818   1.916   6.974   2.476
 5640SOL    HW117819   1.985   6.903   2.462
 5640SOL    HW217820   1.924   7.010   2.569
 5641SOL     OW17821   6.295   5.838   4.596
 5641SOL    HW117822   6.255   5.919   4.638
 5641SOL    HW217823   6.372   5.806   4.652
 5642SOL     OW17824   1.913   1.786   0.306
 5642SOL    HW117825   1.835   1.800   0.367
 5642SOL    HW217826   1.929   1.688   0.296
 5643SOL     OW17827   5.403   2.136   5.824
 5643SOL    HW117828   5.483   2.082   5.796
 5643SOL    HW217829   5.413   2.163   5.920
 5644SOL     OW17830   2.677   0.573   6.445
 5644SOL    HW117831   2.697   0.506   6.517
 5644SOL    HW217832   2.589   0.552   6.404
 5645SOL     OW17833   5.630   3.928   4.669
 5645SOL    HW117834   5.684   3.874   4.605
 5645SOL    HW217835   5.656   4.024   4.663
 5646SOL     OW17836   1.303   4.459   2.650
 5646SOL    HW117837   1.265   4.465   2.558
 5646SOL    HW217838   1.232   4.428   2.713
 5647SOL     OW17839   6.005   6.684   2.632
 5647SOL    HW117840   5.962   6.733   2.708
 5647SOL    HW217841   6.099   6.714   2.622
 5648SOL     OW17842   4.824   5.754   3.790
 5648SOL    HW117843   4.870   5.842   3.797
 5648SOL    HW217844   4.863   5.702   3.714
 5649SOL     OW17845   1.003   6.521   4.118
 5649SOL    HW117846   1.035   6.549   4.208
 5649SOL    HW217847   1.067   6.555   4.048
 5650SOL     OW17848   6.190   4.343   6.156
 5650SOL    HW117849   6.195   4.296   6.068
 5650SOL    HW217850   6.265   4.312   6.215
 5651SOL     OW17851   2.904   1.149   0.610
 5651SOL    HW117852   2.977   1.083   0.626
 5651SOL    HW217853   2.938   1.224   0.553
 5652SOL     OW17854   0.349   5.819   2.870
 5652SOL    HW117855   0.372   5.887   2.800
 5652SOL    HW217856   0.254   5.832   2.900
 5653SOL     OW17857   0.002   0.416   2.145
 5653SOL    HW117858   6.984   0.400   2.234
 5653SOL    HW217859   6.990   0.350   2.079
 5654SOL     OW17860   2.928   6.034   4.991
 5654SOL    HW117861   3.016   6.059   4.950
 5654SOL    HW217862   2.855   6.059   4.927
 5655SOL     OW17863   5.268   2.811   5.161
 5655SOL    HW117864   5.326   2.890   5.145
 5655SOL    HW217865   5.278   2.746   5.086
 5656SOL     OW17866   6.554   3.606   7.012
 5656SOL    HW117867   6.488   3.536   0.016
 5656SOL    HW217868   6.587   3.656   0.068
 5657SOL     OW17869   4.959   5.525   4.857
 5657SOL    HW117870   5.015   5.541   4.939
 5657SOL    HW217871   4.992   5.584   4.783
 5658SOL     OW17872   2.497   2.926   5.577
 5658SOL    HW117873   2.441   2.877   5.510
 5658SOL    HW217874   2.487   3.024   5.563
 5659SOL     OW17875   2.580   4.185   6.565
 5659SOL    HW117876   2.634   4.137   6.634
 5659SOL    HW217877   2.501   4.228   6.608
 5660SOL     OW17878   4.354   0.492   5.551
 5660SOL    HW117879   4.392   0.464   5.639
 5660SOL    HW217880   4.362   0.592   5.542
 5661SOL     OW17881   0.877   5.795   6.012
 5661SOL    HW117882   0.956   5.733   6.011
 5661SOL    HW217883   0.796   5.745   6.043
 5662SOL     OW17884   3.038   6.544   1.128
 5662SOL    HW117885   2.976   6.474   1.163
 5662SOL    HW217886   3.061   6.608   1.201
 5663SOL     OW17887   1.272   3.203   5.877
 5663SOL    HW117888   1.352   3.147   5.856
 5663SOL    HW217889   1.238   3.244   5.792
 5664SOL     OW17890   4.547   4.726   4.659
 5664SOL    HW117891   4.519   4.804   4.715
 5664SOL    HW217892   4.647   4.726   4.649
 5665SOL     OW17893   1.721   1.497   0.907
 5665SOL    HW117894   1.656   1.565   0.871
 5665SOL    HW217895   1.770   1.537   0.985
 5666SOL     OW17896   6.232   2.780   4.949
 5666SOL    HW117897   6.187   2.831   5.022
 5666SOL    HW217898   6.208   2.821   4.860
 5667SOL     OW17899   2.507   4.771   3.963
 5667SOL    HW117900   2.586   4.823   3.930
 5667SOL    HW217901   2.530   4.727   4.050
 5668SOL     OW17902   4.823   4.005   3.905
 5668SOL    HW117903   4.906   3.956   3.931
 5668SOL    HW217904   4.788   4.055   3.983
 5669SOL     OW17905   5.294   4.261   6.089
 5669SOL    HW117906   5.249   4.303   6.011
 5669SOL    HW217907   5.386   4.232   6.063
 5670SOL     OW17908   1.588   2.696   3.642
 5670SOL    HW117909   1.684   2.709   3.667
 5670SOL    HW217910   1.543   2.638   3.711
 5671SOL     OW17911   6.942   5.020   3.673
 5671SOL    HW117912   7.017   5.086   3.668
 5671SOL    HW217913   6.923   4.984   3.582
 5672SOL     OW17914   5.116   3.483   4.633
 5672SOL    HW117915   5.053   3.453   4.705
 5672SOL    HW217916   5.162   3.403   4.594
 5673SOL     OW17917   0.888   1.855   0.451
 5673SOL    HW117918   0.924   1.850   0.358
 5673SOL    HW217919   0.820   1.783   0.465
 5674SOL     OW17920   2.393   4.933   5.067
 5674SOL    HW117921   2.328   4.861   5.090
 5674SOL    HW217922   2.387   4.952   4.969
 5675SOL     OW17923   2.655   2.248   1.091
 5675SOL    HW117924   2.562   2.228   1.058
 5675SOL    HW217925   2.676   2.344   1.073
 5676SOL     OW17926   3.392   1.500   1.938
 5676SOL    HW117927   3.480   1.459   1.963
 5676SOL    HW217928   3.332   1.503   2.018
 5677SOL     OW17929   0.434   1.490   6.351
 5677SOL    HW117930   0.427   1.504   6.450
 5677SOL    HW217931   0.393   1.568   6.303
 5678SOL     OW17932   3.429   2.046   2.180
 5678SOL    HW117933   3.429   2.086   2.272
 5678SOL    HW217934   3.485   2.102   2.119
 5679SOL     OW17935   6.925   4.211   5.465
 5679SOL    HW117936   6.865   4.168   5.397
 5679SOL    HW217937   7.009   4.157   5.474
 5680SOL     OW17938   0.705   5.723   5.213
 5680SOL    HW117939   0.786   5.714   5.270
 5680SOL    HW217940   0.644   5.645   5.230
 5681SOL     OW17941   1.033   3.816   3.651
 5681SOL    HW117942   1.123   3.856   3.635
 5681SOL    HW217943   1.035   3.719   3.624
 5682SOL     OW17944   1.772   4.401   1.283
 5682SOL    HW117945   1.853   4.459   1.271
 5682SOL    HW217946   1.776   4.324   1.219
 5683SOL     OW17947   6.545   0.216   6.121
 5683SOL    HW117948   6.446   0.227   6.113
 5683SOL    HW217949   6.590   0.304   6.106
 5684SOL     OW17950   2.246   3.045   4.825
 5684SOL    HW117951   2.271   3.033   4.921
 5684SOL    HW217952   2.282   2.969   4.771
 5685SOL     OW17953   2.591   1.936   2.003
 5685SOL    HW117954   2.600   1.853   1.948
 5685SOL    HW217955   2.678   1.986   2.004
 5686SOL     OW17956   4.704   5.359   5.487
 5686SOL    HW117957   4.760   5.408   5.554
 5686SOL    HW217958   4.693   5.415   5.405
 5687SOL     OW17959   1.977   6.672   6.357
 5687SOL    HW117960   1.980   6.595   6.421
 5687SOL    HW217961   1.890   6.672   6.309
 5688SOL     OW17962   2.029   2.114   2.961
 5688SOL    HW117963   2.066   2.023   2.939
 5688SOL    HW217964   2.036   2.130   3.059
 5689SOL     OW17965   0.528   2.367   1.410
 5689SOL    HW117966   0.542   2.339   1.505
 5689SOL    HW217967   0.599   2.327   1.352
 5690SOL     OW17968   2.579   5.161   6.836
 5690SOL    HW117969   2.509   5.091   6.825
 5690SOL    HW217970   2.661   5.120   6.877
 5691SOL     OW17971   4.493   2.238   3.254
 5691SOL    HW117972   4.586   2.204   3.238
 5691SOL    HW217973   4.438   2.225   3.171
 5692SOL     OW17974   6.273   4.560   1.817
 5692SOL    HW117975   6.308   4.654   1.825
 5692SOL    HW217976   6.349   4.496   1.823
 5693SOL     OW17977   4.334   0.489   2.056
 5693SOL    HW117978   4.316   0.503   1.959
 5693SOL    HW217979   4.283   0.408   2.087
 5694SOL     OW17980   0.681   0.488   1.302
 5694SOL    HW117981   0.612   0.531   1.360
 5694SOL    HW217982   0.650   0.490   1.207
 5695SOL     OW17983   2.725   1.388   1.847
 5695SOL    HW117984   2.793   1.444   1.895
 5695SOL    HW217985   2.672   1.336   1.914
 5696SOL     OW17986   0.527   0.282   4.039
 5696SOL    HW117987   0.457   0.297   4.108
 5696SOL    HW217988   0.577   0.198   4.060
 5697SOL     OW17989   6.689   2.081   6.686
 5697SOL    HW117990   6.728   2.136   6.760
 5697SOL    HW217991   6.760   2.057   6.621
 5698SOL     OW17992   3.343   2.091   4.527
 5698SOL    HW117993   3.307   1.998   4.542
 5698SOL    HW217994   3.336   2.143   4.613
 5699SOL     OW17995   2.227   2.743   2.315
 5699SOL    HW117996   2.193   2.714   2.405
 5699SOL    HW217997   2.273   2.831   2.324
 5700SOL     OW17998   6.781   0.150   2.581
 5700SOL    HW117999   6.811   0.054   2.585
 5700SOL    HW218000   6.683   0.154   2.601
 5701SOL     OW18001   1.062   0.673   0.624
 5701SOL    HW118002   1.056   0.757   0.571
 5701SOL    HW218003   1.129   0.684   0.697
 5702SOL     OW18004   1.870   6.976   4.668
 5702SOL    HW118005   1.828   0.038   4.635
 5702SOL    HW218006   1.799   6.905   4.674
 5703SOL     OW18007   0.266   2.943   5.839
 5703SOL    HW118008   0.167   2.931   5.849
 5703SOL    HW218009   0.285   3.033   5.802
 5704SOL     OW18010   3.897   5.121   4.224
 5704SOL    HW118011   3.817   5.126   4.164
 5704SOL    HW218012   3.904   5.029   4.262
 5705SOL     OW18013   6.473   0.940   5.472
 5705SOL    HW118014   6.546   0.962   5.537
 5705SOL    HW218015   6.480   0.844   5.446
 5706SOL     OW18016   5.325   2.115   1.422
 5706SOL    HW118017   5.238   2.080   1.457
 5706SOL    HW218018   5.308   2.175   1.344
 5707SOL     OW18019   6.211   5.263   1.363
 5707SOL    HW118020   6.214   5.359   1.336
 5707SOL    HW218021   6.161   5.253   1.449
 5708SOL     OW18022   4.920   6.117   2.105
 5708SOL    HW118023   4.960   6.165   2.026
 5708SOL    HW218024   4.982   6.045   2.134
 5709SOL     OW18025   0.153   2.417   2.700
 5709SOL    HW118026   0.179   2.505   2.741
 5709SOL    HW218027   0.214   2.345   2.734
 5710SOL     OW18028   4.492   1.421   0.311
 5710SOL    HW118029   4.426   1.496   0.313
 5710SOL    HW218030   4.444   1.334   0.303
 5711SOL     OW18031   4.951   1.521   2.552
 5711SOL    HW118032   4.891   1.477   2.485
 5711SOL    HW218033   4.962   1.618   2.528
 5712SOL     OW18034   5.939   6.028   0.047
 5712SOL    HW118035   5.936   5.954   0.114
 5712SOL    HW218036   5.920   6.115   0.091
 5713SOL     OW18037   1.406   0.801   0.484
 5713SOL    HW118038   1.318   0.847   0.495
 5713SOL    HW218039   1.395   0.704   0.506
 5714SOL     OW18040   6.457   0.189   0.625
 5714SOL    HW118041   6.521   0.125   0.668
 5714SOL    HW218042   6.390   0.220   0.692
 5715SOL     OW18043   0.141   6.801   1.632
 5715SOL    HW118044   0.051   6.838   1.607
 5715SOL    HW218045   0.133   6.748   1.717
 5716SOL     OW18046   0.143   4.389   5.530
 5716SOL    HW118047   0.125   4.291   5.524
 5716SOL    HW218048   0.074   4.438   5.476
 5717SOL     OW18049   0.682   5.477   3.197
 5717SOL    HW118050   0.629   5.393   3.191
 5717SOL    HW218051   0.625   5.550   3.235
 5718SOL     OW18052   1.210   3.995   6.727
 5718SOL    HW118053   1.146   3.925   6.694
 5718SOL    HW218054   1.181   4.028   6.817
 5719SOL     OW18055   2.753   3.724   0.784
 5719SOL    HW118056   2.840   3.691   0.747
 5719SOL    HW218057   2.744   3.821   0.765
 5720SOL     OW18058   3.089   4.629   5.861
 5720SOL    HW118059   3.174   4.585   5.891
 5720SOL    HW218060   3.031   4.646   5.940
 5721SOL     OW18061   1.920   3.252   0.023
 5721SOL    HW118062   1.869   3.169   0.048
 5721SOL    HW218063   1.880   3.331   0.070
 5722SOL     OW18064   1.334   0.124   0.002
 5722SOL    HW118065   1.276   0.047   0.027
 5722SOL    HW218066   1.422   0.091   6.994
 5723SOL     OW18067   4.068   3.238   0.831
 5723SOL    HW118068   4.117   3.314   0.873
 5723SOL    HW218069   3.971   3.262   0.820
 5724SOL     OW18070   5.625   2.439   5.958
 5724SOL    HW118071   5.674   2.385   5.889
 5724SOL    HW218072   5.537   2.396   5.977
 5725SOL     OW18073   0.204   4.578   4.929
 5725SOL    HW118074   0.105   4.572   4.919
 5725SOL    HW218075   0.228   4.571   5.026
 5726SOL     OW18076   5.169   4.399   2.149
 5726SOL    HW118077   5.144   4.361   2.060
 5726SOL    HW218078   5.097   4.460   2.180
 5727SOL     OW18079   1.164   2.755   5.099
 5727SOL    HW118080   1.121   2.785   5.184
 5727SOL    HW218081   1.224   2.828   5.065
 5728SOL     OW18082   3.378   6.773   5.278
 5728SOL    HW118083   3.390   6.676   5.255
 5728SOL    HW218084   3.336   6.780   5.368
 5729SOL     OW18085   2.525   2.035   5.053
 5729SOL    HW118086   2.479   2.122   5.066
 5729SOL    HW218087   2.620   2.050   5.024
 5730SOL     OW18088   6.603   4.115   4.927
 5730SOL    HW118089   6.591   4.057   4.846
 5730SOL    HW218090   6.699   4.145   4.931
 5731SOL     OW18091   0.730   6.705   2.807
 5731SOL    HW118092   0.742   6.796   2.766
 5731SOL    HW218093   0.818   6.674   2.844
 5732SOL     OW18094   0.064   0.663   3.215
 5732SOL    HW118095   7.016   0.686   3.281
 5732SOL    HW218096   0.106   0.576   3.241
 5733SOL     OW18097   2.856   0.682   4.960
 5733SOL    HW118098   2.769   0.700   5.006
 5733SOL    HW218099   2.931   0.705   5.022
 5734SOL     OW18100   1.720   6.679   3.338
 5734SOL    HW118101   1.640   6.690   3.398
 5734SOL    HW218102   1.778   6.760   3.345
 5735SOL     OW18103   3.111   0.672   1.398
 5735SOL    HW118104   3.116   0.772   1.406
 5735SOL    HW218105   3.203   0.635   1.392
 5736SOL     OW18106   1.432   5.171   0.775
 5736SOL    HW118107   1.504   5.161   0.843
 5736SOL    HW218108   1.470   5.155   0.684
 5737SOL     OW18109   5.518   3.912   0.313
 5737SOL    HW118110   5.449   3.850   0.352
 5737SOL    HW218111   5.503   4.005   0.347
 5738SOL     OW18112   0.975   4.798   4.590
 5738SOL    HW118113   1.006   4.865   4.658
 5738SOL    HW218114   0.882   4.768   4.614
 5739SOL     OW18115   0.707   2.680   1.424
 5739SOL    HW118116   0.792   2.713   1.465
 5739SOL    HW218117   0.649   2.640   1.495
 5740SOL     OW18118   3.910   5.109   6.881
 5740SOL    HW118119   3.826   5.143   6.838
 5740SOL    HW218120   3.889   5.077   6.973
 5741SOL     OW18121   0.263   3.598   1.590
 5741SOL    HW118122   0.309   3.601   1.679
 5741SOL    HW218123   0.330   3.604   1.517
 5742SOL     OW18124   0.479   5.701   4.184
 5742SOL    HW118125   0.516   5.786   4.147
 5742SOL    HW218126   0.528   5.624   4.143
 5743SOL     OW18127   1.914   6.182   4.936
 5743SOL    HW118128   1.949   6.143   5.021
 5743SOL    HW218129   1.885   6.109   4.875
 5744SOL     OW18130   5.859   0.200   1.325
 5744SOL    HW118131   5.795   0.234   1.256
 5744SOL    HW218132   5.857   0.260   1.405
 5745SOL     OW18133   1.375   3.202   3.153
 5745SOL    HW118134   1.399   3.269   3.222
 5745SOL    HW218135   1.321   3.128   3.194
 5746SOL     OW18136   6.293   3.951   6.861
 5746SOL    HW118137   6.294   3.851   6.868
 5746SOL    HW218138   6.319   3.991   6.949
 5747SOL     OW18139   1.140   6.339   3.610
 5747SOL    HW118140   1.093   6.315   3.695
 5747SOL    HW218141   1.206   6.412   3.628
 5748SOL     OW18142   2.163   6.868   3.910
 5748SOL    HW118143   2.145   6.816   3.827
 5748SOL    HW218144   2.134   6.815   3.990
 5749SOL     OW18145   1.705   1.070   2.830
 5749SOL    HW118146   1.654   1.153   2.852
 5749SOL    HW218147   1.767   1.088   2.753
 5750SOL     OW18148   5.685   6.383   2.531
 5750SOL    HW118149   5.700   6.318   2.456
 5750SOL    HW218150   5.684   6.476   2.494
 5751SOL     OW18151   0.835   2.927   6.079
 5751SOL    HW118152   0.803   2.843   6.123
 5751SOL    HW218153   0.770   2.953   6.007
 5752SOL     OW18154   1.115   1.441   6.575
 5752SOL    HW118155   1.160   1.491   6.649
 5752SOL    HW218156   1.156   1.350   6.567
 5753SOL     OW18157   4.469   1.703   0.248
 5753SOL    HW118158   4.547   1.742   0.296
 5753SOL    HW218159   4.390   1.699   0.310
 5754SOL     OW18160   5.795   5.605   0.526
 5754SOL    HW118161   5.806   5.578   0.431
 5754SOL    HW218162   5.699   5.597   0.552
 5755SOL     OW18163   3.243   3.693   1.686
 5755SOL    HW118164   3.153   3.649   1.686
 5755SOL    HW218165   3.276   3.701   1.780
 5756SOL     OW18166   6.774   6.186   4.143
 5756SOL    HW118167   6.766   6.131   4.060
 5756SOL    HW218168   6.800   6.279   4.119
 5757SOL     OW18169   6.483   6.287   2.257
 5757SOL    HW118170   6.407   6.312   2.198
 5757SOL    HW218171   6.469   6.195   2.293
 5758SOL     OW18172   2.690   1.293   5.693
 5758SOL    HW118173   2.755   1.235   5.643
 5758SOL    HW218174   2.674   1.255   5.784
 5759SOL     OW18175   0.449   1.662   5.485
 5759SOL    HW118176   0.538   1.678   5.529
 5759SOL    HW218177   0.454   1.579   5.429
 5760SOL     OW18178   0.058   5.866   0.923
 5760SOL    HW118179   7.006   5.920   0.959
 5760SOL    HW218180   0.141   5.884   0.977
 5761SOL     OW18181   4.803   0.293   4.889
 5761SOL    HW118182   4.715   0.321   4.925
 5761SOL    HW218183   4.790   0.231   4.811
 5762SOL     OW18184   5.903   6.290   1.279
 5762SOL    HW118185   5.909   6.196   1.313
 5762SOL    HW218186   5.846   6.291   1.196
 5763SOL     OW18187   2.415   1.083   0.535
 5763SOL    HW118188   2.459   1.066   0.446
 5763SOL    HW218189   2.347   1.155   0.524
 5764SOL     OW18190   4.465   3.169   6.267
 5764SOL    HW118191   4.399   3.119   6.211
 5764SOL    HW218192   4.422   3.196   6.353
 5765SOL     OW18193   6.421   5.463   0.100
 5765SOL    HW118194   6.510   5.451   0.144
 5765SOL    HW218195   6.415   5.556   0.062
 5766SOL     OW18196   2.828   1.105   3.218
 5766SOL    HW118197   2.816   1.204   3.214
 5766SOL    HW218198   2.846   1.077   3.312
 5767SOL     OW18199   5.494   0.047   0.610
 5767SOL    HW118200   5.526   0.098   0.531
 5767SOL    HW218201   5.489   6.973   0.587
 5768SOL     OW18202   6.389   0.275   2.262
 5768SOL    HW118203   6.387   0.297   2.359
 5768SOL    HW218204   6.366   0.178   2.249
 5769SOL     OW18205   1.991   5.015   3.101
 5769SOL    HW118206   1.977   5.070   3.020
 5769SOL    HW218207   2.082   5.034   3.140
 5770SOL     OW18208   5.590   2.208   1.460
 5770SOL    HW118209   5.521   2.144   1.427
 5770SOL    HW218210   5.555   2.257   1.539
 5771SOL     OW18211   1.174   1.070   1.110
 5771SOL    HW118212   1.081   1.047   1.081
 5771SOL    HW218213   1.196   1.164   1.083
 5772SOL     OW18214   6.537   5.305   5.635
 5772SOL    HW118215   6.614   5.368   5.625
 5772SOL    HW218216   6.453   5.351   5.605
 5773SOL     OW18217   5.410   5.744   4.935
 5773SOL    HW118218   5.509   5.735   4.944
 5773SOL    HW218219   5.373   5.789   5.017
 5774SOL     OW18220   2.521   4.971   2.325
 5774SOL    HW118221   2.471   4.885   2.317
 5774SOL    HW218222   2.610   4.962   2.280
 5775SOL     OW18223   0.533   0.773   0.533
 5775SOL    HW118224   0.628   0.801   0.520
 5775SOL    HW218225   0.481   0.847   0.576
 5776SOL     OW18226   4.596   0.853   5.612
 5776SOL    HW118227   4.545   0.787   5.556
 5776SOL    HW218228   4.532   0.920   5.650
 5777SOL     OW18229   5.521   6.998   5.256
 5777SOL    HW118230   5.469   6.916   5.231
 5777SOL    HW218231   5.617   6.985   5.232
 5778SOL     OW18232   3.012   6.846   3.999
 5778SOL    HW118233   2.991   6.753   3.968
 5778SOL    HW218234   3.109   6.852   4.024
 5779SOL     OW18235   4.123   0.260   1.486
 5779SOL    HW118236   4.094   0.315   1.565
 5779SOL    HW218237   4.084   0.298   1.403
 5780SOL     OW18238   6.041   4.027   0.588
 5780SOL    HW118239   6.063   3.967   0.665
 5780SOL    HW218240   5.983   3.978   0.523
 5781SOL     OW18241   3.312   4.214   5.190
 5781SOL    HW118242   3.380   4.284   5.208
 5781SOL    HW218243   3.220   4.253   5.200
 5782SOL     OW18244   4.085   1.580   3.244
 5782SOL    HW118245   4.112   1.669   3.208
 5782SOL    HW218246   3.992   1.585   3.280
 5783SOL     OW18247   2.830   6.347   2.475
 5783SOL    HW118248   2.899   6.418   2.457
 5783SOL    HW218249   2.747   6.368   2.424
 5784SOL     OW18250   1.487   6.491   0.499
 5784SOL    HW118251   1.402   6.511   0.450
 5784SOL    HW218252   1.464   6.454   0.590
 5785SOL     OW18253   2.361   2.427   6.650
 5785SOL    HW118254   2.312   2.513   6.666
 5785SOL    HW218255   2.307   2.351   6.686
 5786SOL     OW18256   0.733   2.073   5.721
 5786SOL    HW118257   0.810   2.010   5.713
 5786SOL    HW218258   0.756   2.146   5.786
 5787SOL     OW18259   0.644   2.683   4.733
 5787SOL    HW118260   0.691   2.758   4.687
 5787SOL    HW218261   0.547   2.706   4.745
 5788SOL     OW18262   0.587   2.071   1.705
 5788SOL    HW118263   0.497   2.112   1.690
 5788SOL    HW218264   0.603   2.063   1.803
 5789SOL     OW18265   2.593   6.175   6.584
 5789SOL    HW118266   2.685   6.141   6.606
 5789SOL    HW218267   2.601   6.261   6.533
 5790SOL     OW18268   0.047   6.500   2.642
 5790SOL    HW118269   0.045   6.599   2.634
 5790SOL    HW218270   0.036   6.459   2.551
 5791SOL     OW18271   4.085   0.579   0.901
 5791SOL    HW118272   4.078   0.668   0.947
 5791SOL    HW218273   4.143   0.587   0.821
 5792SOL     OW18274   4.885   2.406   2.145
 5792SOL    HW118275   4.826   2.450   2.077
 5792SOL    HW218276   4.976   2.449   2.143
 5793SOL     OW18277   4.080   1.674   0.124
 5793SOL    HW118278   4.147   1.640   0.058
 5793SOL    HW218279   4.128   1.720   0.198
 5794SOL     OW18280   3.022   5.997   6.944
 5794SOL    HW118281   3.077   5.937   7.002
 5794SOL    HW218282   3.082   6.051   6.886
 5795SOL     OW18283   1.067   0.372   0.987
 5795SOL    HW118284   1.099   0.386   1.081
 5795SOL    HW218285   1.002   0.445   0.963
 5796SOL     OW18286   4.915   0.570   6.051
 5796SOL    HW118287   4.936   0.656   6.097
 5796SOL    HW218288   4.821   0.542   6.071
 5797SOL     OW18289   6.841   2.352   0.288
 5797SOL    HW118290   6.906   2.388   0.220
 5797SOL    HW218291   6.752   2.336   0.244
 5798SOL     OW18292   2.077   2.732   4.555
 5798SOL    HW118293   2.016   2.792   4.504
 5798SOL    HW218294   2.023   2.666   4.608
 5799SOL     OW18295   2.624   0.235   3.576
 5799SOL    HW118296   2.582   0.147   3.599
 5799SOL    HW218297   2.577   0.308   3.626
 5800SOL     OW18298   1.055   6.262   1.893
 5800SOL    HW118299   0.972   6.259   1.836
 5800SOL    HW218300   1.043   6.201   1.972
 5801SOL     OW18301   1.573   1.857   2.905
 5801SOL    HW118302   1.650   1.857   2.842
 5801SOL    HW218303   1.530   1.947   2.906
 5802SOL     OW18304   0.070   6.772   2.653
 5802SOL    HW118305   0.101   6.844   2.591
 5802SOL    HW218306   0.147   6.738   2.707
 5803SOL     OW18307   0.501   6.742   4.135
 5803SOL    HW118308   0.568   6.781   4.071
 5803SOL    HW218309   0.525   6.647   4.155
 5804SOL     OW18310   6.059   1.740   3.450
 5804SOL    HW118311   6.149   1.710   3.417
 5804SOL    HW218312   6.055   1.840   3.449
 5805SOL     OW18313   0.919   2.702   1.632
 5805SOL    HW118314   0.889   2.624   1.687
 5805SOL    HW218315   0.981   2.759   1.686
 5806SOL     OW18316   6.724   4.145   1.904
 5806SOL    HW118317   6.744   4.128   1.808
 5806SOL    HW218318   6.776   4.225   1.935
 5807SOL     OW18319   1.222   1.368   1.818
 5807SOL    HW118320   1.269   1.300   1.762
 5807SOL    HW218321   1.199   1.447   1.763
 5808SOL     OW18322   6.623   0.137   5.710
 5808SOL    HW118323   6.587   0.073   5.778
 5808SOL    HW218324   6.712   0.105   5.678
 5809SOL     OW18325   0.245   3.114   4.256
 5809SOL    HW118326   0.330   3.156   4.290
 5809SOL    HW218327   0.190   3.184   4.211
 5810SOL     OW18328   1.432   6.940   5.384
 5810SOL    HW118329   1.439   6.866   5.317
 5810SOL    HW218330   1.422   6.901   5.476
 5811SOL     OW18331   3.028   5.362   6.895
 5811SOL    HW118332   3.081   5.279   6.909
 5811SOL    HW218333   2.931   5.340   6.885
 5812SOL     OW18334   6.554   3.763   6.095
 5812SOL    HW118335   6.461   3.732   6.115
 5812SOL    HW218336   6.613   3.685   6.079
 5813SOL     OW18337   6.297   5.022   0.998
 5813SOL    HW118338   6.337   5.052   0.911
 5813SOL    HW218339   6.200   5.047   1.000
 5814SOL     OW18340   5.294   1.013   2.482
 5814SOL    HW118341   5.251   1.087   2.429
 5814SOL    HW218342   5.393   1.021   2.475
 5815SOL     OW18343   6.130   3.561   4.753
 5815SOL    HW118344   6.087   3.650   4.736
 5815SOL    HW218345   6.083   3.515   4.828
 5816SOL     OW18346   6.629   4.207   0.696
 5816SOL    HW118347   6.677   4.138   0.643
 5816SOL    HW218348   6.530   4.188   0.695
 5817SOL     OW18349   6.995   2.747   3.600
 5817SOL    HW118350   0.050   2.701   3.559
 5817SOL    HW218351   6.976   2.707   3.689
 5818SOL     OW18352   2.431   0.199   4.146
 5818SOL    HW118353   2.483   0.191   4.231
 5818SOL    HW218354   2.349   0.141   4.151
 5819SOL     OW18355   4.100   4.302   0.985
 5819SOL    HW118356   4.057   4.301   0.895
 5819SOL    HW218357   4.126   4.396   1.009
 5820SOL     OW18358   0.458   6.618   2.360
 5820SOL    HW118359   0.441   6.624   2.459
 5820SOL    HW218360   0.393   6.677   2.312
 5821SOL     OW18361   6.483   6.870   2.234
 5821SOL    HW118362   6.479   6.956   2.284
 5821SOL    HW218363   6.395   6.822   2.241
 5822SOL     OW18364   0.835   4.112   2.843
 5822SOL    HW118365   0.798   4.184   2.903
 5822SOL    HW218366   0.899   4.056   2.895
 5823SOL     OW18367   2.478   6.600   5.002
 5823SOL    HW118368   2.532   6.535   4.948
 5823SOL    HW218369   2.487   6.692   4.963
 5824SOL     OW18370   2.409   5.812   2.117
 5824SOL    HW118371   2.458   5.830   2.202
 5824SOL    HW218372   2.471   5.830   2.039
 5825SOL     OW18373   4.247   1.958   5.345
 5825SOL    HW118374   4.311   1.923   5.276
 5825SOL    HW218375   4.262   2.056   5.358
 5826SOL     OW18376   1.434   6.095   5.042
 5826SOL    HW118377   1.350   6.149   5.037
 5826SOL    HW218378   1.513   6.155   5.027
 5827SOL     OW18379   2.109   3.660   3.058
 5827SOL    HW118380   2.096   3.746   3.010
 5827SOL    HW218381   2.112   3.677   3.157
 5828SOL     OW18382   4.434   6.582   4.695
 5828SOL    HW118383   4.451   6.516   4.622
 5828SOL    HW218384   4.365   6.544   4.757
 5829SOL     OW18385   2.147   1.035   2.834
 5829SOL    HW118386   2.135   0.940   2.864
 5829SOL    HW218387   2.176   1.091   2.912
 5830SOL     OW18388   4.600   5.442   4.545
 5830SOL    HW118389   4.671   5.510   4.563
 5830SOL    HW218390   4.573   5.447   4.449
 5831SOL     OW18391   2.104   1.344   4.522
 5831SOL    HW118392   2.010   1.328   4.553
 5831SOL    HW218393   2.168   1.300   4.585
 5832SOL     OW18394   2.060   4.826   4.083
 5832SOL    HW118395   2.095   4.862   3.996
 5832SOL    HW218396   2.137   4.801   4.142
 5833SOL     OW18397   3.153   4.951   0.916
 5833SOL    HW118398   3.121   4.940   1.010
 5833SOL    HW218399   3.108   5.029   0.874
 5834SOL     OW18400   5.832   2.410   6.425
 5834SOL    HW118401   5.767   2.342   6.457
 5834SOL    HW218402   5.823   2.493   6.479
 5835SOL     OW18403   4.307   1.275   3.951
 5835SOL    HW118404   4.315   1.374   3.948
 5835SOL    HW218405   4.313   1.238   3.858
 5836SOL     OW18406   5.124   5.185   1.537
 5836SOL    HW118407   5.049   5.168   1.601
 5836SOL    HW218408   5.207   5.142   1.571
 5837SOL     OW18409   2.609   4.255   0.023
 5837SOL    HW118410   2.563   4.242   0.111
 5837SOL    HW218411   2.541   4.253   6.973
 5838SOL     OW18412   3.349   3.025   0.365
 5838SOL    HW118413   3.445   2.998   0.376
 5838SOL    HW218414   3.320   3.007   0.271
 5839SOL     OW18415   2.072   1.484   0.999
 5839SOL    HW118416   2.158   1.533   0.984
 5839SOL    HW218417   2.082   1.422   1.077
 5840SOL     OW18418   6.828   3.568   2.582
 5840SOL    HW118419   6.874   3.588   2.495
 5840SOL    HW218420   6.790   3.653   2.619
 5841SOL     OW18421   5.167   2.019   0.590
 5841SOL    HW118422   5.162   2.070   0.504
 5841SOL    HW218423   5.132   1.927   0.576
 5842SOL     OW18424   3.658   2.076   2.583
 5842SOL    HW118425   3.696   1.994   2.626
 5842SOL    HW218426   3.725   2.115   2.521
 5843SOL     OW18427   3.131   3.331   1.181
 5843SOL    HW118428   3.174   3.255   1.132
 5843SOL    HW218429   3.200   3.400   1.203
 5844SOL     OW18430   0.046   5.910   4.863
 5844SOL    HW118431   0.032   5.822   4.818
 5844SOL    HW218432   0.087   5.896   4.953
 5845SOL     OW18433   2.217   6.345   2.997
 5845SOL    HW118434   2.235   6.282   3.072
 5845SOL    HW218435   2.200   6.436   3.034
 5846SOL     OW18436   0.420   4.636   5.740
 5846SOL    HW118437   0.356   4.674   5.672
 5846SOL    HW218438   0.369   4.594   5.814
 5847SOL     OW18439   1.906   4.173   6.028
 5847SOL    HW118440   1.988   4.228   6.046
 5847SOL    HW218441   1.866   4.199   5.940
 5848SOL     OW18442   2.687   6.383   1.725
 5848SOL    HW118443   2.592   6.359   1.704
 5848SOL    HW218444   2.714   6.338   1.811
 5849SOL     OW18445   3.094   5.991   6.348
 5849SOL    HW118446   3.134   5.996   6.440
 5849SOL    HW218447   3.011   5.935   6.352
 5850SOL     OW18448   5.719   2.076   1.769
 5850SOL    HW118449   5.805   2.054   1.816
 5850SOL    HW218450   5.653   2.112   1.835
 5851SOL     OW18451   1.024   3.465   4.622
 5851SOL    HW118452   0.976   3.377   4.627
 5851SOL    HW218453   0.993   3.524   4.698
 5852SOL     OW18454   4.939   4.530   2.863
 5852SOL    HW118455   5.009   4.499   2.798
 5852SOL    HW218456   4.849   4.521   2.822
 5853SOL     OW18457   4.274   5.284   0.053
 5853SOL    HW118458   4.320   5.224   0.118
 5853SOL    HW218459   4.290   5.251   6.984
 5854SOL     OW18460   2.771   4.552   5.384
 5854SOL    HW118461   2.851   4.557   5.444
 5854SOL    HW218462   2.801   4.544   5.289
 5855SOL     OW18463   1.646   2.292   4.692
 5855SOL    HW118464   1.715   2.228   4.661
 5855SOL    HW218465   1.662   2.316   4.788
 5856SOL     OW18466   0.763   0.041   2.106
 5856SOL    HW118467   0.751   0.133   2.142
 5856SOL    HW218468   0.831   7.016   2.161
 5857SOL     OW18469   5.845   5.539   0.255
 5857SOL    HW118470   5.867   5.442   0.263
 5857SOL    HW218471   5.796   5.555   0.170
 5858SOL     OW18472   2.731   1.511   2.204
 5858SOL    HW118473   2.775   1.524   2.115
 5858SOL    HW218474   2.711   1.600   2.244
 5859SOL     OW18475   5.525   5.393   2.019
 5859SOL    HW118476   5.573   5.306   2.028
 5859SOL    HW218477   5.461   5.404   2.095
 5860SOL     OW18478   2.003   3.377   2.435
 5860SOL    HW118479   2.015   3.332   2.347
 5860SOL    HW218480   1.989   3.475   2.420
 5861SOL     OW18481   5.457   0.245   5.625
 5861SOL    HW118482   5.441   0.163   5.571
 5861SOL    HW218483   5.483   0.321   5.565
 5862SOL     OW18484   6.454   5.014   2.828
 5862SOL    HW118485   6.424   4.919   2.826
 5862SOL    HW218486   6.415   5.060   2.908
 5863SOL     OW18487   4.126   0.343   5.738
 5863SOL    HW118488   4.099   0.278   5.667
 5863SOL    HW218489   4.156   0.428   5.696
 5864SOL     OW18490   3.775   3.383   3.344
 5864SOL    HW118491   3.819   3.451   3.403
 5864SOL    HW218492   3.675   3.392   3.351
 5865SOL     OW18493   6.146   6.760   1.285
 5865SOL    HW118494   6.101   6.760   1.374
 5865SOL    HW218495   6.172   6.667   1.260
 5866SOL     OW18496   3.514   3.552   3.718
 5866SOL    HW118497   3.546   3.647   3.716
 5866SOL    HW218498   3.438   3.544   3.784
 5867SOL     OW18499   4.253   1.301   0.491
 5867SOL    HW118500   4.299   1.332   0.574
 5867SOL    HW218501   4.309   1.230   0.447
 5868SOL     OW18502   1.194   1.164   0.682
 5868SOL    HW118503   1.178   1.260   0.661
 5868SOL    HW218504   1.276   1.155   0.738
 5869SOL     OW18505   2.262   5.345   3.277
 5869SOL    HW118506   2.341   5.284   3.264
 5869SOL    HW218507   2.178   5.292   3.266
 5870SOL     OW18508   4.508   6.832   4.676
 5870SOL    HW118509   4.503   6.735   4.653
 5870SOL    HW218510   4.477   6.845   4.770
 5871SOL     OW18511   4.048   3.684   3.632
 5871SOL    HW118512   4.068   3.602   3.578
 5871SOL    HW218513   4.088   3.676   3.723
 5872SOL     OW18514   3.386   5.968   1.156
 5872SOL    HW118515   3.428   5.885   1.119
 5872SOL    HW218516   3.458   6.032   1.184
 5873SOL     OW18517   4.273   6.290   1.959
 5873SOL    HW118518   4.243   6.240   2.041
 5873SOL    HW218519   4.372   6.296   1.958
 5874SOL     OW18520   0.053   4.001   4.865
 5874SOL    HW118521   0.132   4.059   4.849
 5874SOL    HW218522   0.003   3.989   4.780
 5875SOL     OW18523   3.902   2.281   1.179
 5875SOL    HW118524   3.918   2.335   1.261
 5875SOL    HW218525   3.980   2.222   1.161
 5876SOL     OW18526   3.490   2.875   2.557
 5876SOL    HW118527   3.493   2.776   2.569
 5876SOL    HW218528   3.399   2.902   2.526
 5877SOL     OW18529   5.284   4.421   1.525
 5877SOL    HW118530   5.287   4.329   1.485
 5877SOL    HW218531   5.328   4.419   1.614
 5878SOL     OW18532   1.301   3.787   2.311
 5878SOL    HW118533   1.360   3.843   2.252
 5878SOL    HW218534   1.339   3.695   2.319
 5879SOL     OW18535   2.128   3.771   4.329
 5879SOL    HW118536   2.140   3.851   4.387
 5879SOL    HW218537   2.078   3.700   4.379
 5880SOL     OW18538   2.834   5.450   6.492
 5880SOL    HW118539   2.856   5.527   6.551
 5880SOL    HW218540   2.911   5.386   6.490
 5881SOL     OW18541   2.006   6.576   4.205
 5881SOL    HW118542   2.083   6.513   4.194
 5881SOL    HW218543   2.042   6.669   4.215
 5882SOL     OW18544   4.711   0.154   2.917
 5882SOL    HW118545   4.734   0.251   2.906
 5882SOL    HW218546   4.615   0.140   2.895
 5883SOL     OW18547   1.447   2.867   4.602
 5883SOL    HW118548   1.387   2.804   4.651
 5883SOL    HW218549   1.528   2.887   4.657
 5884SOL     OW18550   7.001   0.981   2.976
 5884SOL    HW118551   0.065   1.025   2.996
 5884SOL    HW218552   7.007   0.884   2.998
 5885SOL     OW18553   5.230   6.802   0.427
 5885SOL    HW118554   5.327   6.790   0.449
 5885SOL    HW218555   5.220   6.823   0.330
 5886SOL     OW18556   6.068   1.775   6.332
 5886SOL    HW118557   6.095   1.852   6.274
 5886SOL    HW218558   6.044   1.696   6.274
 5887SOL     OW18559   3.878   6.058   2.899
 5887SOL    HW118560   3.805   6.002   2.861
 5887SOL    HW218561   3.923   6.108   2.825
 5888SOL     OW18562   6.738   6.412   2.244
 5888SOL    HW118563   6.654   6.358   2.254
 5888SOL    HW218564   6.754   6.431   2.147
 5889SOL     OW18565   3.005   0.078   6.803
 5889SOL    HW118566   3.077   0.097   6.736
 5889SOL    HW218567   2.981   7.005   6.800
 5890SOL     OW18568   3.899   5.118   6.164
 5890SOL    HW118569   3.878   5.191   6.099
 5890SOL    HW218570   3.984   5.139   6.211
 5891SOL     OW18571   1.467   3.390   5.819
 5891SOL    HW118572   1.407   3.324   5.863
 5891SOL    HW218573   1.559   3.383   5.857
 5892SOL     OW18574   2.187   6.284   2.732
 5892SOL    HW118575   2.169   6.315   2.825
 5892SOL    HW218576   2.140   6.197   2.716
 5893SOL     OW18577   1.495   2.054   2.702
 5893SOL    HW118578   1.592   2.028   2.704
 5893SOL    HW218579   1.483   2.139   2.753
 5894SOL     OW18580   1.344   3.699   4.319
 5894SOL    HW118581   1.275   3.655   4.261
 5894SOL    HW218582   1.433   3.693   4.276
 5895SOL     OW18583   5.747   4.269   3.276
 5895SOL    HW118584   5.803   4.187   3.264
 5895SOL    HW218585   5.682   4.255   3.350
 5896SOL     OW18586   5.209   3.093   5.976
 5896SOL    HW118587   5.219   3.026   6.049
 5896SOL    HW218588   5.292   3.148   5.970
 5897SOL     OW18589   4.451   5.342   0.799
 5897SOL    HW118590   4.425   5.246   0.799
 5897SOL    HW218591   4.499   5.364   0.714
 5898SOL     OW18592   2.554   6.958   3.301
 5898SOL    HW118593   2.651   6.981   3.295
 5898SOL    HW218594   2.500   0.010   3.267
 5899SOL     OW18595   5.066   0.644   4.006
 5899SOL    HW118596   5.108   0.555   4.026
 5899SOL    HW218597   5.112   0.684   3.926
 5900SOL     OW18598   3.928   5.125   2.062
 5900SOL    HW118599   3.839   5.087   2.034
 5900SOL    HW218600   3.998   5.096   1.997
 5901SOL     OW18601   2.859   6.296   4.804
 5901SOL    HW118602   2.763   6.315   4.783
 5901SOL    HW218603   2.879   6.326   4.897
 5902SOL     OW18604   5.968   2.347   0.114
 5902SOL    HW118605   6.012   2.394   0.037
 5902SOL    HW218606   6.022   2.267   0.140
 5903SOL     OW18607   6.995   2.563   6.027
 5903SOL    HW118608   0.015   2.511   6.101
 5903SOL    HW218609   0.014   2.538   5.940
 5904SOL     OW18610   1.701   2.942   2.146
 5904SOL    HW118611   1.800   2.955   2.156
 5904SOL    HW218612   1.656   3.032   2.144
 5905SOL     OW18613   0.254   4.400   2.264
 5905SOL    HW118614   0.180   4.418   2.329
 5905SOL    HW218615   0.334   4.365   2.313
 5906SOL     OW18616   0.537   0.301   2.970
 5906SOL    HW118617   0.601   0.259   3.034
 5906SOL    HW218618   0.483   0.230   2.925
 5907SOL     OW18619   2.348   0.184   2.970
 5907SOL    HW118620   2.268   0.213   3.021
 5907SOL    HW218621   2.343   0.219   2.877
 5908SOL     OW18622   0.796   2.473   6.033
 5908SOL    HW118623   0.785   2.564   5.995
 5908SOL    HW218624   0.785   2.405   5.961
 5909SOL     OW18625   6.075   4.657   0.346
 5909SOL    HW118626   6.115   4.617   0.263
 5909SOL    HW218627   6.117   4.745   0.364
 5910SOL     OW18628   1.065   1.612   3.585
 5910SOL    HW118629   1.144   1.552   3.599
 5910SOL    HW218630   0.995   1.563   3.532
 5911SOL     OW18631   6.573   5.973   0.033
 5911SOL    HW118632   6.495   6.024   0.071
 5911SOL    HW218633   6.633   6.036   7.008
 5912SOL     OW18634   0.809   0.040   3.552
 5912SOL    HW118635   0.764   0.011   3.467
 5912SOL    HW218636   0.753   0.110   3.596
 5913SOL     OW18637   6.989   2.661   1.102
 5913SOL    HW118638   6.972   2.726   1.029
 5913SOL    HW218639   7.021   2.709   1.184
 5914SOL     OW18640   0.538   6.742   1.069
 5914SOL    HW118641   0.520   6.824   1.123
 5914SOL    HW218642   0.616   6.693   1.109
 5915SOL     OW18643   3.936   0.805   5.395
 5915SOL    HW118644   4.004   0.775   5.461
 5915SOL    HW218645   3.849   0.760   5.415
 5916SOL     OW18646   1.098   0.235   2.491
 5916SOL    HW118647   1.123   0.182   2.409
 5916SOL    HW218648   1.039   0.311   2.464
 5917SOL     OW18649   3.288   2.482   0.487
 5917SOL    HW118650   3.307   2.393   0.446
 5917SOL    HW218651   3.217   2.529   0.434
 5918SOL     OW18652   3.368   6.647   4.141
 5918SOL    HW118653   3.434   6.593   4.194
 5918SOL    HW218654   3.326   6.589   4.071
 5919SOL     OW18655   3.053   3.148   4.609
 5919SOL    HW118656   2.992   3.189   4.678
 5919SOL    HW218657   3.022   3.173   4.518
 5920SOL     OW18658   0.905   0.483   5.845
 5920SOL    HW118659   0.813   0.508   5.815
 5920SOL    HW218660   0.941   0.412   5.785
 5921SOL     OW18661   2.805   4.642   6.931
 5921SOL    HW118662   2.729   4.660   6.869
 5921SOL    HW218663   2.776   4.660   0.001
 5922SOL     OW18664   5.523   2.107   2.398
 5922SOL    HW118665   5.425   2.103   2.375
 5922SOL    HW218666   5.553   2.202   2.401
 5923SOL     OW18667   5.932   0.610   3.070
 5923SOL    HW118668   5.983   0.695   3.063
 5923SOL    HW218669   5.883   0.607   3.158
 5924SOL     OW18670   6.853   6.571   3.568
 5924SOL    HW118671   6.816   6.503   3.505
 5924SOL    HW218672   6.936   6.535   3.611
 5925SOL     OW18673   4.829   1.146   0.732
 5925SOL    HW118674   4.916   1.103   0.755
 5925SOL    HW218675   4.754   1.093   0.771
 5926SOL     OW18676   5.518   3.374   3.161
 5926SOL    HW118677   5.540   3.285   3.202
 5926SOL    HW218678   5.463   3.427   3.225
 5927SOL     OW18679   0.587   6.111   1.603
 5927SOL    HW118680   0.489   6.130   1.595
 5927SOL    HW218681   0.601   6.014   1.620
 5928SOL     OW18682   2.958   0.154   0.277
 5928SOL    HW118683   2.967   0.055   0.270
 5928SOL    HW218684   2.865   0.181   0.252
 5929SOL     OW18685   1.249   0.868   0.808
 5929SOL    HW118686   1.319   0.922   0.856
 5929SOL    HW218687   1.215   0.919   0.730
 5930SOL     OW18688   1.259   4.000   1.907
 5930SOL    HW118689   1.229   3.971   1.998
 5930SOL    HW218690   1.346   4.049   1.915
 5931SOL     OW18691   4.576   5.943   3.672
 5931SOL    HW118692   4.619   5.917   3.586
 5931SOL    HW218693   4.646   5.971   3.738
 5932SOL     OW18694   3.058   6.271   0.485
 5932SOL    HW118695   3.115   6.188   0.482
 5932SOL    HW218696   2.967   6.247   0.518
 5933SOL     OW18697   6.465   5.935   4.397
 5933SOL    HW118698   6.432   5.854   4.445
 5933SOL    HW218699   6.448   5.924   4.299
 5934SOL     OW18700   2.982   3.387   0.360
 5934SOL    HW118701   2.895   3.405   0.405
 5934SOL    HW218702   3.058   3.408   0.422
 5935SOL     OW18703   1.081   0.159   5.388
 5935SOL    HW118704   1.173   0.167   5.425
 5935SOL    HW218705   1.084   0.112   5.300
 5936SOL     OW18706   3.640   2.809   1.990
 5936SOL    HW118707   3.644   2.711   1.967
 5936SOL    HW218708   3.588   2.857   1.920
 5937SOL     OW18709   0.520   3.112   0.274
 5937SOL    HW118710   0.471   3.039   0.227
 5937SOL    HW218711   0.455   3.182   0.304
 5938SOL     OW18712   0.779   3.578   3.967
 5938SOL    HW118713   0.792   3.653   3.902
 5938SOL    HW218714   0.859   3.519   3.966
 5939SOL     OW18715   4.336   1.590   5.505
 5939SOL    HW118716   4.389   1.672   5.526
 5939SOL    HW218717   4.369   1.550   5.420
 5940SOL     OW18718   5.005   5.038   1.955
 5940SOL    HW118719   5.100   5.009   1.964
 5940SOL    HW218720   4.949   4.992   2.024
 5941SOL     OW18721   0.426   1.979   3.041
 5941SOL    HW118722   0.381   2.029   3.115
 5941SOL    HW218723   0.496   1.919   3.078
 5942SOL     OW18724   5.098   2.553   6.682
 5942SOL    HW118725   5.019   2.492   6.687
 5942SOL    HW218726   5.090   2.612   6.602
 5943SOL     OW18727   1.482   4.451   1.208
 5943SOL    HW118728   1.445   4.363   1.236
 5943SOL    HW218729   1.566   4.470   1.260
 5944SOL     OW18730   6.227   4.184   5.918
 5944SOL    HW118731   6.257   4.241   5.841
 5944SOL    HW218732   6.148   4.129   5.890
 5945SOL     OW18733   6.511   6.227   4.267
 5945SOL    HW118734   6.586   6.233   4.201
 5945SOL    HW218735   6.547   6.234   4.360
 5946SOL     OW18736   2.187   3.517   6.805
 5946SOL    HW118737   2.202   3.426   6.845
 5946SOL    HW218738   2.096   3.550   6.830
 5947SOL     OW18739   3.804   3.438   4.481
 5947SOL    HW118740   3.883   3.497   4.466
 5947SOL    HW218741   3.720   3.489   4.466
 5948SOL     OW18742   4.712   4.020   1.755
 5948SOL    HW118743   4.757   3.936   1.725
 5948SOL    HW218744   4.645   4.048   1.685
 5949SOL     OW18745   0.714   4.311   3.327
 5949SOL    HW118746   0.645   4.239   3.335
 5949SOL    HW218747   0.804   4.275   3.353
 5950SOL     OW18748   2.664   6.744   4.419
 5950SOL    HW118749   2.658   6.833   4.465
 5950SOL    HW218750   2.757   6.708   4.429
 5951SOL     OW18751   6.719   3.537   6.038
 5951SOL    HW118752   6.785   3.483   5.985
 5951SOL    HW218753   6.747   3.538   6.134
 5952SOL     OW18754   3.742   3.902   1.976
 5952SOL    HW118755   3.675   3.967   2.011
 5952SOL    HW218756   3.699   3.812   1.963
 5953SOL     OW18757   6.740   3.310   5.815
 5953SOL    HW118758   6.682   3.233   5.787
 5953SOL    HW218759   6.829   3.303   5.770
 5954SOL     OW18760   2.397   5.372   3.695
 5954SOL    HW118761   2.447   5.297   3.740
 5954SOL    HW218762   2.301   5.369   3.724
 5955SOL     OW18763   4.241   3.064   0.382
 5955SOL    HW118764   4.339   3.076   0.363
 5955SOL    HW218765   4.219   3.105   0.470
 5956SOL     OW18766   4.461   2.878   5.932
 5956SOL    HW118767   4.427   2.785   5.941
 5956SOL    HW218768   4.546   2.888   5.984
 5957SOL     OW18769   6.363   1.929   3.435
 5957SOL    HW118770   6.370   1.838   3.477
 5957SOL    HW218771   6.336   1.919   3.339
 5958SOL     OW18772   2.695   6.227   3.402
 5958SOL    HW118773   2.626   6.253   3.469
 5958SOL    HW218774   2.780   6.277   3.420
 5959SOL     OW18775   5.479   3.640   3.030
 5959SOL    HW118776   5.491   3.674   3.123
 5959SOL    HW218777   5.471   3.540   3.032
 5960SOL     OW18778   5.455   0.506   6.190
 5960SOL    HW118779   5.400   0.484   6.109
 5960SOL    HW218780   5.551   0.484   6.172
 5961SOL     OW18781   3.066   2.113   3.715
 5961SOL    HW118782   3.036   2.025   3.680
 5961SOL    HW218783   2.993   2.181   3.701
 5962SOL     OW18784   4.443   4.863   0.425
 5962SOL    HW118785   4.349   4.850   0.454
 5962SOL    HW218786   4.500   4.789   0.462
 5963SOL     OW18787   1.774   4.068   0.550
 5963SOL    HW118788   1.855   4.049   0.493
 5963SOL    HW218789   1.768   4.000   0.623
 5964SOL     OW18790   2.008   0.416   2.962
 5964SOL    HW118791   1.909   0.399   2.954
 5964SOL    HW218792   2.052   0.400   2.874
 5965SOL     OW18793   2.379   0.832   1.118
 5965SOL    HW118794   2.426   0.767   1.058
 5965SOL    HW218795   2.384   0.800   1.213
 5966SOL     OW18796   2.881   1.760   5.083
 5966SOL    HW118797   2.907   1.666   5.063
 5966SOL    HW218798   2.955   1.806   5.133
 5967SOL     OW18799   4.488   2.191   5.101
 5967SOL    HW118800   4.448   2.170   5.012
 5967SOL    HW218801   4.579   2.231   5.089
 5968SOL     OW18802   6.008   2.249   2.791
 5968SOL    HW118803   5.977   2.169   2.738
 5968SOL    HW218804   6.004   2.330   2.733
 5969SOL     OW18805   4.916   6.976   0.908
 5969SOL    HW118806   4.978   0.027   0.884
 5969SOL    HW218807   4.963   6.889   0.897
 5970SOL     OW18808   6.539   2.851   0.404
 5970SOL    HW118809   6.494   2.908   0.335
 5970SOL    HW218810   6.470   2.811   0.465
 5971SOL     OW18811   6.825   5.341   3.657
 5971SOL    HW118812   6.767   5.310   3.582
 5971SOL    HW218813   6.767   5.375   3.732
 5972SOL     OW18814   6.025   5.107   1.207
 5972SOL    HW118815   5.929   5.129   1.226
 5972SOL    HW218816   6.084   5.179   1.243
 5973SOL     OW18817   2.874   0.908   2.244
 5973SOL    HW118818   2.805   0.838   2.264
 5973SOL    HW218819   2.956   0.865   2.206
 5974SOL     OW18820   5.657   1.237   4.847
 5974SOL    HW118821   5.561   1.234   4.822
 5974SOL    HW218822   5.713   1.219   4.766
 5975SOL     OW18823   4.440   5.132   1.156
 5975SOL    HW118824   4.340   5.140   1.148
 5975SOL    HW218825   4.481   5.224   1.153
 5976SOL     OW18826   1.569   4.318   5.295
 5976SOL    HW118827   1.601   4.230   5.259
 5976SOL    HW218828   1.496   4.353   5.237
 5977SOL     OW18829   6.628   5.338   1.160
 5977SOL    HW118830   6.655   5.433   1.176
 5977SOL    HW218831   6.594   5.297   1.244
 5978SOL     OW18832   2.916   3.752   6.366
 5978SOL    HW118833   2.965   3.787   6.445
 5978SOL    HW218834   2.960   3.669   6.333
 5979SOL     OW18835   6.329   6.771   1.079
 5979SOL    HW118836   6.287   6.777   1.170
 5979SOL    HW218837   6.409   6.830   1.076
 5980SOL     OW18838   3.292   2.501   0.909
 5980SOL    HW118839   3.196   2.530   0.903
 5980SOL    HW218840   3.341   2.534   0.829
 5981SOL     OW18841   2.904   2.451   1.079
 5981SOL    HW118842   2.973   2.398   1.130
 5981SOL    HW218843   2.844   2.497   1.144
 5982SOL     OW18844   5.202   2.675   1.486
 5982SOL    HW118845   5.132   2.655   1.554
 5982SOL    HW218846   5.240   2.590   1.450
 5983SOL     OW18847   6.933   1.199   3.370
 5983SOL    HW118848   7.000   1.272   3.375
 5983SOL    HW218849   6.963   1.121   3.425
 5984SOL     OW18850   5.883   5.882   3.323
 5984SOL    HW118851   5.797   5.837   3.297
 5984SOL    HW218852   5.958   5.842   3.271
 5985SOL     OW18853   0.280   3.975   2.893
 5985SOL    HW118854   0.376   3.947   2.884
 5985SOL    HW218855   0.225   3.896   2.920
 5986SOL     OW18856   3.775   3.498   3.592
 5986SOL    HW118857   3.688   3.529   3.630
 5986SOL    HW218858   3.842   3.487   3.665
 5987SOL     OW18859   0.009   5.652   4.583
 5987SOL    HW118860   0.037   5.713   4.508
 5987SOL    HW218861   0.084   5.644   4.648
 5988SOL     OW18862   1.062   3.235   7.007
 5988SOL    HW118863   1.090   3.155   0.037
 5988SOL    HW218864   0.975   3.215   6.962
 5989SOL     OW18865   2.021   6.966   5.353
 5989SOL    HW118866   1.964   6.922   5.423
 5989SOL    HW218867   2.000   0.040   5.349
 5990SOL     OW18868   2.027   4.538   1.715
 5990SOL    HW118869   2.111   4.487   1.695
 5990SOL    HW218870   2.019   4.616   1.654
 5991SOL     OW18871   5.398   1.258   0.836
 5991SOL    HW118872   5.442   1.222   0.754
 5991SOL    HW218873   5.463   1.257   0.912
 5992SOL     OW18874   3.076   5.174   3.175
 5992SOL    HW118875   3.085   5.186   3.274
 5992SOL    HW218876   3.085   5.077   3.152
 5993SOL     OW18877   5.630   2.056   0.703
 5993SOL    HW118878   5.610   2.143   0.657
 5993SOL    HW218879   5.716   2.019   0.668
 5994SOL     OW18880   0.026   3.671   0.034
 5994SOL    HW118881   7.001   3.723   0.103
 5994SOL    HW218882   0.076   3.733   6.997
 5995SOL     OW18883   5.475   3.301   1.386
 5995SOL    HW118884   5.517   3.227   1.332
 5995SOL    HW218885   5.387   3.270   1.422
 5996SOL     OW18886   2.635   0.216   1.898
 5996SOL    HW118887   2.734   0.202   1.901
 5996SOL    HW218888   2.598   0.171   1.817
 5997SOL     OW18889   5.994   0.405   4.198
 5997SOL    HW118890   5.988   0.440   4.104
 5997SOL    HW218891   6.011   0.482   4.261
 5998SOL     OW18892   6.259   6.398   6.653
 5998SOL    HW118893   6.190   6.454   6.699
 5998SOL    HW218894   6.349   6.416   6.693
 5999SOL     OW18895   5.586   3.546   1.339
 5999SOL    HW118896   5.555   3.451   1.345
 5999SOL    HW218897   5.511   3.607   1.366
 6000SOL     OW18898   1.236   4.482   0.975
 6000SOL    HW118899   1.256   4.537   0.894
 6000SOL    HW218900   1.317   4.481   1.034
 6001SOL     OW18901   6.570   5.755   5.434
 6001SOL    HW118902   6.552   5.763   5.336
 6001SOL    HW218903   6.656   5.707   5.449
 6002SOL     OW18904   5.392   4.571   4.946
 6002SOL    HW118905   5.413   4.664   4.915
 6002SOL    HW218906   5.335   4.576   5.028
 6003SOL     OW18907   2.712   2.319   5.379
 6003SOL    HW118908   2.681   2.311   5.474
 6003SOL    HW218909   2.812   2.327   5.378
 6004SOL     OW18910   5.309   3.408   5.114
 6004SOL    HW118911   5.385   3.366   5.163
 6004SOL    HW218912   5.279   3.489   5.163
 6005SOL     OW18913   3.867   4.075   0.614
 6005SOL    HW118914   3.962   4.078   0.584
 6005SOL    HW218915   3.861   4.028   0.702
 6006SOL     OW18916   3.050   6.322   6.582
 6006SOL    HW118917   3.132   6.296   6.532
 6006SOL    HW218918   3.064   6.412   6.624
 6007SOL     OW18919   2.405   6.679   5.253
 6007SOL    HW118920   2.368   6.772   5.249
 6007SOL    HW218921   2.419   6.644   5.160
 6008SOL     OW18922   2.035   4.118   6.494
 6008SOL    HW118923   2.055   4.024   6.522
 6008SOL    HW218924   1.948   4.121   6.445
 6009SOL     OW18925   3.770   5.265   2.740
 6009SOL    HW118926   3.758   5.166   2.740
 6009SOL    HW218927   3.868   5.287   2.740
 6010SOL     OW18928   0.247   4.879   5.093
 6010SOL    HW118929   0.233   4.964   5.044
 6010SOL    HW218930   0.170   4.862   5.155
 6011SOL     OW18931   5.126   1.390   3.132
 6011SOL    HW118932   5.042   1.336   3.132
 6011SOL    HW218933   5.168   1.386   3.042
 6012SOL     OW18934   6.813   1.106   5.870
 6012SOL    HW118935   6.902   1.101   5.825
 6012SOL    HW218936   6.774   1.197   5.855
 6013SOL     OW18937   5.623   1.197   2.349
 6013SOL    HW118938   5.714   1.226   2.378
 6013SOL    HW218939   5.557   1.271   2.363
 6014SOL     OW18940   3.551   3.817   4.128
 6014SOL    HW118941   3.493   3.838   4.049
 6014SOL    HW218942   3.633   3.875   4.126
 6015SOL     OW18943   5.973   6.798   4.427
 6015SOL    HW118944   6.014   6.880   4.467
 6015SOL    HW218945   5.926   6.822   4.342
 6016SOL     OW18946   4.055   2.155   4.743
 6016SOL    HW118947   4.050   2.192   4.835
 6016SOL    HW218948   4.114   2.073   4.743
 6017SOL     OW18949   1.409   1.797   5.294
 6017SOL    HW118950   1.459   1.822   5.377
 6017SOL    HW218951   1.338   1.731   5.317
 6018SOL     OW18952   2.661   1.366   3.967
 6018SOL    HW118953   2.749   1.326   3.993
 6018SOL    HW218954   2.600   1.366   4.047
 6019SOL     OW18955   6.723   4.613   6.614
 6019SOL    HW118956   6.731   4.680   6.541
 6019SOL    HW218957   6.730   4.521   6.576
 6020SOL     OW18958   0.621   5.202   5.512
 6020SOL    HW118959   0.706   5.151   5.522
 6020SOL    HW218960   0.620   5.248   5.423
 6021SOL     OW18961   5.618   0.257   3.311
 6021SOL    HW118962   5.705   0.261   3.359
 6021SOL    HW218963   5.633   0.232   3.215
 6022SOL     OW18964   6.243   2.799   1.643
 6022SOL    HW118965   6.154   2.842   1.662
 6022SOL    HW218966   6.233   2.700   1.642
 6023SOL     OW18967   4.794   6.689   2.427
 6023SOL    HW118968   4.793   6.606   2.371
 6023SOL    HW218969   4.724   6.682   2.498
 6024SOL     OW18970   0.220   5.993   6.491
 6024SOL    HW118971   0.195   5.922   6.557
 6024SOL    HW218972   0.319   5.990   6.475
 6025SOL     OW18973   2.839   0.755   5.777
 6025SOL    HW118974   2.889   0.841   5.768
 6025SOL    HW218975   2.749   0.765   5.734
 6026SOL     OW18976   5.985   5.465   3.588
 6026SOL    HW118977   5.937   5.417   3.661
 6026SOL    HW218978   5.922   5.527   3.541
 6027SOL     OW18979   5.731   5.208   6.456
 6027SOL    HW118980   5.662   5.266   6.412
 6027SOL    HW218981   5.803   5.186   6.390
 6028SOL     OW18982   6.014   6.299   6.069
 6028SOL    HW118983   6.081   6.289   5.995
 6028SOL    HW218984   6.060   6.287   6.157
 6029SOL     OW18985   3.176   1.641   2.693
 6029SOL    HW118986   3.273   1.616   2.692
 6029SOL    HW218987   3.129   1.596   2.616
 6030SOL     OW18988   6.226   3.147   4.490
 6030SOL    HW118989   6.250   3.237   4.525
 6030SOL    HW218990   6.296   3.081   4.516
 6031SOL     OW18991   0.296   6.248   4.498
 6031SOL    HW118992   0.308   6.163   4.550
 6031SOL    HW218993   0.212   6.242   4.444
 6032SOL     OW18994   3.507   6.634   3.077
 6032SOL    HW118995   3.478   6.652   2.983
 6032SOL    HW218996   3.428   6.643   3.139
 6033SOL     OW18997   0.631   1.458   2.364
 6033SOL    HW118998   0.669   1.547   2.386
 6033SOL    HW218999   0.565   1.431   2.434
 6034SOL     OW19000   0.595   0.195   0.766
 6034SOL    HW119001   0.526   0.261   0.735
 6034SOL    HW219002   0.678   0.206   0.712
 6035SOL     OW19003   2.409   0.211   2.467
 6035SOL    HW119004   2.448   0.276   2.402
 6035SOL    HW219005   2.457   0.218   2.554
 6036SOL     OW19006   6.320   3.396   0.589
 6036SOL    HW119007   6.335   3.390   0.687
 6036SOL    HW219008   6.373   3.472   0.551
 6037SOL     OW19009   4.675   1.212   5.902
 6037SOL    HW119010   4.727   1.285   5.858
 6037SOL    HW219011   4.577   1.235   5.901
 6038SOL     OW19012   1.660   1.217   6.077
 6038SOL    HW119013   1.676   1.139   6.015
 6038SOL    HW219014   1.592   1.192   6.146
 6039SOL     OW19015   4.064   3.210   4.021
 6039SOL    HW119016   4.057   3.221   4.120
 6039SOL    HW219017   4.034   3.118   3.995
 6040SOL     OW19018   0.831   2.125   0.042
 6040SOL    HW119019   0.760   2.148   6.999
 6040SOL    HW219020   0.791   2.124   0.133
 6041SOL     OW19021   0.451   3.451   5.167
 6041SOL    HW119022   0.515   3.484   5.237
 6041SOL    HW219023   0.446   3.352   5.170
 6042SOL     OW19024   2.861   5.874   3.904
 6042SOL    HW119025   2.825   5.953   3.855
 6042SOL    HW219026   2.792   5.803   3.909
 6043SOL     OW19027   2.424   6.960   2.431
 6043SOL    HW119028   2.368   6.921   2.505
 6043SOL    HW219029   2.419   0.036   2.435
 6044SOL     OW19030   0.282   3.309   0.375
 6044SOL    HW119031   0.206   3.368   0.347
 6044SOL    HW219032   0.248   3.216   0.386
 6045SOL     OW19033   5.315   1.118   4.131
 6045SOL    HW119034   5.263   1.033   4.122
 6045SOL    HW219035   5.405   1.106   4.090
 6046SOL     OW19036   3.662   3.375   2.766
 6046SOL    HW119037   3.679   3.350   2.670
 6046SOL    HW219038   3.667   3.294   2.823
 6047SOL     OW19039   0.099   2.005   0.294
 6047SOL    HW119040   0.004   2.008   0.323
 6047SOL    HW219041   0.119   1.916   0.254
 6048SOL     OW19042   5.641   5.744   3.237
 6048SOL    HW119043   5.592   5.671   3.188
 6048SOL    HW219044   5.610   5.833   3.203
 6049SOL     OW19045   4.717   4.781   6.433
 6049SOL    HW119046   4.740   4.688   6.404
 6049SOL    HW219047   4.622   4.784   6.462
 6050SOL     OW19048   2.911   5.350   2.473
 6050SOL    HW119049   2.944   5.429   2.526
 6050SOL    HW219050   2.932   5.364   2.376
 6051SOL     OW19051   0.731   1.101   2.489
 6051SOL    HW119052   0.669   1.110   2.567
 6051SOL    HW219053   0.823   1.128   2.516
 6052SOL     OW19054   5.398   5.351   0.641
 6052SOL    HW119055   5.370   5.311   0.729
 6052SOL    HW219056   5.316   5.369   0.586
 6053SOL     OW19057   4.396   2.423   6.569
 6053SOL    HW119058   4.433   2.496   6.511
 6053SOL    HW219059   4.309   2.392   6.532
 6054SOL     OW19060   4.189   3.855   0.763
 6054SOL    HW119061   4.181   3.887   0.857
 6054SOL    HW219062   4.278   3.810   0.750
 6055SOL     OW19063   3.178   3.855   1.421
 6055SOL    HW119064   3.192   3.806   1.508
 6055SOL    HW219065   3.168   3.952   1.440
 6056SOL     OW19066   5.322   5.614   3.572
 6056SOL    HW119067   5.385   5.682   3.610
 6056SOL    HW219068   5.298   5.640   3.478
 6057SOL     OW19069   5.697   1.097   3.480
 6057SOL    HW119070   5.607   1.078   3.440
 6057SOL    HW219071   5.710   1.196   3.487
 6058SOL     OW19072   0.079   2.473   5.795
 6058SOL    HW119073   0.170   2.508   5.819
 6058SOL    HW219074   0.051   2.512   5.707
 6059SOL     OW19075   4.153   2.728   7.023
 6059SOL    HW119076   4.199   2.649   6.981
 6059SOL    HW219077   4.152   2.804   6.958
 6060SOL     OW19078   2.234   2.714   0.517
 6060SOL    HW119079   2.302   2.733   0.588
 6060SOL    HW219080   2.144   2.742   0.550
 6061SOL     OW19081   3.233   4.111   0.133
 6061SOL    HW119082   3.151   4.055   0.145
 6061SOL    HW219083   3.209   4.207   0.148
 6062SOL     OW19084   2.064   2.225   6.426
 6062SOL    HW119085   2.134   2.257   6.362
 6062SOL    HW219086   1.975   2.262   6.397
 6063SOL     OW19087   4.549   3.991   6.543
 6063SOL    HW119088   4.452   3.967   6.545
 6063SOL    HW219089   4.565   4.068   6.605
 6064SOL     OW19090   5.673   6.169   0.908
 6064SOL    HW119091   5.575   6.165   0.891
 6064SOL    HW219092   5.695   6.119   0.991
 6065SOL     OW19093   2.264   6.159   1.576
 6065SOL    HW119094   2.237   6.087   1.640
 6065SOL    HW219095   2.338   6.126   1.518
 6066SOL     OW19096   5.738   5.456   2.549
 6066SOL    HW119097   5.723   5.514   2.630
 6066SOL    HW219098   5.835   5.457   2.525
 6067SOL     OW19099   0.232   5.907   5.608
 6067SOL    HW119100   0.211   6.000   5.637
 6067SOL    HW219101   0.276   5.909   5.519
 6068SOL     OW19102   4.493   2.105   4.437
 6068SOL    HW119103   4.406   2.062   4.461
 6068SOL    HW219104   4.524   2.163   4.513
 6069SOL     OW19105   0.365   4.801   6.029
 6069SOL    HW119106   0.341   4.866   5.957
 6069SOL    HW219107   0.334   4.710   6.003
 6070SOL     OW19108   2.618   1.524   0.856
 6070SOL    HW119109   2.574   1.454   0.913
 6070SOL    HW219110   2.638   1.604   0.912
 6071SOL     OW19111   5.737   1.008   6.044
 6071SOL    HW119112   5.648   1.019   6.089
 6071SOL    HW219113   5.808   1.045   6.103
 6072SOL     OW19114   6.710   3.272   7.020
 6072SOL    HW119115   6.673   3.311   0.081
 6072SOL    HW219116   6.729   3.346   6.955
 6073SOL     OW19117   4.669   3.601   0.797
 6073SOL    HW119118   4.607   3.625   0.722
 6073SOL    HW219119   4.668   3.502   0.812
 6074SOL     OW19120   0.768   6.545   2.549
 6074SOL    HW119121   0.810   6.612   2.487
 6074SOL    HW219122   0.840   6.499   2.601
 6075SOL     OW19123   5.883   0.489   0.062
 6075SOL    HW119124   5.946   0.425   0.018
 6075SOL    HW219125   5.915   0.583   0.047
 6076SOL     OW19126   0.730   6.361   3.560
 6076SOL    HW119127   0.796   6.288   3.578
 6076SOL    HW219128   0.717   6.371   3.461
 6077SOL     OW19129   5.078   5.945   2.828
 6077SOL    HW119130   5.138   5.952   2.748
 6077SOL    HW219131   4.990   5.906   2.800
 6078SOL     OW19132   4.978   4.347   0.784
 6078SOL    HW119133   4.915   4.274   0.758
 6078SOL    HW219134   5.016   4.390   0.702
 6079SOL     OW19135   3.314   2.235   0.361
 6079SOL    HW119136   3.242   2.176   0.326
 6079SOL    HW219137   3.388   2.241   0.294
 6080SOL     OW19138   0.031   3.633   5.835
 6080SOL    HW119139   0.057   3.728   5.820
 6080SOL    HW219140   7.014   3.596   5.751
 6081SOL     OW19141   2.165   3.684   3.596
 6081SOL    HW119142   2.257   3.684   3.634
 6081SOL    HW219143   2.128   3.777   3.598
 6082SOL     OW19144   5.062   1.218   1.418
 6082SOL    HW119145   5.059   1.206   1.319
 6082SOL    HW219146   5.030   1.310   1.442
 6083SOL     OW19147   5.002   0.003   6.530
 6083SOL    HW119148   5.074   0.007   6.599
 6083SOL    HW219149   4.970   0.096   6.509
 6084SOL     OW19150   5.978   5.160   3.015
 6084SOL    HW119151   5.885   5.168   2.978
 6084SOL    HW219152   6.002   5.063   3.023
 6085SOL     OW19153   0.632   6.722   0.813
 6085SOL    HW119154   0.611   6.721   0.911
 6085SOL    HW219155   0.560   6.674   0.763
 6086SOL     OW19156   3.188   3.612   0.058
 6086SOL    HW119157   3.131   3.671   0.000
 6086SOL    HW219158   3.225   3.537   0.002
 6087SOL     OW19159   4.255   6.791   0.498
 6087SOL    HW119160   4.225   6.884   0.517
 6087SOL    HW219161   4.310   6.789   0.415
 6088SOL     OW19162   4.594   5.894   2.523
 6088SOL    HW119163   4.684   5.889   2.567
 6088SOL    HW219164   4.565   5.990   2.519
 6089SOL     OW19165   6.200   3.939   2.921
 6089SOL    HW119166   6.222   4.036   2.913
 6089SOL    HW219167   6.149   3.910   2.840
 6090SOL     OW19168   3.780   5.669   4.882
 6090SOL    HW119169   3.748   5.725   4.806
 6090SOL    HW219170   3.776   5.722   4.967
 6091SOL     OW19171   0.332   1.955   1.934
 6091SOL    HW119172   0.302   1.971   2.028
 6091SOL    HW219173   0.273   2.007   1.871
 6092SOL     OW19174   2.546   6.848   1.360
 6092SOL    HW119175   2.528   6.771   1.422
 6092SOL    HW219176   2.462   6.874   1.313
 6093SOL     OW19177   2.537   2.601   1.856
 6093SOL    HW119178   2.493   2.552   1.780
 6093SOL    HW219179   2.515   2.699   1.849
 6094SOL     OW19180   0.716   6.641   5.602
 6094SOL    HW119181   0.746   6.653   5.508
 6094SOL    HW219182   0.792   6.656   5.665
 6095SOL     OW19183   5.383   5.077   2.209
 6095SOL    HW119184   5.417   4.993   2.251
 6095SOL    HW219185   5.456   5.122   2.158
 6096SOL     OW19186   5.107   6.155   3.032
 6096SOL    HW119187   5.189   6.211   3.040
 6096SOL    HW219188   5.089   6.136   2.936
 6097SOL     OW19189   2.963   5.417   2.221
 6097SOL    HW119190   3.061   5.415   2.236
 6097SOL    HW219191   2.938   5.347   2.153
 6098SOL     OW19192   6.454   1.074   5.034
 6098SOL    HW119193   6.395   1.154   5.046
 6098SOL    HW219194   6.401   0.991   5.048
 6099SOL     OW19195   4.335   0.152   5.601
 6099SOL    HW119196   4.295   0.114   5.684
 6099SOL    HW219197   4.330   0.084   5.527
 6100SOL     OW19198   0.927   5.629   5.363
 6100SOL    HW119199   0.888   5.635   5.455
 6100SOL    HW219200   0.987   5.708   5.348
 6101SOL     OW19201   0.204   2.730   1.702
 6101SOL    HW119202   0.148   2.668   1.757
 6101SOL    HW219203   0.146   2.796   1.655
 6102SOL     OW19204   3.641   0.051   2.944
 6102SOL    HW119205   3.623   0.055   3.042
 6102SOL    HW219206   3.733   0.017   2.928
 6103SOL     OW19207   6.098   1.183   2.936
 6103SOL    HW119208   6.029   1.134   2.884
 6103SOL    HW219209   6.071   1.279   2.947
 6104SOL     OW19210   6.643   1.834   4.604
 6104SOL    HW119211   6.698   1.900   4.554
 6104SOL    HW219212   6.688   1.811   4.690
 6105SOL     OW19213   4.028   4.339   5.912
 6105SOL    HW119214   4.079   4.418   5.944
 6105SOL    HW219215   4.084   4.285   5.850
 6106SOL     OW19216   6.323   4.538   4.892
 6106SOL    HW119217   6.275   4.515   4.977
 6106SOL    HW219218   6.410   4.489   4.888
 6107SOL     OW19219   5.449   5.075   5.588
 6107SOL    HW119220   5.541   5.050   5.558
 6107SOL    HW219221   5.390   4.994   5.587
 6108SOL     OW19222   2.346   1.360   6.291
 6108SOL    HW119223   2.363   1.452   6.254
 6108SOL    HW219224   2.327   1.298   6.215
 6109SOL     OW19225   0.562   6.464   4.210
 6109SOL    HW119226   0.624   6.435   4.137
 6109SOL    HW219227   0.468   6.445   4.183
 6110SOL     OW19228   1.368   1.317   4.367
 6110SOL    HW119229   1.350   1.220   4.348
 6110SOL    HW219230   1.359   1.370   4.283
 6111SOL     OW19231   2.251   3.411   0.633
 6111SOL    HW119232   2.319   3.338   0.641
 6111SOL    HW219233   2.280   3.476   0.563
 6112SOL     OW19234   4.608   6.528   3.705
 6112SOL    HW119235   4.543   6.497   3.636
 6112SOL    HW219236   4.688   6.567   3.660
 6113SOL     OW19237   3.184   5.549   0.703
 6113SOL    HW119238   3.115   5.594   0.760
 6113SOL    HW219239   3.245   5.619   0.665
 6114SOL     OW19240   4.580   2.563   0.890
 6114SOL    HW119241   4.504   2.498   0.890
 6114SOL    HW219242   4.574   2.621   0.809
 6115SOL     OW19243   0.815   0.939   5.255
 6115SOL    HW119244   0.732   0.993   5.244
 6115SOL    HW219245   0.853   0.955   5.347
 6116SOL     OW19246   5.756   3.850   0.218
 6116SOL    HW119247   5.667   3.856   0.263
 6116SOL    HW219248   5.828   3.844   0.287
 6117SOL     OW19249   1.883   2.326   1.550
 6117SOL    HW119250   1.834   2.304   1.465
 6117SOL    HW219251   1.949   2.254   1.570
 6118SOL     OW19252   5.630   0.912   1.916
 6118SOL    HW119253   5.622   0.969   1.998
 6118SOL    HW219254   5.701   0.949   1.856
 6119SOL     OW19255   7.023   1.441   6.986
 6119SOL    HW119256   6.941   1.395   7.018
 6119SOL    HW219257   7.003   1.537   6.968
 6120SOL     OW19258   3.242   0.468   4.169
 6120SOL    HW119259   3.337   0.440   4.157
 6120SOL    HW219260   3.203   0.422   4.249
 6121SOL     OW19261   2.028   1.838   5.237
 6121SOL    HW119262   1.977   1.762   5.197
 6121SOL    HW219263   2.090   1.876   5.168
 6122SOL     OW19264   4.758   4.950   4.902
 6122SOL    HW119265   4.667   4.964   4.862
 6122SOL    HW219266   4.784   5.032   4.953
 6123SOL     OW19267   6.119   1.026   5.186
 6123SOL    HW119268   6.178   1.040   5.266
 6123SOL    HW219269   6.024   1.018   5.216
 6124SOL     OW19270   2.728   5.427   3.911
 6124SOL    HW119271   2.808   5.455   3.964
 6124SOL    HW219272   2.693   5.340   3.945
 6125SOL     OW19273   3.384   1.610   5.935
 6125SOL    HW119274   3.385   1.530   5.995
 6125SOL    HW219275   3.305   1.605   5.874
 6126SOL     OW19276   6.246   3.255   6.150
 6126SOL    HW119277   6.152   3.225   6.134
 6126SOL    HW219278   6.308   3.201   6.092
 6127SOL     OW19279   5.269   1.650   2.865
 6127SOL    HW119280   5.188   1.702   2.838
 6127SOL    HW219281   5.247   1.553   2.866
 6128SOL     OW19282   5.656   5.889   6.627
 6128SOL    HW119283   5.598   5.956   6.673
 6128SOL    HW219284   5.725   5.856   6.691
 6129SOL     OW19285   3.224   5.948   3.012
 6129SOL    HW119286   3.131   5.983   3.017
 6129SOL    HW219287   3.289   6.023   3.027
 6130SOL     OW19288   5.825   3.259   7.008
 6130SOL    HW119289   5.777   3.277   0.071
 6130SOL    HW219290   5.761   3.270   6.932
 6131SOL     OW19291   6.505   2.196   3.160
 6131SOL    HW119292   6.539   2.103   3.172
 6131SOL    HW219293   6.408   2.200   3.185
 6132SOL     OW19294   4.435   6.855   6.302
 6132SOL    HW119295   4.533   6.871   6.295
 6132SOL    HW219296   4.417   6.784   6.371
 6133SOL     OW19297   0.608   2.112   2.726
 6133SOL    HW119298   0.592   2.026   2.775
 6133SOL    HW219299   0.594   2.188   2.789
 6134SOL     OW19300   0.453   6.724   5.658
 6134SOL    HW119301   0.535   6.677   5.624
 6134SOL    HW219302   0.444   6.709   5.756
 6135SOL     OW19303   6.711   0.323   0.579
 6135SOL    HW119304   6.640   0.252   0.574
 6135SOL    HW219305   6.667   0.412   0.587
 6136SOL     OW19306   1.091   2.028   3.726
 6136SOL    HW119307   1.042   2.078   3.654
 6136SOL    HW219308   1.154   2.090   3.773
 6137SOL     OW19309   0.238   4.603   1.247
 6137SOL    HW119310   0.301   4.531   1.221
 6137SOL    HW219311   0.261   4.687   1.198
 6138SOL     OW19312   4.962   0.634   2.365
 6138SOL    HW119313   5.060   0.633   2.386
 6138SOL    HW219314   4.912   0.669   2.444
 6139SOL     OW19315   1.639   1.357   4.797
 6139SOL    HW119316   1.711   1.289   4.810
 6139SOL    HW219317   1.678   1.449   4.805
 6140SOL     OW19318   1.947   0.043   2.756
 6140SOL    HW119319   1.892   0.048   2.840
 6140SOL    HW219320   2.027   7.009   2.773
 6141SOL     OW19321   0.863   1.033   6.811
 6141SOL    HW119322   0.952   0.988   6.823
 6141SOL    HW219323   0.805   1.010   6.889
 6142SOL     OW19324   5.925   0.570   1.304
 6142SOL    HW119325   6.006   0.563   1.245
 6142SOL    HW219326   5.955   0.590   1.397
 6143SOL     OW19327   0.305   3.411   5.584
 6143SOL    HW119328   0.303   3.345   5.510
 6143SOL    HW219329   0.273   3.500   5.552
 6144SOL     OW19330   3.848   5.523   2.383
 6144SOL    HW119331   3.820   5.434   2.418
 6144SOL    HW219332   3.947   5.523   2.365
 6145SOL     OW19333   4.848   3.198   3.886
 6145SOL    HW119334   4.936   3.244   3.880
 6145SOL    HW219335   4.779   3.262   3.920
 6146SOL     OW19336   6.011   0.344   5.379
 6146SOL    HW119337   6.107   0.323   5.360
 6146SOL    HW219338   5.978   0.283   5.451
 6147SOL     OW19339   1.028   2.390   5.435
 6147SOL    HW119340   0.952   2.354   5.382
 6147SOL    HW219341   1.086   2.447   5.377
 6148SOL     OW19342   3.268   5.538   6.933
 6148SOL    HW119343   3.349   5.503   6.979
 6148SOL    HW219344   3.193   5.472   6.943
 6149SOL     OW19345   3.774   1.509   2.119
 6149SOL    HW119346   3.807   1.478   2.030
 6149SOL    HW219347   3.728   1.597   2.109
 6150SOL     OW19348   0.301   4.447   4.592
 6150SOL    HW119349   0.292   4.378   4.521
 6150SOL    HW219350   0.366   4.416   4.661
 6151SOL     OW19351   4.118   5.049   2.902
 6151SOL    HW119352   4.094   4.975   2.965
 6151SOL    HW219353   4.076   5.134   2.933
 6152SOL     OW19354   1.803   4.380   3.472
 6152SOL    HW119355   1.828   4.475   3.459
 6152SOL    HW219356   1.757   4.345   3.390
 6153SOL     OW19357   4.921   6.045   1.031
 6153SOL    HW119358   4.992   6.114   1.045
 6153SOL    HW219359   4.964   5.955   1.019
 6154SOL     OW19360   5.197   3.874   2.307
 6154SOL    HW119361   5.110   3.829   2.328
 6154SOL    HW219362   5.213   3.873   2.208
 6155SOL     OW19363   2.044   1.432   3.792
 6155SOL    HW119364   1.972   1.433   3.861
 6155SOL    HW219365   2.041   1.518   3.740
 6156SOL     OW19366   5.562   4.270   2.228
 6156SOL    HW119367   5.554   4.299   2.324
 6156SOL    HW219368   5.492   4.201   2.209
 6157SOL     OW19369   0.601   3.162   1.053
 6157SOL    HW119370   0.605   3.106   0.970
 6157SOL    HW219371   0.618   3.104   1.133
 6158SOL     OW19372   2.771   2.063   4.985
 6158SOL    HW119373   2.810   1.992   4.928
 6158SOL    HW219374   2.830   2.079   5.064
 6159SOL     OW19375   6.014   2.757   0.089
 6159SOL    HW119376   5.990   2.853   0.101
 6159SOL    HW219377   6.011   2.711   0.178
 6160SOL     OW19378   0.946   0.839   1.235
 6160SOL    HW119379   1.004   0.776   1.287
 6160SOL    HW219380   0.860   0.794   1.213
 6161SOL     OW19381   4.696   3.952   0.114
 6161SOL    HW119382   4.789   3.987   0.123
 6161SOL    HW219383   4.648   4.000   0.040
 6162SOL     OW19384   6.809   5.613   2.325
 6162SOL    HW119385   6.862   5.590   2.244
 6162SOL    HW219386   6.770   5.704   2.316
 6163SOL     OW19387   6.215   5.878   2.866
 6163SOL    HW119388   6.314   5.885   2.862
 6163SOL    HW219389   6.179   5.951   2.925
 6164SOL     OW19390   2.956   3.485   4.500
 6164SOL    HW119391   2.905   3.567   4.523
 6164SOL    HW219392   3.053   3.499   4.522
 6165SOL     OW19393   3.405   1.858   0.102
 6165SOL    HW119394   3.496   1.856   0.143
 6165SOL    HW219395   3.339   1.889   0.170
 6166SOL     OW19396   3.099   2.187   6.627
 6166SOL    HW119397   3.120   2.099   6.583
 6166SOL    HW219398   3.126   2.262   6.566
 6167SOL     OW19399   1.607   3.543   3.233
 6167SOL    HW119400   1.574   3.638   3.235
 6167SOL    HW219401   1.706   3.543   3.225
 6168SOL     OW19402   0.625   3.471   3.443
 6168SOL    HW119403   0.687   3.463   3.521
 6168SOL    HW219404   0.601   3.380   3.410
 6169SOL     OW19405   2.035   0.857   6.635
 6169SOL    HW119406   2.130   0.848   6.666
 6169SOL    HW219407   2.027   0.941   6.581
 6170SOL     OW19408   2.904   3.988   1.013
 6170SOL    HW119409   2.997   3.959   0.987
 6170SOL    HW219410   2.857   4.024   0.932
 6171SOL     OW19411   2.083   3.529   1.784
 6171SOL    HW119412   2.128   3.504   1.869
 6171SOL    HW219413   1.985   3.539   1.799
 6172SOL     OW19414   2.717   5.756   2.548
 6172SOL    HW119415   2.783   5.757   2.624
 6172SOL    HW219416   2.625   5.742   2.585
 6173SOL     OW19417   1.503   5.889   2.214
 6173SOL    HW119418   1.600   5.877   2.195
 6173SOL    HW219419   1.478   5.833   2.293
 6174SOL     OW19420   6.065   4.759   2.032
 6174SOL    HW119421   6.021   4.784   1.945
 6174SOL    HW219422   6.124   4.834   2.063
 6175SOL     OW19423   5.178   0.390   3.273
 6175SOL    HW119424   5.274   0.406   3.296
 6175SOL    HW219425   5.164   0.293   3.254
 6176SOL     OW19426   4.932   2.997   6.387
 6176SOL    HW119427   4.918   3.049   6.471
 6176SOL    HW219428   4.847   2.994   6.335
 6177SOL     OW19429   6.771   3.146   1.762
 6177SOL    HW119430   6.674   3.145   1.787
 6177SOL    HW219431   6.793   3.233   1.718
 6178SOL     OW19432   5.711   3.445   2.219
 6178SOL    HW119433   5.715   3.412   2.125
 6178SOL    HW219434   5.787   3.509   2.234
 6179SOL     OW19435   0.495   2.173   5.103
 6179SOL    HW119436   0.535   2.138   5.187
 6179SOL    HW219437   0.396   2.186   5.115
 6180SOL     OW19438   3.359   0.208   6.137
 6180SOL    HW119439   3.436   0.145   6.145
 6180SOL    HW219440   3.393   0.302   6.141
 6181SOL     OW19441   4.265   5.968   6.808
 6181SOL    HW119442   4.172   6.000   6.822
 6181SOL    HW219443   4.319   5.985   6.890
 6182SOL     OW19444   4.945   6.240   6.347
 6182SOL    HW119445   4.979   6.148   6.326
 6182SOL    HW219446   5.021   6.305   6.344
 6183SOL     OW19447   3.034   0.741   2.899
 6183SOL    HW119448   3.005   0.788   2.982
 6183SOL    HW219449   3.077   0.654   2.923
 6184SOL     OW19450   6.204   0.624   6.586
 6184SOL    HW119451   6.155   0.709   6.568
 6184SOL    HW219452   6.145   0.560   6.634
 6185SOL     OW19453   1.150   3.269   5.634
 6185SOL    HW119454   1.163   3.188   5.576
 6185SOL    HW219455   1.074   3.323   5.598
 6186SOL     OW19456   5.417   6.852   4.684
 6186SOL    HW119457   5.463   6.929   4.728
 6186SOL    HW219458   5.413   6.775   4.748
 6187SOL     OW19459   2.554   4.654   4.609
 6187SOL    HW119460   2.469   4.691   4.647
 6187SOL    HW219461   2.626   4.657   4.679
 6188SOL     OW19462   2.923   0.181   1.571
 6188SOL    HW119463   3.010   0.222   1.546
 6188SOL    HW219464   2.926   0.082   1.554
 6189SOL     OW19465   5.388   4.484   3.027
 6189SOL    HW119466   5.322   4.418   3.062
 6189SOL    HW219467   5.472   4.479   3.082
 6190SOL     OW19468   5.328   2.689   5.706
 6190SOL    HW119469   5.261   2.759   5.730
 6190SOL    HW219470   5.390   2.674   5.783
 6191SOL     OW19471   6.503   2.610   6.407
 6191SOL    HW119472   6.512   2.514   6.434
 6191SOL    HW219473   6.421   2.621   6.351
 6192SOL     OW19474   2.926   2.158   0.491
 6192SOL    HW119475   2.865   2.083   0.516
 6192SOL    HW219476   2.953   2.208   0.574
 6193SOL     OW19477   5.936   6.838   1.113
 6193SOL    HW119478   5.950   6.936   1.099
 6193SOL    HW219479   6.001   6.803   1.180
 6194SOL     OW19480   1.779   0.767   0.622
 6194SOL    HW119481   1.706   0.705   0.596
 6194SOL    HW219482   1.776   0.784   0.720
 6195SOL     OW19483   2.583   6.564   6.174
 6195SOL    HW119484   2.521   6.529   6.244
 6195SOL    HW219485   2.661   6.501   6.165
 6196SOL     OW19486   0.241   1.264   6.020
 6196SOL    HW119487   0.170   1.299   5.959
 6196SOL    HW219488   0.227   1.166   6.035
 6197SOL     OW19489   2.329   3.025   0.519
 6197SOL    HW119490   2.267   2.989   0.588
 6197SOL    HW219491   2.282   3.031   0.431
 6198SOL     OW19492   4.249   5.197   2.355
 6198SOL    HW119493   4.257   5.211   2.454
 6198SOL    HW219494   4.159   5.158   2.334
 6199SOL     OW19495   1.045   0.586   6.278
 6199SOL    HW119496   0.988   0.646   6.334
 6199SOL    HW219497   1.087   0.516   6.337
 6200SOL     OW19498   3.850   0.658   5.935
 6200SOL    HW119499   3.796   0.688   6.013
 6200SOL    HW219500   3.927   0.602   5.968
 6201SOL     OW19501   2.552   4.486   3.724
 6201SOL    HW119502   2.545   4.388   3.705
 6201SOL    HW219503   2.509   4.506   3.813
 6202SOL     OW19504   3.137   2.737   1.353
 6202SOL    HW119505   3.136   2.639   1.329
 6202SOL    HW219506   3.059   2.757   1.412
 6203SOL     OW19507   5.140   2.153   5.233
 6203SOL    HW119508   5.225   2.107   5.259
 6203SOL    HW219509   5.064   2.111   5.282
 6204SOL     OW19510   1.636   6.662   5.835
 6204SOL    HW119511   1.622   6.667   5.736
 6204SOL    HW219512   1.668   6.751   5.869
 6205SOL     OW19513   5.215   6.458   0.210
 6205SOL    HW119514   5.310   6.480   0.232
 6205SOL    HW219515   5.212   6.384   0.143
 6206SOL     OW19516   5.495   0.039   3.439
 6206SOL    HW119517   5.502   6.981   3.381
 6206SOL    HW219518   5.541   0.116   3.394
 6207SOL     OW19519   1.742   4.241   4.356
 6207SOL    HW119520   1.820   4.266   4.298
 6207SOL    HW219521   1.726   4.314   4.423
 6208SOL     OW19522   5.224   5.890   6.091
 6208SOL    HW119523   5.271   5.950   6.026
 6208SOL    HW219524   5.200   5.942   6.173
 6209SOL     OW19525   3.191   5.301   0.851
 6209SOL    HW119526   3.267   5.256   0.804
 6209SOL    HW219527   3.159   5.378   0.795
 6210SOL     OW19528   6.878   4.958   3.128
 6210SOL    HW119529   6.942   4.947   3.204
 6210SOL    HW219530   6.875   4.874   3.074
 6211SOL     OW19531   2.366   0.476   5.032
 6211SOL    HW119532   2.413   0.479   4.943
 6211SOL    HW219533   2.411   0.411   5.092
 6212SOL     OW19534   6.875   6.935   3.810
 6212SOL    HW119535   6.921   6.907   3.726
 6212SOL    HW219536   6.938   6.990   3.865
 6213SOL     OW19537   6.596   0.194   0.094
 6213SOL    HW119538   6.544   0.193   0.008
 6213SOL    HW219539   6.668   0.262   0.088
 6214SOL     OW19540   5.770   4.854   2.431
 6214SOL    HW119541   5.794   4.789   2.359
 6214SOL    HW219542   5.829   4.934   2.425
 6215SOL     OW19543   2.618   5.130   1.048
 6215SOL    HW119544   2.646   5.060   0.982
 6215SOL    HW219545   2.697   5.158   1.102
 6216SOL     OW19546   6.384   1.835   2.528
 6216SOL    HW119547   6.453   1.902   2.556
 6216SOL    HW219548   6.313   1.830   2.597
 6217SOL     OW19549   5.364   3.018   1.951
 6217SOL    HW119550   5.412   3.043   1.867
 6217SOL    HW219551   5.381   3.087   2.021
 6218SOL     OW19552   3.872   4.861   4.419
 6218SOL    HW119553   3.967   4.832   4.410
 6218SOL    HW219554   3.852   4.883   4.514
 6219SOL     OW19555   0.864   1.613   4.185
 6219SOL    HW119556   0.920   1.660   4.117
 6219SOL    HW219557   0.769   1.643   4.176
 6220SOL     OW19558   1.613   4.049   5.167
 6220SOL    HW119559   1.681   3.976   5.179
 6220SOL    HW219560   1.601   4.068   5.069
 6221SOL     OW19561   4.471   5.132   4.414
 6221SOL    HW119562   4.445   5.178   4.499
 6221SOL    HW219563   4.404   5.154   4.343
 6222SOL     OW19564   0.204   1.664   1.137
 6222SOL    HW119565   0.300   1.637   1.138
 6222SOL    HW219566   0.191   1.743   1.198
 6223SOL     OW19567   5.313   4.059   4.716
 6223SOL    HW119568   5.271   3.998   4.650
 6223SOL    HW219569   5.380   4.008   4.771
 6224SOL     OW19570   2.810   0.687   4.691
 6224SOL    HW119571   2.818   0.655   4.785
 6224SOL    HW219572   2.755   0.623   4.638
 6225SOL     OW19573   4.583   2.295   6.733
 6225SOL    HW119574   4.520   2.339   6.668
 6225SOL    HW219575   4.569   2.196   6.729
 6226SOL     OW19576   6.518   6.495   4.659
 6226SOL    HW119577   6.432   6.542   4.679
 6226SOL    HW219578   6.588   6.562   4.634
 6227SOL     OW19579   2.486   4.496   6.810
 6227SOL    HW119580   2.541   4.576   6.785
 6227SOL    HW219581   2.389   4.520   6.806
 6228SOL     OW19582   0.087   1.135   2.556
 6228SOL    HW119583   0.096   1.068   2.629
 6228SOL    HW219584   0.109   1.092   2.468
 6229SOL     OW19585   1.416   2.486   1.951
 6229SOL    HW119586   1.499   2.475   2.005
 6229SOL    HW219587   1.405   2.583   1.927
 6230SOL     OW19588   1.643   2.091   3.393
 6230SOL    HW119589   1.568   2.067   3.330
 6230SOL    HW219590   1.688   2.175   3.361
 6231SOL     OW19591   6.767   5.503   1.366
 6231SOL    HW119592   6.682   5.486   1.416
 6231SOL    HW219593   6.835   5.541   1.430
 6232SOL     OW19594   0.932   1.551   6.811
 6232SOL    HW119595   0.981   1.638   6.819
 6232SOL    HW219596   0.911   1.534   6.715
 6233SOL     OW19597   4.375   1.628   6.259
 6233SOL    HW119598   4.354   1.687   6.336
 6233SOL    HW219599   4.298   1.566   6.243
 6234SOL     OW19600   1.883   2.812   3.060
 6234SOL    HW119601   1.934   2.846   3.139
 6234SOL    HW219602   1.785   2.813   3.079
 6235SOL     OW19603   1.897   6.291   3.198
 6235SOL    HW119604   1.810   6.243   3.185
 6235SOL    HW219605   1.886   6.387   3.172
 6236SOL     OW19606   6.792   4.015   0.245
 6236SOL    HW119607   6.701   4.053   0.227
 6236SOL    HW219608   6.861   4.085   0.227
 6237SOL     OW19609   4.044   6.259   0.083
 6237SOL    HW119610   4.065   6.275   7.010
 6237SOL    HW219611   4.123   6.219   0.128
 6238SOL     OW19612   4.522   3.956   1.083
 6238SOL    HW119613   4.494   3.904   1.002
 6238SOL    HW219614   4.594   4.021   1.058
 6239SOL     OW19615   2.481   0.402   3.717
 6239SOL    HW119616   2.396   0.424   3.668
 6239SOL    HW219617   2.464   0.407   3.816
 6240SOL     OW19618   2.253   3.774   0.322
 6240SOL    HW119619   2.233   3.786   0.224
 6240SOL    HW219620   2.284   3.681   0.339
 6241SOL     OW19621   4.457   0.446   1.554
 6241SOL    HW119622   4.549   0.485   1.551
 6241SOL    HW219623   4.462   0.348   1.572
 6242SOL     OW19624   3.621   2.053   3.624
 6242SOL    HW119625   3.530   2.084   3.653
 6242SOL    HW219626   3.681   2.046   3.704
 6243SOL     OW19627   5.332   5.322   3.278
 6243SOL    HW119628   5.361   5.286   3.366
 6243SOL    HW219629   5.336   5.249   3.209
 6244SOL     OW19630   1.910   2.026   2.149
 6244SOL    HW119631   1.955   2.109   2.116
 6244SOL    HW219632   1.892   2.035   2.248
 6245SOL     OW19633   2.266   3.831   0.735
 6245SOL    HW119634   2.331   3.819   0.660
 6245SOL    HW219635   2.187   3.770   0.720
 6246SOL     OW19636   4.279   0.815   0.014
 6246SOL    HW119637   4.212   0.769   0.071
 6246SOL    HW219638   4.371   0.794   0.047
 6247SOL     OW19639   6.754   5.839   3.026
 6247SOL    HW119640   6.771   5.805   2.934
 6247SOL    HW219641   6.691   5.916   3.022
 6248SOL     OW19642   1.120   4.836   1.194
 6248SOL    HW119643   1.105   4.934   1.203
 6248SOL    HW219644   1.168   4.801   1.275
 6249SOL     OW19645   5.226   4.211   6.360
 6249SOL    HW119646   5.234   4.115   6.383
 6249SOL    HW219647   5.237   4.223   6.261
 6250SOL     OW19648   5.690   5.379   5.859
 6250SOL    HW119649   5.708   5.287   5.893
 6250SOL    HW219650   5.592   5.398   5.864
 6251SOL     OW19651   4.487   1.887   0.949
 6251SOL    HW119652   4.523   1.937   0.870
 6251SOL    HW219653   4.544   1.808   0.968
 6252SOL     OW19654   2.008   6.233   5.232
 6252SOL    HW119655   2.008   6.184   5.319
 6252SOL    HW219656   2.102   6.250   5.203
 6253SOL     OW19657   2.169   4.206   1.531
 6253SOL    HW119658   2.159   4.263   1.450
 6253SOL    HW219659   2.265   4.203   1.559
 6254SOL     OW19660   5.317   0.465   0.364
 6254SOL    HW119661   5.255   0.419   0.427
 6254SOL    HW219662   5.361   0.542   0.410
 6255SOL     OW19663   6.588   2.135   2.793
 6255SOL    HW119664   6.580   2.106   2.697
 6255SOL    HW219665   6.677   2.108   2.829
 6256SOL     OW19666   3.620   5.187   3.647
 6256SOL    HW119667   3.648   5.282   3.663
 6256SOL    HW219668   3.523   5.177   3.669
 6257SOL     OW19669   4.425   2.880   0.537
 6257SOL    HW119670   4.495   2.930   0.486
 6257SOL    HW219671   4.337   2.892   0.493
 6258SOL     OW19672   4.985   2.539   2.719
 6258SOL    HW119673   4.926   2.584   2.652
 6258SOL    HW219674   4.991   2.597   2.801
 6259SOL     OW19675   3.010   2.155   1.761
 6259SOL    HW119676   3.000   2.243   1.809
 6259SOL    HW219677   2.963   2.159   1.673
 6260SOL     OW19678   3.619   3.454   0.874
 6260SOL    HW119679   3.541   3.402   0.839
 6260SOL    HW219680   3.586   3.531   0.928
 6261SOL     OW19681   4.775   0.639   6.540
 6261SOL    HW119682   4.735   0.665   6.453
 6261SOL    HW219683   4.750   0.707   6.610
 6262SOL     OW19684   0.364   5.895   5.374
 6262SOL    HW119685   0.425   5.826   5.413
 6262SOL    HW219686   0.413   5.981   5.363
 6263SOL     OW19687   6.461   1.190   0.714
 6263SOL    HW119688   6.389   1.140   0.666
 6263SOL    HW219689   6.465   1.284   0.680
 6264SOL     OW19690   2.119   1.508   6.718
 6264SOL    HW119691   2.139   1.561   6.636
 6264SOL    HW219692   2.041   1.549   6.766
 6265SOL     OW19693   4.750   3.760   1.140
 6265SOL    HW119694   4.761   3.843   1.195
 6265SOL    HW219695   4.830   3.749   1.080
 6266SOL     OW19696   2.394   6.962   2.002
 6266SOL    HW119697   2.410   6.866   2.025
 6266SOL    HW219698   2.424   6.979   1.909
 6267SOL     OW19699   2.409   6.908   6.572
 6267SOL    HW119700   2.394   6.819   6.615
 6267SOL    HW219701   2.496   6.906   6.521
 6268SOL     OW19702   3.061   5.238   2.724
 6268SOL    HW119703   3.031   5.223   2.818
 6268SOL    HW219704   3.025   5.326   2.692
 6269SOL     OW19705   5.883   4.948   0.305
 6269SOL    HW119706   5.975   4.920   0.333
 6269SOL    HW219707   5.849   4.884   0.236
 6270SOL     OW19708   0.518   1.251   4.283
 6270SOL    HW119709   0.535   1.292   4.372
 6270SOL    HW219710   0.602   1.210   4.248
 6271SOL     OW19711   6.093   1.748   0.929
 6271SOL    HW119712   6.147   1.832   0.930
 6271SOL    HW219713   6.148   1.673   0.966
 6272SOL     OW19714   1.659   1.970   3.642
 6272SOL    HW119715   1.653   1.985   3.543
 6272SOL    HW219716   1.754   1.979   3.671
 6273SOL     OW19717   4.268   0.629   2.468
 6273SOL    HW119718   4.256   0.630   2.369
 6273SOL    HW219719   4.362   0.652   2.491
 6274SOL     OW19720   2.747   6.394   6.480
 6274SOL    HW119721   2.661   6.439   6.502
 6274SOL    HW219722   2.822   6.437   6.531
 6275SOL     OW19723   2.853   0.568   4.332
 6275SOL    HW119724   2.842   0.533   4.238
 6275SOL    HW219725   2.884   0.663   4.329
 6276SOL     OW19726   1.580   4.954   3.894
 6276SOL    HW119727   1.629   4.883   3.844
 6276SOL    HW219728   1.543   4.915   3.979
 6277SOL     OW19729   5.913   3.153   3.903
 6277SOL    HW119730   5.904   3.225   3.834
 6277SOL    HW219731   6.002   3.162   3.948
 6278SOL     OW19732   4.570   0.856   4.345
 6278SOL    HW119733   4.626   0.804   4.410
 6278SOL    HW219734   4.545   0.798   4.268
 6279SOL     OW19735   4.697   1.698   6.849
 6279SOL    HW119736   4.749   1.625   6.894
 6279SOL    HW219737   4.626   1.732   6.911
 6280SOL     OW19738   0.808   5.403   5.984
 6280SOL    HW119739   0.741   5.341   5.943
 6280SOL    HW219740   0.891   5.405   5.927
 6281SOL     OW19741   2.769   6.949   4.961
 6281SOL    HW119742   2.829   6.870   4.977
 6281SOL    HW219743   2.686   6.920   4.914
 6282SOL     OW19744   1.447   0.087   3.285
 6282SOL    HW119745   1.420   7.015   3.288
 6282SOL    HW219746   1.376   0.141   3.241
 6283SOL     OW19747   0.664   3.151   5.089
 6283SOL    HW119748   0.675   3.210   5.009
 6283SOL    HW219749   0.724   3.071   5.080
 6284SOL     OW19750   2.188   4.942   6.433
 6284SOL    HW119751   2.235   4.967   6.348
 6284SOL    HW219752   2.234   4.863   6.474
 6285SOL     OW19753   2.154   4.754   2.665
 6285SOL    HW119754   2.240   4.804   2.653
 6285SOL    HW219755   2.175   4.658   2.687
 6286SOL     OW19756   6.001   0.108   5.205
 6286SOL    HW119757   6.082   0.164   5.188
 6286SOL    HW219758   5.944   0.152   5.275
 6287SOL     OW19759   4.090   4.833   2.395
 6287SOL    HW119760   4.038   4.911   2.362
 6287SOL    HW219761   4.072   4.819   2.492
 6288SOL     OW19762   5.344   3.689   1.423
 6288SOL    HW119763   5.300   3.731   1.344
 6288SOL    HW219764   5.285   3.617   1.460
 6289SOL     OW19765   1.151   6.750   2.560
 6289SOL    HW119766   1.192   6.832   2.601
 6289SOL    HW219767   1.126   6.770   2.465
 6290SOL     OW19768   6.055   3.069   3.536
 6290SOL    HW119769   6.101   3.130   3.601
 6290SOL    HW219770   6.118   3.048   3.461
 6291SOL     OW19771   4.074   3.830   3.232
 6291SOL    HW119772   4.009   3.803   3.304
 6291SOL    HW219773   4.164   3.843   3.272
 6292SOL     OW19774   0.021   1.798   2.010
 6292SOL    HW119775   0.079   1.743   2.069
 6292SOL    HW219776   6.970   1.742   1.975
 6293SOL     OW19777   5.311   5.197   0.875
 6293SOL    HW119778   5.369   5.191   0.956
 6293SOL    HW219779   5.239   5.127   0.880
 6294SOL     OW19780   3.645   5.678   2.466
 6294SOL    HW119781   3.704   5.608   2.426
 6294SOL    HW219782   3.680   5.769   2.444
 6295SOL     OW19783   6.646   6.457   5.803
 6295SOL    HW119784   6.588   6.514   5.746
 6295SOL    HW219785   6.629   6.478   5.900
 6296SOL     OW19786   0.075   0.945   2.363
 6296SOL    HW119787   0.158   0.918   2.313
 6296SOL    HW219788   7.023   0.952   2.299
 6297SOL     OW19789   5.902   0.980   5.625
 6297SOL    HW119790   5.990   0.932   5.628
 6297SOL    HW219791   5.835   0.925   5.575
 6298SOL     OW19792   0.229   1.588   3.969
 6298SOL    HW119793   0.235   1.545   3.879
 6298SOL    HW219794   0.308   1.561   4.024
 6299SOL     OW19795   6.028   3.049   0.598
 6299SOL    HW119796   6.054   3.119   0.532
 6299SOL    HW219797   6.087   3.057   0.679
 6300SOL     OW19798   5.067   1.614   3.652
 6300SOL    HW119799   5.079   1.713   3.662
 6300SOL    HW219800   4.984   1.596   3.599
 6301SOL     OW19801   3.041   0.725   0.702
 6301SOL    HW119802   3.106   0.660   0.661
 6301SOL    HW219803   2.960   0.675   0.734
 6302SOL     OW19804   0.014   0.861   2.621
 6302SOL    HW119805   0.034   0.901   2.531
 6302SOL    HW219806   6.942   0.880   2.645
 6303SOL     OW19807   1.971   5.829   5.103
 6303SOL    HW119808   2.070   5.830   5.097
 6303SOL    HW219809   1.943   5.785   5.189
 6304SOL     OW19810   4.157   1.307   5.336
 6304SOL    HW119811   4.149   1.369   5.258
 6304SOL    HW219812   4.094   1.230   5.325
 6305SOL     OW19813   5.653   1.187   2.059
 6305SOL    HW119814   5.713   1.260   2.026
 6305SOL    HW219815   5.660   1.180   2.158
 6306SOL     OW19816   5.930   2.664   4.405
 6306SOL    HW119817   6.028   2.684   4.413
 6306SOL    HW219818   5.903   2.669   4.309
 6307SOL     OW19819   2.106   4.539   0.243
 6307SOL    HW119820   2.204   4.559   0.232
 6307SOL    HW219821   2.054   4.622   0.225
 6308SOL     OW19822   3.649   2.497   5.718
 6308SOL    HW119823   3.741   2.457   5.721
 6308SOL    HW219824   3.588   2.443   5.776
 6309SOL     OW19825   5.854   2.082   4.971
 6309SOL    HW119826   5.875   2.003   5.030
 6309SOL    HW219827   5.800   2.148   5.023
 6310SOL     OW19828   0.583   5.176   4.133
 6310SOL    HW119829   0.663   5.118   4.119
 6310SOL    HW219830   0.503   5.134   4.089
 6311SOL     OW19831   6.176   6.289   4.002
 6311SOL    HW119832   6.209   6.324   4.090
 6311SOL    HW219833   6.125   6.204   4.018
 6312SOL     OW19834   5.250   4.854   5.593
 6312SOL    HW119835   5.283   4.850   5.499
 6312SOL    HW219836   5.153   4.876   5.594
 6313SOL     OW19837   2.801   5.220   3.693
 6313SOL    HW119838   2.876   5.171   3.650
 6313SOL    HW219839   2.767   5.291   3.631
 6314SOL     OW19840   1.806   6.688   3.755
 6314SOL    HW119841   1.830   6.768   3.701
 6314SOL    HW219842   1.850   6.693   3.844
 6315SOL     OW19843   2.511   4.079   0.635
 6315SOL    HW119844   2.544   4.134   0.558
 6315SOL    HW219845   2.467   3.996   0.601
 6316SOL     OW19846   4.812   1.376   5.717
 6316SOL    HW119847   4.828   1.288   5.673
 6316SOL    HW219848   4.747   1.429   5.662
 6317SOL     OW19849   6.131   5.334   4.191
 6317SOL    HW119850   6.185   5.254   4.165
 6317SOL    HW219851   6.034   5.319   4.170
 6318SOL     OW19852   1.951   2.413   4.435
 6318SOL    HW119853   1.970   2.447   4.527
 6318SOL    HW219854   1.862   2.447   4.404
 6319SOL     OW19855   0.839   1.785   2.935
 6319SOL    HW119856   0.905   1.850   2.897
 6319SOL    HW219857   0.877   1.743   3.017
 6320SOL     OW19858   0.244   1.678   3.041
 6320SOL    HW119859   0.324   1.736   3.058
 6320SOL    HW219860   0.225   1.623   3.122
 6321SOL     OW19861   2.524   3.748   5.811
 6321SOL    HW119862   2.475   3.805   5.745
 6321SOL    HW219863   2.597   3.801   5.854
 6322SOL     OW19864   1.669   0.486   6.586
 6322SOL    HW119865   1.659   0.425   6.664
 6322SOL    HW219866   1.621   0.572   6.604
 6323SOL     OW19867   4.355   1.453   1.006
 6323SOL    HW119868   4.316   1.420   0.920
 6323SOL    HW219869   4.280   1.484   1.066
 6324SOL     OW19870   3.951   2.450   6.192
 6324SOL    HW119871   3.855   2.457   6.216
 6324SOL    HW219872   4.006   2.451   6.275
 6325SOL     OW19873   1.429   2.537   2.696
 6325SOL    HW119874   1.482   2.621   2.703
 6325SOL    HW219875   1.445   2.495   2.606
 6326SOL     OW19876   4.284   6.398   1.336
 6326SOL    HW119877   4.366   6.409   1.392
 6326SOL    HW219878   4.203   6.402   1.394
 6327SOL     OW19879   3.822   5.174   5.901
 6327SOL    HW119880   3.902   5.179   5.841
 6327SOL    HW219881   3.742   5.147   5.848
 6328SOL     OW19882   2.978   4.418   6.724
 6328SOL    HW119883   2.989   4.489   6.794
 6328SOL    HW219884   2.884   4.383   6.727
 6329SOL     OW19885   1.366   1.290   2.659
 6329SOL    HW119886   1.337   1.346   2.581
 6329SOL    HW219887   1.291   1.282   2.724
 6330SOL     OW19888   3.564   0.876   0.004
 6330SOL    HW119889   3.661   0.900   7.021
 6330SOL    HW219890   3.523   0.927   0.079
 6331SOL     OW19891   5.585   2.660   2.350
 6331SOL    HW119892   5.549   2.720   2.279
 6331SOL    HW219893   5.684   2.665   2.351
 6332SOL     OW19894   5.028   6.624   2.805
 6332SOL    HW119895   5.048   6.580   2.893
 6332SOL    HW219896   4.996   6.555   2.740
 6333SOL     OW19897   2.270   5.170   2.942
 6333SOL    HW119898   2.356   5.221   2.941
 6333SOL    HW219899   2.256   5.130   3.032
 6334SOL     OW19900   2.879   1.758   2.494
 6334SOL    HW119901   2.794   1.762   2.441
 6334SOL    HW219902   2.861   1.780   2.589
 6335SOL     OW19903   0.505   1.515   0.166
 6335SOL    HW119904   0.558   1.436   0.198
 6335SOL    HW219905   0.411   1.487   0.146
 6336SOL     OW19906   0.983   3.047   4.926
 6336SOL    HW119907   1.027   3.029   4.838
 6336SOL    HW219908   1.018   3.132   4.964
 6337SOL     OW19909   6.910   4.860   4.974
 6337SOL    HW119910   6.817   4.843   4.941
 6337SOL    HW219911   6.945   4.944   4.931
 6338SOL     OW19912   3.888   1.085   4.346
 6338SOL    HW119913   3.816   1.153   4.333
 6338SOL    HW219914   3.910   1.042   4.259
 6339SOL     OW19915   0.517   2.890   4.971
 6339SOL    HW119916   0.613   2.868   4.984
 6339SOL    HW219917   0.469   2.811   4.932
 6340SOL     OW19918   2.628   5.174   4.033
 6340SOL    HW119919   2.599   5.105   4.100
 6340SOL    HW219920   2.583   5.156   3.945
 6341SOL     OW19921   6.458   5.410   2.461
 6341SOL    HW119922   6.516   5.491   2.447
 6341SOL    HW219923   6.452   5.359   2.375
 6342SOL     OW19924   1.424   3.585   0.850
 6342SOL    HW119925   1.398   3.508   0.793
 6342SOL    HW219926   1.346   3.646   0.862
 6343SOL     OW19927   4.529   1.045   0.315
 6343SOL    HW119928   4.572   1.043   0.224
 6343SOL    HW219929   4.429   1.050   0.304
 6344SOL     OW19930   6.853   4.653   4.485
 6344SOL    HW119931   6.808   4.628   4.571
 6344SOL    HW219932   6.951   4.668   4.503
 6345SOL     OW19933   2.626   2.403   2.070
 6345SOL    HW119934   2.612   2.451   1.984
 6345SOL    HW219935   2.724   2.387   2.085
 6346SOL     OW19936   0.640   5.504   4.404
 6346SOL    HW119937   0.606   5.410   4.402
 6346SOL    HW219938   0.598   5.556   4.330
 6347SOL     OW19939   2.731   0.164   1.036
 6347SOL    HW119940   2.809   0.130   0.982
 6347SOL    HW219941   2.751   0.256   1.069
 6348SOL     OW19942   1.066   2.589   4.866
 6348SOL    HW119943   1.094   2.637   4.949
 6348SOL    HW219944   1.097   2.494   4.869
 6349SOL     OW19945   1.868   0.912   0.403
 6349SOL    HW119946   1.854   0.871   0.494
 6349SOL    HW219947   1.783   0.906   0.351
 6350SOL     OW19948   0.325   5.203   3.406
 6350SOL    HW119949   0.369   5.238   3.489
 6350SOL    HW219950   0.234   5.168   3.429
 6351SOL     OW19951   6.717   1.361   3.222
 6351SOL    HW119952   6.791   1.330   3.282
 6351SOL    HW219953   6.750   1.434   3.163
 6352SOL     OW19954   0.295   5.438   2.390
 6352SOL    HW119955   0.308   5.492   2.306
 6352SOL    HW219956   0.383   5.428   2.437
 6353SOL     OW19957   0.414   6.512   1.967
 6353SOL    HW119958   0.491   6.556   2.013
 6353SOL    HW219959   0.392   6.427   2.015
 6354SOL     OW19960   6.925   6.771   4.660
 6354SOL    HW119961   6.853   6.752   4.726
 6354SOL    HW219962   6.971   6.686   4.635
 6355SOL     OW19963   0.916   2.876   2.293
 6355SOL    HW119964   0.922   2.946   2.222
 6355SOL    HW219965   0.835   2.820   2.277
 6356SOL     OW19966   3.301   2.874   0.769
 6356SOL    HW119967   3.348   2.958   0.739
 6356SOL    HW219968   3.347   2.794   0.730
 6357SOL     OW19969   4.881   1.787   0.687
 6357SOL    HW119970   4.968   1.777   0.640
 6357SOL    HW219971   4.810   1.736   0.638
 6358SOL     OW19972   0.775   3.242   3.739
 6358SOL    HW119973   0.772   3.266   3.836
 6358SOL    HW219974   0.796   3.324   3.685
 6359SOL     OW19975   0.206   1.690   6.476
 6359SOL    HW119976   0.130   1.740   6.434
 6359SOL    HW219977   0.174   1.646   6.560
 6360SOL     OW19978   3.388   5.063   4.304
 6360SOL    HW119979   3.481   5.032   4.285
 6360SOL    HW219980   3.373   5.151   4.260
 6361SOL     OW19981   3.058   7.009   5.936
 6361SOL    HW119982   2.979   6.951   5.954
 6361SOL    HW219983   3.069   0.051   6.010
 6362SOL     OW19984   6.223   5.502   6.407
 6362SOL    HW119985   6.151   5.460   6.351
 6362SOL    HW219986   6.247   5.441   6.482
 6363SOL     OW19987   0.819   5.741   4.337
 6363SOL    HW119988   0.884   5.796   4.390
 6363SOL    HW219989   0.803   5.786   4.249
 6364SOL     OW19990   1.825   2.577   6.643
 6364SOL    HW119991   1.908   2.567   6.698
 6364SOL    HW219992   1.849   2.570   6.546
 6365SOL     OW19993   4.732   5.308   2.843
 6365SOL    HW119994   4.642   5.328   2.881
 6365SOL    HW219995   4.721   5.258   2.757
 6366SOL     OW19996   0.275   4.712   5.429
 6366SOL    HW119997   0.261   4.676   5.337
 6366SOL    HW219998   0.367   4.750   5.437
 6367SOL     OW19999   5.922   6.242   2.588
 6367SOL    HW120000   5.835   6.284   2.561
 6367SOL    HW220001   5.903   6.157   2.637
 6368SOL     OW20002   3.452   0.491   3.557
 6368SOL    HW120003   3.365   0.475   3.604
 6368SOL    HW220004   3.496   0.572   3.595
 6369SOL     OW20005   2.037   5.120   5.530
 6369SOL    HW120006   1.996   5.169   5.607
 6369SOL    HW220007   2.084   5.185   5.471
 6370SOL     OW20008   5.556   2.669   1.934
 6370SOL    HW120009   5.574   2.749   1.991
 6370SOL    HW220010   5.472   2.683   1.881
 6371SOL     OW20011   4.515   1.678   4.040
 6371SOL    HW120012   4.526   1.744   4.115
 6371SOL    HW220013   4.418   1.659   4.027
 6372SOL     OW20014   3.237   6.481   2.134
 6372SOL    HW120015   3.164   6.416   2.154
 6372SOL    HW220016   3.250   6.542   2.212
 6373SOL     OW20017   3.261   5.541   0.233
 6373SOL    HW120018   3.351   5.586   0.235
 6373SOL    HW220019   3.272   5.448   0.198
 6374SOL     OW20020   3.069   2.993   2.655
 6374SOL    HW120021   3.107   3.028   2.740
 6374SOL    HW220022   2.979   3.033   2.640
 6375SOL     OW20023   1.807   5.887   2.315
 6375SOL    HW120024   1.834   5.969   2.265
 6375SOL    HW220025   1.888   5.834   2.339
 6376SOL     OW20026   0.588   2.620   5.106
 6376SOL    HW120027   0.526   2.544   5.083
 6376SOL    HW220028   0.676   2.606   5.060
 6377SOL     OW20029   0.861   1.964   3.434
 6377SOL    HW120030   0.787   1.901   3.412
 6377SOL    HW220031   0.857   1.987   3.532
 6378SOL     OW20032   4.358   4.976   3.201
 6378SOL    HW120033   4.320   5.006   3.289
 6378SOL    HW220034   4.452   4.945   3.215
 6379SOL     OW20035   2.410   4.676   2.055
 6379SOL    HW120036   2.352   4.700   1.977
 6379SOL    HW220037   2.363   4.697   2.140
 6380SOL     OW20038   1.133   0.592   5.984
 6380SOL    HW120039   1.089   0.579   6.073
 6380SOL    HW220040   1.067   0.574   5.911
 6381SOL     OW20041   2.995   3.206   2.089
 6381SOL    HW120042   2.897   3.203   2.069
 6381SOL    HW220043   3.044   3.237   2.008
 6382SOL     OW20044   0.757   4.363   5.249
 6382SOL    HW120045   0.721   4.455   5.238
 6382SOL    HW220046   0.753   4.315   5.162
 6383SOL     OW20047   4.243   1.560   4.006
 6383SOL    HW120048   4.164   1.607   3.966
 6383SOL    HW220049   4.247   1.580   4.104
 6384SOL     OW20050   6.807   4.705   2.655
 6384SOL    HW120051   6.835   4.609   2.660
 6384SOL    HW220052   6.832   4.742   2.566
 6385SOL     OW20053   0.748   5.887   4.598
 6385SOL    HW120054   0.773   5.794   4.569
 6385SOL    HW220055   0.740   5.889   4.697
 6386SOL     OW20056   2.442   5.455   1.836
 6386SOL    HW120057   2.507   5.506   1.892
 6386SOL    HW220058   2.487   5.424   1.753
 6387SOL     OW20059   6.710   1.415   5.387
 6387SOL    HW120060   6.744   1.502   5.349
 6387SOL    HW220061   6.772   1.383   5.458
 6388SOL     OW20062   2.432   4.822   2.611
 6388SOL    HW120063   2.474   4.904   2.572
 6388SOL    HW220064   2.487   4.789   2.687
 6389SOL     OW20065   0.856   4.851   1.612
 6389SOL    HW120066   0.893   4.900   1.533
 6389SOL    HW220067   0.916   4.863   1.691
 6390SOL     OW20068   0.543   2.598   4.319
 6390SOL    HW120069   0.550   2.697   4.315
 6390SOL    HW220070   0.596   2.557   4.245
 6391SOL     OW20071   3.802   0.965   6.967
 6391SOL    HW120072   3.848   0.908   6.900
 6391SOL    HW220073   3.783   1.055   6.927
 6392SOL     OW20074   1.740   6.077   4.302
 6392SOL    HW120075   1.827   6.113   4.336
 6392SOL    HW220076   1.682   6.051   4.379
 6393SOL     OW20077   5.211   1.457   1.026
 6393SOL    HW120078   5.268   1.401   0.966
 6393SOL    HW220079   5.269   1.518   1.080
 6394SOL     OW20080   3.300   4.763   1.735
 6394SOL    HW120081   3.386   4.733   1.777
 6394SOL    HW220082   3.286   4.860   1.754
 6395SOL     OW20083   5.981   1.844   0.420
 6395SOL    HW120084   5.916   1.885   0.483
 6395SOL    HW220085   5.932   1.787   0.354
 6396SOL     OW20086   6.697   3.572   5.640
 6396SOL    HW120087   6.704   3.644   5.709
 6396SOL    HW220088   6.749   3.599   5.559
 6397SOL     OW20089   6.647   1.145   0.259
 6397SOL    HW120090   6.662   1.143   0.358
 6397SOL    HW220091   6.727   1.108   0.212
 6398SOL     OW20092   3.792   0.848   1.316
 6398SOL    HW120093   3.864   0.810   1.258
 6398SOL    HW220094   3.800   0.948   1.318
 6399SOL     OW20095   2.238   6.150   6.565
 6399SOL    HW120096   2.304   6.094   6.615
 6399SOL    HW220097   2.279   6.182   6.479
 6400SOL     OW20098   2.731   5.000   4.296
 6400SOL    HW120099   2.756   4.929   4.362
 6400SOL    HW220100   2.650   5.049   4.328
 6401SOL     OW20101   0.779   4.247   4.993
 6401SOL    HW120102   0.792   4.319   4.926
 6401SOL    HW220103   0.829   4.165   4.964
 6402SOL     OW20104   1.696   2.361   3.319
 6402SOL    HW120105   1.769   2.360   3.387
 6402SOL    HW220106   1.733   2.389   3.230
 6403SOL     OW20107   1.240   6.762   1.462
 6403SOL    HW120108   1.234   6.747   1.364
 6403SOL    HW220109   1.309   6.832   1.481
 6404SOL     OW20110   5.114   0.879   3.290
 6404SOL    HW120111   5.177   0.804   3.307
 6404SOL    HW220112   5.111   0.898   3.191
 6405SOL     OW20113   3.220   0.917   1.413
 6405SOL    HW120114   3.297   0.956   1.464
 6405SOL    HW220115   3.195   0.978   1.338
 6406SOL     OW20116   2.430   2.244   3.450
 6406SOL    HW120117   2.424   2.324   3.509
 6406SOL    HW220118   2.525   2.213   3.445
 6407SOL     OW20119   4.899   5.552   5.812
 6407SOL    HW120120   4.810   5.595   5.826
 6407SOL    HW220121   4.960   5.579   5.886
 6408SOL     OW20122   5.889   2.054   0.591
 6408SOL    HW120123   5.874   2.128   0.526
 6408SOL    HW220124   5.926   2.091   0.676
 6409SOL     OW20125   0.820   4.851   1.923
 6409SOL    HW120126   0.733   4.899   1.916
 6409SOL    HW220127   0.887   4.910   1.968
 6410SOL     OW20128   1.116   0.985   1.955
 6410SOL    HW120129   1.162   0.932   2.026
 6410SOL    HW220130   1.017   0.980   1.969
 6411SOL     OW20131   1.166   1.023   3.639
 6411SOL    HW120132   1.243   1.055   3.583
 6411SOL    HW220133   1.186   0.931   3.673
 6412SOL     OW20134   6.295   2.704   4.221
 6412SOL    HW120135   6.317   2.611   4.250
 6412SOL    HW220136   6.233   2.746   4.288
 6413SOL     OW20137   0.408   4.704   1.026
 6413SOL    HW120138   0.347   4.628   1.003
 6413SOL    HW220139   0.424   4.760   0.945
 6414SOL     OW20140   6.212   6.736   2.909
 6414SOL    HW120141   6.114   6.738   2.889
 6414SOL    HW220142   6.246   6.829   2.921
 6415SOL     OW20143   1.527   1.364   2.285
 6415SOL    HW120144   1.457   1.421   2.328
 6415SOL    HW220145   1.583   1.420   2.223
 6416SOL     OW20146   2.370   6.451   6.316
 6416SOL    HW120147   2.344   6.364   6.274
 6416SOL    HW220148   2.313   6.525   6.277
 6417SOL     OW20149   0.850   7.004   3.983
 6417SOL    HW120150   0.904   6.979   3.903
 6417SOL    HW220151   0.897   6.974   4.066
 6418SOL     OW20152   6.869   5.729   2.770
 6418SOL    HW120153   6.968   5.719   2.780
 6418SOL    HW220154   6.823   5.649   2.809
 6419SOL     OW20155   2.426   3.426   1.106
 6419SOL    HW120156   2.449   3.496   1.038
 6419SOL    HW220157   2.467   3.451   1.194
 6420SOL     OW20158   0.859   3.035   6.576
 6420SOL    HW120159   0.809   3.107   6.623
 6420SOL    HW220160   0.864   3.055   6.479
 6421SOL     OW20161   5.879   2.261   0.390
 6421SOL    HW120162   5.897   2.242   0.293
 6421SOL    HW220163   5.792   2.310   0.399
 6422SOL     OW20164   5.779   2.429   3.227
 6422SOL    HW120165   5.705   2.450   3.291
 6422SOL    HW220166   5.766   2.337   3.190
 6423SOL     OW20167   4.711   4.130   0.998
 6423SOL    HW120168   4.756   4.087   0.919
 6423SOL    HW220169   4.683   4.223   0.974
 6424SOL     OW20170   6.561   4.397   4.901
 6424SOL    HW120171   6.549   4.300   4.877
 6424SOL    HW220172   6.648   4.429   4.864
 6425SOL     OW20173   0.560   5.206   1.003
 6425SOL    HW120174   0.468   5.245   0.997
 6425SOL    HW220175   0.557   5.121   1.054
 6426SOL     OW20176   6.822   3.140   3.381
 6426SOL    HW120177   6.728   3.152   3.414
 6426SOL    HW220178   6.844   3.043   3.378
 6427SOL     OW20179   1.044   2.766   5.985
 6427SOL    HW120180   1.024   2.702   6.059
 6427SOL    HW220181   0.981   2.844   5.990
 6428SOL     OW20182   6.500   3.023   4.188
 6428SOL    HW120183   6.496   2.925   4.165
 6428SOL    HW220184   6.585   3.062   4.151
 6429SOL     OW20185   0.965   1.090   4.839
 6429SOL    HW120186   0.989   1.174   4.791
 6429SOL    HW220187   0.977   1.102   4.937
 6430SOL     OW20188   6.252   3.366   6.819
 6430SOL    HW120189   6.176   3.388   6.758
 6430SOL    HW220190   6.335   3.353   6.765
 6431SOL     OW20191   5.712   1.077   3.156
 6431SOL    HW120192   5.662   1.008   3.208
 6431SOL    HW220193   5.810   1.061   3.163
 6432SOL     OW20194   6.009   3.837   0.366
 6432SOL    HW120195   6.051   3.799   0.448
 6432SOL    HW220196   6.067   3.819   0.287
 6433SOL     OW20197   2.419   3.666   1.645
 6433SOL    HW120198   2.459   3.743   1.596
 6433SOL    HW220199   2.468   3.652   1.731
 6434SOL     OW20200   1.713   4.877   0.228
 6434SOL    HW120201   1.698   4.900   0.131
 6434SOL    HW220202   1.625   4.857   0.271
 6435SOL     OW20203   4.837   3.689   0.511
 6435SOL    HW120204   4.768   3.687   0.439
 6435SOL    HW220205   4.870   3.783   0.522
 6436SOL     OW20206   1.699   2.429   2.090
 6436SOL    HW120207   1.797   2.416   2.102
 6436SOL    HW220208   1.653   2.340   2.091
 6437SOL     OW20209   0.339   0.802   6.781
 6437SOL    HW120210   0.264   0.737   6.783
 6437SOL    HW220211   0.409   0.776   6.848
 6438SOL     OW20212   1.285   3.898   4.083
 6438SOL    HW120213   1.350   3.869   4.013
 6438SOL    HW220214   1.258   3.820   4.139
 6439SOL     OW20215   0.343   6.376   2.398
 6439SOL    HW120216   0.428   6.347   2.442
 6439SOL    HW220217   0.354   6.469   2.363
 6440SOL     OW20218   0.420   0.921   1.628
 6440SOL    HW120219   0.389   0.832   1.593
 6440SOL    HW220220   0.342   0.970   1.668
 6441SOL     OW20221   3.964   1.742   2.905
 6441SOL    HW120222   4.009   1.685   2.836
 6441SOL    HW220223   4.032   1.774   2.971
 6442SOL     OW20224   3.319   0.402   3.328
 6442SOL    HW120225   3.402   0.423   3.380
 6442SOL    HW220226   3.255   0.352   3.385
 6443SOL     OW20227   2.512   0.853   0.354
 6443SOL    HW120228   2.575   0.919   0.396
 6443SOL    HW220229   2.530   0.762   0.391
 6444SOL     OW20230   0.681   1.014   3.014
 6444SOL    HW120231   0.590   1.007   3.054
 6444SOL    HW220232   0.719   1.105   3.035
 6445SOL     OW20233   3.655   4.102   5.685
 6445SOL    HW120234   3.667   4.029   5.752
 6445SOL    HW220235   3.632   4.187   5.732
 6446SOL     OW20236   6.880   2.129   0.898
 6446SOL    HW120237   6.858   2.080   0.813
 6446SOL    HW220238   6.850   2.224   0.890
 6447SOL     OW20239   1.730   0.338   2.960
 6447SOL    HW120240   1.724   0.265   3.027
 6447SOL    HW220241   1.674   0.316   2.881
 6448SOL     OW20242   6.755   2.367   2.552
 6448SOL    HW120243   6.803   2.426   2.487
 6448SOL    HW220244   6.711   2.292   2.502
 6449SOL     OW20245   3.923   2.763   1.079
 6449SOL    HW120246   3.982   2.733   1.003
 6449SOL    HW220247   3.827   2.746   1.055
 6450SOL     OW20248   0.044   3.505   6.833
 6450SOL    HW120249   0.004   3.543   6.917
 6450SOL    HW220250   0.127   3.455   6.855
 6451SOL     OW20251   2.354   6.277   4.000
 6451SOL    HW120252   2.374   6.374   4.014
 6451SOL    HW220253   2.256   6.262   3.999
 6452SOL     OW20254   4.043   5.881   4.304
 6452SOL    HW120255   4.130   5.850   4.341
 6452SOL    HW220256   4.058   5.958   4.241
 6453SOL     OW20257   1.965   5.264   6.728
 6453SOL    HW120258   2.002   5.289   6.817
 6453SOL    HW220259   1.939   5.346   6.678
 6454SOL     OW20260   3.571   1.038   4.713
 6454SOL    HW120261   3.478   1.061   4.686
 6454SOL    HW220262   3.572   1.006   4.807
 6455SOL     OW20263   5.859   3.058   6.320
 6455SOL    HW120264   5.899   2.996   6.387
 6455SOL    HW220265   5.760   3.065   6.336
 6456SOL     OW20266   6.854   1.361   4.711
 6456SOL    HW120267   6.813   1.329   4.797
 6456SOL    HW220268   6.784   1.360   4.639
 6457SOL     OW20269   5.973   2.468   2.590
 6457SOL    HW120270   6.066   2.467   2.553
 6457SOL    HW220271   5.911   2.423   2.525
 6458SOL     OW20272   1.410   6.354   3.425
 6458SOL    HW120273   1.500   6.312   3.436
 6458SOL    HW220274   1.342   6.282   3.409
 6459SOL     OW20275   5.232   4.696   0.826
 6459SOL    HW120276   5.193   4.648   0.747
 6459SOL    HW220277   5.211   4.645   0.910
 6460SOL     OW20278   3.064   4.871   1.147
 6460SOL    HW120279   3.083   4.778   1.177
 6460SOL    HW220280   3.107   4.936   1.210
 6461SOL     OW20281   3.137   6.089   5.648
 6461SOL    HW120282   3.141   6.143   5.732
 6461SOL    HW220283   3.071   6.130   5.585
 6462SOL     OW20284   1.924   3.104   3.361
 6462SOL    HW120285   1.881   3.148   3.440
 6462SOL    HW220286   1.996   3.163   3.325
 6463SOL     OW20287   0.701   3.996   5.756
 6463SOL    HW120288   0.634   4.034   5.819
 6463SOL    HW220289   0.700   3.896   5.763
 6464SOL     OW20290   0.957   5.203   2.570
 6464SOL    HW120291   0.944   5.105   2.584
 6464SOL    HW220292   1.055   5.223   2.561
 6465SOL     OW20293   6.150   0.907   2.838
 6465SOL    HW120294   6.159   0.991   2.890
 6465SOL    HW220295   6.194   0.832   2.888
 6466SOL     OW20296   6.877   2.598   5.143
 6466SOL    HW120297   6.827   2.548   5.214
 6466SOL    HW220298   6.955   2.544   5.112
 6467SOL     OW20299   3.385   0.774   5.944
 6467SOL    HW120300   3.429   0.861   5.965
 6467SOL    HW220301   3.286   0.786   5.938
 6468SOL     OW20302   5.340   4.187   1.877
 6468SOL    HW120303   5.364   4.274   1.921
 6468SOL    HW220304   5.423   4.145   1.841
 6469SOL     OW20305   6.494   1.354   5.798
 6469SOL    HW120306   6.536   1.288   5.736
 6469SOL    HW220307   6.564   1.415   5.834
 6470SOL     OW20308   6.460   6.043   4.727
 6470SOL    HW120309   6.366   6.077   4.738
 6470SOL    HW220310   6.513   6.065   4.809
 6471SOL     OW20311   5.765   5.795   5.554
 6471SOL    HW120312   5.832   5.868   5.569
 6471SOL    HW220313   5.799   5.710   5.595
 6472SOL     OW20314   1.639   5.943   1.249
 6472SOL    HW120315   1.704   5.872   1.225
 6472SOL    HW220316   1.667   5.987   1.334
 6473SOL     OW20317   2.644   0.773   5.189
 6473SOL    HW120318   2.607   0.710   5.258
 6473SOL    HW220319   2.569   0.825   5.148
 6474SOL     OW20320   2.557   3.272   5.923
 6474SOL    HW120321   2.651   3.290   5.893
 6474SOL    HW220322   2.504   3.356   5.920
 6475SOL     OW20323   4.754   5.356   3.756
 6475SOL    HW120324   4.689   5.280   3.757
 6475SOL    HW220325   4.706   5.442   3.772
 6476SOL     OW20326   5.306   4.600   2.332
 6476SOL    HW120327   5.289   4.507   2.300
 6476SOL    HW220328   5.229   4.658   2.308
 6477SOL     OW20329   6.534   6.461   0.341
 6477SOL    HW120330   6.553   6.520   0.262
 6477SOL    HW220331   6.591   6.489   0.418
 6478SOL     OW20332   5.520   6.279   1.784
 6478SOL    HW120333   5.460   6.357   1.805
 6478SOL    HW220334   5.587   6.307   1.716
 6479SOL     OW20335   3.654   6.232   2.641
 6479SOL    HW120336   3.577   6.178   2.675
 6479SOL    HW220337   3.645   6.326   2.673
 6480SOL     OW20338   2.659   1.110   1.475
 6480SOL    HW120339   2.720   1.129   1.398
 6480SOL    HW220340   2.564   1.105   1.442
 6481SOL     OW20341   4.519   0.859   1.285
 6481SOL    HW120342   4.493   0.894   1.195
 6481SOL    HW220343   4.557   0.933   1.340
 6482SOL     OW20344   6.613   0.293   6.460
 6482SOL    HW120345   6.535   0.236   6.486
 6482SOL    HW220346   6.580   0.381   6.426
 6483SOL     OW20347   1.888   5.664   1.864
 6483SOL    HW120348   1.920   5.755   1.888
 6483SOL    HW220349   1.889   5.606   1.945
 6484SOL     OW20350   5.436   6.575   3.900
 6484SOL    HW120351   5.413   6.482   3.872
 6484SOL    HW220352   5.369   6.608   3.966
 6485SOL     OW20353   0.935   2.900   3.302
 6485SOL    HW120354   0.912   2.835   3.375
 6485SOL    HW220355   0.884   2.877   3.219
 6486SOL     OW20356   1.868   3.239   3.592
 6486SOL    HW120357   1.809   3.220   3.670
 6486SOL    HW220358   1.858   3.335   3.565
 6487SOL     OW20359   5.710   5.127   3.421
 6487SOL    HW120360   5.685   5.222   3.402
 6487SOL    HW220361   5.698   5.072   3.339
 6488SOL     OW20362   3.393   4.751   5.469
 6488SOL    HW120363   3.473   4.796   5.508
 6488SOL    HW220364   3.393   4.763   5.370
 6489SOL     OW20365   2.442   2.014   6.089
 6489SOL    HW120366   2.476   2.045   6.177
 6489SOL    HW220367   2.461   1.916   6.078
 6490SOL     OW20368   4.850   1.421   0.775
 6490SOL    HW120369   4.821   1.328   0.756
 6490SOL    HW220370   4.891   1.461   0.693
 6491SOL     OW20371   4.386   1.109   6.193
 6491SOL    HW120372   4.429   1.159   6.268
 6491SOL    HW220373   4.413   1.150   6.106
 6492SOL     OW20374   5.761   6.467   6.295
 6492SOL    HW120375   5.759   6.401   6.220
 6492SOL    HW220376   5.844   6.455   6.349
 6493SOL     OW20377   1.037   6.438   5.186
 6493SOL    HW120378   1.072   6.529   5.208
 6493SOL    HW220379   1.043   6.379   5.267
 6494SOL     OW20380   1.513   0.328   3.643
 6494SOL    HW120381   1.528   0.361   3.549
 6494SOL    HW220382   1.521   0.229   3.645
 6495SOL     OW20383   5.836   4.414   2.235
 6495SOL    HW120384   5.753   4.360   2.247
 6495SOL    HW220385   5.904   4.359   2.186
 6496SOL     OW20386   0.889   6.083   3.310
 6496SOL    HW120387   0.913   6.178   3.331
 6496SOL    HW220388   0.806   6.082   3.254
 6497SOL     OW20389   0.109   5.906   7.017
 6497SOL    HW120390   0.155   5.824   0.025
 6497SOL    HW220391   0.156   5.942   6.937
 6498SOL     OW20392   1.351   4.477   3.884
 6498SOL    HW120393   1.253   4.469   3.903
 6498SOL    HW220394   1.379   4.406   3.820
 6499SOL     OW20395   6.087   1.167   3.463
 6499SOL    HW120396   6.134   1.084   3.494
 6499SOL    HW220397   6.100   1.239   3.531
 6500SOL     OW20398   5.667   4.895   3.230
 6500SOL    HW120399   5.603   4.833   3.276
 6500SOL    HW220400   5.680   4.865   3.135
 6501SOL     OW20401   0.098   3.352   0.730
 6501SOL    HW120402   0.058   3.287   0.794
 6501SOL    HW220403   0.197   3.337   0.725
 6502SOL     OW20404   1.199   5.290   2.374
 6502SOL    HW120405   1.274   5.296   2.440
 6502SOL    HW220406   1.215   5.214   2.312
 6503SOL     OW20407   4.664   0.149   4.405
 6503SOL    HW120408   4.609   0.065   4.403
 6503SOL    HW220409   4.749   0.134   4.355
 6504SOL     OW20410   1.576   0.994   0.626
 6504SOL    HW120411   1.664   0.948   0.639
 6504SOL    HW220412   1.506   0.926   0.606
 6505SOL     OW20413   5.629   5.619   0.808
 6505SOL    HW120414   5.691   5.697   0.801
 6505SOL    HW220415   5.577   5.610   0.723
 6506SOL     OW20416   2.158   1.709   0.702
 6506SOL    HW120417   2.186   1.731   0.609
 6506SOL    HW220418   2.107   1.623   0.703
 6507SOL     OW20419   3.019   0.587   1.944
 6507SOL    HW120420   2.943   0.614   1.884
 6507SOL    HW220421   3.104   0.589   1.892
 6508SOL     OW20422   2.347   1.670   2.133
 6508SOL    HW120423   2.310   1.711   2.216
 6508SOL    HW220424   2.409   1.734   2.088
 6509SOL     OW20425   0.659   2.832   3.798
 6509SOL    HW120426   0.742   2.881   3.826
 6509SOL    HW220427   0.669   2.735   3.819
 6510SOL     OW20428   5.874   5.049   6.702
 6510SOL    HW120429   5.943   5.121   6.698
 6510SOL    HW220430   5.898   4.976   6.637
 6511SOL     OW20431   6.748   6.863   5.798
 6511SOL    HW120432   6.752   6.944   5.740
 6511SOL    HW220433   6.803   6.789   5.757
 6512SOL     OW20434   5.205   5.864   3.904
 6512SOL    HW120435   5.139   5.932   3.876
 6512SOL    HW220436   5.169   5.811   3.981
 6513SOL     OW20437   1.903   6.926   3.623
 6513SOL    HW120438   1.936   7.010   3.665
 6513SOL    HW220439   1.875   6.944   3.529
 6514SOL     OW20440   3.466   0.071   4.061
 6514SOL    HW120441   3.477   0.167   4.085
 6514SOL    HW220442   3.524   0.015   4.120
 6515SOL     OW20443   0.944   1.168   3.560
 6515SOL    HW120444   1.029   1.116   3.559
 6515SOL    HW220445   0.872   1.116   3.606
 6516SOL     OW20446   1.610   1.696   6.054
 6516SOL    HW120447   1.670   1.617   6.062
 6516SOL    HW220448   1.533   1.673   5.995
 6517SOL     OW20449   1.706   1.758   0.500
 6517SOL    HW120450   1.615   1.734   0.467
 6517SOL    HW220451   1.711   1.741   0.598
 6518SOL     OW20452   5.859   6.337   1.000
 6518SOL    HW120453   5.766   6.310   0.973
 6518SOL    HW220454   5.863   6.437   1.006
 6519SOL     OW20455   1.256   2.263   3.337
 6519SOL    HW120456   1.185   2.247   3.405
 6519SOL    HW220457   1.338   2.298   3.382
 6520SOL     OW20458   5.874   5.584   1.934
 6520SOL    HW120459   5.847   5.663   1.989
 6520SOL    HW220460   5.809   5.571   1.859
 6521SOL     OW20461   1.552   2.306   5.517
 6521SOL    HW120462   1.604   2.294   5.602
 6521SOL    HW220463   1.456   2.285   5.534
 6522SOL     OW20464   2.665   5.391   4.623
 6522SOL    HW120465   2.706   5.345   4.703
 6522SOL    HW220466   2.575   5.426   4.648
 6523SOL     OW20467   1.894   2.697   7.014
 6523SOL    HW120468   1.904   2.598   7.022
 6523SOL    HW220469   1.805   2.719   6.974
 6524SOL     OW20470   4.149   3.695   4.928
 6524SOL    HW120471   4.218   3.718   4.997
 6524SOL    HW220472   4.189   3.633   4.860
 6525SOL     OW20473   0.301   2.530   4.431
 6525SOL    HW120474   0.392   2.562   4.403
 6525SOL    HW220475   0.231   2.585   4.386
 6526SOL     OW20476   1.634   5.204   3.661
 6526SOL    HW120477   1.602   5.166   3.575
 6526SOL    HW220478   1.684   5.134   3.712
 6527SOL     OW20479   2.186   1.271   4.124
 6527SOL    HW120480   2.252   1.250   4.197
 6527SOL    HW220481   2.213   1.356   4.079
 6528SOL     OW20482   0.580   7.016   3.392
 6528SOL    HW120483   0.537   6.971   3.471
 6528SOL    HW220484   0.592   6.949   3.319
 6529SOL     OW20485   6.655   3.159   2.118
 6529SOL    HW120486   6.734   3.213   2.089
 6529SOL    HW220487   6.687   3.074   2.161
 6530SOL     OW20488   0.571   1.991   0.270
 6530SOL    HW120489   0.512   2.007   0.191
 6530SOL    HW220490   0.602   1.896   0.269
 6531SOL     OW20491   4.858   2.754   4.808
 6531SOL    HW120492   4.937   2.787   4.757
 6531SOL    HW220493   4.781   2.740   4.746
 6532SOL     OW20494   1.322   2.372   6.797
 6532SOL    HW120495   1.258   2.390   6.723
 6532SOL    HW220496   1.407   2.422   6.781
 6533SOL     OW20497   4.522   0.694   0.744
 6533SOL    HW120498   4.497   0.635   0.821
 6533SOL    HW220499   4.447   0.757   0.724
 6534SOL     OW20500   2.249   3.529   0.108
 6534SOL    HW120501   2.223   3.607   0.052
 6534SOL    HW220502   2.234   3.444   0.056
 6535SOL     OW20503   2.168   3.535   5.598
 6535SOL    HW120504   2.223   3.490   5.528
 6535SOL    HW220505   2.097   3.590   5.554
 6536SOL     OW20506   6.564   2.341   6.521
 6536SOL    HW120507   6.626   2.273   6.481
 6536SOL    HW220508   6.518   2.301   6.600
 6537SOL     OW20509   0.882   0.329   7.010
 6537SOL    HW120510   0.814   0.261   0.013
 6537SOL    HW220511   0.836   0.414   6.984
 6538SOL     OW20512   1.785   2.980   6.202
 6538SOL    HW120513   1.692   3.009   6.181
 6538SOL    HW220514   1.837   2.970   6.118
 6539SOL     OW20515   3.058   1.619   6.382
 6539SOL    HW120516   2.970   1.625   6.429
 6539SOL    HW220517   3.107   1.538   6.413
 6540SOL     OW20518   3.428   2.039   4.009
 6540SOL    HW120519   3.519   2.056   3.972
 6540SOL    HW220520   3.422   2.075   4.102
 6541SOL     OW20521   2.872   2.871   5.441
 6541SOL    HW120522   2.833   2.949   5.392
 6541SOL    HW220523   2.815   2.850   5.521
 6542SOL     OW20524   6.149   4.188   3.635
 6542SOL    HW120525   6.127   4.164   3.730
 6542SOL    HW220526   6.112   4.119   3.574
 6543SOL     OW20527   0.483   5.842   6.267
 6543SOL    HW120528   0.472   5.746   6.290
 6543SOL    HW220529   0.536   5.850   6.182
 6544SOL     OW20530   0.072   6.063   2.711
 6544SOL    HW120531   0.005   6.011   2.658
 6544SOL    HW220532   0.141   6.101   2.649
 6545SOL     OW20533   5.576   3.303   5.810
 6545SOL    HW120534   5.584   3.205   5.793
 6545SOL    HW220535   5.480   3.331   5.797
 6546SOL     OW20536   3.816   4.736   5.908
 6546SOL    HW120537   3.845   4.751   6.003
 6546SOL    HW220538   3.719   4.757   5.900
 6547SOL     OW20539   5.183   0.713   6.984
 6547SOL    HW120540   5.125   0.787   6.948
 6547SOL    HW220541   5.231   0.669   6.908
 6548SOL     OW20542   6.190   4.056   5.380
 6548SOL    HW120543   6.275   4.106   5.365
 6548SOL    HW220544   6.136   4.057   5.296
 6549SOL     OW20545   3.136   1.870   2.444
 6549SOL    HW120546   3.119   1.953   2.497
 6549SOL    HW220547   3.068   1.800   2.468
 6550SOL     OW20548   1.240   5.125   3.039
 6550SOL    HW120549   1.221   5.054   2.972
 6550SOL    HW220550   1.153   5.162   3.074
 6551SOL     OW20551   2.747   5.114   1.855
 6551SOL    HW120552   2.653   5.097   1.824
 6551SOL    HW220553   2.799   5.029   1.850
 6552SOL     OW20554   4.676   5.518   6.469
 6552SOL    HW120555   4.616   5.567   6.406
 6552SOL    HW220556   4.765   5.564   6.471
 6553SOL     OW20557   0.026   2.942   2.818
 6553SOL    HW120558   0.001   2.979   2.728
 6553SOL    HW220559   0.027   3.017   2.885
 6554SOL     OW20560   0.491   3.626   4.592
 6554SOL    HW120561   0.444   3.564   4.529
 6554SOL    HW220562   0.583   3.645   4.558
 6555SOL     OW20563   0.434   1.080   2.001
 6555SOL    HW120564   0.498   1.072   1.924
 6555SOL    HW220565   0.440   1.172   2.040
 6556SOL     OW20566   4.018   0.414   4.232
 6556SOL    HW120567   3.965   0.358   4.168
 6556SOL    HW220568   4.089   0.464   4.182
 6557SOL     OW20569   5.258   5.943   0.634
 6557SOL    HW120570   5.234   6.036   0.661
 6557SOL    HW220571   5.183   5.903   0.582
 6558SOL     OW20572   6.579   6.477   6.059
 6558SOL    HW120573   6.647   6.453   6.128
 6558SOL    HW220574   6.487   6.462   6.095
 6559SOL     OW20575   3.443   3.217   1.449
 6559SOL    HW120576   3.430   3.243   1.354
 6559SOL    HW220577   3.427   3.119   1.460
 6560SOL     OW20578   3.883   1.454   0.743
 6560SOL    HW120579   3.803   1.512   0.729
 6560SOL    HW220580   3.966   1.510   0.745
 6561SOL     OW20581   3.288   3.834   4.250
 6561SOL    HW120582   3.387   3.844   4.237
 6561SOL    HW220583   3.269   3.821   4.348
 6562SOL     OW20584   6.610   3.934   5.551
 6562SOL    HW120585   6.550   3.856   5.568
 6562SOL    HW220586   6.596   3.967   5.458
 6563SOL     OW20587   0.583   5.471   2.448
 6563SOL    HW120588   0.633   5.558   2.444
 6563SOL    HW220589   0.644   5.397   2.420
 6564SOL     OW20590   1.688   5.918   2.556
 6564SOL    HW120591   1.732   5.931   2.467
 6564SOL    HW220592   1.590   5.933   2.548
 6565SOL     OW20593   6.691   3.568   4.970
 6565SOL    HW120594   6.607   3.614   4.940
 6565SOL    HW220595   6.672   3.515   5.053
 6566SOL     OW20596   3.503   0.113   0.882
 6566SOL    HW120597   3.450   0.087   0.801
 6566SOL    HW220598   3.463   0.195   0.923
 6567SOL     OW20599   6.123   2.804   0.767
 6567SOL    HW120600   6.079   2.886   0.805
 6567SOL    HW220601   6.054   2.733   0.753
 6568SOL     OW20602   4.360   3.834   1.613
 6568SOL    HW120603   4.322   3.922   1.645
 6568SOL    HW220604   4.393   3.844   1.519
 6569SOL     OW20605   0.916   5.070   6.331
 6569SOL    HW120606   0.962   5.158   6.323
 6569SOL    HW220607   0.828   5.074   6.284
 6570SOL     OW20608   6.242   3.676   1.625
 6570SOL    HW120609   6.267   3.659   1.530
 6570SOL    HW220610   6.291   3.757   1.658
 6571SOL     OW20611   2.680   6.360   3.672
 6571SOL    HW120612   2.778   6.369   3.658
 6571SOL    HW220613   2.657   6.264   3.686
 6572SOL     OW20614   1.076   4.479   5.928
 6572SOL    HW120615   1.094   4.575   5.908
 6572SOL    HW220616   1.102   4.459   6.022
 6573SOL     OW20617   1.627   2.095   2.104
 6573SOL    HW120618   1.547   2.044   2.138
 6573SOL    HW220619   1.709   2.066   2.153
 6574SOL     OW20620   1.682   4.442   4.113
 6574SOL    HW120621   1.759   4.387   4.144
 6574SOL    HW220622   1.658   4.508   4.185
 6575SOL     OW20623   1.986   1.519   2.792
 6575SOL    HW120624   1.979   1.532   2.694
 6575SOL    HW220625   1.933   1.590   2.839
 6576SOL     OW20626   1.576   6.300   3.828
 6576SOL    HW120627   1.600   6.252   3.913
 6576SOL    HW220628   1.565   6.234   3.754
 6577SOL     OW20629   6.876   3.182   4.935
 6577SOL    HW120630   6.899   3.167   5.031
 6577SOL    HW220631   6.872   3.280   4.917
 6578SOL     OW20632   6.387   5.423   3.491
 6578SOL    HW120633   6.413   5.464   3.579
 6578SOL    HW220634   6.342   5.491   3.434
 6579SOL     OW20635   1.072   3.953   3.038
 6579SOL    HW120636   1.137   3.922   2.968
 6579SOL    HW220637   1.120   4.010   3.104
 6580SOL     OW20638   5.804   2.427   1.421
 6580SOL    HW120639   5.859   2.359   1.469
 6580SOL    HW220640   5.711   2.392   1.409
 6581SOL     OW20641   2.620   2.551   5.648
 6581SOL    HW120642   2.525   2.580   5.661
 6581SOL    HW220643   2.678   2.631   5.638
 6582SOL     OW20644   6.621   0.415   2.178
 6582SOL    HW120645   6.699   0.390   2.235
 6582SOL    HW220646   6.543   0.358   2.202
 6583SOL     OW20647   5.773   2.253   5.817
 6583SOL    HW120648   5.716   2.185   5.771
 6583SOL    HW220649   5.823   2.209   5.892
 6584SOL     OW20650   5.531   2.430   0.244
 6584SOL    HW120651   5.556   2.521   0.278
 6584SOL    HW220652   5.434   2.428   0.222
 6585SOL     OW20653   2.973   1.030   1.760
 6585SOL    HW120654   2.993   1.009   1.855
 6585SOL    HW220655   2.989   1.128   1.743
 6586SOL     OW20656   6.932   1.753   6.700
 6586SOL    HW120657   6.981   1.840   6.697
 6586SOL    HW220658   6.995   1.677   6.684
 6587SOL     OW20659   1.850   6.266   2.544
 6587SOL    HW120660   1.875   6.354   2.503
 6587SOL    HW220661   1.757   6.271   2.580
 6588SOL     OW20662   2.840   2.680   0.076
 6588SOL    HW120663   2.781   2.627   0.015
 6588SOL    HW220664   2.798   2.684   0.167
 6589SOL     OW20665   5.302   1.865   5.827
 6589SOL    HW120666   5.246   1.815   5.760
 6589SOL    HW220667   5.296   1.963   5.808
 6590SOL     OW20668   0.074   1.071   5.732
 6590SOL    HW120669   0.144   1.110   5.672
 6590SOL    HW220670   0.115   1.002   5.791
 6591SOL     OW20671   5.500   0.357   2.800
 6591SOL    HW120672   5.592   0.382   2.831
 6591SOL    HW220673   5.454   0.438   2.764
 6592SOL     OW20674   5.912   5.934   4.674
 6592SOL    HW120675   5.849   5.864   4.641
 6592SOL    HW220676   5.871   5.980   4.753
 6593SOL     OW20677   4.950   1.029   2.630
 6593SOL    HW120678   5.024   0.968   2.657
 6593SOL    HW220679   4.939   1.028   2.530
 6594SOL     OW20680   5.807   0.987   6.840
 6594SOL    HW120681   5.730   0.945   6.792
 6594SOL    HW220682   5.811   1.085   6.818
 6595SOL     OW20683   1.730   3.708   0.166
 6595SOL    HW120684   1.815   3.759   0.152
 6595SOL    HW220685   1.705   3.712   0.263
 6596SOL     OW20686   2.942   6.698   5.505
 6596SOL    HW120687   2.879   6.766   5.466
 6596SOL    HW220688   2.892   6.638   5.568
 6597SOL     OW20689   6.578   4.012   6.603
 6597SOL    HW120690   6.584   3.918   6.639
 6597SOL    HW220691   6.483   4.042   6.605
 6598SOL     OW20692   2.401   5.510   4.705
 6598SOL    HW120693   2.375   5.573   4.633
 6598SOL    HW220694   2.371   5.546   4.794
 6599SOL     OW20695   4.557   3.029   5.729
 6599SOL    HW120696   4.505   2.961   5.780
 6599SOL    HW220697   4.639   3.055   5.781
 6600SOL     OW20698   4.096   5.138   4.496
 6600SOL    HW120699   4.125   5.159   4.589
 6600SOL    HW220700   4.022   5.200   4.469
 6601SOL     OW20701   1.131   0.433   1.231
 6601SOL    HW120702   1.069   0.387   1.295
 6601SOL    HW220703   1.169   0.515   1.274
 6602SOL     OW20704   6.371   1.443   1.665
 6602SOL    HW120705   6.337   1.455   1.572
 6602SOL    HW220706   6.294   1.446   1.729
 6603SOL     OW20707   2.588   2.163   2.227
 6603SOL    HW120708   2.616   2.093   2.161
 6603SOL    HW220709   2.579   2.251   2.180
 6604SOL     OW20710   4.089   5.603   3.752
 6604SOL    HW120711   4.125   5.687   3.712
 6604SOL    HW220712   4.152   5.570   3.822
 6605SOL     OW20713   5.085   6.231   0.476
 6605SOL    HW120714   5.084   6.317   0.424
 6605SOL    HW220715   5.004   6.227   0.534
 6606SOL     OW20716   6.320   1.242   3.115
 6606SOL    HW120717   6.223   1.218   3.124
 6606SOL    HW220718   6.374   1.158   3.108
 6607SOL     OW20719   1.193   1.623   2.918
 6607SOL    HW120720   1.132   1.691   2.878
 6607SOL    HW220721   1.176   1.534   2.875
 6608SOL     OW20722   5.498   4.827   4.890
 6608SOL    HW120723   5.509   4.836   4.989
 6608SOL    HW220724   5.576   4.870   4.844
 6609SOL     OW20725   6.014   1.592   0.004
 6609SOL    HW120726   5.991   1.539   6.946
 6609SOL    HW220727   5.975   1.684   7.020
 6610SOL     OW20728   3.289   1.398   0.435
 6610SOL    HW120729   3.332   1.480   0.395
 6610SOL    HW220730   3.275   1.330   0.363
 6611SOL     OW20731   5.931   2.850   3.303
 6611SOL    HW120732   5.965   2.758   3.283
 6611SOL    HW220733   5.905   2.856   3.399
 6612SOL     OW20734   0.889   6.012   6.923
 6612SOL    HW120735   0.843   6.082   6.868
 6612SOL    HW220736   0.977   5.989   6.882
 6613SOL     OW20737   4.895   5.068   1.376
 6613SOL    HW120738   4.894   4.969   1.359
 6613SOL    HW220739   4.979   5.092   1.425
 6614SOL     OW20740   5.280   5.109   5.833
 6614SOL    HW120741   5.350   5.084   5.766
 6614SOL    HW220742   5.259   5.206   5.824
 6615SOL     OW20743   0.724   3.783   5.401
 6615SOL    HW120744   0.779   3.855   5.443
 6615SOL    HW220745   0.627   3.805   5.413
 6616SOL     OW20746   4.964   1.070   3.998
 6616SOL    HW120747   4.996   1.065   3.904
 6616SOL    HW220748   4.949   1.165   4.024
 6617SOL     OW20749   4.125   0.116   5.101
 6617SOL    HW120750   4.080   0.178   5.165
 6617SOL    HW220751   4.221   0.143   5.091
 6618SOL     OW20752   0.284   5.065   1.094
 6618SOL    HW120753   0.209   5.000   1.107
 6618SOL    HW220754   0.371   5.015   1.092
 6619SOL     OW20755   6.975   6.142   1.653
 6619SOL    HW120756   6.957   6.088   1.571
 6619SOL    HW220757   6.946   6.237   1.637
 6620SOL     OW20758   4.277   3.312   5.814
 6620SOL    HW120759   4.246   3.310   5.719
 6620SOL    HW220760   4.220   3.374   5.867
 6621SOL     OW20761   2.548   3.882   0.233
 6621SOL    HW120762   2.489   3.962   0.239
 6621SOL    HW220763   2.538   3.827   0.316
 6622SOL     OW20764   6.295   5.679   1.103
 6622SOL    HW120765   6.363   5.748   1.079
 6622SOL    HW220766   6.240   5.658   1.022
 6623SOL     OW20767   3.731   3.863   2.577
 6623SOL    HW120768   3.656   3.798   2.586
 6623SOL    HW220769   3.787   3.862   2.660
 6624SOL     OW20770   4.361   5.342   4.110
 6624SOL    HW120771   4.300   5.264   4.128
 6624SOL    HW220772   4.328   5.391   4.029
 6625SOL     OW20773   5.729   0.157   0.068
 6625SOL    HW120774   5.691   0.163   6.999
 6625SOL    HW220775   5.670   0.099   0.124
 6626SOL     OW20776   2.990   5.161   3.464
 6626SOL    HW120777   3.046   5.199   3.537
 6626SOL    HW220778   2.979   5.062   3.478
 6627SOL     OW20779   2.063   6.262   1.957
 6627SOL    HW120780   2.113   6.227   2.036
 6627SOL    HW220781   1.990   6.198   1.933
 6628SOL     OW20782   4.268   6.274   3.508
 6628SOL    HW120783   4.204   6.273   3.431
 6628SOL    HW220784   4.326   6.355   3.502
 6629SOL     OW20785   3.129   3.858   0.181
 6629SOL    HW120786   3.072   3.842   0.262
 6629SOL    HW220787   3.176   3.773   0.155
 6630SOL     OW20788   3.332   1.797   6.537
 6630SOL    HW120789   3.363   1.722   6.596
 6630SOL    HW220790   3.338   1.768   6.442
 6631SOL     OW20791   4.069   0.706   1.555
 6631SOL    HW120792   4.065   0.706   1.455
 6631SOL    HW220793   4.148   0.759   1.585
 6632SOL     OW20794   6.426   2.696   2.888
 6632SOL    HW120795   6.454   2.652   2.803
 6632SOL    HW220796   6.395   2.627   2.953
 6633SOL     OW20797   0.499   0.035   1.878
 6633SOL    HW120798   0.581   0.031   1.934
 6633SOL    HW220799   0.471   6.967   1.851
 6634SOL     OW20800   6.697   2.508   5.651
 6634SOL    HW120801   6.750   2.593   5.655
 6634SOL    HW220802   6.688   2.470   5.743
 6635SOL     OW20803   4.434   4.599   2.838
 6635SOL    HW120804   4.428   4.545   2.754
 6635SOL    HW220805   4.377   4.680   2.830
 6636SOL     OW20806   1.607   2.891   3.871
 6636SOL    HW120807   1.702   2.922   3.884
 6636SOL    HW220808   1.554   2.963   3.827
 6637SOL     OW20809   6.541   2.111   1.767
 6637SOL    HW120810   6.514   2.092   1.861
 6637SOL    HW220811   6.548   2.025   1.716
 6638SOL     OW20812   2.326   6.847   6.867
 6638SOL    HW120813   2.301   6.779   6.798
 6638SOL    HW220814   2.368   6.925   6.822
 6639SOL     OW20815   4.469   5.713   6.357
 6639SOL    HW120816   4.453   5.778   6.431
 6639SOL    HW220817   4.392   5.648   6.353
 6640SOL     OW20818   6.145   2.650   3.249
 6640SOL    HW120819   6.114   2.611   3.163
 6640SOL    HW220820   6.138   2.581   3.321
 6641SOL     OW20821   2.317   4.956   6.992
 6641SOL    HW120822   2.375   4.876   7.007
 6641SOL    HW220823   2.222   4.927   6.980
 6642SOL     OW20824   6.079   6.613   0.111
 6642SOL    HW120825   6.174   6.599   0.138
 6642SOL    HW220826   6.035   6.676   0.175
 6643SOL     OW20827   3.635   5.791   0.409
 6643SOL    HW120828   3.596   5.716   0.356
 6643SOL    HW220829   3.613   5.878   0.365
 6644SOL     OW20830   2.052   3.905   2.115
 6644SOL    HW120831   1.970   3.955   2.141
 6644SOL    HW220832   2.132   3.963   2.125
 6645SOL     OW20833   6.059   4.758   5.210
 6645SOL    HW120834   6.109   4.701   5.276
 6645SOL    HW220835   6.079   4.727   5.117
 6646SOL     OW20836   1.655   6.248   3.482
 6646SOL    HW120837   1.718   6.321   3.511
 6646SOL    HW220838   1.646   6.181   3.556
 6647SOL     OW20839   4.242   1.681   2.066
 6647SOL    HW120840   4.206   1.772   2.047
 6647SOL    HW220841   4.183   1.634   2.132
 6648SOL     OW20842   4.251   5.872   1.944
 6648SOL    HW120843   4.166   5.833   1.907
 6648SOL    HW220844   4.319   5.881   1.872
 6649SOL     OW20845   4.262   2.287   6.098
 6649SOL    HW120846   4.354   2.255   6.122
 6649SOL    HW220847   4.235   2.247   6.010
 6650SOL     OW20848   3.211   1.117   3.887
 6650SOL    HW120849   3.292   1.161   3.848
 6650SOL    HW220850   3.144   1.101   3.814
 6651SOL     OW20851   1.465   1.900   0.107
 6651SOL    HW120852   1.553   1.947   0.098
 6651SOL    HW220853   1.392   1.959   0.071
 6652SOL     OW20854   0.952   5.484   3.277
 6652SOL    HW120855   0.960   5.491   3.376
 6652SOL    HW220856   0.860   5.512   3.248
 6653SOL     OW20857   3.165   3.564   3.472
 6653SOL    HW120858   3.147   3.638   3.537
 6653SOL    HW220859   3.085   3.548   3.415
 6654SOL     OW20860   1.748   3.541   1.792
 6654SOL    HW120861   1.680   3.484   1.837
 6654SOL    HW220862   1.733   3.637   1.817
 6655SOL     OW20863   1.799   0.212   0.696
 6655SOL    HW120864   1.731   0.267   0.744
 6655SOL    HW220865   1.754   0.140   0.645
 6656SOL     OW20866   6.967   2.610   1.767
 6656SOL    HW120867   6.933   2.518   1.785
 6656SOL    HW220868   6.933   2.642   1.679
 6657SOL     OW20869   2.917   4.650   6.067
 6657SOL    HW120870   2.903   4.747   6.089
 6657SOL    HW220871   2.901   4.595   6.149
 6658SOL     OW20872   6.102   6.994   5.600
 6658SOL    HW120873   6.176   0.012   5.548
 6658SOL    HW220874   6.109   7.021   5.696
 6659SOL     OW20875   1.830   2.904   6.456
 6659SOL    HW120876   1.818   2.955   6.371
 6659SOL    HW220877   1.921   2.862   6.458
 6660SOL     OW20878   0.705   6.768   2.302
 6660SOL    HW120879   0.671   6.857   2.272
 6660SOL    HW220880   0.628   6.709   2.324
 6661SOL     OW20881   0.249   6.331   3.831
 6661SOL    HW120882   0.268   6.326   3.929
 6661SOL    HW220883   0.334   6.351   3.782
 6662SOL     OW20884   1.265   3.451   5.399
 6662SOL    HW120885   1.206   3.379   5.363
 6662SOL    HW220886   1.210   3.532   5.421
 6663SOL     OW20887   0.515   5.072   2.312
 6663SOL    HW120888   0.584   5.118   2.368
 6663SOL    HW220889   0.490   4.985   2.354
 6664SOL     OW20890   0.210   1.308   2.710
 6664SOL    HW120891   0.165   1.261   2.634
 6664SOL    HW220892   0.143   1.326   2.782
 6665SOL     OW20893   2.698   6.589   2.721
 6665SOL    HW120894   2.792   6.583   2.686
 6665SOL    HW220895   2.699   6.633   2.810
 6666SOL     OW20896   6.017   0.687   0.437
 6666SOL    HW120897   5.935   0.685   0.380
 6666SOL    HW220898   6.080   0.614   0.408
 6667SOL     OW20899   6.386   5.065   4.652
 6667SOL    HW120900   6.420   5.128   4.581
 6667SOL    HW220901   6.287   5.057   4.645
 6668SOL     OW20902   0.187   6.655   1.384
 6668SOL    HW120903   0.286   6.650   1.377
 6668SOL    HW220904   0.161   6.724   1.451
 6669SOL     OW20905   0.989   5.198   3.133
 6669SOL    HW120906   0.978   5.297   3.138
 6669SOL    HW220907   0.921   5.154   3.191
 6670SOL     OW20908   3.828   4.596   0.853
 6670SOL    HW120909   3.785   4.588   0.763
 6670SOL    HW220910   3.799   4.520   0.911
 6671SOL     OW20911   0.296   3.247   5.370
 6671SOL    HW120912   0.252   3.173   5.319
 6671SOL    HW220913   0.395   3.235   5.368
 6672SOL     OW20914   0.662   0.604   5.742
 6672SOL    HW120915   0.573   0.561   5.727
 6672SOL    HW220916   0.686   0.661   5.664
 6673SOL     OW20917   5.107   5.474   1.696
 6673SOL    HW120918   5.167   5.461   1.775
 6673SOL    HW220919   5.099   5.387   1.647
 6674SOL     OW20920   0.482   6.942   5.134
 6674SOL    HW120921   0.544   6.925   5.057
 6674SOL    HW220922   0.389   6.913   5.109
 6675SOL     OW20923   6.898   6.278   0.364
 6675SOL    HW120924   6.918   6.185   0.333
 6675SOL    HW220925   6.858   6.331   0.288
 6676SOL     OW20926   1.071   1.949   0.618
 6676SOL    HW120927   0.991   1.909   0.573
 6676SOL    HW220928   1.081   2.045   0.590
 6677SOL     OW20929   6.314   4.042   0.100
 6677SOL    HW120930   6.252   4.034   0.178
 6677SOL    HW220931   6.402   4.078   0.131
 6678SOL     OW20932   0.308   3.125   3.839
 6678SOL    HW120933   0.309   3.084   3.748
 6678SOL    HW220934   0.362   3.069   3.901
 6679SOL     OW20935   1.788   1.006   4.642
 6679SOL    HW120936   1.799   1.078   4.573
 6679SOL    HW220937   1.692   0.981   4.649
 6680SOL     OW20938   2.430   0.512   6.333
 6680SOL    HW120939   2.385   0.596   6.365
 6680SOL    HW220940   2.372   0.433   6.354
 6681SOL     OW20941   5.144   5.765   0.257
 6681SOL    HW120942   5.220   5.738   0.197
 6681SOL    HW220943   5.111   5.855   0.231
 6682SOL     OW20944   6.776   5.081   2.428
 6682SOL    HW120945   6.711   5.078   2.504
 6682SOL    HW220946   6.835   5.161   2.439
 6683SOL     OW20947   5.241   1.695   4.093
 6683SOL    HW120948   5.265   1.636   4.170
 6683SOL    HW220949   5.151   1.668   4.057
 6684SOL     OW20950   2.331   1.065   2.635
 6684SOL    HW120951   2.283   1.094   2.552
 6684SOL    HW220952   2.264   1.037   2.704
 6685SOL     OW20953   5.226   3.136   6.433
 6685SOL    HW120954   5.250   3.041   6.412
 6685SOL    HW220955   5.139   3.158   6.389
 6686SOL     OW20956   5.171   3.416   4.287
 6686SOL    HW120957   5.270   3.407   4.299
 6686SOL    HW220958   5.149   3.423   4.190
 6687SOL     OW20959   1.112   0.928   6.918
 6687SOL    HW120960   1.057   0.991   6.973
 6687SOL    HW220961   1.168   0.871   6.978
 6688SOL     OW20962   0.516   5.197   2.680
 6688SOL    HW120963   0.534   5.282   2.729
 6688SOL    HW220964   0.579   5.126   2.714
 6689SOL     OW20965   4.226   4.901   0.104
 6689SOL    HW120966   4.233   4.811   0.147
 6689SOL    HW220967   4.283   4.966   0.154
 6690SOL     OW20968   1.502   1.573   0.501
 6690SOL    HW120969   1.449   1.498   0.460
 6690SOL    HW220970   1.562   1.536   0.573
 6691SOL     OW20971   1.233   5.111   0.965
 6691SOL    HW120972   1.191   5.037   0.913
 6691SOL    HW220973   1.322   5.134   0.926
 6692SOL     OW20974   3.838   4.338   6.090
 6692SOL    HW120975   3.756   4.324   6.035
 6692SOL    HW220976   3.918   4.337   6.030
 6693SOL     OW20977   4.143   3.783   5.216
 6693SOL    HW120978   4.064   3.837   5.187
 6693SOL    HW220979   4.113   3.713   5.281
 6694SOL     OW20980   2.665   6.604   0.378
 6694SOL    HW120981   2.758   6.622   0.411
 6694SOL    HW220982   2.627   6.525   0.427
 6695SOL     OW20983   1.432   1.511   6.424
 6695SOL    HW120984   1.371   1.498   6.346
 6695SOL    HW220985   1.387   1.479   6.507
 6696SOL     OW20986   1.839   2.947   1.513
 6696SOL    HW120987   1.930   2.985   1.529
 6696SOL    HW220988   1.771   3.020   1.521
 6697SOL     OW20989   5.028   2.266   3.932
 6697SOL    HW120990   4.950   2.234   3.877
 6697SOL    HW220991   5.041   2.364   3.917
 6698SOL     OW20992   3.100   4.343   0.294
 6698SOL    HW120993   3.111   4.363   0.391
 6698SOL    HW220994   3.145   4.415   0.240
 6699SOL     OW20995   1.525   3.544   6.750
 6699SOL    HW120996   1.504   3.590   6.836
 6699SOL    HW220997   1.520   3.445   6.763
 6700SOL     OW20998   6.849   6.756   6.055
 6700SOL    HW120999   6.841   6.828   5.985
 6700SOL    HW221000   6.759   6.716   6.071
 6701SOL     OW21001   0.507   2.738   1.246
 6701SOL    HW121002   0.434   2.720   1.312
 6701SOL    HW221003   0.596   2.731   1.291
 6702SOL     OW21004   1.355   3.368   0.709
 6702SOL    HW121005   1.284   3.411   0.654
 6702SOL    HW221006   1.422   3.324   0.649
 6703SOL     OW21007   0.508   2.322   6.591
 6703SOL    HW121008   0.471   2.398   6.537
 6703SOL    HW221009   0.500   2.344   6.689
 6704SOL     OW21010   5.074   2.524   3.164
 6704SOL    HW121011   5.168   2.517   3.197
 6704SOL    HW221012   5.011   2.531   3.241
 6705SOL     OW21013   5.966   1.314   0.982
 6705SOL    HW121014   5.995   1.349   0.893
 6705SOL    HW221015   5.959   1.389   1.047
 6706SOL     OW21016   0.550   5.905   0.119
 6706SOL    HW121017   0.526   5.853   0.201
 6706SOL    HW221018   0.498   5.872   0.041
 6707SOL     OW21019   1.448   5.667   2.405
 6707SOL    HW121020   1.415   5.617   2.485
 6707SOL    HW221021   1.476   5.602   2.334
 6708SOL     OW21022   2.226   5.916   1.735
 6708SOL    HW121023   2.146   5.884   1.785
 6708SOL    HW221024   2.282   5.838   1.707
 6709SOL     OW21025   4.956   1.696   3.033
 6709SOL    HW121026   4.872   1.741   3.065
 6709SOL    HW221027   4.936   1.601   3.009
 6710SOL     OW21028   1.878   2.010   0.639
 6710SOL    HW121029   1.827   2.095   0.649
 6710SOL    HW221030   1.815   1.934   0.628
 6711SOL     OW21031   5.194   3.598   0.226
 6711SOL    HW121032   5.109   3.610   0.173
 6711SOL    HW221033   5.178   3.532   0.300
 6712SOL     OW21034   3.581   6.117   1.290
 6712SOL    HW121035   3.620   6.164   1.211
 6712SOL    HW221036   3.613   6.160   1.374
 6713SOL     OW21037   1.732   1.531   3.048
 6713SOL    HW121038   1.810   1.592   3.033
 6713SOL    HW221039   1.674   1.530   2.967
 6714SOL     OW21040   6.697   0.199   4.688
 6714SOL    HW121041   6.703   0.107   4.649
 6714SOL    HW221042   6.602   0.231   4.684
 6715SOL     OW21043   6.684   2.068   0.686
 6715SOL    HW121044   6.745   2.029   0.617
 6715SOL    HW221045   6.589   2.042   0.665
 6716SOL     OW21046   2.677   5.958   0.681
 6716SOL    HW121047   2.687   5.963   0.581
 6716SOL    HW221048   2.750   5.902   0.719
 6717SOL     OW21049   4.194   1.075   6.609
 6717SOL    HW121050   4.290   1.054   6.628
 6717SOL    HW221051   4.161   1.145   6.672
 6718SOL     OW21052   3.226   6.778   0.414
 6718SOL    HW121053   3.292   6.837   0.462
 6718SOL    HW221054   3.247   6.683   0.434
 6719SOL     OW21055   1.047   0.652   5.554
 6719SOL    HW121056   1.052   0.596   5.637
 6719SOL    HW221057   1.002   0.600   5.482
 6720SOL     OW21058   2.047   4.720   1.513
 6720SOL    HW121059   1.964   4.713   1.459
 6720SOL    HW221060   2.074   4.816   1.520
 6721SOL     OW21061   7.006   6.212   3.095
 6721SOL    HW121062   6.950   6.264   3.159
 6721SOL    HW221063   6.997   6.114   3.114
 6722SOL     OW21064   5.106   4.898   6.933
 6722SOL    HW121065   5.175   4.840   6.889
 6722SOL    HW221066   5.121   4.993   6.908
 6723SOL     OW21067   4.531   0.943   3.080
 6723SOL    HW121068   4.510   1.025   3.027
 6723SOL    HW221069   4.599   0.888   3.031
 6724SOL     OW21070   3.664   4.540   5.469
 6724SOL    HW121071   3.637   4.596   5.391
 6724SOL    HW221072   3.684   4.599   5.548
 6725SOL     OW21073   6.960   5.159   1.325
 6725SOL    HW121074   6.877   5.174   1.380
 6725SOL    HW221075   0.006   5.114   1.381
 6726SOL     OW21076   1.997   2.310   1.821
 6726SOL    HW121077   1.947   2.329   1.736
 6726SOL    HW221078   2.085   2.268   1.799
 6727SOL     OW21079   3.178   3.714   0.487
 6727SOL    HW121080   3.250   3.783   0.481
 6727SOL    HW221081   3.213   3.626   0.454
 6728SOL     OW21082   4.677   1.363   4.751
 6728SOL    HW121083   4.727   1.391   4.669
 6728SOL    HW221084   4.605   1.430   4.771
 6729SOL     OW21085   5.354   6.316   3.489
 6729SOL    HW121086   5.426   6.303   3.420
 6729SOL    HW221087   5.272   6.354   3.445
 6730SOL     OW21088   1.233   0.072   2.323
 6730SOL    HW121089   1.301   7.024   2.310
 6730SOL    HW221090   1.266   0.157   2.281
 6731SOL     OW21091   1.916   4.400   2.012
 6731SOL    HW121092   1.830   4.380   1.967
 6731SOL    HW221093   1.984   4.332   1.985
 6732SOL     OW21094   2.437   5.515   0.427
 6732SOL    HW121095   2.362   5.449   0.421
 6732SOL    HW221096   2.516   5.472   0.471
 6733SOL     OW21097   6.155   6.056   4.713
 6733SOL    HW121098   6.067   6.010   4.699
 6733SOL    HW221099   6.180   6.106   4.629
 6734SOL     OW21100   2.814   3.632   5.780
 6734SOL    HW121101   2.830   3.689   5.699
 6734SOL    HW221102   2.824   3.688   5.862
 6735SOL     OW21103   0.629   6.114   6.876
 6735SOL    HW121104   0.620   6.029   6.825
 6735SOL    HW221105   0.654   6.094   6.971
 6736SOL     OW21106   2.209   4.440   2.377
 6736SOL    HW121107   2.124   4.395   2.348
 6736SOL    HW221108   2.229   4.415   2.472
 6737SOL     OW21109   2.266   0.192   0.977
 6737SOL    HW121110   2.172   0.170   0.953
 6737SOL    HW221111   2.277   0.291   0.983
 6738SOL     OW21112   4.510   1.304   1.616
 6738SOL    HW121113   4.509   1.249   1.533
 6738SOL    HW221114   4.591   1.282   1.670
 6739SOL     OW21115   4.347   6.999   5.383
 6739SOL    HW121116   4.420   6.931   5.376
 6739SOL    HW221117   4.344   0.030   5.299
 6740SOL     OW21118   5.865   3.161   5.405
 6740SOL    HW121119   5.959   3.178   5.375
 6740SOL    HW221120   5.849   3.206   5.493
 6741SOL     OW21121   0.231   6.857   6.053
 6741SOL    HW121122   0.207   6.794   6.127
 6741SOL    HW221123   0.176   6.836   5.972
 6742SOL     OW21124   6.228   6.234   5.199
 6742SOL    HW121125   6.177   6.314   5.169
 6742SOL    HW221126   6.237   6.169   5.124
 6743SOL     OW21127   6.145   2.490   1.242
 6743SOL    HW121128   6.190   2.423   1.300
 6743SOL    HW221129   6.145   2.579   1.288
 6744SOL     OW21130   5.386   6.004   4.564
 6744SOL    HW121131   5.362   5.922   4.615
 6744SOL    HW221132   5.429   6.070   4.625
 6745SOL     OW21133   1.002   3.204   2.998
 6745SOL    HW121134   0.915   3.165   2.967
 6745SOL    HW221135   0.995   3.304   2.998
 6746SOL     OW21136   0.180   0.934   1.181
 6746SOL    HW121137   0.108   0.984   1.133
 6746SOL    HW221138   0.224   0.995   1.247
 6747SOL     OW21139   4.791   6.033   6.536
 6747SOL    HW121140   4.702   6.005   6.499
 6747SOL    HW221141   4.817   6.122   6.496
 6748SOL     OW21142   0.159   6.599   1.857
 6748SOL    HW121143   0.121   6.572   1.769
 6748SOL    HW221144   0.256   6.574   1.861
 6749SOL     OW21145   3.393   5.684   0.984
 6749SOL    HW121146   3.481   5.651   0.950
 6749SOL    HW221147   3.374   5.643   1.073
 6750SOL     OW21148   2.137   3.083   5.147
 6750SOL    HW121149   2.146   3.141   5.228
 6750SOL    HW221150   2.228   3.058   5.114
 6751SOL     OW21151   3.813   1.700   5.714
 6751SOL    HW121152   3.809   1.661   5.621
 6751SOL    HW221153   3.787   1.796   5.711
 6752SOL     OW21154   6.887   2.026   0.133
 6752SOL    HW121155   6.815   2.079   0.178
 6752SOL    HW221156   6.859   1.930   0.126
 6753SOL     OW21157   5.997   1.392   6.826
 6753SOL    HW121158   5.992   1.311   6.886
 6753SOL    HW221159   6.033   1.365   6.737
 6754SOL     OW21160   5.031   1.343   6.526
 6754SOL    HW121161   5.018   1.265   6.586
 6754SOL    HW221162   5.126   1.376   6.534
 6755SOL     OW21163   4.902   1.993   3.509
 6755SOL    HW121164   4.920   2.082   3.467
 6755SOL    HW221165   4.808   1.989   3.542
 6756SOL     OW21166   4.875   3.875   3.625
 6756SOL    HW121167   4.904   3.957   3.576
 6756SOL    HW221168   4.821   3.901   3.705
 6757SOL     OW21169   6.096   4.924   1.737
 6757SOL    HW121170   6.091   4.878   1.648
 6757SOL    HW221171   6.191   4.941   1.761
 6758SOL     OW21172   6.054   1.367   3.211
 6758SOL    HW121173   5.966   1.343   3.253
 6758SOL    HW221174   6.038   1.416   3.126
 6759SOL     OW21175   1.363   4.810   2.717
 6759SOL    HW121176   1.449   4.826   2.764
 6759SOL    HW221177   1.292   4.871   2.753
 6760SOL     OW21178   0.424   3.905   4.960
 6760SOL    HW121179   0.349   3.873   4.902
 6760SOL    HW221180   0.430   3.847   5.041
 6761SOL     OW21181   6.090   2.912   6.476
 6761SOL    HW121182   6.117   3.005   6.453
 6761SOL    HW221183   6.145   2.879   6.553
 6762SOL     OW21184   6.951   3.929   3.071
 6762SOL    HW121185   6.854   3.912   3.057
 6762SOL    HW221186   6.968   4.027   3.080
 6763SOL     OW21187   6.014   6.868   4.950
 6763SOL    HW121188   6.098   6.914   4.978
 6763SOL    HW221189   6.031   6.770   4.944
 6764SOL     OW21190   2.145   3.441   6.298
 6764SOL    HW121191   2.117   3.491   6.216
 6764SOL    HW221192   2.088   3.470   6.375
 6765SOL     OW21193   5.122   5.109   2.529
 6765SOL    HW121194   5.221   5.106   2.541
 6765SOL    HW221195   5.079   5.141   2.614
 6766SOL     OW21196   1.964   2.376   6.047
 6766SOL    HW121197   2.040   2.339   5.994
 6766SOL    HW221198   1.971   2.476   6.049
 6767SOL     OW21199   0.450   2.603   6.068
 6767SOL    HW121200   0.387   2.533   6.035
 6767SOL    HW221201   0.410   2.650   6.146
 6768SOL     OW21202   6.602   1.071   6.091
 6768SOL    HW121203   6.684   1.052   6.037
 6768SOL    HW221204   6.583   0.993   6.151
 6769SOL     OW21205   1.271   2.961   6.582
 6769SOL    HW121206   1.247   2.942   6.677
 6769SOL    HW221207   1.223   3.044   6.552
 6770SOL     OW21208   6.893   1.510   4.357
 6770SOL    HW121209   6.863   1.569   4.282
 6770SOL    HW221210   6.816   1.489   4.416
 6771SOL     OW21211   6.172   1.538   2.767
 6771SOL    HW121212   6.169   1.636   2.787
 6771SOL    HW221213   6.120   1.520   2.684
 6772SOL     OW21214   1.260   0.335   2.217
 6772SOL    HW121215   1.208   0.403   2.269
 6772SOL    HW221216   1.224   0.331   2.123
 6773SOL     OW21217   1.822   0.813   2.561
 6773SOL    HW121218   1.918   0.804   2.535
 6773SOL    HW221219   1.787   0.902   2.531
 6774SOL     OW21220   3.760   1.443   5.152
 6774SOL    HW121221   3.756   1.391   5.237
 6774SOL    HW221222   3.814   1.392   5.084
 6775SOL     OW21223   0.923   2.655   4.456
 6775SOL    HW121224   0.866   2.573   4.461
 6775SOL    HW221225   0.989   2.645   4.381
 6776SOL     OW21226   3.358   3.781   3.902
 6776SOL    HW121227   3.323   3.863   3.857
 6776SOL    HW221228   3.288   3.710   3.901
 6777SOL     OW21229   0.344   6.468   6.061
 6777SOL    HW121230   0.438   6.435   6.046
 6777SOL    HW221231   0.282   6.390   6.061
 6778SOL     OW21232   6.649   5.863   2.324
 6778SOL    HW121233   6.672   5.958   2.303
 6778SOL    HW221234   6.585   5.860   2.400
 6779SOL     OW21235   4.622   4.838   6.942
 6779SOL    HW121236   4.678   4.864   6.863
 6779SOL    HW221237   4.599   4.920   6.995
 6780SOL     OW21238   4.552   0.449   3.046
 6780SOL    HW121239   4.573   0.509   2.969
 6780SOL    HW221240   4.631   0.444   3.107
 6781SOL     OW21241   6.308   3.378   3.105
 6781SOL    HW121242   6.404   3.405   3.108
 6781SOL    HW221243   6.250   3.459   3.115
 6782SOL     OW21244   0.740   1.010   3.645
 6782SOL    HW121245   0.774   0.919   3.622
 6782SOL    HW221246   0.644   1.017   3.619
 6783SOL     OW21247   0.110   6.414   6.741
 6783SOL    HW121248   0.112   6.385   6.645
 6783SOL    HW221249   0.030   6.471   6.758
 6784SOL     OW21250   1.195   4.984   0.650
 6784SOL    HW121251   1.130   5.059   0.638
 6784SOL    HW221252   1.179   4.940   0.739
 6785SOL     OW21253   5.394   4.463   1.773
 6785SOL    HW121254   5.463   4.408   1.820
 6785SOL    HW221255   5.366   4.539   1.832
 6786SOL     OW21256   6.662   1.954   5.266
 6786SOL    HW121257   6.613   2.038   5.245
 6786SOL    HW221258   6.684   1.952   5.363
 6787SOL     OW21259   3.943   1.812   1.293
 6787SOL    HW121260   4.020   1.875   1.306
 6787SOL    HW221261   3.859   1.865   1.283
 6788SOL     OW21262   1.098   4.170   1.201
 6788SOL    HW121263   1.024   4.107   1.178
 6788SOL    HW221264   1.073   4.263   1.174
 6789SOL     OW21265   5.270   3.484   2.607
 6789SOL    HW121266   5.348   3.538   2.576
 6789SOL    HW221267   5.274   3.393   2.566
 6790SOL     OW21268   0.382   5.561   0.995
 6790SOL    HW121269   0.386   5.625   1.072
 6790SOL    HW221270   0.314   5.491   1.013
 6791SOL     OW21271   2.533   6.587   3.696
 6791SOL    HW121272   2.592   6.511   3.667
 6791SOL    HW221273   2.568   6.625   3.783
 6792SOL     OW21274   3.140   5.903   6.593
 6792SOL    HW121275   3.085   5.947   6.663
 6792SOL    HW221276   3.145   5.805   6.612
 6793SOL     OW21277   2.317   4.439   6.479
 6793SOL    HW121278   2.280   4.504   6.412
 6793SOL    HW221279   2.403   4.401   6.444
 6794SOL     OW21280   4.712   2.441   4.361
 6794SOL    HW121281   4.792   2.483   4.403
 6794SOL    HW221282   4.731   2.419   4.265
 6795SOL     OW21283   0.685   0.774   2.180
 6795SOL    HW121284   0.690   0.802   2.084
 6795SOL    HW221285   0.612   0.826   2.226
 6796SOL     OW21286   6.765   2.818   2.471
 6796SOL    HW121287   6.838   2.755   2.443
 6796SOL    HW221288   6.745   2.806   2.568
 6797SOL     OW21289   1.977   3.922   1.278
 6797SOL    HW121290   2.004   4.017   1.263
 6797SOL    HW221291   1.903   3.898   1.216
 6798SOL     OW21292   4.477   1.027   1.987
 6798SOL    HW121293   4.441   1.116   1.959
 6798SOL    HW221294   4.508   0.976   1.907
 6799SOL     OW21295   5.901   6.737   2.930
 6799SOL    HW121296   5.878   6.642   2.950
 6799SOL    HW221297   5.937   6.780   3.013
 6800SOL     OW21298   6.722   2.746   2.722
 6800SOL    HW121299   6.742   2.669   2.782
 6800SOL    HW221300   6.667   2.813   2.772
 6801SOL     OW21301   1.795   5.112   4.962
 6801SOL    HW121302   1.733   5.068   4.897
 6801SOL    HW221303   1.746   5.183   5.012
 6802SOL     OW21304   2.846   4.431   1.557
 6802SOL    HW121305   2.761   4.379   1.550
 6802SOL    HW221306   2.860   4.460   1.652
 6803SOL     OW21307   5.896   5.115   6.978
 6803SOL    HW121308   5.915   5.111   6.880
 6803SOL    HW221309   5.891   5.210   7.007
 6804SOL     OW21310   3.164   5.462   1.842
 6804SOL    HW121311   3.212   5.529   1.899
 6804SOL    HW221312   3.121   5.394   1.902
 6805SOL     OW21313   0.735   4.743   3.873
 6805SOL    HW121314   0.824   4.787   3.889
 6805SOL    HW221315   0.725   4.664   3.933
 6806SOL     OW21316   5.748   3.743   2.525
 6806SOL    HW121317   5.651   3.717   2.528
 6806SOL    HW221318   5.784   3.728   2.433
 6807SOL     OW21319   3.072   3.275   2.746
 6807SOL    HW121320   3.052   3.230   2.658
 6807SOL    HW221321   3.171   3.283   2.757
 6808SOL     OW21322   3.884   6.665   3.330
 6808SOL    HW121323   3.976   6.630   3.313
 6808SOL    HW221324   3.847   6.705   3.246
 6809SOL     OW21325   5.533   2.296   0.565
 6809SOL    HW121326   5.435   2.297   0.545
 6809SOL    HW221327   5.572   2.386   0.550
 6810SOL     OW21328   2.663   6.967   4.577
 6810SOL    HW121329   2.660   0.043   4.581
 6810SOL    HW221330   2.751   6.935   4.613
 6811SOL     OW21331   6.660   1.653   0.986
 6811SOL    HW121332   6.654   1.625   1.081
 6811SOL    HW221333   6.740   1.712   0.973
 6812SOL     OW21334   3.427   4.411   5.392
 6812SOL    HW121335   3.501   4.457   5.442
 6812SOL    HW221336   3.340   4.456   5.414
 6813SOL     OW21337   0.307   3.591   1.884
 6813SOL    HW121338   0.290   3.690   1.891
 6813SOL    HW221339   0.222   3.541   1.902
 6814SOL     OW21340   4.634   2.076   1.914
 6814SOL    HW121341   4.540   2.091   1.946
 6814SOL    HW221342   4.696   2.135   1.966
 6815SOL     OW21343   0.741   6.080   0.306
 6815SOL    HW121344   0.761   6.005   0.242
 6815SOL    HW221345   0.664   6.055   0.364
 6816SOL     OW21346   6.433   6.734   4.457
 6816SOL    HW121347   6.377   6.765   4.533
 6816SOL    HW221348   6.439   6.806   4.388
 6817SOL     OW21349   5.236   0.915   2.077
 6817SOL    HW121350   5.310   0.848   2.089
 6817SOL    HW221351   5.241   0.953   1.985
 6818SOL     OW21352   0.144   0.045   5.394
 6818SOL    HW121353   0.207   7.013   5.448
 6818SOL    HW221354   0.092   0.105   5.455
 6819SOL     OW21355   5.450   4.049   0.843
 6819SOL    HW121356   5.500   4.033   0.929
 6819SOL    HW221357   5.424   3.961   0.803
 6820SOL     OW21358   2.464   3.903   1.465
 6820SOL    HW121359   2.372   3.896   1.426
 6820SOL    HW221360   2.510   3.983   1.427
 6821SOL     OW21361   3.424   3.087   5.913
 6821SOL    HW121362   3.524   3.093   5.914
 6821SOL    HW221363   3.395   3.030   5.836
 6822SOL     OW21364   6.407   4.066   5.126
 6822SOL    HW121365   6.478   4.094   5.061
 6822SOL    HW221366   6.413   4.123   5.208
 6823SOL     OW21367   6.605   3.086   5.751
 6823SOL    HW121368   6.505   3.084   5.754
 6823SOL    HW221369   6.638   3.018   5.685
 6824SOL     OW21370   0.863   0.493   3.896
 6824SOL    HW121371   0.849   0.570   3.958
 6824SOL    HW221372   0.865   0.408   3.948
 6825SOL     OW21373   4.567   4.244   1.271
 6825SOL    HW121374   4.539   4.163   1.219
 6825SOL    HW221375   4.495   4.314   1.265
 6826SOL     OW21376   5.853   1.330   3.431
 6826SOL    HW121377   5.919   1.264   3.466
 6826SOL    HW221378   5.844   1.407   3.494
 6827SOL     OW21379   4.781   5.697   5.449
 6827SOL    HW121380   4.775   5.610   5.399
 6827SOL    HW221381   4.876   5.715   5.472
 6828SOL     OW21382   2.610   2.393   2.496
 6828SOL    HW121383   2.693   2.350   2.461
 6828SOL    HW221384   2.574   2.456   2.427
 6829SOL     OW21385   5.393   6.425   4.391
 6829SOL    HW121386   5.481   6.379   4.379
 6829SOL    HW221387   5.325   6.383   4.331
 6830SOL     OW21388   4.404   6.298   2.407
 6830SOL    HW121389   4.411   6.358   2.328
 6830SOL    HW221390   4.308   6.289   2.434
 6831SOL     OW21391   1.800   0.888   6.828
 6831SOL    HW121392   1.789   0.985   6.850
 6831SOL    HW221393   1.867   0.878   6.755
 6832SOL     OW21394   3.103   3.296   0.136
 6832SOL    HW121395   3.034   3.233   0.099
 6832SOL    HW221396   3.071   3.333   0.222
 6833SOL     OW21397   4.617   5.137   6.679
 6833SOL    HW121398   4.677   5.065   6.713
 6833SOL    HW221399   4.645   5.163   6.586
 6834SOL     OW21400   5.770   5.562   5.151
 6834SOL    HW121401   5.832   5.524   5.219
 6834SOL    HW221402   5.731   5.488   5.097
 6835SOL     OW21403   3.645   0.012   3.491
 6835SOL    HW121404   3.587   0.078   3.539
 6835SOL    HW221405   3.740   0.043   3.494
 6836SOL     OW21406   0.540   4.471   0.057
 6836SOL    HW121407   0.519   4.433   6.990
 6836SOL    HW221408   0.501   4.412   0.127
 6837SOL     OW21409   6.463   1.855   1.673
 6837SOL    HW121410   6.363   1.849   1.673
 6837SOL    HW221411   6.501   1.770   1.710
 6838SOL     OW21412   2.503   4.098   6.056
 6838SOL    HW121413   2.557   4.177   6.084
 6838SOL    HW221414   2.472   4.048   6.136
 6839SOL     OW21415   5.791   2.496   5.334
 6839SOL    HW121416   5.752   2.483   5.425
 6839SOL    HW221417   5.720   2.530   5.272
 6840SOL     OW21418   3.497   6.698   4.531
 6840SOL    HW121419   3.539   6.779   4.489
 6840SOL    HW221420   3.403   6.688   4.498
 6841SOL     OW21421   4.321   6.355   0.600
 6841SOL    HW121422   4.325   6.296   0.680
 6841SOL    HW221423   4.381   6.434   0.613
 6842SOL     OW21424   1.230   3.157   3.565
 6842SOL    HW121425   1.330   3.158   3.567
 6842SOL    HW221426   1.195   3.178   3.656
 6843SOL     OW21427   4.922   3.148   1.875
 6843SOL    HW121428   4.852   3.102   1.930
 6843SOL    HW221429   4.895   3.147   1.779
 6844SOL     OW21430   3.406   0.013   5.125
 6844SOL    HW121431   3.441   7.006   5.037
 6844SOL    HW221432   3.411   6.962   5.191
 6845SOL     OW21433   3.842   3.939   0.137
 6845SOL    HW121434   3.933   3.903   0.113
 6845SOL    HW221435   3.773   3.870   0.118
 6846SOL     OW21436   4.046   3.364   3.790
 6846SOL    HW121437   4.107   3.439   3.814
 6846SOL    HW221438   4.044   3.297   3.864
 6847SOL     OW21439   5.488   2.542   2.579
 6847SOL    HW121440   5.389   2.555   2.569
 6847SOL    HW221441   5.536   2.610   2.524
 6848SOL     OW21442   0.614   6.005   5.213
 6848SOL    HW121443   0.668   5.925   5.187
 6848SOL    HW221444   0.603   6.007   5.312
 6849SOL     OW21445   3.542   0.683   5.266
 6849SOL    HW121446   3.593   0.719   5.345
 6849SOL    HW221447   3.566   0.587   5.253
 6850SOL     OW21448   6.626   3.412   1.866
 6850SOL    HW121449   6.631   3.461   1.953
 6850SOL    HW221450   6.704   3.436   1.810
 6851SOL     OW21451   1.348   5.884   6.316
 6851SOL    HW121452   1.254   5.917   6.312
 6851SOL    HW221453   1.396   5.926   6.393
 6852SOL     OW21454   6.217   5.209   2.446
 6852SOL    HW121455   6.245   5.248   2.534
 6852SOL    HW221456   6.299   5.187   2.393
 6853SOL     OW21457   6.049   4.505   4.565
 6853SOL    HW121458   6.050   4.453   4.651
 6853SOL    HW221459   6.110   4.462   4.499
 6854SOL     OW21460   6.594   1.454   6.627
 6854SOL    HW121461   6.585   1.485   6.722
 6854SOL    HW221462   6.522   1.496   6.571
 6855SOL     OW21463   3.269   6.678   2.338
 6855SOL    HW121464   3.240   6.760   2.289
 6855SOL    HW221465   3.353   6.697   2.389
 6856SOL     OW21466   0.818   5.949   5.778
 6856SOL    HW121467   0.719   5.936   5.780
 6856SOL    HW221468   0.860   5.895   5.851
 6857SOL     OW21469   4.772   1.079   6.818
 6857SOL    HW121470   4.702   1.145   6.791
 6857SOL    HW221471   4.859   1.102   6.773
 6858SOL     OW21472   3.573   3.135   6.985
 6858SOL    HW121473   3.522   3.110   6.903
 6858SOL    HW221474   3.509   3.154   0.036
 6859SOL     OW21475   3.892   0.901   0.187
 6859SOL    HW121476   3.855   0.929   0.099
 6859SOL    HW221477   3.969   0.839   0.172
 6860SOL     OW21478   4.947   3.644   0.105
 6860SOL    HW121479   4.898   3.673   0.023
 6860SOL    HW221480   4.886   3.648   0.184
 6861SOL     OW21481   5.604   3.651   0.753
 6861SOL    HW121482   5.683   3.638   0.693
 6861SOL    HW221483   5.528   3.596   0.720
 6862SOL     OW21484   2.523   5.166   4.377
 6862SOL    HW121485   2.542   5.258   4.345
 6862SOL    HW221486   2.466   5.169   4.459
 6863SOL     OW21487   1.086   3.290   3.770
 6863SOL    HW121488   1.056   3.370   3.822
 6863SOL    HW221489   1.009   3.228   3.757
 6864SOL     OW21490   3.901   5.426   6.401
 6864SOL    HW121491   3.979   5.410   6.340
 6864SOL    HW221492   3.934   5.473   6.483
 6865SOL     OW21493   0.072   2.985   4.433
 6865SOL    HW121494   0.128   3.032   4.365
 6865SOL    HW221495   7.022   3.045   4.464
 6866SOL     OW21496   0.936   3.358   2.241
 6866SOL    HW121497   0.968   3.355   2.146
 6866SOL    HW221498   0.944   3.451   2.276
 6867SOL     OW21499   2.005   5.222   2.919
 6867SOL    HW121500   1.968   5.306   2.957
 6867SOL    HW221501   2.102   5.234   2.897
 6868SOL     OW21502   2.068   5.156   4.938
 6868SOL    HW121503   2.130   5.130   5.012
 6868SOL    HW221504   1.973   5.143   4.967
 6869SOL     OW21505   0.203   3.513   5.208
 6869SOL    HW121506   0.169   3.427   5.247
 6869SOL    HW221507   0.294   3.498   5.170
 6870SOL     OW21508   6.022   3.516   2.432
 6870SOL    HW121509   6.105   3.460   2.437
 6870SOL    HW221510   5.956   3.483   2.499
 6871SOL     OW21511   4.919   5.937   1.663
 6871SOL    HW121512   4.961   5.923   1.753
 6871SOL    HW221513   4.861   6.018   1.666
 6872SOL     OW21514   3.170   4.018   0.677
 6872SOL    HW121515   3.246   3.973   0.631
 6872SOL    HW221516   3.086   3.966   0.661
 6873SOL     OW21517   5.948   4.751   4.485
 6873SOL    HW121518   5.968   4.667   4.535
 6873SOL    HW221519   6.021   4.818   4.502
 6874SOL     OW21520   0.751   1.715   5.835
 6874SOL    HW121521   0.762   1.635   5.894
 6874SOL    HW221522   0.755   1.687   5.739
 6875SOL     OW21523   4.199   0.756   4.634
 6875SOL    HW121524   4.240   0.711   4.555
 6875SOL    HW221525   4.102   0.733   4.638
 6876SOL     OW21526   3.291   5.869   4.883
 6876SOL    HW121527   3.362   5.901   4.820
 6876SOL    HW221528   3.243   5.947   4.922
 6877SOL     OW21529   1.459   3.681   5.832
 6877SOL    HW121530   1.537   3.688   5.895
 6877SOL    HW221531   1.449   3.586   5.801
 6878SOL     OW21532   1.125   1.239   4.202
 6878SOL    HW121533   1.138   1.337   4.217
 6878SOL    HW221534   1.138   1.219   4.105
 6879SOL     OW21535   6.952   1.139   5.234
 6879SOL    HW121536   6.856   1.168   5.226
 6879SOL    HW221537   6.977   1.132   5.330
 6880SOL     OW21538   1.624   4.032   4.487
 6880SOL    HW121539   1.664   4.097   4.422
 6880SOL    HW221540   1.533   4.063   4.513
 6881SOL     OW21541   5.648   5.808   1.809
 6881SOL    HW121542   5.566   5.774   1.855
 6881SOL    HW221543   5.703   5.731   1.777
 6882SOL     OW21544   2.492   5.926   5.481
 6882SOL    HW121545   2.456   5.978   5.558
 6882SOL    HW221546   2.462   5.967   5.396
 6883SOL     OW21547   3.259   6.187   1.995
 6883SOL    HW121548   3.199   6.228   2.065
 6883SOL    HW221549   3.295   6.260   1.937
 6884SOL     OW21550   1.824   5.062   2.538
 6884SOL    HW121551   1.750   5.107   2.487
 6884SOL    HW221552   1.912   5.096   2.506
 6885SOL     OW21553   4.013   4.940   5.028
 6885SOL    HW121554   4.068   4.865   5.066
 6885SOL    HW221555   4.044   4.959   4.934
 6886SOL     OW21556   5.544   1.058   1.540
 6886SOL    HW121557   5.559   1.129   1.608
 6886SOL    HW221558   5.491   0.983   1.582
 6887SOL     OW21559   5.906   0.780   5.105
 6887SOL    HW121560   5.907   0.863   5.048
 6887SOL    HW221561   5.893   0.806   5.201
 6888SOL     OW21562   5.853   0.135   4.360
 6888SOL    HW121563   5.840   0.230   4.389
 6888SOL    HW221564   5.772   0.104   4.311
 6889SOL     OW21565   1.691   4.978   6.044
 6889SOL    HW121566   1.722   4.975   5.949
 6889SOL    HW221567   1.735   4.904   6.095
 6890SOL     OW21568   2.032   0.531   1.147
 6890SOL    HW121569   1.946   0.488   1.122
 6890SOL    HW221570   2.090   0.538   1.066
 6891SOL     OW21571   4.064   5.477   5.498
 6891SOL    HW121572   3.999   5.506   5.429
 6891SOL    HW221573   4.152   5.456   5.455
 6892SOL     OW21574   2.972   1.517   4.962
 6892SOL    HW121575   2.986   1.481   4.870
 6892SOL    HW221576   3.031   1.467   5.026
 6893SOL     OW21577   5.479   0.786   1.296
 6893SOL    HW121578   5.450   0.693   1.274
 6893SOL    HW221579   5.439   0.814   1.383
 6894SOL     OW21580   5.953   4.572   6.549
 6894SOL    HW121581   5.918   4.548   6.640
 6894SOL    HW221582   6.041   4.527   6.535
 6895SOL     OW21583   4.123   5.519   6.102
 6895SOL    HW121584   4.051   5.484   6.042
 6895SOL    HW221585   4.083   5.581   6.169
 6896SOL     OW21586   4.853   1.401   2.974
 6896SOL    HW121587   4.877   1.403   2.877
 6896SOL    HW221588   4.763   1.357   2.984
 6897SOL     OW21589   3.783   0.510   1.061
 6897SOL    HW121590   3.752   0.417   1.078
 6897SOL    HW221591   3.868   0.508   1.008
 6898SOL     OW21592   4.036   1.312   2.857
 6898SOL    HW121593   4.094   1.294   2.777
 6898SOL    HW221594   4.075   1.268   2.937
 6899SOL     OW21595   5.554   6.163   6.223
 6899SOL    HW121596   5.612   6.229   6.176
 6899SOL    HW221597   5.608   6.110   6.288
 6900SOL     OW21598   4.807   1.474   6.442
 6900SOL    HW121599   4.805   1.520   6.353
 6900SOL    HW221600   4.902   1.465   6.472
 6901SOL     OW21601   1.746   0.651   6.991
 6901SOL    HW121602   1.772   0.704   6.910
 6901SOL    HW221603   1.808   0.673   0.042
 6902SOL     OW21604   6.370   5.671   2.525
 6902SOL    HW121605   6.442   5.721   2.573
 6902SOL    HW221606   6.404   5.645   2.434
 6903SOL     OW21607   4.573   4.421   0.595
 6903SOL    HW121608   4.549   4.374   0.510
 6903SOL    HW221609   4.631   4.361   0.650
 6904SOL     OW21610   0.681   0.757   2.934
 6904SOL    HW121611   0.690   0.850   2.970
 6904SOL    HW221612   0.727   0.751   2.845
 6905SOL     OW21613   3.878   5.852   0.943
 6905SOL    HW121614   3.897   5.776   1.006
 6905SOL    HW221615   3.790   5.892   0.966
 6906SOL     OW21616   6.241   6.358   3.390
 6906SOL    HW121617   6.252   6.418   3.310
 6906SOL    HW221618   6.307   6.283   3.384
 6907SOL     OW21619   3.266   0.369   1.269
 6907SOL    HW121620   3.268   0.373   1.170
 6907SOL    HW221621   3.306   0.453   1.307
 6908SOL     OW21622   5.798   6.748   0.071
 6908SOL    HW121623   5.720   6.806   0.050
 6908SOL    HW221624   5.859   6.796   0.134
 6909SOL     OW21625   2.214   2.322   6.927
 6909SOL    HW121626   2.298   2.269   6.938
 6909SOL    HW221627   2.161   2.319   7.012
 6910SOL     OW21628   5.342   1.163   1.382
 6910SOL    HW121629   5.407   1.123   1.447
 6910SOL    HW221630   5.249   1.146   1.412
 6911SOL     OW21631   4.438   0.777   4.974
 6911SOL    HW121632   4.447   0.713   4.898
 6911SOL    HW221633   4.363   0.748   5.033
 6912SOL     OW21634   4.424   4.534   2.093
 6912SOL    HW121635   4.325   4.526   2.097
 6912SOL    HW221636   4.462   4.455   2.046
 6913SOL     OW21637   4.310   5.452   5.397
 6913SOL    HW121638   4.367   5.484   5.473
 6913SOL    HW221639   4.355   5.374   5.353
 6914SOL     OW21640   6.329   5.335   6.620
 6914SOL    HW121641   6.353   5.395   6.696
 6914SOL    HW221642   6.411   5.286   6.589
 6915SOL     OW21643   0.432   5.986   0.883
 6915SOL    HW121644   0.493   6.006   0.960
 6915SOL    HW221645   0.341   5.962   0.917
 6916SOL     OW21646   6.186   0.583   5.933
 6916SOL    HW121647   6.107   0.644   5.928
 6916SOL    HW221648   6.266   0.630   5.895
 6917SOL     OW21649   4.851   0.220   6.410
 6917SOL    HW121650   4.803   0.297   6.452
 6917SOL    HW221651   4.796   0.184   6.334
 6918SOL     OW21652   2.189   2.839   3.789
 6918SOL    HW121653   2.187   2.742   3.812
 6918SOL    HW221654   2.226   2.851   3.696
 6919SOL     OW21655   1.214   6.175   3.402
 6919SOL    HW121656   1.155   6.142   3.328
 6919SOL    HW221657   1.161   6.232   3.464
 6920SOL     OW21658   5.760   5.772   4.512
 6920SOL    HW121659   5.731   5.837   4.441
 6920SOL    HW221660   5.713   5.685   4.499
 6921SOL     OW21661   1.404   5.906   3.844
 6921SOL    HW121662   1.338   5.904   3.918
 6921SOL    HW221663   1.355   5.905   3.756
 6922SOL     OW21664   1.626   6.809   0.670
 6922SOL    HW121665   1.594   6.882   0.610
 6922SOL    HW221666   1.645   6.848   0.761
 6923SOL     OW21667   4.970   6.043   4.130
 6923SOL    HW121668   4.905   5.967   4.123
 6923SOL    HW221669   4.977   6.090   4.042
 6924SOL     OW21670   6.546   5.929   1.930
 6924SOL    HW121671   6.587   5.843   1.961
 6924SOL    HW221672   6.610   6.004   1.948
 6925SOL     OW21673   5.467   5.373   2.556
 6925SOL    HW121674   5.444   5.388   2.653
 6925SOL    HW221675   5.551   5.423   2.534
 6926SOL     OW21676   2.756   4.064   5.596
 6926SOL    HW121677   2.683   4.090   5.533
 6926SOL    HW221678   2.827   4.134   5.595
 6927SOL     OW21679   4.244   3.438   0.908
 6927SOL    HW121680   4.218   3.534   0.905
 6927SOL    HW221681   4.248   3.408   1.004
 6928SOL     OW21682   6.917   0.413   6.469
 6928SOL    HW121683   6.884   0.490   6.524
 6928SOL    HW221684   6.883   0.327   6.507
 6929SOL     OW21685   2.912   5.093   1.409
 6929SOL    HW121686   2.872   5.004   1.390
 6929SOL    HW221687   3.003   5.098   1.369
 6930SOL     OW21688   0.825   0.314   3.138
 6930SOL    HW121689   0.886   0.289   3.213
 6930SOL    HW221690   0.776   0.233   3.107
 6931SOL     OW21691   2.243   6.927   0.209
 6931SOL    HW121692   2.265   6.831   0.229
 6931SOL    HW221693   2.191   6.932   0.124
 6932SOL     OW21694   2.330   2.486   0.439
 6932SOL    HW121695   2.407   2.466   0.499
 6932SOL    HW221696   2.284   2.569   0.470
 6933SOL     OW21697   2.466   5.662   5.266
 6933SOL    HW121698   2.512   5.617   5.343
 6933SOL    HW221699   2.367   5.663   5.282
 6934SOL     OW21700   5.375   5.157   6.548
 6934SOL    HW121701   5.442   5.095   6.589
 6934SOL    HW221702   5.412   5.195   6.463
 6935SOL     OW21703   4.555   5.739   3.154
 6935SOL    HW121704   4.506   5.671   3.100
 6935SOL    HW221705   4.578   5.701   3.243
 6936SOL     OW21706   0.913   4.423   0.701
 6936SOL    HW121707   0.844   4.483   0.662
 6936SOL    HW221708   0.919   4.339   0.647
 6937SOL     OW21709   4.463   6.565   5.621
 6937SOL    HW121710   4.546   6.555   5.677
 6937SOL    HW221711   4.455   6.660   5.590
 6938SOL     OW21712   5.551   2.358   4.876
 6938SOL    HW121713   5.578   2.421   4.803
 6938SOL    HW221714   5.456   2.378   4.903
 6939SOL     OW21715   6.919   4.851   2.065
 6939SOL    HW121716   6.862   4.933   2.058
 6939SOL    HW221717   6.974   4.842   1.982
 6940SOL     OW21718   4.340   0.274   4.688
 6940SOL    HW121719   4.391   0.244   4.608
 6940SOL    HW221720   4.330   0.199   4.753
 6941SOL     OW21721   4.205   3.503   4.751
 6941SOL    HW121722   4.180   3.412   4.784
 6941SOL    HW221723   4.262   3.495   4.669
 6942SOL     OW21724   6.345   1.617   0.005
 6942SOL    HW121725   6.422   1.568   6.986
 6942SOL    HW221726   6.311   1.564   0.082
 6943SOL     OW21727   5.779   5.740   6.816
 6943SOL    HW121728   5.812   5.666   6.758
 6943SOL    HW221729   5.695   5.713   6.862
 6944SOL     OW21730   1.210   6.464   0.440
 6944SOL    HW121731   1.115   6.450   0.468
 6944SOL    HW221732   1.254   6.376   0.424
 6945SOL     OW21733   4.853   2.109   5.832
 6945SOL    HW121734   4.896   2.198   5.846
 6945SOL    HW221735   4.779   2.097   5.899
 6946SOL     OW21736   5.989   3.740   3.607
 6946SOL    HW121737   6.064   3.675   3.590
 6946SOL    HW221738   5.951   3.724   3.698
 6947SOL     OW21739   3.892   0.229   1.682
 6947SOL    HW121740   3.824   0.273   1.624
 6947SOL    HW221741   3.928   0.148   1.635
 6948SOL     OW21742   3.940   2.468   5.455
 6948SOL    HW121743   3.955   2.538   5.524
 6948SOL    HW221744   3.980   2.498   5.368
 6949SOL     OW21745   4.644   1.163   2.731
 6949SOL    HW121746   4.729   1.135   2.685
 6949SOL    HW221747   4.666   1.221   2.809
 6950SOL     OW21748   3.048   1.468   3.711
 6950SOL    HW121749   3.136   1.423   3.700
 6950SOL    HW221750   3.063   1.564   3.735
 6951SOL     OW21751   4.953   4.820   5.281
 6951SOL    HW121752   4.960   4.824   5.182
 6951SOL    HW221753   4.915   4.732   5.309
 6952SOL     OW21754   0.027   4.248   5.091
 6952SOL    HW121755   0.082   4.248   5.008
 6952SOL    HW221756   0.034   4.159   5.136
 6953SOL     OW21757   5.280   2.577   5.015
 6953SOL    HW121758   5.247   2.532   5.099
 6953SOL    HW221759   5.267   2.516   4.937
 6954SOL     OW21760   0.280   4.300   1.855
 6954SOL    HW121761   0.369   4.324   1.893
 6954SOL    HW221762   0.217   4.378   1.866
 6955SOL     OW21763   7.002   6.929   2.921
 6955SOL    HW121764   6.926   6.887   2.873
 6955SOL    HW221765   0.001   7.017   2.880
 6956SOL     OW21766   2.514   4.369   1.271
 6956SOL    HW121767   2.448   4.436   1.307
 6956SOL    HW221768   2.589   4.417   1.225
 6957SOL     OW21769   0.920   4.367   6.557
 6957SOL    HW121770   0.837   4.312   6.567
 6957SOL    HW221771   0.997   4.320   6.601
 6958SOL     OW21772   2.455   3.517   5.986
 6958SOL    HW121773   2.360   3.491   5.969
 6958SOL    HW221774   2.479   3.595   5.928
 6959SOL     OW21775   3.792   1.311   4.134
 6959SOL    HW121776   3.812   1.257   4.051
 6959SOL    HW221777   3.702   1.284   4.170
 6960SOL     OW21778   0.581   5.146   0.056
 6960SOL    HW121779   0.651   5.089   0.099
 6960SOL    HW221780   0.554   5.106   6.992
 6961SOL     OW21781   6.464   1.489   3.134
 6961SOL    HW121782   6.523   1.443   3.201
 6961SOL    HW221783   6.432   1.422   3.067
 6962SOL     OW21784   3.784   3.347   1.243
 6962SOL    HW121785   3.716   3.291   1.196
 6962SOL    HW221786   3.838   3.289   1.304
 6963SOL     OW21787   6.098   6.298   2.386
 6963SOL    HW121788   6.041   6.336   2.314
 6963SOL    HW221789   6.040   6.258   2.458
 6964SOL     OW21790   3.559   5.713   5.279
 6964SOL    HW121791   3.460   5.709   5.261
 6964SOL    HW221792   3.589   5.809   5.277
 6965SOL     OW21793   6.381   1.859   5.471
 6965SOL    HW121794   6.296   1.808   5.460
 6965SOL    HW221795   6.455   1.795   5.491
 6966SOL     OW21796   5.232   2.327   4.244
 6966SOL    HW121797   5.327   2.355   4.230
 6966SOL    HW221798   5.190   2.307   4.155
 6967SOL     OW21799   2.577   2.446   5.953
 6967SOL    HW121800   2.607   2.401   5.869
 6967SOL    HW221801   2.553   2.541   5.934
 6968SOL     OW21802   4.377   0.183   4.097
 6968SOL    HW121803   4.296   0.242   4.095
 6968SOL    HW221804   4.349   0.088   4.090
 6969SOL     OW21805   3.045   2.840   0.856
 6969SOL    HW121806   3.024   2.747   0.826
 6969SOL    HW221807   3.138   2.863   0.829
 6970SOL     OW21808   4.333   4.200   0.842
 6970SOL    HW121809   4.411   4.235   0.895
 6970SOL    HW221810   4.248   4.224   0.887
 6971SOL     OW21811   6.049   0.787   2.191
 6971SOL    HW121812   6.027   0.852   2.119
 6971SOL    HW221813   6.061   0.696   2.151
 6972SOL     OW21814   5.493   5.067   4.663
 6972SOL    HW121815   5.410   5.086   4.715
 6972SOL    HW221816   5.472   5.064   4.566
 6973SOL     OW21817   1.509   4.229   2.986
 6973SOL    HW121818   1.490   4.226   2.888
 6973SOL    HW221819   1.577   4.301   3.004
 6974SOL     OW21820   3.378   3.944   5.181
 6974SOL    HW121821   3.310   3.886   5.227
 6974SOL    HW221822   3.348   4.039   5.184
 6975SOL     OW21823   3.243   0.092   6.635
 6975SOL    HW121824   3.234   7.018   6.617
 6975SOL    HW221825   3.262   0.140   6.550
 6976SOL     OW21826   0.818   6.509   0.813
 6976SOL    HW121827   0.797   6.462   0.899
 6976SOL    HW221828   0.749   6.579   0.796
 6977SOL     OW21829   4.819   2.735   2.132
 6977SOL    HW121830   4.744   2.682   2.173
 6977SOL    HW221831   4.783   2.821   2.096
 6978SOL     OW21832   4.139   1.863   3.103
 6978SOL    HW121833   4.231   1.872   3.141
 6978SOL    HW221834   4.123   1.938   3.038
 6979SOL     OW21835   0.627   4.438   3.569
 6979SOL    HW121836   0.605   4.378   3.646
 6979SOL    HW221837   0.665   4.383   3.495
 6980SOL     OW21838   4.388   1.225   4.593
 6980SOL    HW121839   4.322   1.232   4.668
 6980SOL    HW221840   4.400   1.129   4.567
 6981SOL     OW21841   2.821   3.941   0.200
 6981SOL    HW121842   2.897   3.913   0.258
 6981SOL    HW221843   2.734   3.914   0.242
 6982SOL     OW21844   0.553   0.051   5.384
 6982SOL    HW121845   0.530   0.012   5.295
 6982SOL    HW221846   0.611   7.011   5.435
 6983SOL     OW21847   6.810   0.872   2.742
 6983SOL    HW121848   6.837   0.898   2.835
 6983SOL    HW221849   6.710   0.868   2.737
 6984SOL     OW21850   1.656   1.544   5.752
 6984SOL    HW121851   1.673   1.447   5.765
 6984SOL    HW221852   1.711   1.596   5.818
 6985SOL     OW21853   5.266   0.002   4.063
 6985SOL    HW121854   5.323   7.007   4.143
 6985SOL    HW221855   5.324   0.033   3.987
 6986SOL     OW21856   1.593   6.881   4.898
 6986SOL    HW121857   1.620   6.815   4.828
 6986SOL    HW221858   1.516   6.935   4.865
 6987SOL     OW21859   6.589   3.444   6.523
 6987SOL    HW121860   6.666   3.411   6.468
 6987SOL    HW221861   6.623   3.490   6.605
 6988SOL     OW21862   5.354   1.711   6.051
 6988SOL    HW121863   5.326   1.761   5.970
 6988SOL    HW221864   5.334   1.614   6.040
 6989SOL     OW21865   2.323   2.821   3.503
 6989SOL    HW121866   2.263   2.842   3.426
 6989SOL    HW221867   2.413   2.862   3.487
 6990SOL     OW21868   4.284   3.157   1.081
 6990SOL    HW121869   4.253   3.242   1.124
 6990SOL    HW221870   4.220   3.083   1.102
 6991SOL     OW21871   4.145   4.473   5.536
 6991SOL    HW121872   4.076   4.499   5.603
 6991SOL    HW221873   4.106   4.405   5.474
 6992SOL     OW21874   6.302   6.631   4.761
 6992SOL    HW121875   6.243   6.612   4.683
 6992SOL    HW221876   6.322   6.729   4.765
 6993SOL     OW21877   0.484   6.929   3.651
 6993SOL    HW121878   0.545   6.893   3.723
 6993SOL    HW221879   0.434   7.008   3.687
 6994SOL     OW21880   1.539   2.766   0.247
 6994SOL    HW121881   1.454   2.789   0.201
 6994SOL    HW221882   1.539   2.669   0.271
 6995SOL     OW21883   1.221   5.267   3.962
 6995SOL    HW121884   1.127   5.296   3.942
 6995SOL    HW221885   1.230   5.246   4.059
 6996SOL     OW21886   2.032   0.020   6.402
 6996SOL    HW121887   1.933   0.002   6.405
 6996SOL    HW221888   2.052   0.104   6.450
 6997SOL     OW21889   4.724   5.458   4.068
 6997SOL    HW121890   4.809   5.446   4.119
 6997SOL    HW221891   4.702   5.373   4.020
 6998SOL     OW21892   2.747   1.872   3.524
 6998SOL    HW121893   2.766   1.795   3.462
 6998SOL    HW221894   2.668   1.850   3.580
 6999SOL     OW21895   5.413   2.155   6.857
 6999SOL    HW121896   5.381   2.110   6.940
 6999SOL    HW221897   5.336   2.196   6.809
 7000SOL     OW21898   6.537   0.217   1.443
 7000SOL    HW121899   6.481   0.268   1.509
 7000SOL    HW221900   6.542   0.269   1.358
 7001SOL     OW21901   2.611   1.722   6.210
 7001SOL    HW121902   2.635   1.682   6.298
 7001SOL    HW221903   2.694   1.740   6.158
 7002SOL     OW21904   1.979   4.652   2.039
 7002SOL    HW121905   1.959   4.554   2.038
 7002SOL    HW221906   2.069   4.668   1.998
 7003SOL     OW21907   1.311   6.032   5.667
 7003SOL    HW121908   1.226   6.083   5.676
 7003SOL    HW221909   1.298   5.939   5.701
 7004SOL     OW21910   1.685   3.889   6.599
 7004SOL    HW121911   1.623   3.884   6.522
 7004SOL    HW221912   1.633   3.900   6.684
 7005SOL     OW21913   6.570   6.868   6.183
 7005SOL    HW121914   6.500   6.817   6.234
 7005SOL    HW221915   6.619   6.929   6.245
 7006SOL     OW21916   4.598   4.763   3.778
 7006SOL    HW121917   4.594   4.666   3.753
 7006SOL    HW221918   4.594   4.819   3.695
 7007SOL     OW21919   4.840   5.056   2.916
 7007SOL    HW121920   4.786   5.138   2.903
 7007SOL    HW221921   4.780   4.977   2.930
 7008SOL     OW21922   0.839   5.095   4.422
 7008SOL    HW121923   0.859   5.097   4.324
 7008SOL    HW221924   0.902   5.033   4.467
 7009SOL     OW21925   0.330   3.969   2.523
 7009SOL    HW121926   0.344   4.050   2.580
 7009SOL    HW221927   0.282   3.899   2.575
 7010SOL     OW21928   4.978   4.627   6.538
 7010SOL    HW121929   4.924   4.575   6.605
 7010SOL    HW221930   4.981   4.576   6.452
 7011SOL     OW21931   1.009   0.939   5.524
 7011SOL    HW121932   1.089   0.975   5.475
 7011SOL    HW221933   1.019   0.840   5.534
 7012SOL     OW21934   1.305   1.481   1.456
 7012SOL    HW121935   1.258   1.395   1.477
 7012SOL    HW221936   1.269   1.520   1.371
 7013SOL     OW21937   6.893   1.835   1.547
 7013SOL    HW121938   6.855   1.743   1.539
 7013SOL    HW221939   6.983   1.831   1.591
 7014SOL     OW21940   2.279   5.067   0.533
 7014SOL    HW121941   2.273   4.992   0.599
 7014SOL    HW221942   2.364   5.058   0.481
 7015SOL     OW21943   4.959   2.080   2.509
 7015SOL    HW121944   4.902   2.162   2.517
 7015SOL    HW221945   4.973   2.058   2.413
 7016SOL     OW21946   4.233   4.469   1.476
 7016SOL    HW121947   4.254   4.451   1.573
 7016SOL    HW221948   4.142   4.434   1.455
 7017SOL     OW21949   4.669   1.959   4.901
 7017SOL    HW121950   4.686   2.048   4.858
 7017SOL    HW221951   4.708   1.887   4.844
 7018SOL     OW21952   0.895   3.357   3.266
 7018SOL    HW121953   0.805   3.335   3.229
 7018SOL    HW221954   0.912   3.301   3.347
 7019SOL     OW21955   1.009   5.718   1.163
 7019SOL    HW121956   0.996   5.759   1.072
 7019SOL    HW221957   1.027   5.791   1.230
 7020SOL     OW21958   6.966   6.553   6.535
 7020SOL    HW121959   6.995   6.584   6.444
 7020SOL    HW221960   6.988   6.624   6.602
 7021SOL     OW21961   3.990   0.046   6.090
 7021SOL    HW121962   3.905   0.005   6.121
 7021SOL    HW221963   4.068   7.017   6.125
 7022SOL     OW21964   4.314   5.511   6.329
 7022SOL    HW121965   4.265   5.492   6.244
 7022SOL    HW221966   4.260   5.481   6.407
 7023SOL     OW21967   5.304   4.167   2.303
 7023SOL    HW121968   5.266   4.229   2.234
 7023SOL    HW221969   5.255   4.079   2.299
 7024SOL     OW21970   6.509   6.170   1.301
 7024SOL    HW121971   6.580   6.178   1.231
 7024SOL    HW221972   6.421   6.198   1.263
 7025SOL     OW21973   2.328   0.575   0.011
 7025SOL    HW121974   2.260   0.645   7.016
 7025SOL    HW221975   2.287   0.484   7.024
 7026SOL     OW21976   3.661   1.555   1.382
 7026SOL    HW121977   3.592   1.507   1.436
 7026SOL    HW221978   3.665   1.651   1.409
 7027SOL     OW21979   5.166   5.539   3.796
 7027SOL    HW121980   5.251   5.546   3.745
 7027SOL    HW221981   5.150   5.623   3.847
 7028SOL     OW21982   3.004   0.408   4.554
 7028SOL    HW121983   3.088   0.368   4.517
 7028SOL    HW221984   2.956   0.457   4.481
 7029SOL     OW21985   4.674   1.555   5.016
 7029SOL    HW121986   4.708   1.640   5.057
 7029SOL    HW221987   4.589   1.574   4.967
 7030SOL     OW21988   1.871   3.041   3.836
 7030SOL    HW121989   1.885   3.110   3.907
 7030SOL    HW221990   1.952   3.034   3.779
 7031SOL     OW21991   1.611   1.348   4.526
 7031SOL    HW121992   1.604   1.376   4.622
 7031SOL    HW221993   1.520   1.327   4.491
 7032SOL     OW21994   5.881   2.056   3.738
 7032SOL    HW121995   5.791   2.028   3.773
 7032SOL    HW221996   5.871   2.091   3.645
 7033SOL     OW21997   0.404   0.181   4.796
 7033SOL    HW121998   0.385   0.084   4.779
 7033SOL    HW221999   0.501   0.192   4.819
 7034SOL     OW22000   0.145   5.115   3.094
 7034SOL    HW122001   0.124   5.103   3.191
 7034SOL    HW222002   0.069   5.163   3.050
 7035SOL     OW22003   6.466   4.886   2.379
 7035SOL    HW122004   6.369   4.874   2.401
 7035SOL    HW222005   6.520   4.816   2.426
 7036SOL     OW22006   6.445   4.546   0.965
 7036SOL    HW122007   6.379   4.618   0.944
 7036SOL    HW222008   6.463   4.492   0.883
 7037SOL     OW22009   1.228   0.641   6.627
 7037SOL    HW122010   1.183   0.714   6.576
 7037SOL    HW222011   1.186   0.632   6.717
 7038SOL     OW22012   2.152   3.187   4.280
 7038SOL    HW122013   2.212   3.214   4.355
 7038SOL    HW222014   2.141   3.087   4.280
 7039SOL     OW22015   3.584   2.598   6.954
 7039SOL    HW122016   3.540   2.623   0.017
 7039SOL    HW222017   3.599   2.680   6.899
 7040SOL     OW22018   5.297   2.931   6.870
 7040SOL    HW122019   5.388   2.943   6.908
 7040SOL    HW222020   5.289   2.839   6.831
 7041SOL     OW22021   1.917   1.209   3.483
 7041SOL    HW122022   1.923   1.258   3.396
 7041SOL    HW222023   2.003   1.163   3.502
 7042SOL     OW22024   1.400   0.595   5.886
 7042SOL    HW122025   1.313   0.594   5.934
 7042SOL    HW222026   1.445   0.684   5.899
 7043SOL     OW22027   1.653   1.878   2.377
 7043SOL    HW122028   1.721   1.950   2.392
 7043SOL    HW222029   1.564   1.919   2.359
 7044SOL     OW22030   6.276   6.200   1.758
 7044SOL    HW122031   6.193   6.199   1.815
 7044SOL    HW222032   6.277   6.284   1.704
 7045SOL     OW22033   6.523   4.843   6.884
 7045SOL    HW122034   6.431   4.802   6.883
 7045SOL    HW222035   6.528   4.909   6.958
 7046SOL     OW22036   3.044   1.293   4.027
 7046SOL    HW122037   3.127   1.347   4.041
 7046SOL    HW222038   3.067   1.210   3.974
 7047SOL     OW22039   1.362   0.303   2.623
 7047SOL    HW122040   1.406   0.365   2.558
 7047SOL    HW222041   1.264   0.299   2.604
 7048SOL     OW22042   6.829   5.298   0.407
 7048SOL    HW122043   6.813   5.380   0.352
 7048SOL    HW222044   6.900   5.242   0.365
 7049SOL     OW22045   1.959   1.096   6.506
 7049SOL    HW122046   1.924   1.121   6.416
 7049SOL    HW222047   2.012   1.173   6.544
 7050SOL     OW22048   3.836   3.740   4.675
 7050SOL    HW122049   3.840   3.826   4.727
 7050SOL    HW222050   3.761   3.683   4.709
 7051SOL     OW22051   6.588   6.270   3.382
 7051SOL    HW122052   6.491   6.244   3.388
 7051SOL    HW222053   6.645   6.194   3.414
 7052SOL     OW22054   6.945   1.026   4.660
 7052SOL    HW122055   6.886   1.045   4.739
 7052SOL    HW222056   6.933   0.931   4.632
 7053SOL     OW22057   6.510   4.565   6.027
 7053SOL    HW122058   6.598   4.589   6.068
 7053SOL    HW222059   6.460   4.505   6.090
 7054SOL     OW22060   6.425   1.646   1.205
 7054SOL    HW122061   6.406   1.740   1.232
 7054SOL    HW222062   6.366   1.622   1.127
 7055SOL     OW22063   4.709   1.393   4.172
 7055SOL    HW122064   4.660   1.368   4.255
 7055SOL    HW222065   4.677   1.338   4.096
 7056SOL     OW22066   4.082   5.090   3.692
 7056SOL    HW122067   4.046   5.113   3.782
 7056SOL    HW222068   4.181   5.086   3.695
 7057SOL     OW22069   6.132   5.809   2.628
 7057SOL    HW122070   6.205   5.744   2.610
 7057SOL    HW222071   6.140   5.842   2.722
 7058SOL     OW22072   0.099   4.651   4.619
 7058SOL    HW122073   0.136   4.687   4.705
 7058SOL    HW222074   0.167   4.591   4.577
 7059SOL     OW22075   2.106   0.910   2.501
 7059SOL    HW122076   2.133   0.813   2.504
 7059SOL    HW222077   2.166   0.959   2.438
 7060SOL     OW22078   3.068   6.700   0.916
 7060SOL    HW122079   3.163   6.709   0.886
 7060SOL    HW222080   3.065   6.654   1.005
 7061SOL     OW22081   0.255   1.023   2.966
 7061SOL    HW122082   0.323   1.094   2.948
 7061SOL    HW222083   0.267   0.989   3.059
 7062SOL     OW22084   0.184   1.077   5.312
 7062SOL    HW122085   0.109   1.087   5.247
 7062SOL    HW222086   0.207   1.167   5.349
 7063SOL     OW22087   2.184   0.001   2.216
 7063SOL    HW122088   2.254   7.019   2.144
 7063SOL    HW222089   2.210   6.964   2.291
 7064SOL     OW22090   4.153   2.761   0.432
 7064SOL    HW122091   4.129   2.853   0.464
 7064SOL    HW222092   4.135   2.695   0.505
 7065SOL     OW22093   3.667   3.305   2.153
 7065SOL    HW122094   3.705   3.390   2.189
 7065SOL    HW222095   3.737   3.233   2.157
 7066SOL     OW22096   2.569   5.400   0.989
 7066SOL    HW122097   2.516   5.401   0.905
 7066SOL    HW222098   2.583   5.306   1.018
 7067SOL     OW22099   0.369   3.703   4.164
 7067SOL    HW122100   0.331   3.756   4.088
 7067SOL    HW222101   0.360   3.605   4.144
 7068SOL     OW22102   1.129   6.966   3.101
 7068SOL    HW122103   1.117   6.942   3.004
 7068SOL    HW222104   1.041   6.994   3.139
 7069SOL     OW22105   1.046   4.432   5.202
 7069SOL    HW122106   0.952   4.416   5.174
 7069SOL    HW222107   1.048   4.497   5.278
 7070SOL     OW22108   5.396   5.198   3.517
 7070SOL    HW122109   5.458   5.235   3.586
 7070SOL    HW222110   5.334   5.132   3.559
 7071SOL     OW22111   1.592   0.263   5.006
 7071SOL    HW122112   1.677   0.237   4.960
 7071SOL    HW222113   1.589   0.221   5.097
 7072SOL     OW22114   0.704   6.798   6.878
 7072SOL    HW122115   0.663   6.730   6.817
 7072SOL    HW222116   0.727   6.755   6.965
 7073SOL     OW22117   1.536   1.760   6.310
 7073SOL    HW122118   1.558   1.734   6.216
 7073SOL    HW222119   1.522   1.677   6.365
 7074SOL     OW22120   3.046   1.675   0.172
 7074SOL    HW122121   3.003   1.611   0.235
 7074SOL    HW222122   3.127   1.634   0.132
 7075SOL     OW22123   0.772   5.414   2.085
 7075SOL    HW122124   0.810   5.426   1.994
 7075SOL    HW222125   0.728   5.324   2.092
 7076SOL     OW22126   3.668   1.752   6.382
 7076SOL    HW122127   3.575   1.788   6.381
 7076SOL    HW222128   3.670   1.664   6.335
 7077SOL     OW22129   1.818   4.793   6.189
 7077SOL    HW122130   1.836   4.695   6.186
 7077SOL    HW222131   1.901   4.844   6.169
 7078SOL     OW22132   6.454   0.592   2.506
 7078SOL    HW122133   6.502   0.645   2.436
 7078SOL    HW222134   6.397   0.654   2.561
 7079SOL     OW22135   5.468   6.045   5.589
 7079SOL    HW122136   5.565   6.070   5.584
 7079SOL    HW222137   5.457   5.951   5.559
 7080SOL     OW22138   6.088   0.149   4.138
 7080SOL    HW122139   6.015   0.209   4.171
 7080SOL    HW222140   6.163   0.205   4.103
 7081SOL     OW22141   4.867   0.641   5.282
 7081SOL    HW122142   4.913   0.727   5.257
 7081SOL    HW222143   4.915   0.564   5.238
 7082SOL     OW22144   6.117   1.267   6.602
 7082SOL    HW122145   6.118   1.363   6.572
 7082SOL    HW222146   6.204   1.245   6.646
 7083SOL     OW22147   3.189   0.522   5.935
 7083SOL    HW122148   3.287   0.506   5.925
 7083SOL    HW222149   3.140   0.480   5.859
 7084SOL     OW22150   6.131   6.002   0.352
 7084SOL    HW122151   6.102   6.094   0.327
 7084SOL    HW222152   6.141   5.996   0.452
 7085SOL     OW22153   3.585   1.248   0.960
 7085SOL    HW122154   3.648   1.313   1.003
 7085SOL    HW222155   3.547   1.288   0.877
 7086SOL     OW22156   1.083   1.477   6.049
 7086SOL    HW122157   1.076   1.379   6.029
 7086SOL    HW222158   0.991   1.515   6.060
 7087SOL     OW22159   2.382   2.728   4.939
 7087SOL    HW122160   2.389   2.814   4.990
 7087SOL    HW222161   2.378   2.747   4.841
 7088SOL     OW22162   0.581   2.231   5.570
 7088SOL    HW122163   0.524   2.280   5.638
 7088SOL    HW222164   0.634   2.160   5.616
 7089SOL     OW22165   2.898   1.862   1.492
 7089SOL    HW122166   2.900   1.960   1.510
 7089SOL    HW222167   2.974   1.837   1.432
 7090SOL     OW22168   2.283   2.325   4.709
 7090SOL    HW122169   2.276   2.302   4.612
 7090SOL    HW222170   2.370   2.373   4.725
 7091SOL     OW22171   6.896   6.584   0.940
 7091SOL    HW122172   6.876   6.487   0.932
 7091SOL    HW222173   6.890   6.612   1.036
 7092SOL     OW22174   2.753   2.710   0.327
 7092SOL    HW122175   2.813   2.789   0.338
 7092SOL    HW222176   2.658   2.739   0.338
 7093SOL     OW22177   4.562   3.482   5.774
 7093SOL    HW122178   4.506   3.416   5.823
 7093SOL    HW222179   4.658   3.468   5.796
 7094SOL     OW22180   6.899   0.739   6.367
 7094SOL    HW122181   6.920   0.644   6.391
 7094SOL    HW222182   6.928   0.799   6.441
 7095SOL     OW22183   0.458   4.355   6.861
 7095SOL    HW122184   0.388   4.284   6.862
 7095SOL    HW222185   0.484   4.375   6.766
 7096SOL     OW22186   5.209   0.324   2.904
 7096SOL    HW122187   5.144   0.286   2.839
 7096SOL    HW222188   5.299   0.331   2.861
 7097SOL     OW22189   1.623   0.886   1.759
 7097SOL    HW122190   1.578   0.824   1.694
 7097SOL    HW222191   1.710   0.917   1.721
 7098SOL     OW22192   0.976   0.219   5.913
 7098SOL    HW122193   1.036   0.242   5.836
 7098SOL    HW222194   0.997   0.279   5.990
 7099SOL     OW22195   0.339   0.878   5.354
 7099SOL    HW122196   0.259   0.935   5.335
 7099SOL    HW222197   0.386   0.912   5.435
 7100SOL     OW22198   5.783   2.077   1.318
 7100SOL    HW122199   5.729   2.136   1.379
 7100SOL    HW222200   5.792   2.120   1.229
 7101SOL     OW22201   1.342   0.513   4.260
 7101SOL    HW122202   1.248   0.525   4.292
 7101SOL    HW222203   1.405   0.532   4.335
 7102SOL     OW22204   5.097   3.052   0.791
 7102SOL    HW122205   5.179   3.048   0.734
 7102SOL    HW222206   5.038   2.975   0.770
 7103SOL     OW22207   2.904   0.392   6.061
 7103SOL    HW122208   2.832   0.371   6.126
 7103SOL    HW222209   2.869   0.381   5.968
 7104SOL     OW22210   0.296   2.178   1.622
 7104SOL    HW122211   0.303   2.119   1.541
 7104SOL    HW222212   0.200   2.190   1.646
 7105SOL     OW22213   2.034   3.702   5.435
 7105SOL    HW122214   2.026   3.800   5.454
 7105SOL    HW222215   2.036   3.687   5.336
 7106SOL     OW22216   3.256   2.652   5.362
 7106SOL    HW122217   3.348   2.630   5.395
 7106SOL    HW222218   3.219   2.574   5.312
 7107SOL     OW22219   2.084   1.042   0.369
 7107SOL    HW122220   2.002   0.988   0.390
 7107SOL    HW222221   2.154   0.981   0.332
 7108SOL     OW22222   4.445   6.582   1.941
 7108SOL    HW122223   4.403   6.664   1.902
 7108SOL    HW222224   4.443   6.509   1.873
 7109SOL     OW22225   3.653   6.456   6.183
 7109SOL    HW122226   3.609   6.367   6.192
 7109SOL    HW222227   3.639   6.509   6.267
 7110SOL     OW22228   3.164   4.880   3.381
 7110SOL    HW122229   3.252   4.895   3.425
 7110SOL    HW222230   3.173   4.893   3.282
 7111SOL     OW22231   1.470   2.362   3.484
 7111SOL    HW122232   1.549   2.331   3.431
 7111SOL    HW222233   1.476   2.324   3.576
 7112SOL     OW22234   1.905   6.143   2.227
 7112SOL    HW122235   1.840   6.167   2.155
 7112SOL    HW222236   1.896   6.208   2.302
 7113SOL     OW22237   3.907   3.833   4.953
 7113SOL    HW122238   4.004   3.808   4.948
 7113SOL    HW222239   3.895   3.904   5.023
 7114SOL     OW22240   4.025   6.688   0.669
 7114SOL    HW122241   4.000   6.606   0.618
 7114SOL    HW222242   4.107   6.728   0.628
 7115SOL     OW22243   4.065   1.343   1.569
 7115SOL    HW122244   4.005   1.338   1.489
 7115SOL    HW222245   4.141   1.405   1.549
 7116SOL     OW22246   6.096   3.620   2.806
 7116SOL    HW122247   5.999   3.606   2.787
 7116SOL    HW222248   6.145   3.533   2.799
 7117SOL     OW22249   6.240   6.800   2.633
 7117SOL    HW122250   6.290   6.715   2.645
 7117SOL    HW222251   6.301   6.869   2.593
 7118SOL     OW22252   6.948   3.051   2.544
 7118SOL    HW122253   6.953   2.984   2.470
 7118SOL    HW222254   6.857   3.048   2.586
 7119SOL     OW22255   1.145   2.211   2.771
 7119SOL    HW122256   1.243   2.228   2.760
 7119SOL    HW222257   1.093   2.285   2.728
 7120SOL     OW22258   4.896   6.181   3.487
 7120SOL    HW122259   4.871   6.125   3.566
 7120SOL    HW222260   4.940   6.265   3.520
 7121SOL     OW22261   2.911   6.920   1.547
 7121SOL    HW122262   2.906   6.860   1.468
 7121SOL    HW222263   2.954   6.871   1.623
 7122SOL     OW22264   6.506   6.979   0.283
 7122SOL    HW122265   6.579   6.956   0.219
 7122SOL    HW222266   6.546   7.016   0.366
 7123SOL     OW22267   2.218   5.319   0.499
 7123SOL    HW122268   2.163   5.332   0.416
 7123SOL    HW222269   2.255   5.226   0.500
 7124SOL     OW22270   0.393   6.027   0.511
 7124SOL    HW122271   0.309   6.007   0.462
 7124SOL    HW222272   0.372   6.050   0.606
 7125SOL     OW22273   0.205   6.790   2.941
 7125SOL    HW122274   0.212   6.763   3.037
 7125SOL    HW222275   0.118   6.836   2.926
 7126SOL     OW22276   1.489   4.494   0.736
 7126SOL    HW122277   1.562   4.525   0.675
 7126SOL    HW222278   1.448   4.410   0.700
 7127SOL     OW22279   2.731   0.262   4.579
 7127SOL    HW122280   2.739   0.241   4.677
 7127SOL    HW222281   2.813   0.313   4.550
 7128SOL     OW22282   3.337   4.109   1.881
 7128SOL    HW122283   3.255   4.161   1.859
 7128SOL    HW222284   3.321   4.053   1.962
 7129SOL     OW22285   2.521   1.861   1.422
 7129SOL    HW122286   2.567   1.949   1.406
 7129SOL    HW222287   2.543   1.827   1.513
 7130SOL     OW22288   2.884   0.088   2.421
 7130SOL    HW122289   2.853   7.022   2.453
 7130SOL    HW222290   2.833   0.114   2.339
 7131SOL     OW22291   2.750   1.415   3.666
 7131SOL    HW122292   2.849   1.424   3.676
 7131SOL    HW222293   2.709   1.403   3.757
 7132SOL     OW22294   3.236   4.028   2.849
 7132SOL    HW122295   3.141   4.003   2.868
 7132SOL    HW222296   3.242   4.072   2.759
 7133SOL     OW22297   5.854   4.119   2.057
 7133SOL    HW122298   5.898   4.029   2.056
 7133SOL    HW222299   5.755   4.108   2.065
 7134SOL     OW22300   5.538   4.613   2.847
 7134SOL    HW122301   5.505   4.604   2.753
 7134SOL    HW222302   5.493   4.545   2.905
 7135SOL     OW22303   0.859   2.284   5.834
 7135SOL    HW122304   0.880   2.352   5.763
 7135SOL    HW222305   0.944   2.250   5.873
 7136SOL     OW22306   2.261   1.902   6.962
 7136SOL    HW122307   2.270   1.875   6.866
 7136SOL    HW222308   2.333   1.858   7.015
 7137SOL     OW22309   4.380   1.669   5.066
 7137SOL    HW122310   4.384   1.759   5.110
 7137SOL    HW222311   4.314   1.672   4.991
 7138SOL     OW22312   2.014   3.475   6.575
 7138SOL    HW122313   1.950   3.548   6.598
 7138SOL    HW222314   2.054   3.437   6.659
 7139SOL     OW22315   2.796   1.780   0.125
 7139SOL    HW122316   2.836   1.861   0.084
 7139SOL    HW222317   2.869   1.719   0.156
 7140SOL     OW22318   0.057   3.951   5.126
 7140SOL    HW122319   0.047   3.968   5.028
 7140SOL    HW222320   0.041   3.854   5.145
 7141SOL     OW22321   1.440   6.894   2.360
 7141SOL    HW122322   1.477   6.872   2.269
 7141SOL    HW222323   1.441   6.812   2.417
 7142SOL     OW22324   3.640   6.641   3.766
 7142SOL    HW122325   3.713   6.596   3.715
 7142SOL    HW222326   3.617   6.585   3.846
 7143SOL     OW22327   2.552   2.138   4.137
 7143SOL    HW122328   2.540   2.084   4.054
 7143SOL    HW222329   2.554   2.235   4.114
 7144SOL     OW22330   1.350   3.320   3.984
 7144SOL    HW122331   1.268   3.279   3.943
 7144SOL    HW222332   1.429   3.298   3.928
 7145SOL     OW22333   4.388   6.346   6.040
 7145SOL    HW122334   4.451   6.374   5.968
 7145SOL    HW222335   4.389   6.413   6.114
 7146SOL     OW22336   2.774   5.365   1.734
 7146SOL    HW122337   2.771   5.273   1.772
 7146SOL    HW222338   2.760   5.361   1.635
 7147SOL     OW22339   0.458   0.994   3.198
 7147SOL    HW122340   0.464   1.056   3.276
 7147SOL    HW222341   0.434   0.902   3.231
 7148SOL     OW22342   0.253   1.293   0.391
 7148SOL    HW122343   0.267   1.354   0.469
 7148SOL    HW222344   0.172   1.237   0.408
 7149SOL     OW22345   6.967   0.899   4.284
 7149SOL    HW122346   6.980   0.984   4.336
 7149SOL    HW222347   0.016   0.834   4.309
 7150SOL     OW22348   6.215   4.033   6.616
 7150SOL    HW122349   6.254   3.997   6.701
 7150SOL    HW222350   6.132   4.085   6.637
 7151SOL     OW22351   2.214   6.719   1.200
 7151SOL    HW122352   2.288   6.652   1.191
 7151SOL    HW222353   2.215   6.782   1.123
 7152SOL     OW22354   0.961   2.676   3.790
 7152SOL    HW122355   1.032   2.659   3.858
 7152SOL    HW222356   0.884   2.615   3.806
 7153SOL     OW22357   3.336   1.701   3.488
 7153SOL    HW122358   3.248   1.654   3.491
 7153SOL    HW222359   3.358   1.724   3.394
 7154SOL     OW22360   4.227   6.065   4.641
 7154SOL    HW122361   4.248   6.091   4.547
 7154SOL    HW222362   4.195   5.970   4.644
 7155SOL     OW22363   2.314   1.108   3.233
 7155SOL    HW122364   2.245   1.051   3.277
 7155SOL    HW222365   2.272   1.162   3.161
 7156SOL     OW22366   1.261   5.452   4.773
 7156SOL    HW122367   1.241   5.489   4.864
 7156SOL    HW222368   1.189   5.388   4.746
 7157SOL     OW22369   5.212   3.986   1.012
 7157SOL    HW122370   5.248   4.078   1.001
 7157SOL    HW222371   5.275   3.920   0.972
 7158SOL     OW22372   4.895   6.734   4.332
 7158SOL    HW122373   4.973   6.735   4.269
 7158SOL    HW222374   4.812   6.758   4.283
 7159SOL     OW22375   0.989   5.384   0.260
 7159SOL    HW122376   0.910   5.359   0.205
 7159SOL    HW222377   1.040   5.302   0.286
 7160SOL     OW22378   6.453   1.097   1.990
 7160SOL    HW122379   6.439   1.003   2.021
 7160SOL    HW222380   6.452   1.099   1.890
 7161SOL     OW22381   3.348   4.175   4.167
 7161SOL    HW122382   3.290   4.138   4.239
 7161SOL    HW222383   3.357   4.274   4.179
 7162SOL     OW22384   3.323   4.900   4.018
 7162SOL    HW122385   3.296   4.995   4.034
 7162SOL    HW222386   3.323   4.881   3.920
 7163SOL     OW22387   1.683   6.341   2.864
 7163SOL    HW122388   1.631   6.372   2.943
 7163SOL    HW222389   1.779   6.364   2.877
 7164SOL     OW22390   2.731   1.936   4.276
 7164SOL    HW122391   2.643   1.969   4.243
 7164SOL    HW222392   2.772   1.876   4.208
 7165SOL     OW22393   5.296   6.283   2.760
 7165SOL    HW122394   5.326   6.361   2.705
 7165SOL    HW222395   5.236   6.225   2.706
 7166SOL     OW22396   4.796   5.556   2.425
 7166SOL    HW122397   4.729   5.548   2.352
 7166SOL    HW222398   4.802   5.652   2.454
 7167SOL     OW22399   5.314   3.383   5.851
 7167SOL    HW122400   5.296   3.481   5.839
 7167SOL    HW222401   5.263   3.332   5.782
 7168SOL     OW22402   0.609   1.727   4.205
 7168SOL    HW122403   0.584   1.803   4.265
 7168SOL    HW222404   0.585   1.641   4.250
 7169SOL     OW22405   2.049   2.494   6.785
 7169SOL    HW122406   2.114   2.533   6.720
 7169SOL    HW222407   2.098   2.435   6.850
 7170SOL     OW22408   6.001   4.980   3.706
 7170SOL    HW122409   6.007   5.060   3.647
 7170SOL    HW222410   5.954   4.906   3.657
 7171SOL     OW22411   4.305   3.093   5.985
 7171SOL    HW122412   4.365   3.014   5.969
 7171SOL    HW222413   4.309   3.154   5.906
 7172SOL     OW22414   0.422   0.582   1.522
 7172SOL    HW122415   0.324   0.575   1.507
 7172SOL    HW222416   0.452   0.508   1.582
 7173SOL     OW22417   6.060   6.431   5.588
 7173SOL    HW122418   6.088   6.341   5.555
 7173SOL    HW222419   6.007   6.478   5.517
 7174SOL     OW22420   0.720   5.990   6.175
 7174SOL    HW122421   0.750   5.968   6.268
 7174SOL    HW222422   0.786   5.955   6.109
 7175SOL     OW22423   6.161   3.465   5.579
 7175SOL    HW122424   6.196   3.558   5.567
 7175SOL    HW222425   6.187   3.431   5.670
 7176SOL     OW22426   0.122   3.202   1.385
 7176SOL    HW122427   0.110   3.273   1.455
 7176SOL    HW222428   0.218   3.176   1.380
 7177SOL     OW22429   1.144   5.311   2.053
 7177SOL    HW122430   1.241   5.291   2.072
 7177SOL    HW222431   1.138   5.386   1.986
 7178SOL     OW22432   6.901   1.741   6.142
 7178SOL    HW122433   6.976   1.703   6.088
 7178SOL    HW222434   6.817   1.691   6.123
 7179SOL     OW22435   1.827   4.500   6.266
 7179SOL    HW122436   1.916   4.460   6.290
 7179SOL    HW222437   1.816   4.498   6.167
 7180SOL     OW22438   0.362   0.062   2.844
 7180SOL    HW122439   0.401   6.993   2.843
 7180SOL    HW222440   0.315   0.079   2.758
 7181SOL     OW22441   5.608   6.326   2.792
 7181SOL    HW122442   5.518   6.364   2.773
 7181SOL    HW222443   5.671   6.348   2.718
 7182SOL     OW22444   3.878   3.729   5.896
 7182SOL    HW122445   3.946   3.758   5.964
 7182SOL    HW222446   3.923   3.682   5.821
 7183SOL     OW22447   1.824   3.861   3.758
 7183SOL    HW122448   1.874   3.782   3.794
 7183SOL    HW222449   1.853   3.879   3.664
 7184SOL     OW22450   2.709   5.712   3.035
 7184SOL    HW122451   2.739   5.619   3.012
 7184SOL    HW222452   2.622   5.708   3.084
 7185SOL     OW22453   4.257   3.186   6.997
 7185SOL    HW122454   4.344   3.153   0.011
 7185SOL    HW222455   4.195   3.108   6.985
 7186SOL     OW22456   0.194   0.296   4.376
 7186SOL    HW122457   0.229   0.335   4.461
 7186SOL    HW222458   0.151   0.208   4.395
 7187SOL     OW22459   1.695   4.839   0.956
 7187SOL    HW122460   1.619   4.774   0.954
 7187SOL    HW222461   1.658   4.933   0.956
 7188SOL     OW22462   5.437   0.046   1.650
 7188SOL    HW122463   5.363   0.074   1.590
 7188SOL    HW222464   5.413   0.068   1.745
 7189SOL     OW22465   6.829   0.785   5.038
 7189SOL    HW122466   6.820   0.814   5.133
 7189SOL    HW222467   6.756   0.719   5.017
 7190SOL     OW22468   4.424   4.895   2.917
 7190SOL    HW122469   4.338   4.928   2.878
 7190SOL    HW222470   4.420   4.904   3.017
 7191SOL     OW22471   1.195   3.144   1.194
 7191SOL    HW122472   1.116   3.156   1.255
 7191SOL    HW222473   1.168   3.167   1.101
 7192SOL     OW22474   3.638   4.963   6.895
 7192SOL    HW122475   3.699   5.002   6.965
 7192SOL    HW222476   3.685   4.888   6.848
 7193SOL     OW22477   5.441   1.636   3.916
 7193SOL    HW122478   5.358   1.639   3.972
 7193SOL    HW222479   5.430   1.698   3.838
 7194SOL     OW22480   3.324   1.676   1.414
 7194SOL    HW122481   3.274   1.742   1.359
 7194SOL    HW222482   3.374   1.724   1.487
 7195SOL     OW22483   0.308   6.177   1.619
 7195SOL    HW122484   0.309   6.275   1.635
 7195SOL    HW222485   0.252   6.132   1.689
 7196SOL     OW22486   3.765   2.948   1.418
 7196SOL    HW122487   3.695   2.877   1.426
 7196SOL    HW222488   3.727   3.035   1.449
 7197SOL     OW22489   1.131   1.439   3.941
 7197SOL    HW122490   1.218   1.423   3.988
 7197SOL    HW222491   1.137   1.404   3.848
 7198SOL     OW22492   0.187   6.237   6.084
 7198SOL    HW122493   0.239   6.156   6.110
 7198SOL    HW222494   0.091   6.212   6.071
 7199SOL     OW22495   5.548   6.870   3.241
 7199SOL    HW122496   5.620   6.832   3.298
 7199SOL    HW222497   5.538   6.815   3.158
 7200SOL     OW22498   2.332   1.998   2.029
 7200SOL    HW122499   2.288   1.984   1.941
 7200SOL    HW222500   2.431   1.984   2.020
 7201SOL     OW22501   2.664   4.969   2.844
 7201SOL    HW122502   2.605   4.914   2.903
 7201SOL    HW222503   2.694   5.050   2.895
 7202SOL     OW22504   3.341   0.144   5.552
 7202SOL    HW122505   3.311   0.167   5.645
 7202SOL    HW222506   3.412   0.075   5.556
 7203SOL     OW22507   6.189   0.112   6.681
 7203SOL    HW122508   6.172   0.130   6.778
 7203SOL    HW222509   6.209   0.015   6.669
 7204SOL     OW22510   5.939   1.409   2.953
 7204SOL    HW122511   5.971   1.463   2.875
 7204SOL    HW222512   5.855   1.362   2.929
 7205SOL     OW22513   1.515   4.107   1.524
 7205SOL    HW122514   1.435   4.092   1.465
 7205SOL    HW222515   1.598   4.099   1.470
 7206SOL     OW22516   5.708   1.835   1.621
 7206SOL    HW122517   5.740   1.908   1.681
 7206SOL    HW222518   5.612   1.852   1.596
 7207SOL     OW22519   3.945   6.658   2.045
 7207SOL    HW122520   3.903   6.729   2.102
 7207SOL    HW222521   3.874   6.609   1.995
 7208SOL     OW22522   2.946   0.444   5.223
 7208SOL    HW122523   2.938   0.541   5.199
 7208SOL    HW222524   2.908   0.429   5.314
 7209SOL     OW22525   2.996   3.161   4.336
 7209SOL    HW122526   2.900   3.135   4.345
 7209SOL    HW222527   3.003   3.242   4.278
 7210SOL     OW22528   4.841   0.131   4.183
 7210SOL    HW122529   4.938   0.153   4.194
 7210SOL    HW222530   4.831   0.034   4.161
 7211SOL     OW22531   0.697   5.208   2.454
 7211SOL    HW122532   0.794   5.193   2.474
 7211SOL    HW222533   0.646   5.214   2.539
 7212SOL     OW22534   4.962   0.056   3.462
 7212SOL    HW122535   5.010   0.063   3.374
 7212SOL    HW222536   4.866   0.081   3.448
 7213SOL     OW22537   5.455   6.635   4.842
 7213SOL    HW122538   5.498   6.564   4.898
 7213SOL    HW222539   5.361   6.649   4.873
 7214SOL     OW22540   0.377   5.064   5.553
 7214SOL    HW122541   0.445   5.138   5.557
 7214SOL    HW222542   0.405   4.997   5.485
 7215SOL     OW22543   1.204   3.257   1.930
 7215SOL    HW122544   1.194   3.353   1.906
 7215SOL    HW222545   1.142   3.202   1.874
 7216SOL     OW22546   2.977   1.382   2.260
 7216SOL    HW122547   2.884   1.415   2.244
 7216SOL    HW222548   2.973   1.300   2.318
 7217SOL     OW22549   0.606   2.989   1.919
 7217SOL    HW122550   0.509   2.969   1.932
 7217SOL    HW222551   0.638   2.950   1.833
 7218SOL     OW22552   6.172   2.645   5.642
 7218SOL    HW122553   6.268   2.663   5.622
 7218SOL    HW222554   6.128   2.608   5.560
 7219SOL     OW22555   3.559   0.758   1.221
 7219SOL    HW122556   3.633   0.786   1.282
 7219SOL    HW222557   3.495   0.834   1.208
 7220SOL     OW22558   6.713   0.796   3.114
 7220SOL    HW122559   6.700   0.725   3.183
 7220SOL    HW222560   6.650   0.780   3.037
 7221SOL     OW22561   5.789   4.545   5.414
 7221SOL    HW122562   5.835   4.472   5.465
 7221SOL    HW222563   5.831   4.633   5.437
 7222SOL     OW22564   6.770   6.671   3.809
 7222SOL    HW122565   6.801   6.633   3.722
 7222SOL    HW222566   6.798   6.767   3.815
 7223SOL     OW22567   4.804   1.037   5.228
 7223SOL    HW122568   4.889   0.996   5.262
 7223SOL    HW222569   4.823   1.091   5.146
 7224SOL     OW22570   5.661   1.028   3.754
 7224SOL    HW122571   5.695   1.102   3.696
 7224SOL    HW222572   5.711   0.944   3.734
 7225SOL     OW22573   2.643   0.801   1.496
 7225SOL    HW122574   2.606   0.878   1.548
 7225SOL    HW222575   2.707   0.835   1.427
 7226SOL     OW22576   5.536   6.628   5.678
 7226SOL    HW122577   5.636   6.619   5.672
 7226SOL    HW222578   5.508   6.614   5.773
 7227SOL     OW22579   6.629   2.486   5.943
 7227SOL    HW122580   6.536   2.523   5.940
 7227SOL    HW222581   6.690   2.554   5.985
 7228SOL     OW22582   2.647   0.468   3.154
 7228SOL    HW122583   2.650   0.371   3.129
 7228SOL    HW222584   2.585   0.517   3.092
 7229SOL     OW22585   6.852   0.104   3.466
 7229SOL    HW122586   6.842   0.009   3.439
 7229SOL    HW222587   6.948   0.123   3.489
 7230SOL     OW22588   6.225   5.580   1.346
 7230SOL    HW122589   6.285   5.636   1.404
 7230SOL    HW222590   6.235   5.609   1.251
 7231SOL     OW22591   5.937   0.744   6.995
 7231SOL    HW122592   5.865   0.718   6.931
 7231SOL    HW222593   6.024   0.753   6.947
 7232SOL     OW22594   3.615   3.882   1.065
 7232SOL    HW122595   3.696   3.830   1.094
 7232SOL    HW222596   3.630   3.979   1.082
 7233SOL     OW22597   0.540   2.036   5.363
 7233SOL    HW122598   0.634   2.003   5.373
 7233SOL    HW222599   0.525   2.115   5.423
 7234SOL     OW22600   4.932   2.045   2.924
 7234SOL    HW122601   4.940   2.141   2.950
 7234SOL    HW222602   5.007   1.993   2.966
 7235SOL     OW22603   6.157   2.819   4.448
 7235SOL    HW122604   6.100   2.899   4.468
 7235SOL    HW222605   6.225   2.808   4.521
 7236SOL     OW22606   1.976   1.383   3.263
 7236SOL    HW122607   1.941   1.376   3.169
 7236SOL    HW222608   2.013   1.475   3.278
 7237SOL     OW22609   5.727   5.090   4.800
 7237SOL    HW122610   5.638   5.079   4.757
 7237SOL    HW222611   5.787   5.143   4.740
 7238SOL     OW22612   1.541   0.740   1.523
 7238SOL    HW122613   1.545   0.644   1.549
 7238SOL    HW222614   1.625   0.765   1.474
 7239SOL     OW22615   3.902   1.022   1.764
 7239SOL    HW122616   3.979   0.975   1.807
 7239SOL    HW222617   3.935   1.073   1.684
 7240SOL     OW22618   3.078   2.991   2.217
 7240SOL    HW122619   3.031   2.910   2.181
 7240SOL    HW222620   3.045   3.073   2.169
 7241SOL     OW22621   4.965   6.961   4.497
 7241SOL    HW122622   4.927   6.883   4.447
 7241SOL    HW222623   5.063   6.969   4.477
 7242SOL     OW22624   5.987   5.075   0.922
 7242SOL    HW122625   6.007   5.124   1.007
 7242SOL    HW222626   5.899   5.104   0.886
 7243SOL     OW22627   0.318   5.569   0.570
 7243SOL    HW122628   0.388   5.622   0.618
 7243SOL    HW222629   0.228   5.605   0.595
 7244SOL     OW22630   4.751   1.702   0.909
 7244SOL    HW122631   4.812   1.640   0.958
 7244SOL    HW222632   4.794   1.730   0.823
 7245SOL     OW22633   5.988   1.991   3.996
 7245SOL    HW122634   5.955   2.080   4.028
 7245SOL    HW222635   5.955   1.976   3.903
 7246SOL     OW22636   1.227   5.712   5.484
 7246SOL    HW122637   1.158   5.776   5.450
 7246SOL    HW222638   1.181   5.640   5.537
 7247SOL     OW22639   3.757   5.552   4.232
 7247SOL    HW122640   3.757   5.651   4.249
 7247SOL    HW222641   3.840   5.527   4.183
 7248SOL     OW22642   3.588   0.856   4.293
 7248SOL    HW122643   3.679   0.819   4.314
 7248SOL    HW222644   3.598   0.941   4.242
 7249SOL     OW22645   5.148   3.686   5.703
 7249SOL    HW122646   5.169   3.737   5.787
 7249SOL    HW222647   5.070   3.625   5.719
 7250SOL     OW22648   2.864   3.480   6.803
 7250SOL    HW122649   2.853   3.536   6.885
 7250SOL    HW222650   2.774   3.449   6.771
 7251SOL     OW22651   5.501   1.078   5.218
 7251SOL    HW122652   5.458   1.059   5.306
 7251SOL    HW222653   5.568   1.007   5.196
 7252SOL     OW22654   4.409   3.572   5.227
 7252SOL    HW122655   4.342   3.642   5.201
 7252SOL    HW222656   4.501   3.604   5.205
 7253SOL     OW22657   5.177   4.741   1.261
 7253SOL    HW122658   5.162   4.724   1.358
 7253SOL    HW222659   5.160   4.838   1.241
 7254SOL     OW22660   5.782   6.369   4.899
 7254SOL    HW122661   5.767   6.371   4.800
 7254SOL    HW222662   5.694   6.377   4.945
 7255SOL     OW22663   3.970   3.134   2.710
 7255SOL    HW122664   4.025   3.206   2.668
 7255SOL    HW222665   3.940   3.070   2.639
 7256SOL     OW22666   3.222   5.451   4.051
 7256SOL    HW122667   3.147   5.517   4.058
 7256SOL    HW222668   3.273   5.449   4.136
 7257SOL     OW22669   6.440   4.600   2.608
 7257SOL    HW122670   6.357   4.618   2.554
 7257SOL    HW222671   6.515   4.574   2.546
 7258SOL     OW22672   2.870   0.309   5.778
 7258SOL    HW122673   2.774   0.314   5.752
 7258SOL    HW222674   2.896   0.213   5.792
 7259SOL     OW22675   3.274   4.922   6.333
 7259SOL    HW122676   3.232   4.840   6.293
 7259SOL    HW222677   3.284   4.910   6.432
 7260SOL     OW22678   4.360   2.024   2.691
 7260SOL    HW122679   4.345   2.088   2.616
 7260SOL    HW222680   4.276   1.973   2.709
 7261SOL     OW22681   1.846   5.068   0.757
 7261SOL    HW122682   1.883   4.980   0.784
 7261SOL    HW222683   1.811   5.063   0.664
 7262SOL     OW22684   6.545   0.860   4.878
 7262SOL    HW122685   6.519   0.879   4.783
 7262SOL    HW222686   6.567   0.946   4.924
 7263SOL     OW22687   5.037   6.237   1.898
 7263SOL    HW122688   5.112   6.177   1.872
 7263SOL    HW222689   4.963   6.230   1.830
 7264SOL     OW22690   0.837   6.679   4.554
 7264SOL    HW122691   0.890   6.604   4.515
 7264SOL    HW222692   0.776   6.717   4.484
 7265SOL     OW22693   4.501   3.555   6.565
 7265SOL    HW122694   4.442   3.521   6.492
 7265SOL    HW222695   4.590   3.510   6.560
 7266SOL     OW22696   4.067   1.536   2.228
 7266SOL    HW122697   4.094   1.446   2.261
 7266SOL    HW222698   3.974   1.532   2.192
 7267SOL     OW22699   5.375   2.930   4.312
 7267SOL    HW122700   5.412   2.897   4.398
 7267SOL    HW222701   5.451   2.947   4.248
 7268SOL     OW22702   3.829   0.538   0.754
 7268SOL    HW122703   3.812   0.440   0.759
 7268SOL    HW222704   3.926   0.556   0.767
 7269SOL     OW22705   1.504   0.342   1.776
 7269SOL    HW122706   1.475   0.392   1.857
 7269SOL    HW222707   1.553   0.403   1.714
 7270SOL     OW22708   3.407   2.075   2.494
 7270SOL    HW122709   3.396   1.976   2.488
 7270SOL    HW222710   3.502   2.097   2.516
 7271SOL     OW22711   5.788   5.324   3.839
 7271SOL    HW122712   5.766   5.421   3.834
 7271SOL    HW222713   5.704   5.271   3.834
 7272SOL     OW22714   6.352   2.489   0.776
 7272SOL    HW122715   6.270   2.435   0.796
 7272SOL    HW222716   6.433   2.435   0.798
 7273SOL     OW22717   5.564   5.498   5.500
 7273SOL    HW122718   5.567   5.535   5.592
 7273SOL    HW222719   5.649   5.448   5.481
 7274SOL     OW22720   5.565   4.523   4.433
 7274SOL    HW122721   5.513   4.530   4.518
 7274SOL    HW222722   5.610   4.610   4.415
 7275SOL     OW22723   5.744   6.341   1.613
 7275SOL    HW122724   5.676   6.328   1.540
 7275SOL    HW222725   5.808   6.264   1.614
 7276SOL     OW22726   3.354   2.056   3.738
 7276SOL    HW122727   3.371   2.052   3.837
 7276SOL    HW222728   3.256   2.066   3.721
 7277SOL     OW22729   6.425   1.849   4.044
 7277SOL    HW122730   6.502   1.886   4.096
 7277SOL    HW222731   6.450   1.760   4.007
 7278SOL     OW22732   3.681   2.015   3.892
 7278SOL    HW122733   3.748   2.087   3.911
 7278SOL    HW222734   3.685   1.946   3.965
 7279SOL     OW22735   4.197   3.380   1.194
 7279SOL    HW122736   4.132   3.330   1.250
 7279SOL    HW222737   4.262   3.429   1.253
 7280SOL     OW22738   6.890   2.175   5.163
 7280SOL    HW122739   6.876   2.079   5.137
 7280SOL    HW222740   6.804   2.225   5.152
 7281SOL     OW22741   3.402   6.146   3.013
 7281SOL    HW122742   3.471   6.086   3.054
 7281SOL    HW222743   3.435   6.179   2.925
 7282SOL     OW22744   0.072   2.982   1.105
 7282SOL    HW122745   0.142   3.026   1.162
 7282SOL    HW222746   0.015   2.923   1.161
 7283SOL     OW22747   3.324   5.818   2.791
 7283SOL    HW122748   3.280   5.845   2.876
 7283SOL    HW222749   3.407   5.765   2.810
 7284SOL     OW22750   0.499   0.548   2.850
 7284SOL    HW122751   0.499   0.459   2.897
 7284SOL    HW222752   0.578   0.602   2.880
 7285SOL     OW22753   5.001   2.670   1.914
 7285SOL    HW122754   4.922   2.714   1.958
 7285SOL    HW222755   5.037   2.599   1.975
 7286SOL     OW22756   6.214   1.521   4.153
 7286SOL    HW122757   6.272   1.602   4.142
 7286SOL    HW222758   6.121   1.550   4.173
 7287SOL     OW22759   3.538   1.462   4.379
 7287SOL    HW122760   3.483   1.529   4.430
 7287SOL    HW222761   3.502   1.453   4.287
 7288SOL     OW22762   3.257   1.726   1.847
 7288SOL    HW122763   3.237   1.813   1.893
 7288SOL    HW222764   3.315   1.670   1.906
 7289SOL     OW22765   6.282   2.542   1.915
 7289SOL    HW122766   6.263   2.455   1.961
 7289SOL    HW222767   6.241   2.540   1.823
 7290SOL     OW22768   3.643   2.130   4.521
 7290SOL    HW122769   3.673   2.135   4.616
 7290SOL    HW222770   3.544   2.114   4.518
 7291SOL     OW22771   1.149   0.942   0.546
 7291SOL    HW122772   1.149   1.018   0.612
 7291SOL    HW222773   1.155   0.979   0.453
 7292SOL     OW22774   3.553   0.932   2.723
 7292SOL    HW122775   3.580   1.004   2.788
 7292SOL    HW222776   3.551   0.970   2.631
 7293SOL     OW22777   6.389   1.066   4.412
 7293SOL    HW122778   6.447   1.040   4.489
 7293SOL    HW222779   6.390   1.165   4.401
 7294SOL     OW22780   3.794   0.322   3.085
 7294SOL    HW122781   3.698   0.319   3.060
 7294SOL    HW222782   3.831   0.229   3.091
 7295SOL     OW22783   5.367   3.959   1.595
 7295SOL    HW122784   5.425   3.884   1.564
 7295SOL    HW222785   5.272   3.940   1.571
 7296SOL     OW22786   3.544   6.221   2.180
 7296SOL    HW122787   3.528   6.163   2.100
 7296SOL    HW222788   3.544   6.165   2.262
 7297SOL     OW22789   3.928   6.954   0.728
 7297SOL    HW122790   3.959   6.868   0.687
 7297SOL    HW222791   3.833   6.944   0.757
 7298SOL     OW22792   4.100   4.944   1.317
 7298SOL    HW122793   4.011   4.930   1.360
 7298SOL    HW222794   4.159   4.866   1.338
 7299SOL     OW22795   0.795   3.356   6.588
 7299SOL    HW122796   0.846   3.375   6.504
 7299SOL    HW222797   0.709   3.311   6.565
 7300SOL     OW22798   0.812   3.621   1.379
 7300SOL    HW122799   0.855   3.711   1.372
 7300SOL    HW222800   0.833   3.581   1.469
 7301SOL     OW22801   4.222   1.974   0.162
 7301SOL    HW122802   4.313   2.009   0.141
 7301SOL    HW222803   4.200   1.994   0.258
 7302SOL     OW22804   5.459   2.076   6.135
 7302SOL    HW122805   5.425   2.046   6.224
 7302SOL    HW222806   5.425   2.168   6.115
 7303SOL     OW22807   2.841   2.161   1.552
 7303SOL    HW122808   2.822   2.255   1.525
 7303SOL    HW222809   2.756   2.109   1.553
 7304SOL     OW22810   2.241   0.096   0.484
 7304SOL    HW122811   2.174   0.045   0.538
 7304SOL    HW222812   2.256   0.051   0.397
 7305SOL     OW22813   6.236   0.166   6.238
 7305SOL    HW122814   6.150   0.139   6.280
 7305SOL    HW222815   6.225   0.254   6.192
 7306SOL     OW22816   1.531   3.375   1.393
 7306SOL    HW122817   1.431   3.374   1.388
 7306SOL    HW222818   1.567   3.289   1.355
 7307SOL     OW22819   3.547   6.758   1.597
 7307SOL    HW122820   3.554   6.658   1.588
 7307SOL    HW222821   3.527   6.798   1.507
 7308SOL     OW22822   3.892   1.291   3.148
 7308SOL    HW122823   3.845   1.317   3.064
 7308SOL    HW222824   3.878   1.362   3.217
 7309SOL     OW22825   2.286   4.972   3.905
 7309SOL    HW122826   2.280   4.878   3.872
 7309SOL    HW222827   2.377   4.988   3.944
 7310SOL     OW22828   2.871   3.184   0.053
 7310SOL    HW122829   2.903   3.223   6.990
 7310SOL    HW222830   2.775   3.208   0.067
 7311SOL     OW22831   0.495   6.690   5.987
 7311SOL    HW122832   0.430   6.614   5.990
 7311SOL    HW222833   0.465   6.762   6.050
 7312SOL     OW22834   6.239   2.139   4.631
 7312SOL    HW122835   6.154   2.169   4.674
 7312SOL    HW222836   6.253   2.042   4.651
 7313SOL     OW22837   3.085   0.791   2.563
 7313SOL    HW122838   3.087   0.691   2.559
 7313SOL    HW222839   3.021   0.820   2.634
 7314SOL     OW22840   2.044   5.488   5.229
 7314SOL    HW122841   1.962   5.534   5.263
 7314SOL    HW222842   2.029   5.461   5.133
 7315SOL     OW22843   3.055   5.536   2.934
 7315SOL    HW122844   3.052   5.631   2.964
 7315SOL    HW222845   3.131   5.489   2.980
 7316SOL     OW22846   3.688   0.862   1.875
 7316SOL    HW122847   3.731   0.948   1.847
 7316SOL    HW222848   3.711   0.790   1.810
 7317SOL     OW22849   5.708   2.098   0.969
 7317SOL    HW122850   5.662   2.105   0.880
 7317SOL    HW222851   5.755   2.009   0.974
 7318SOL     OW22852   5.314   6.309   1.249
 7318SOL    HW122853   5.395   6.286   1.196
 7318SOL    HW222854   5.333   6.388   1.307
 7319SOL     OW22855   5.019   5.861   6.511
 7319SOL    HW122856   4.952   5.900   6.575
 7319SOL    HW222857   5.089   5.811   6.562
 7320SOL     OW22858   0.945   3.480   0.092
 7320SOL    HW122859   0.964   3.446   0.184
 7320SOL    HW222860   0.990   3.420   0.025
 7321SOL     OW22861   2.202   2.328   5.550
 7321SOL    HW122862   2.268   2.322   5.475
 7321SOL    HW222863   2.209   2.246   5.607
 7322SOL     OW22864   1.808   1.849   4.335
 7322SOL    HW122865   1.784   1.946   4.333
 7322SOL    HW222866   1.733   1.795   4.297
 7323SOL     OW22867   1.649   2.043   0.920
 7323SOL    HW122868   1.620   2.073   0.829
 7323SOL    HW222869   1.625   2.113   0.987
 7324SOL     OW22870   4.912   3.890   4.601
 7324SOL    HW122871   4.947   3.804   4.564
 7324SOL    HW222872   4.882   3.876   4.695
 7325SOL     OW22873   4.185   1.462   6.158
 7325SOL    HW122874   4.132   1.390   6.115
 7325SOL    HW222875   4.129   1.507   6.228
 7326SOL     OW22876   3.738   6.526   0.601
 7326SOL    HW122877   3.667   6.460   0.626
 7326SOL    HW222878   3.715   6.567   0.512
 7327SOL     OW22879   1.446   4.557   3.255
 7327SOL    HW122880   1.394   4.578   3.173
 7327SOL    HW222881   1.511   4.631   3.273
 7328SOL     OW22882   4.845   5.132   6.218
 7328SOL    HW122883   4.940   5.140   6.247
 7328SOL    HW222884   4.822   5.207   6.156
 7329SOL     OW22885   2.631   3.622   0.999
 7329SOL    HW122886   2.684   3.670   0.928
 7329SOL    HW222887   2.584   3.689   1.056
 7330SOL     OW22888   2.952   3.362   0.727
 7330SOL    HW122889   2.930   3.267   0.703
 7330SOL    HW222890   2.938   3.376   0.825
 7331SOL     OW22891   5.271   1.432   2.211
 7331SOL    HW122892   5.182   1.392   2.189
 7331SOL    HW222893   5.262   1.530   2.223
 7332SOL     OW22894   2.694   6.799   5.371
 7332SOL    HW122895   2.630   6.834   5.303
 7332SOL    HW222896   2.644   6.768   5.451
 7333SOL     OW22897   5.792   1.152   0.866
 7333SOL    HW122898   5.697   1.160   0.895
 7333SOL    HW222899   5.847   1.223   0.911
 7334SOL     OW22900   1.309   4.390   4.779
 7334SOL    HW122901   1.282   4.315   4.839
 7334SOL    HW222902   1.254   4.386   4.695
 7335SOL     OW22903   0.755   3.189   2.843
 7335SOL    HW122904   0.783   3.249   2.769
 7335SOL    HW222905   0.716   3.105   2.804
 7336SOL     OW22906   2.533   0.251   0.647
 7336SOL    HW122907   2.562   0.328   0.703
 7336SOL    HW222908   2.542   0.166   0.699
 7337SOL     OW22909   3.373   1.184   3.536
 7337SOL    HW122910   3.436   1.175   3.458
 7337SOL    HW222911   3.286   1.140   3.514
 7338SOL     OW22912   5.230   3.765   1.187
 7338SOL    HW122913   5.203   3.850   1.142
 7338SOL    HW222914   5.316   3.732   1.147
 7339SOL     OW22915   0.066   6.769   4.268
 7339SOL    HW122916   0.129   6.781   4.191
 7339SOL    HW222917   0.086   6.683   4.315
 7340SOL     OW22918   2.188   6.008   0.021
 7340SOL    HW122919   2.282   6.030   7.019
 7340SOL    HW222920   2.181   5.999   0.120
 7341SOL     OW22921   6.287   5.238   3.701
 7341SOL    HW122922   6.207   5.260   3.757
 7341SOL    HW222923   6.290   5.299   3.622
 7342SOL     OW22924   0.434   5.341   0.397
 7342SOL    HW122925   0.379   5.417   0.431
 7342SOL    HW222926   0.458   5.281   0.473
 7343SOL     OW22927   6.933   2.475   3.130
 7343SOL    HW122928   0.002   2.478   3.093
 7343SOL    HW222929   6.884   2.398   3.089
 7344SOL     OW22930   2.313   1.007   6.705
 7344SOL    HW122931   2.380   1.063   6.656
 7344SOL    HW222932   2.230   1.059   6.721
 7345SOL     OW22933   2.040   6.846   6.594
 7345SOL    HW122934   1.969   6.776   6.605
 7345SOL    HW222935   2.029   6.890   6.505
 7346SOL     OW22936   3.460   5.097   3.146
 7346SOL    HW122937   3.432   5.122   3.239
 7346SOL    HW222938   3.497   5.178   3.100
 7347SOL     OW22939   6.400   3.116   2.957
 7347SOL    HW122940   6.334   3.106   2.882
 7347SOL    HW222941   6.382   3.201   3.006
 7348SOL     OW22942   6.381   1.268   6.027
 7348SOL    HW122943   6.421   1.311   5.946
 7348SOL    HW222944   6.451   1.210   6.071
 7349SOL     OW22945   3.874   1.577   1.200
 7349SOL    HW122946   3.920   1.666   1.196
 7349SOL    HW222947   3.789   1.587   1.252
 7350SOL     OW22948   2.517   1.000   3.383
 7350SOL    HW122949   2.550   0.913   3.347
 7350SOL    HW222950   2.443   1.034   3.325
 7351SOL     OW22951   4.459   4.583   0.785
 7351SOL    HW122952   4.495   4.505   0.734
 7351SOL    HW222953   4.535   4.637   0.822
 7352SOL     OW22954   6.538   0.796   3.502
 7352SOL    HW122955   6.574   0.888   3.512
 7352SOL    HW222956   6.607   0.730   3.531
 7353SOL     OW22957   5.564   1.478   5.713
 7353SOL    HW122958   5.598   1.508   5.802
 7353SOL    HW222959   5.640   1.449   5.656
 7354SOL     OW22960   5.895   4.388   5.115
 7354SOL    HW122961   5.819   4.451   5.096
 7354SOL    HW222962   5.861   4.310   5.168
 7355SOL     OW22963   6.827   5.807   1.282
 7355SOL    HW122964   6.896   5.744   1.247
 7355SOL    HW222965   6.746   5.802   1.224
 7356SOL     OW22966   0.037   2.065   5.891
 7356SOL    HW122967   6.992   2.122   5.846
 7356SOL    HW222968   0.056   2.102   5.982
 7357SOL     OW22969   1.136   1.436   0.632
 7357SOL    HW122970   1.039   1.435   0.655
 7357SOL    HW222971   1.147   1.468   0.538
 7358SOL     OW22972   3.604   0.699   3.725
 7358SOL    HW122973   3.579   0.674   3.818
 7358SOL    HW222974   3.549   0.778   3.696
 7359SOL     OW22975   2.958   3.208   3.829
 7359SOL    HW122976   2.954   3.292   3.882
 7359SOL    HW222977   2.942   3.228   3.732
 7360SOL     OW22978   0.696   4.165   6.612
 7360SOL    HW122979   0.751   4.081   6.619
 7360SOL    HW222980   0.615   4.146   6.557
 7361SOL     OW22981   4.526   6.648   1.555
 7361SOL    HW122982   4.555   6.583   1.484
 7361SOL    HW222983   4.581   6.732   1.547
 7362SOL     OW22984   1.602   6.248   6.472
 7362SOL    HW122985   1.632   6.262   6.566
 7362SOL    HW222986   1.502   6.244   6.469
 7363SOL     OW22987   4.394   2.618   6.376
 7363SOL    HW122988   4.437   2.571   6.299
 7363SOL    HW222989   4.302   2.647   6.349
 7364SOL     OW22990   4.559   0.280   0.845
 7364SOL    HW122991   4.655   0.255   0.858
 7364SOL    HW222992   4.501   0.204   0.873
 7365SOL     OW22993   4.601   6.991   1.185
 7365SOL    HW122994   4.663   6.921   1.219
 7365SOL    HW222995   4.590   0.039   1.253
 7366SOL     OW22996   1.464   0.136   0.344
 7366SOL    HW122997   1.392   0.073   0.316
 7366SOL    HW222998   1.428   0.202   0.410
 7367SOL     OW22999   4.462   3.038   7.007
 7367SOL    HW123000   4.499   3.065   6.918
 7367SOL    HW223001   4.397   2.963   6.995
 7368SOL     OW23002   3.437   3.220   4.541
 7368SOL    HW123003   3.391   3.178   4.619
 7368SOL    HW223004   3.369   3.255   4.477
 7369SOL     OW23005   5.966   0.729   5.929
 7369SOL    HW123006   5.872   0.750   5.903
 7369SOL    HW223007   6.019   0.813   5.933
 7370SOL     OW23008   0.764   5.763   0.729
 7370SOL    HW123009   0.701   5.723   0.795
 7370SOL    HW223010   0.716   5.830   0.672
 7371SOL     OW23011   1.286   4.934   4.679
 7371SOL    HW123012   1.324   5.003   4.740
 7371SOL    HW223013   1.289   4.845   4.724
 7372SOL     OW23014   3.062   0.742   5.140
 7372SOL    HW123015   3.047   0.826   5.193
 7372SOL    HW223016   3.146   0.751   5.087
 7373SOL     OW23017   3.670   0.542   1.317
 7373SOL    HW123018   3.742   0.521   1.251
 7373SOL    HW223019   3.615   0.619   1.284
 7374SOL     OW23020   2.520   3.564   6.485
 7374SOL    HW123021   2.482   3.508   6.411
 7374SOL    HW223022   2.571   3.506   6.548
 7375SOL     OW23023   2.958   6.332   3.281
 7375SOL    HW123024   3.023   6.365   3.212
 7375SOL    HW223025   2.870   6.377   3.267
 7376SOL     OW23026   3.161   3.794   6.536
 7376SOL    HW123027   3.220   3.762   6.462
 7376SOL    HW223028   3.097   3.721   6.562
 7377SOL     OW23029   6.176   5.782   1.721
 7377SOL    HW123030   6.248   5.846   1.695
 7377SOL    HW223031   6.132   5.745   1.639
 7378SOL     OW23032   0.418   2.418   5.302
 7378SOL    HW123033   0.512   2.394   5.276
 7378SOL    HW223034   0.392   2.366   5.383
 7379SOL     OW23035   4.538   0.660   0.469
 7379SOL    HW123036   4.599   0.584   0.444
 7379SOL    HW223037   4.543   0.675   0.568
 7380SOL     OW23038   6.672   3.002   6.311
 7380SOL    HW123039   6.598   3.012   6.377
 7380SOL    HW223040   6.722   2.917   6.330
 7381SOL     OW23041   5.045   2.176   0.405
 7381SOL    HW123042   4.955   2.170   0.448
 7381SOL    HW223043   5.034   2.193   0.307
 7382SOL     OW23044   1.323   5.168   3.725
 7382SOL    HW123045   1.294   5.197   3.816
 7382SOL    HW223046   1.413   5.205   3.706
 7383SOL     OW23047   1.620   4.538   2.939
 7383SOL    HW123048   1.675   4.577   3.014
 7383SOL    HW223049   1.523   4.546   2.962
 7384SOL     OW23050   6.411   2.042   0.517
 7384SOL    HW123051   6.341   2.040   0.588
 7384SOL    HW223052   6.366   2.052   0.427
 7385SOL     OW23053   5.046   0.704   2.112
 7385SOL    HW123054   5.097   0.790   2.113
 7385SOL    HW223055   5.020   0.680   2.206
 7386SOL     OW23056   6.797   1.736   5.792
 7386SOL    HW123057   6.873   1.761   5.733
 7386SOL    HW223058   6.793   1.798   5.870
 7387SOL     OW23059   5.016   6.217   3.911
 7387SOL    HW123060   5.100   6.261   3.880
 7387SOL    HW223061   4.938   6.273   3.885
 7388SOL     OW23062   5.411   3.869   4.919
 7388SOL    HW123063   5.351   3.789   4.917
 7388SOL    HW223064   5.478   3.862   4.845
 7389SOL     OW23065   0.658   3.314   4.874
 7389SOL    HW123066   0.721   3.283   4.802
 7389SOL    HW223067   0.603   3.389   4.839
 7390SOL     OW23068   3.961   0.607   6.444
 7390SOL    HW123069   3.883   0.594   6.383
 7390SOL    HW223070   4.023   0.674   6.404
 7391SOL     OW23071   0.317   5.063   0.218
 7391SOL    HW123072   0.309   5.038   0.121
 7391SOL    HW223073   0.413   5.055   0.246
 7392SOL     OW23074   2.108   4.908   2.295
 7392SOL    HW123075   2.155   4.970   2.232
 7392SOL    HW223076   2.168   4.832   2.317
 7393SOL     OW23077   0.781   3.899   6.974
 7393SOL    HW123078   0.855   3.886   0.017
 7393SOL    HW223079   0.790   3.832   6.901
 7394SOL     OW23080   2.540   2.780   5.958
 7394SOL    HW123081   2.546   2.876   5.987
 7394SOL    HW223082   2.488   2.774   5.873
 7395SOL     OW23083   2.493   0.408   0.175
 7395SOL    HW123084   2.424   0.366   0.233
 7395SOL    HW223085   2.449   0.457   0.100
 7396SOL     OW23086   6.730   6.850   1.763
 7396SOL    HW123087   6.681   6.763   1.771
 7396SOL    HW223088   6.793   6.846   1.686
 7397SOL     OW23089   6.255   4.107   4.574
 7397SOL    HW123090   6.346   4.072   4.550
 7397SOL    HW223091   6.197   4.031   4.602
 7398SOL     OW23092   4.595   6.639   3.228
 7398SOL    HW123093   4.588   6.733   3.263
 7398SOL    HW223094   4.683   6.600   3.255
 7399SOL     OW23095   5.372   4.524   4.651
 7399SOL    HW123096   5.360   4.429   4.623
 7399SOL    HW223097   5.359   4.531   4.750
 7400SOL     OW23098   2.662   4.224   0.459
 7400SOL    HW123099   2.733   4.183   0.402
 7400SOL    HW223100   2.686   4.319   0.479
 7401SOL     OW23101   5.956   2.467   5.028
 7401SOL    HW123102   5.863   2.437   5.049
 7401SOL    HW223103   5.953   2.558   4.988
 7402SOL     OW23104   2.355   6.083   4.228
 7402SOL    HW123105   2.348   5.999   4.282
 7402SOL    HW223106   2.282   6.086   4.160
 7403SOL     OW23107   2.533   2.913   1.722
 7403SOL    HW123108   2.559   2.997   1.675
 7403SOL    HW223109   2.433   2.908   1.727
 7404SOL     OW23110   1.067   1.879   2.792
 7404SOL    HW123111   1.090   1.974   2.814
 7404SOL    HW223112   1.133   1.843   2.726
 7405SOL     OW23113   4.213   4.665   6.408
 7405SOL    HW123114   4.257   4.585   6.366
 7405SOL    HW223115   4.253   4.749   6.372
 7406SOL     OW23116   0.472   6.599   2.634
 7406SOL    HW123117   0.426   6.532   2.691
 7406SOL    HW223118   0.569   6.574   2.624
 7407SOL     OW23119   2.792   0.968   6.081
 7407SOL    HW123120   2.780   0.995   5.985
 7407SOL    HW223121   2.762   0.874   6.093
 7408SOL     OW23122   1.059   3.747   5.403
 7408SOL    HW123123   1.011   3.724   5.488
 7408SOL    HW223124   1.138   3.804   5.425
 7409SOL     OW23125   2.504   6.993   5.135
 7409SOL    HW123126   2.509   0.065   5.109
 7409SOL    HW223127   2.436   6.981   5.208
 7410SOL     OW23128   4.229   5.729   5.902
 7410SOL    HW123129   4.161   5.742   5.830
 7410SOL    HW223130   4.193   5.666   5.971
 7411SOL     OW23131   5.236   4.384   5.846
 7411SOL    HW123132   5.250   4.326   5.765
 7411SOL    HW223133   5.229   4.480   5.817
 7412SOL     OW23134   1.588   1.329   6.711
 7412SOL    HW123135   1.653   1.388   6.663
 7412SOL    HW223136   1.524   1.385   6.763
 7413SOL     OW23137   0.048   3.491   3.920
 7413SOL    HW123138   0.024   3.566   3.981
 7413SOL    HW223139   0.037   3.521   3.825
 7414SOL     OW23140   0.583   4.979   1.492
 7414SOL    HW123141   0.601   4.939   1.402
 7414SOL    HW223142   0.653   4.949   1.557
 7415SOL     OW23143   3.100   1.560   3.442
 7415SOL    HW123144   3.033   1.537   3.512
 7415SOL    HW223145   3.108   1.485   3.377
 7416SOL     OW23146   6.854   0.178   3.102
 7416SOL    HW123147   6.935   0.180   3.042
 7416SOL    HW223148   6.778   0.134   3.054
 7417SOL     OW23149   0.530   4.944   1.114
 7417SOL    HW123150   0.486   4.860   1.082
 7417SOL    HW223151   0.607   4.921   1.173
 7418SOL     OW23152   1.021   3.723   0.015
 7418SOL    HW123153   1.093   3.728   0.085
 7418SOL    HW223154   0.972   3.636   0.024
 7419SOL     OW23155   6.258   2.242   5.323
 7419SOL    HW123156   6.310   2.270   5.243
 7419SOL    HW223157   6.176   2.298   5.331
 7420SOL     OW23158   6.870   5.500   2.570
 7420SOL    HW123159   6.796   5.438   2.595
 7420SOL    HW223160   6.838   5.563   2.499
 7421SOL     OW23161   4.355   1.743   1.437
 7421SOL    HW123162   4.262   1.715   1.463
 7421SOL    HW223163   4.365   1.841   1.451
 7422SOL     OW23164   0.672   1.471   0.463
 7422SOL    HW123165   0.648   1.517   0.549
 7422SOL    HW223166   0.689   1.539   0.392
 7423SOL     OW23167   2.033   4.314   0.428
 7423SOL    HW123168   2.074   4.311   0.519
 7423SOL    HW223169   2.071   4.392   0.378
 7424SOL     OW23170   5.075   0.338   4.648
 7424SOL    HW123171   5.115   0.348   4.739
 7424SOL    HW223172   4.975   0.343   4.655
 7425SOL     OW23173   3.365   0.038   4.728
 7425SOL    HW123174   3.435   6.999   4.763
 7425SOL    HW223175   3.409   0.119   4.689
 7426SOL     OW23176   0.263   1.256   6.347
 7426SOL    HW123177   0.193   1.274   6.279
 7426SOL    HW223178   0.335   1.325   6.340
 7427SOL     OW23179   5.347   5.471   4.942
 7427SOL    HW123180   5.410   5.433   5.009
 7427SOL    HW223181   5.372   5.566   4.922
 7428SOL     OW23182   4.400   1.105   5.663
 7428SOL    HW123183   4.479   1.129   5.607
 7428SOL    HW223184   4.325   1.169   5.644
 7429SOL     OW23185   6.282   6.371   4.263
 7429SOL    HW123186   6.316   6.457   4.301
 7429SOL    HW223187   6.353   6.301   4.267
 7430SOL     OW23188   0.297   4.150   4.237
 7430SOL    HW123189   0.367   4.080   4.229
 7430SOL    HW223190   0.252   4.162   4.149
 7431SOL     OW23191   0.590   3.915   2.410
 7431SOL    HW123192   0.639   3.976   2.473
 7431SOL    HW223193   0.493   3.913   2.434
 7432SOL     OW23194   1.958   6.571   5.162
 7432SOL    HW123195   1.972   6.551   5.259
 7432SOL    HW223196   1.860   6.577   5.143
 7433SOL     OW23197   0.341   6.476   1.119
 7433SOL    HW123198   0.386   6.507   1.204
 7433SOL    HW223199   0.339   6.551   1.054
 7434SOL     OW23200   3.997   6.893   0.369
 7434SOL    HW123201   3.922   6.880   0.435
 7434SOL    HW223202   3.964   6.946   0.291
 7435SOL     OW23203   1.410   6.181   0.108
 7435SOL    HW123204   1.375   6.093   0.137
 7435SOL    HW223205   1.388   6.196   0.011
 7436SOL     OW23206   4.194   3.899   0.324
 7436SOL    HW123207   4.284   3.942   0.329
 7436SOL    HW223208   4.169   3.886   0.228
 7437SOL     OW23209   0.120   6.674   5.483
 7437SOL    HW123210   0.189   6.613   5.523
 7437SOL    HW223211   0.146   6.698   5.390
 7438SOL     OW23212   5.742   4.103   1.313
 7438SOL    HW123213   5.798   4.179   1.280
 7438SOL    HW223214   5.714   4.120   1.407
 7439SOL     OW23215   1.412   6.162   2.504
 7439SOL    HW123216   1.444   6.074   2.539
 7439SOL    HW223217   1.315   6.173   2.526
 7440SOL     OW23218   0.620   1.291   3.790
 7440SOL    HW123219   0.668   1.254   3.869
 7440SOL    HW223220   0.584   1.216   3.734
 7441SOL     OW23221   6.426   0.144   3.822
 7441SOL    HW123222   6.516   0.167   3.859
 7441SOL    HW223223   6.420   0.046   3.804
 7442SOL     OW23224   1.749   0.773   6.020
 7442SOL    HW123225   1.709   0.718   5.946
 7442SOL    HW223226   1.679   0.795   6.087
 7443SOL     OW23227   6.480   2.357   2.062
 7443SOL    HW123228   6.532   2.382   1.980
 7443SOL    HW223229   6.532   2.383   2.144
 7444SOL     OW23230   0.720   2.859   5.299
 7444SOL    HW123231   0.654   2.792   5.332
 7444SOL    HW223232   0.736   2.846   5.201
 7445SOL     OW23233   5.993   2.918   1.673
 7445SOL    HW123234   5.932   2.959   1.740
 7445SOL    HW223235   5.962   2.940   1.581
 7446SOL     OW23236   5.937   3.504   3.241
 7446SOL    HW123237   5.922   3.432   3.173
 7446SOL    HW223238   6.017   3.558   3.216
 7447SOL     OW23239   0.306   3.875   6.469
 7447SOL    HW123240   0.376   3.815   6.510
 7447SOL    HW223241   0.251   3.916   6.542
 7448SOL     OW23242   0.121   0.056   6.470
 7448SOL    HW123243   0.152   6.986   6.489
 7448SOL    HW223244   0.053   0.055   6.398
 7449SOL     OW23245   4.178   0.241   1.833
 7449SOL    HW123246   4.216   0.171   1.772
 7449SOL    HW223247   4.105   0.290   1.786
 7450SOL     OW23248   3.809   1.288   1.919
 7450SOL    HW123249   3.760   1.277   2.006
 7450SOL    HW223250   3.753   1.250   1.845
 7451SOL     OW23251   1.203   0.400   2.906
 7451SOL    HW123252   1.285   0.382   2.852
 7451SOL    HW223253   1.202   0.496   2.933
 7452SOL     OW23254   1.915   5.883   3.645
 7452SOL    HW123255   1.926   5.962   3.585
 7452SOL    HW223256   1.991   5.820   3.632
 7453SOL     OW23257   6.417   4.722   5.399
 7453SOL    HW123258   6.337   4.662   5.406
 7453SOL    HW223259   6.416   4.768   5.310
 7454SOL     OW23260   1.215   3.221   6.737
 7454SOL    HW123261   1.173   3.282   6.671
 7454SOL    HW223262   1.145   3.180   6.795
 7455SOL     OW23263   5.156   0.656   0.762
 7455SOL    HW123264   5.146   0.734   0.824
 7455SOL    HW223265   5.160   0.689   0.667
 7456SOL     OW23266   1.184   3.830   6.392
 7456SOL    HW123267   1.112   3.898   6.385
 7456SOL    HW223268   1.157   3.747   6.344
 7457SOL     OW23269   6.534   6.781   5.934
 7457SOL    HW123270   6.612   6.811   5.879
 7457SOL    HW223271   6.552   6.801   6.031
 7458SOL     OW23272   2.231   0.483   0.954
 7458SOL    HW123273   2.196   0.479   0.861
 7458SOL    HW223274   2.326   0.513   0.952
 7459SOL     OW23275   4.305   6.433   4.499
 7459SOL    HW123276   4.274   6.355   4.445
 7459SOL    HW223277   4.262   6.430   4.589
 7460SOL     OW23278   1.168   5.375   6.965
 7460SOL    HW123279   1.195   5.314   0.015
 7460SOL    HW223280   1.131   5.460   7.003
 7461SOL     OW23281   4.221   0.899   4.346
 7461SOL    HW123282   4.140   0.950   4.376
 7461SOL    HW223283   4.269   0.951   4.275
 7462SOL     OW23284   2.191   1.256   3.035
 7462SOL    HW123285   2.091   1.254   3.031
 7462SOL    HW223286   2.225   1.342   2.998
 7463SOL     OW23287   3.723   3.791   2.288
 7463SOL    HW123288   3.722   3.843   2.373
 7463SOL    HW223289   3.787   3.834   2.224
 7464SOL     OW23290   4.855   6.544   0.064
 7464SOL    HW123291   4.868   6.447   0.084
 7464SOL    HW223292   4.844   6.595   0.150
 7465SOL     OW23293   3.866   0.570   3.110
 7465SOL    HW123294   3.849   0.471   3.116
 7465SOL    HW223295   3.964   0.587   3.112
 7466SOL     OW23296   6.127   0.192   0.441
 7466SOL    HW123297   6.127   0.233   0.532
 7466SOL    HW223298   6.037   0.206   0.398
 7467SOL     OW23299   4.896   2.075   0.923
 7467SOL    HW123300   4.807   2.120   0.912
 7467SOL    HW223301   4.936   2.059   0.833
 7468SOL     OW23302   5.983   3.746   4.126
 7468SOL    HW123303   5.895   3.747   4.080
 7468SOL    HW223304   5.996   3.831   4.176
 7469SOL     OW23305   5.365   0.911   1.817
 7469SOL    HW123306   5.456   0.935   1.853
 7469SOL    HW223307   5.356   0.812   1.812
 7470SOL     OW23308   6.576   3.388   3.115
 7470SOL    HW123309   6.634   3.310   3.140
 7470SOL    HW223310   6.596   3.415   3.020
 7471SOL     OW23311   6.354   4.869   5.629
 7471SOL    HW123312   6.358   4.851   5.727
 7471SOL    HW223313   6.348   4.783   5.579
 7472SOL     OW23314   4.032   5.156   3.279
 7472SOL    HW123315   4.018   5.197   3.190
 7472SOL    HW223316   4.002   5.060   3.277
 7473SOL     OW23317   1.059   3.291   5.024
 7473SOL    HW123318   1.085   3.280   5.120
 7473SOL    HW223319   1.060   3.388   5.000
 7474SOL     OW23320   2.782   1.372   3.204
 7474SOL    HW123321   2.767   1.345   3.109
 7474SOL    HW223322   2.700   1.417   3.239
 7475SOL     OW23323   4.934   0.952   6.396
 7475SOL    HW123324   4.971   0.897   6.471
 7475SOL    HW223325   4.858   1.007   6.429
 7476SOL     OW23326   1.901   6.687   4.860
 7476SOL    HW123327   1.944   6.601   4.889
 7476SOL    HW223328   1.947   6.764   4.903
 7477SOL     OW23329   4.910   3.753   4.167
 7477SOL    HW123330   4.878   3.667   4.126
 7477SOL    HW223331   4.832   3.805   4.200
 7478SOL     OW23332   0.710   4.442   1.745
 7478SOL    HW123333   0.807   4.448   1.719
 7478SOL    HW223334   0.666   4.530   1.727
 7479SOL     OW23335   3.969   0.261   5.267
 7479SOL    HW123336   3.958   0.354   5.232
 7479SOL    HW223337   3.883   0.212   5.257
 7480SOL     OW23338   6.508   5.456   0.446
 7480SOL    HW123339   6.570   5.478   0.371
 7480SOL    HW223340   6.557   5.405   0.516
 7481SOL     OW23341   5.892   6.233   0.244
 7481SOL    HW123342   5.818   6.218   0.309
 7481SOL    HW223343   5.969   6.278   0.290
 7482SOL     OW23344   5.086   6.811   4.774
 7482SOL    HW123345   5.113   6.764   4.690
 7482SOL    HW223346   5.106   6.909   4.766
 7483SOL     OW23347   3.556   0.645   6.122
 7483SOL    HW123348   3.495   0.676   6.049
 7483SOL    HW223349   3.512   0.571   6.173
 7484SOL     OW23350   3.711   0.457   2.001
 7484SOL    HW123351   3.773   0.381   2.013
 7484SOL    HW223352   3.744   0.536   2.052
 7485SOL     OW23353   1.067   6.728   5.248
 7485SOL    HW123354   1.063   6.776   5.336
 7485SOL    HW223355   1.069   6.794   5.174
 7486SOL     OW23356   0.901   1.759   5.282
 7486SOL    HW123357   0.903   1.859   5.287
 7486SOL    HW223358   0.868   1.731   5.192
 7487SOL     OW23359   3.719   5.400   3.284
 7487SOL    HW123360   3.653   5.464   3.323
 7487SOL    HW223361   3.722   5.317   3.340
 7488SOL     OW23362   4.576   0.570   5.176
 7488SOL    HW123363   4.574   0.670   5.171
 7488SOL    HW223364   4.622   0.543   5.260
 7489SOL     OW23365   6.767   3.598   3.694
 7489SOL    HW123366   6.735   3.515   3.649
 7489SOL    HW223367   6.865   3.607   3.680
 7490SOL     OW23368   5.761   0.504   2.883
 7490SOL    HW123369   5.814   0.552   2.954
 7490SOL    HW223370   5.807   0.418   2.861
 7491SOL     OW23371   0.516   6.737   0.260
 7491SOL    HW123372   0.446   6.715   0.192
 7491SOL    HW223373   0.474   6.787   0.336
 7492SOL     OW23374   2.051   2.137   3.627
 7492SOL    HW123375   2.110   2.175   3.698
 7492SOL    HW223376   2.105   2.123   3.543
 7493SOL     OW23377   5.238   5.122   6.784
 7493SOL    HW123378   5.296   5.145   6.706
 7493SOL    HW223379   5.144   5.111   6.754
 7494SOL     OW23380   5.017   2.096   1.460
 7494SOL    HW123381   4.984   2.160   1.390
 7494SOL    HW223382   4.988   2.003   1.437
 7495SOL     OW23383   0.863   1.903   2.602
 7495SOL    HW123384   0.927   1.869   2.671
 7495SOL    HW223385   0.833   1.996   2.626
 7496SOL     OW23386   0.289   5.264   5.858
 7496SOL    HW123387   0.303   5.165   5.855
 7496SOL    HW223388   0.304   5.297   5.952
 7497SOL     OW23389   1.607   4.735   2.450
 7497SOL    HW123390   1.701   4.757   2.474
 7497SOL    HW223391   1.575   4.658   2.505
 7498SOL     OW23392   5.672   2.111   4.319
 7498SOL    HW123393   5.647   2.014   4.310
 7498SOL    HW223394   5.661   2.140   4.414
 7499SOL     OW23395   3.893   4.824   3.688
 7499SOL    HW123396   3.867   4.823   3.785
 7499SOL    HW223397   3.990   4.847   3.680
 7500SOL     OW23398   4.945   4.386   1.736
 7500SOL    HW123399   4.941   4.325   1.657
 7500SOL    HW223400   4.946   4.481   1.705
 7501SOL     OW23401   0.618   4.848   3.632
 7501SOL    HW123402   0.587   4.778   3.569
 7501SOL    HW223403   0.659   4.805   3.713
 7502SOL     OW23404   1.914   2.263   3.883
 7502SOL    HW123405   1.908   2.283   3.981
 7502SOL    HW223406   2.008   2.238   3.860
 7503SOL     OW23407   2.274   3.015   6.941
 7503SOL    HW123408   2.330   3.062   6.873
 7503SOL    HW223409   2.193   2.976   6.897
 7504SOL     OW23410   3.847   5.167   3.799
 7504SOL    HW123411   3.780   5.148   3.728
 7504SOL    HW223412   3.844   5.264   3.823
 7505SOL     OW23413   1.693   1.037   4.218
 7505SOL    HW123414   1.597   1.017   4.239
 7505SOL    HW223415   1.724   1.114   4.274
 7506SOL     OW23416   3.549   1.220   3.272
 7506SOL    HW123417   3.561   1.317   3.256
 7506SOL    HW223418   3.638   1.175   3.277
 7507SOL     OW23419   2.083   6.613   5.753
 7507SOL    HW123420   2.068   6.522   5.715
 7507SOL    HW223421   2.002   6.642   5.803
 7508SOL     OW23422   5.223   5.002   3.613
 7508SOL    HW123423   5.136   5.027   3.656
 7508SOL    HW223424   5.206   4.938   3.538
 7509SOL     OW23425   4.136   3.778   6.048
 7509SOL    HW123426   4.179   3.737   5.967
 7509SOL    HW223427   4.121   3.876   6.031
 7510SOL     OW23428   3.608   3.626   4.834
 7510SOL    HW123429   3.578   3.552   4.774
 7510SOL    HW223430   3.529   3.677   4.867
 7511SOL     OW23431   0.872   1.015   2.100
 7511SOL    HW123432   0.821   0.931   2.086
 7511SOL    HW223433   0.936   1.002   2.176
 7512SOL     OW23434   1.854   2.712   1.688
 7512SOL    HW123435   1.839   2.804   1.653
 7512SOL    HW223436   1.913   2.716   1.769
 7513SOL     OW23437   1.398   3.520   6.501
 7513SOL    HW123438   1.457   3.551   6.576
 7513SOL    HW223439   1.309   3.493   6.537
 7514SOL     OW23440   3.727   5.654   3.620
 7514SOL    HW123441   3.674   5.661   3.535
 7514SOL    HW223442   3.821   5.627   3.599
 7515SOL     OW23443   0.463   4.909   2.801
 7515SOL    HW123444   0.431   4.930   2.894
 7515SOL    HW223445   0.560   4.887   2.804
 7516SOL     OW23446   1.372   2.148   1.834
 7516SOL    HW123447   1.342   2.197   1.753
 7516SOL    HW223448   1.471   2.142   1.835
 7517SOL     OW23449   0.691   4.800   1.304
 7517SOL    HW123450   0.650   4.731   1.364
 7517SOL    HW223451   0.762   4.758   1.249
 7518SOL     OW23452   5.020   4.281   3.340
 7518SOL    HW123453   4.976   4.214   3.280
 7518SOL    HW223454   5.002   4.257   3.435
 7519SOL     OW23455   1.803   0.158   4.211
 7519SOL    HW123456   1.877   0.185   4.150
 7519SOL    HW223457   1.757   0.239   4.247
 7520SOL     OW23458   2.523   0.016   3.752
 7520SOL    HW123459   2.449   6.975   3.767
 7520SOL    HW223460   2.536   0.071   3.835
 7521SOL     OW23461   4.168   3.301   5.556
 7521SOL    HW123462   4.231   3.278   5.482
 7521SOL    HW223463   4.074   3.283   5.526
 7522SOL     OW23464   1.492   0.472   2.440
 7522SOL    HW123465   1.444   0.415   2.373
 7522SOL    HW223466   1.582   0.497   2.404
 7523SOL     OW23467   6.416   6.651   6.289
 7523SOL    HW123468   6.325   6.618   6.264
 7523SOL    HW223469   6.459   6.585   6.351
 7524SOL     OW23470   6.060   1.136   4.705
 7524SOL    HW123471   6.145   1.187   4.692
 7524SOL    HW223472   5.984   1.188   4.669
 7525SOL     OW23473   0.717   6.990   0.808
 7525SOL    HW123474   0.660   0.049   0.812
 7525SOL    HW223475   0.661   6.910   0.827
 7526SOL     OW23476   3.363   3.386   4.816
 7526SOL    HW123477   3.442   3.415   4.761
 7526SOL    HW223478   3.335   3.294   4.788
 7527SOL     OW23479   4.370   5.884   2.184
 7527SOL    HW123480   4.325   5.892   2.095
 7527SOL    HW223481   4.421   5.968   2.203
 7528SOL     OW23482   5.617   3.410   6.793
 7528SOL    HW123483   5.605   3.498   6.840
 7528SOL    HW223484   5.601   3.422   6.695
 7529SOL     OW23485   2.400   6.902   4.658
 7529SOL    HW123486   2.494   6.919   4.629
 7529SOL    HW223487   2.339   6.968   4.614
 7530SOL     OW23488   6.567   3.043   3.184
 7530SOL    HW123489   6.567   2.987   3.266
 7530SOL    HW223490   6.475   3.046   3.145
 7531SOL     OW23491   2.576   1.668   4.705
 7531SOL    HW123492   2.625   1.746   4.666
 7531SOL    HW223493   2.595   1.661   4.803
 7532SOL     OW23494   4.753   4.824   2.346
 7532SOL    HW123495   4.772   4.853   2.252
 7532SOL    HW223496   4.832   4.846   2.404
 7533SOL     OW23497   3.694   0.716   4.878
 7533SOL    HW123498   3.650   0.796   4.917
 7533SOL    HW223499   3.789   0.711   4.909
 7534SOL     OW23500   5.090   6.613   4.168
 7534SOL    HW123501   5.146   6.666   4.105
 7534SOL    HW223502   5.136   6.527   4.190
 7535SOL     OW23503   2.937   4.745   0.715
 7535SOL    HW123504   2.858   4.785   0.759
 7535SOL    HW223505   2.955   4.792   0.628
 7536SOL     OW23506   3.736   5.380   5.643
 7536SOL    HW123507   3.769   5.327   5.565
 7536SOL    HW223508   3.734   5.478   5.619
 7537SOL     OW23509   1.979   4.619   5.496
 7537SOL    HW123510   2.037   4.538   5.492
 7537SOL    HW223511   1.965   4.655   5.404
 7538SOL     OW23512   3.119   3.966   4.087
 7538SOL    HW123513   3.029   3.971   4.129
 7538SOL    HW223514   3.178   3.906   4.141
 7539SOL     OW23515   1.105   2.135   4.495
 7539SOL    HW123516   1.116   2.081   4.579
 7539SOL    HW223517   1.009   2.133   4.466
 7540SOL     OW23518   2.082   1.202   6.828
 7540SOL    HW123519   2.098   1.254   6.744
 7540SOL    HW223520   2.018   1.253   6.887
 7541SOL     OW23521   6.829   2.900   5.049
 7541SOL    HW123522   6.900   2.922   5.116
 7541SOL    HW223523   6.865   2.831   4.986
 7542SOL     OW23524   1.660   0.202   6.239
 7542SOL    HW123525   1.607   0.132   6.189
 7542SOL    HW223526   1.705   0.263   6.173
 7543SOL     OW23527   3.416   2.187   0.617
 7543SOL    HW123528   3.349   2.210   0.687
 7543SOL    HW223529   3.373   2.195   0.527
 7544SOL     OW23530   1.238   1.798   2.571
 7544SOL    HW123531   1.263   1.893   2.552
 7544SOL    HW223532   1.319   1.740   2.565
 7545SOL     OW23533   4.168   0.376   4.004
 7545SOL    HW123534   4.240   0.388   3.936
 7545SOL    HW223535   4.080   0.401   3.965
 7546SOL     OW23536   5.276   0.060   5.891
 7546SOL    HW123537   5.280   7.017   5.817
 7546SOL    HW223538   5.360   0.115   5.890
 7547SOL     OW23539   3.107   0.318   7.005
 7547SOL    HW123540   3.010   0.328   6.985
 7547SOL    HW223541   3.122   0.334   0.079
 7548SOL     OW23542   1.576   3.126   1.286
 7548SOL    HW123543   1.530   3.080   1.362
 7548SOL    HW223544   1.537   3.094   1.199
 7549SOL     OW23545   5.853   1.165   2.759
 7549SOL    HW123546   5.792   1.242   2.773
 7549SOL    HW223547   5.885   1.165   2.664
 7550SOL     OW23548   1.349   5.301   1.170
 7550SOL    HW123549   1.275   5.338   1.225
 7550SOL    HW223550   1.317   5.284   1.077
 7551SOL     OW23551   5.284   3.969   6.446
 7551SOL    HW123552   5.220   3.894   6.461
 7551SOL    HW223553   5.358   3.937   6.386
 7552SOL     OW23554   3.685   5.450   3.811
 7552SOL    HW123555   3.684   5.515   3.735
 7552SOL    HW223556   3.770   5.460   3.863
 7553SOL     OW23557   4.123   4.084   6.077
 7553SOL    HW123558   4.160   4.128   5.995
 7553SOL    HW223559   4.024   4.101   6.082
 7554SOL     OW23560   0.184   1.544   0.858
 7554SOL    HW123561   0.098   1.566   0.811
 7554SOL    HW223562   0.188   1.594   0.945
 7555SOL     OW23563   1.264   5.795   5.821
 7555SOL    HW123564   1.337   5.727   5.815
 7555SOL    HW223565   1.203   5.773   5.897
 7556SOL     OW23566   6.419   4.301   3.374
 7556SOL    HW123567   6.405   4.212   3.419
 7556SOL    HW223568   6.444   4.286   3.279
 7557SOL     OW23569   3.755   3.698   0.778
 7557SOL    HW123570   3.852   3.679   0.766
 7557SOL    HW223571   3.711   3.621   0.824
 7558SOL     OW23572   1.580   2.774   3.080
 7558SOL    HW123573   1.549   2.691   3.033
 7558SOL    HW223574   1.559   2.766   3.177
 7559SOL     OW23575   1.234   4.879   0.170
 7559SOL    HW123576   1.248   4.827   0.086
 7559SOL    HW223577   1.315   4.873   0.228
 7560SOL     OW23578   4.689   0.471   5.435
 7560SOL    HW123579   4.771   0.520   5.405
 7560SOL    HW223580   4.703   0.437   5.528
 7561SOL     OW23581   0.241   4.086   0.342
 7561SOL    HW123582   0.249   4.001   0.290
 7561SOL    HW223583   0.195   4.155   0.286
 7562SOL     OW23584   4.708   6.078   4.902
 7562SOL    HW123585   4.677   6.040   4.815
 7562SOL    HW223586   4.703   6.178   4.898
 7563SOL     OW23587   2.291   1.325   3.801
 7563SOL    HW123588   2.325   1.346   3.709
 7563SOL    HW223589   2.197   1.359   3.810
 7564SOL     OW23590   5.600   5.452   4.138
 7564SOL    HW123591   5.605   5.546   4.104
 7564SOL    HW223592   5.544   5.397   4.076
 7565SOL     OW23593   4.845   5.346   6.875
 7565SOL    HW123594   4.796   5.404   6.809
 7565SOL    HW223595   4.780   5.309   6.941
 7566SOL     OW23596   1.582   5.954   4.480
 7566SOL    HW123597   1.490   5.914   4.484
 7566SOL    HW223598   1.648   5.891   4.520
 7567SOL     OW23599   2.879   3.137   0.608
 7567SOL    HW123600   2.949   3.068   0.590
 7567SOL    HW223601   2.789   3.095   0.603
 7568SOL     OW23602   4.262   4.794   2.696
 7568SOL    HW123603   4.340   4.819   2.638
 7568SOL    HW223604   4.178   4.832   2.656
 7569SOL     OW23605   3.709   0.153   1.881
 7569SOL    HW123606   3.765   0.192   1.808
 7569SOL    HW223607   3.756   0.163   1.968
 7570SOL     OW23608   5.871   4.721   4.873
 7570SOL    HW123609   5.855   4.766   4.786
 7570SOL    HW223610   5.962   4.747   4.907
 7571SOL     OW23611   5.889   4.307   1.201
 7571SOL    HW123612   5.942   4.391   1.216
 7571SOL    HW223613   5.805   4.330   1.152
 7572SOL     OW23614   0.134   1.212   3.163
 7572SOL    HW123615   0.122   1.114   3.179
 7572SOL    HW223616   0.123   1.262   3.249
 7573SOL     OW23617   2.797   5.324   5.416
 7573SOL    HW123618   2.889   5.342   5.452
 7573SOL    HW223619   2.804   5.267   5.335
 7574SOL     OW23620   5.011   6.549   2.167
 7574SOL    HW123621   4.913   6.532   2.179
 7574SOL    HW223622   5.048   6.484   2.101
 7575SOL     OW23623   4.680   2.729   4.595
 7575SOL    HW123624   4.638   2.792   4.530
 7575SOL    HW223625   4.609   2.682   4.647
 7576SOL     OW23626   7.003   3.810   1.297
 7576SOL    HW123627   6.936   3.739   1.274
 7576SOL    HW223628   0.070   3.780   1.266
 7577SOL     OW23629   4.568   0.959   4.828
 7577SOL    HW123630   4.520   0.968   4.740
 7577SOL    HW223631   4.518   0.896   4.886
 7578SOL     OW23632   2.434   5.029   4.762
 7578SOL    HW123633   2.526   5.068   4.759
 7578SOL    HW223634   2.372   5.088   4.710
 7579SOL     OW23635   4.324   2.374   3.714
 7579SOL    HW123636   4.241   2.423   3.741
 7579SOL    HW223637   4.381   2.360   3.795
 7580SOL     OW23638   2.104   3.276   2.183
 7580SOL    HW123639   2.153   3.359   2.157
 7580SOL    HW223640   2.072   3.228   2.101
 7581SOL     OW23641   5.202   0.910   0.964
 7581SOL    HW123642   5.215   0.842   1.036
 7581SOL    HW223643   5.281   0.971   0.961
 7582SOL     OW23644   3.385   2.257   0.957
 7582SOL    HW123645   3.483   2.257   0.978
 7582SOL    HW223646   3.358   2.348   0.926
 7583SOL     OW23647   0.137   4.297   2.617
 7583SOL    HW123648   0.097   4.212   2.652
 7583SOL    HW223649   0.237   4.288   2.615
 7584SOL     OW23650   2.056   1.860   1.518
 7584SOL    HW123651   2.076   1.846   1.421
 7584SOL    HW223652   2.120   1.808   1.574
 7585SOL     OW23653   1.385   4.874   6.257
 7585SOL    HW123654   1.471   4.910   6.222
 7585SOL    HW223655   1.381   4.776   6.242
 7586SOL     OW23656   2.072   1.879   2.811
 7586SOL    HW123657   2.164   1.840   2.820
 7586SOL    HW223658   2.041   1.870   2.717
 7587SOL     OW23659   2.277   1.122   6.031
 7587SOL    HW123660   2.227   1.090   5.951
 7587SOL    HW223661   2.325   1.207   6.008
 7588SOL     OW23662   0.961   4.181   1.905
 7588SOL    HW123663   1.004   4.160   1.817
 7588SOL    HW223664   1.026   4.226   1.965
 7589SOL     OW23665   5.264   6.317   6.618
 7589SOL    HW123666   5.323   6.310   6.698
 7589SOL    HW223667   5.291   6.250   6.549
 7590SOL     OW23668   1.922   0.513   6.133
 7590SOL    HW123669   1.908   0.497   6.231
 7590SOL    HW223670   1.914   0.611   6.114
 7591SOL     OW23671   6.454   5.563   6.779
 7591SOL    HW123672   6.470   5.624   6.702
 7591SOL    HW223673   6.418   5.615   6.856
 7592SOL     OW23674   4.468   5.033   6.150
 7592SOL    HW123675   4.462   5.125   6.189
 7592SOL    HW223676   4.564   5.007   6.141
 7593SOL     OW23677   5.901   4.705   0.849
 7593SOL    HW123678   5.919   4.664   0.760
 7593SOL    HW223679   5.839   4.782   0.839
 7594SOL     OW23680   1.070   6.811   3.975
 7594SOL    HW123681   1.132   6.740   4.009
 7594SOL    HW223682   1.052   6.795   3.878
 7595SOL     OW23683   5.988   2.687   6.829
 7595SOL    HW123684   6.004   2.709   6.925
 7595SOL    HW223685   6.053   2.737   6.772
 7596SOL     OW23686   4.506   4.961   1.934
 7596SOL    HW123687   4.423   4.991   1.982
 7596SOL    HW223688   4.515   4.862   1.941
 7597SOL     OW23689   2.435   5.737   1.615
 7597SOL    HW123690   2.395   5.647   1.599
 7597SOL    HW223691   2.460   5.778   1.527
 7598SOL     OW23692   6.578   0.800   2.378
 7598SOL    HW123693   6.561   0.893   2.408
 7598SOL    HW223694   6.667   0.795   2.333
 7599SOL     OW23695   6.309   2.675   2.313
 7599SOL    HW123696   6.300   2.761   2.363
 7599SOL    HW223697   6.363   2.691   2.230
 7600SOL     OW23698   2.302   2.122   3.082
 7600SOL    HW123699   2.348   2.042   3.123
 7600SOL    HW223700   2.344   2.144   2.994
 7601SOL     OW23701   1.876   0.420   5.158
 7601SOL    HW123702   1.877   0.338   5.102
 7601SOL    HW223703   1.826   0.402   5.243
 7602SOL     OW23704   2.184   3.329   5.363
 7602SOL    HW123705   2.261   3.265   5.370
 7602SOL    HW223706   2.218   3.418   5.330
 7603SOL     OW23707   6.728   1.237   1.798
 7603SOL    HW123708   6.629   1.242   1.790
 7603SOL    HW223709   6.752   1.191   1.883
 7604SOL     OW23710   5.090   5.467   6.858
 7604SOL    HW123711   5.101   5.480   6.759
 7604SOL    HW223712   5.008   5.412   6.875
 7605SOL     OW23713   5.803   3.452   6.125
 7605SOL    HW123714   5.840   3.366   6.090
 7605SOL    HW223715   5.720   3.476   6.076
 7606SOL     OW23716   5.830   1.640   3.359
 7606SOL    HW123717   5.838   1.542   3.341
 7606SOL    HW223718   5.920   1.677   3.384
 7607SOL     OW23719   4.791   6.687   6.006
 7607SOL    HW123720   4.817   6.668   5.911
 7607SOL    HW223721   4.831   6.618   6.066
 7608SOL     OW23722   3.788   3.179   4.733
 7608SOL    HW123723   3.697   3.149   4.761
 7608SOL    HW223724   3.822   3.121   4.660
 7609SOL     OW23725   1.892   2.683   3.419
 7609SOL    HW123726   1.799   2.701   3.385
 7609SOL    HW223727   1.888   2.660   3.516
 7610SOL     OW23728   5.473   0.734   2.098
 7610SOL    HW123729   5.535   0.777   2.033
 7610SOL    HW223730   5.472   0.635   2.083
 7611SOL     OW23731   2.076   2.123   1.538
 7611SOL    HW123732   2.072   2.027   1.512
 7611SOL    HW223733   2.165   2.161   1.515
 7612SOL     OW23734   4.467   1.738   2.674
 7612SOL    HW123735   4.441   1.833   2.654
 7612SOL    HW223736   4.554   1.737   2.723
 7613SOL     OW23737   5.725   0.635   3.257
 7613SOL    HW123738   5.746   0.718   3.309
 7613SOL    HW223739   5.629   0.637   3.228
 7614SOL     OW23740   3.984   1.060   0.402
 7614SOL    HW123741   3.938   1.005   0.333
 7614SOL    HW223742   3.942   1.151   0.406
 7615SOL     OW23743   3.931   4.693   6.333
 7615SOL    HW123744   3.896   4.599   6.329
 7615SOL    HW223745   4.023   4.692   6.374
 7616SOL     OW23746   6.773   4.654   3.215
 7616SOL    HW123747   6.698   4.635   3.152
 7616SOL    HW223748   6.738   4.658   3.308
 7617SOL     OW23749   3.573   5.985   3.189
 7617SOL    HW123750   3.503   5.988   3.260
 7617SOL    HW223751   3.596   5.890   3.167
 7618SOL     OW23752   2.116   2.098   0.708
 7618SOL    HW123753   2.144   2.026   0.771
 7618SOL    HW223754   2.031   2.071   0.662
 7619SOL     OW23755   6.189   3.363   5.840
 7619SOL    HW123756   6.254   3.418   5.893
 7619SOL    HW223757   6.131   3.311   5.903
 7620SOL     OW23758   3.058   6.558   1.489
 7620SOL    HW123759   2.970   6.510   1.483
 7620SOL    HW223760   3.112   6.520   1.564
 7621SOL     OW23761   2.319   2.681   1.074
 7621SOL    HW123762   2.255   2.757   1.086
 7621SOL    HW223763   2.278   2.611   1.017
 7622SOL     OW23764   4.563   1.629   1.095
 7622SOL    HW123765   4.483   1.579   1.061
 7622SOL    HW223766   4.617   1.663   1.018
 7623SOL     OW23767   5.644   0.182   5.413
 7623SOL    HW123768   5.687   0.246   5.350
 7623SOL    HW223769   5.574   0.128   5.365
 7624SOL     OW23770   0.044   1.143   4.099
 7624SOL    HW123771   0.044   1.102   4.190
 7624SOL    HW223772   0.021   1.073   4.031
 7625SOL     OW23773   3.629   6.028   0.687
 7625SOL    HW123774   3.718   6.037   0.642
 7625SOL    HW223775   3.557   6.024   0.618
 7626SOL     OW23776   2.274   4.256   4.901
 7626SOL    HW123777   2.272   4.162   4.934
 7626SOL    HW223778   2.355   4.269   4.844
 7627SOL     OW23779   6.531   1.466   6.920
 7627SOL    HW123780   6.608   1.458   6.983
 7627SOL    HW223781   6.482   1.379   6.916
 7628SOL     OW23782   4.654   1.363   0.996
 7628SOL    HW123783   4.561   1.394   1.017
 7628SOL    HW223784   4.716   1.442   0.993
 7629SOL     OW23785   6.295   5.694   3.182
 7629SOL    HW123786   6.308   5.618   3.118
 7629SOL    HW223787   6.253   5.659   3.266
 7630SOL     OW23788   6.374   1.360   2.132
 7630SOL    HW123789   6.311   1.416   2.078
 7630SOL    HW223790   6.385   1.271   2.088
 7631SOL     OW23791   1.437   1.101   3.219
 7631SOL    HW123792   1.461   1.014   3.176
 7631SOL    HW223793   1.441   1.091   3.319
 7632SOL     OW23794   4.396   0.748   5.457
 7632SOL    HW123795   4.332   0.814   5.496
 7632SOL    HW223796   4.446   0.790   5.381
 7633SOL     OW23797   5.465   4.350   6.434
 7633SOL    HW123798   5.372   4.319   6.450
 7633SOL    HW223799   5.527   4.272   6.433
 7634SOL     OW23800   0.778   2.676   2.120
 7634SOL    HW123801   0.688   2.676   2.077
 7634SOL    HW223802   0.822   2.588   2.105
 7635SOL     OW23803   2.706   4.680   5.854
 7635SOL    HW123804   2.775   4.678   5.927
 7635SOL    HW223805   2.702   4.771   5.814
 7636SOL     OW23806   2.055   0.178   3.434
 7636SOL    HW123807   2.103   0.096   3.466
 7636SOL    HW223808   2.016   0.226   3.513
 7637SOL     OW23809   2.747   6.278   3.945
 7637SOL    HW123810   2.708   6.362   3.907
 7637SOL    HW223811   2.734   6.277   4.044
 7638SOL     OW23812   4.301   4.478   1.768
 7638SOL    HW123813   4.335   4.389   1.797
 7638SOL    HW223814   4.375   4.528   1.722
 7639SOL     OW23815   6.971   1.984   4.241
 7639SOL    HW123816   0.000   1.913   4.194
 7639SOL    HW223817   6.892   1.942   4.286
 7640SOL     OW23818   2.528   3.215   5.561
 7640SOL    HW123819   2.504   3.299   5.610
 7640SOL    HW223820   2.620   3.225   5.523
 7641SOL     OW23821   6.264   2.887   3.352
 7641SOL    HW123822   6.246   2.971   3.301
 7641SOL    HW223823   6.228   2.809   3.301
 7642SOL     OW23824   1.763   1.316   2.473
 7642SOL    HW123825   1.786   1.326   2.570
 7642SOL    HW223826   1.669   1.347   2.458
 7643SOL     OW23827   5.472   2.799   3.371
 7643SOL    HW123828   5.553   2.807   3.313
 7643SOL    HW223829   5.456   2.887   3.417
 7644SOL     OW23830   6.310   3.849   3.601
 7644SOL    HW123831   6.234   3.790   3.629
 7644SOL    HW223832   6.395   3.796   3.600
 7645SOL     OW23833   3.875   3.161   0.201
 7645SOL    HW123834   3.864   3.154   0.102
 7645SOL    HW223835   3.930   3.084   0.234
 7646SOL     OW23836   0.576   1.088   1.772
 7646SOL    HW123837   0.520   1.028   1.715
 7646SOL    HW223838   0.583   1.178   1.729
 7647SOL     OW23839   2.317   4.701   0.472
 7647SOL    HW123840   2.337   4.763   0.396
 7647SOL    HW223841   2.392   4.635   0.482
 7648SOL     OW23842   3.616   0.591   3.980
 7648SOL    HW123843   3.690   0.596   4.047
 7648SOL    HW223844   3.563   0.676   3.983
 7649SOL     OW23845   3.108   1.519   1.455
 7649SOL    HW123846   3.031   1.552   1.401
 7649SOL    HW223847   3.193   1.563   1.424
 7650SOL     OW23848   6.030   4.314   0.634
 7650SOL    HW123849   5.994   4.249   0.568
 7650SOL    HW223850   6.103   4.271   0.688
 7651SOL     OW23851   5.060   2.557   6.207
 7651SOL    HW123852   5.101   2.474   6.244
 7651SOL    HW223853   4.968   2.569   6.245
 7652SOL     OW23854   1.206   3.659   3.091
 7652SOL    HW123855   1.228   3.574   3.043
 7652SOL    HW223856   1.254   3.735   3.048
 7653SOL     OW23857   4.120   2.142   2.471
 7653SOL    HW123858   4.154   2.188   2.553
 7653SOL    HW223859   4.196   2.110   2.416
 7654SOL     OW23860   5.199   3.576   4.025
 7654SOL    HW123861   5.250   3.660   4.007
 7654SOL    HW223862   5.236   3.502   3.969
 7655SOL     OW23863   5.168   5.423   5.369
 7655SOL    HW123864   5.260   5.393   5.393
 7655SOL    HW223865   5.122   5.458   5.451
 7656SOL     OW23866   1.091   6.892   4.489
 7656SOL    HW123867   1.017   6.946   4.448
 7656SOL    HW223868   1.179   6.919   4.450
 7657SOL     OW23869   4.518   1.454   3.820
 7657SOL    HW123870   4.533   1.513   3.899
 7657SOL    HW223871   4.517   1.358   3.848
 7658SOL     OW23872   4.362   0.085   6.232
 7658SOL    HW123873   4.375   0.172   6.280
 7658SOL    HW223874   4.371   0.010   6.296
 7659SOL     OW23875   5.139   6.034   0.179
 7659SOL    HW123876   5.060   6.052   0.237
 7659SOL    HW223877   5.179   6.121   0.150
 7660SOL     OW23878   5.710   4.792   4.357
 7660SOL    HW123879   5.729   4.761   4.264
 7660SOL    HW223880   5.794   4.788   4.412
 7661SOL     OW23881   6.008   3.034   4.174
 7661SOL    HW123882   5.983   3.028   4.271
 7661SOL    HW223883   6.102   3.066   4.166
 7662SOL     OW23884   6.323   5.509   3.011
 7662SOL    HW123885   6.412   5.468   3.032
 7662SOL    HW223886   6.269   5.445   2.956
 7663SOL     OW23887   6.724   5.732   0.397
 7663SOL    HW123888   6.715   5.822   0.353
 7663SOL    HW223889   6.756   5.744   0.491
 7664SOL     OW23890   2.586   5.496   5.086
 7664SOL    HW123891   2.576   5.404   5.124
 7664SOL    HW223892   2.554   5.563   5.152
 7665SOL     OW23893   2.816   5.266   4.193
 7665SOL    HW123894   2.863   5.184   4.224
 7665SOL    HW223895   2.734   5.240   4.142
 7666SOL     OW23896   2.662   0.949   1.753
 7666SOL    HW123897   2.728   1.006   1.704
 7666SOL    HW223898   2.706   0.862   1.778
 7667SOL     OW23899   5.106   6.018   5.732
 7667SOL    HW123900   5.080   6.113   5.746
 7667SOL    HW223901   5.186   5.996   5.788
 7668SOL     OW23902   3.188   4.100   1.574
 7668SOL    HW123903   3.168   4.161   1.498
 7668SOL    HW223904   3.110   4.099   1.637
 7669SOL     OW23905   4.444   6.158   4.792
 7669SOL    HW123906   4.364   6.135   4.738
 7669SOL    HW223907   4.461   6.086   4.859
 7670SOL     OW23908   1.113   5.633   0.778
 7670SOL    HW123909   1.131   5.684   0.862
 7670SOL    HW223910   1.029   5.580   0.788
 7671SOL     OW23911   5.620   2.555   4.674
 7671SOL    HW123912   5.631   2.542   4.575
 7671SOL    HW223913   5.667   2.639   4.702
 7672SOL     OW23914   6.045   0.414   1.760
 7672SOL    HW123915   6.002   0.426   1.850
 7672SOL    HW223916   6.108   0.336   1.764
 7673SOL     OW23917   0.155   3.859   6.915
 7673SOL    HW123918   0.122   3.948   6.886
 7673SOL    HW223919   0.241   3.838   6.868
 7674SOL     OW23920   6.285   0.790   5.130
 7674SOL    HW123921   6.229   0.744   5.061
 7674SOL    HW223922   6.242   0.876   5.156
 7675SOL     OW23923   5.322   7.019   3.144
 7675SOL    HW123924   5.364   0.066   3.087
 7675SOL    HW223925   5.390   6.981   3.207
 7676SOL     OW23926   1.582   0.479   1.543
 7676SOL    HW123927   1.515   0.431   1.486
 7676SOL    HW223928   1.674   0.445   1.523
 7677SOL     OW23929   1.783   1.919   2.705
 7677SOL    HW123930   1.793   2.018   2.708
 7677SOL    HW223931   1.845   1.881   2.636
 7678SOL     OW23932   5.262   6.699   6.012
 7678SOL    HW123933   5.213   6.765   6.070
 7678SOL    HW223934   5.281   6.740   5.923
 7679SOL     OW23935   1.096   5.278   4.656
 7679SOL    HW123936   1.143   5.211   4.599
 7679SOL    HW223937   1.000   5.285   4.628
 7680SOL     OW23938   5.458   0.928   6.611
 7680SOL    HW123939   5.558   0.930   6.615
 7680SOL    HW223940   5.429   0.886   6.526
 7681SOL     OW23941   2.785   1.991   6.338
 7681SOL    HW123942   2.827   1.921   6.280
 7681SOL    HW223943   2.850   2.065   6.354
 7682SOL     OW23944   2.767   6.963   1.217
 7682SOL    HW123945   2.757   0.022   1.161
 7682SOL    HW223946   2.677   6.925   1.235
 7683SOL     OW23947   6.818   2.011   2.922
 7683SOL    HW123948   6.795   1.913   2.924
 7683SOL    HW223949   6.917   2.022   2.925
 7684SOL     OW23950   4.186   2.689   6.208
 7684SOL    HW123951   4.163   2.709   6.113
 7684SOL    HW223952   4.103   2.693   6.264
 7685SOL     OW23953   4.177   3.811   1.262
 7685SOL    HW123954   4.141   3.776   1.349
 7685SOL    HW223955   4.265   3.856   1.278
 7686SOL     OW23956   3.364   0.940   3.719
 7686SOL    HW123957   3.280   0.887   3.706
 7686SOL    HW223958   3.357   1.026   3.669
 7687SOL     OW23959   4.381   4.913   6.458
 7687SOL    HW123960   4.388   4.965   6.374
 7687SOL    HW223961   4.340   4.970   6.529
 7688SOL     OW23962   6.756   0.430   3.058
 7688SOL    HW123963   6.796   0.509   3.102
 7688SOL    HW223964   6.808   0.348   3.081
 7689SOL     OW23965   3.159   6.111   4.897
 7689SOL    HW123966   3.207   6.145   4.978
 7689SOL    HW223967   3.163   6.179   4.824
 7690SOL     OW23968   0.705   5.170   2.141
 7690SOL    HW123969   0.640   5.158   2.215
 7690SOL    HW223970   0.797   5.183   2.178
 7691SOL     OW23971   6.097   3.735   5.727
 7691SOL    HW123972   6.041   3.810   5.761
 7691SOL    HW223973   6.120   3.751   5.631
 7692SOL     OW23974   1.461   6.494   1.294
 7692SOL    HW123975   1.442   6.453   1.384
 7692SOL    HW223976   1.512   6.429   1.238
 7693SOL     OW23977   5.655   1.456   0.473
 7693SOL    HW123978   5.599   1.539   0.463
 7693SOL    HW223979   5.742   1.479   0.516
 7694SOL     OW23980   5.861   5.340   4.134
 7694SOL    HW123981   5.824   5.352   4.042
 7694SOL    HW223982   5.815   5.403   4.197
 7695SOL     OW23983   4.441   0.316   6.404
 7695SOL    HW123984   4.459   0.293   6.500
 7695SOL    HW223985   4.342   0.326   6.391
 7696SOL     OW23986   1.397   4.370   5.547
 7696SOL    HW123987   1.406   4.293   5.610
 7696SOL    HW223988   1.389   4.336   5.454
 7697SOL     OW23989   4.618   1.692   2.455
 7697SOL    HW123990   4.608   1.592   2.450
 7697SOL    HW223991   4.563   1.727   2.531
 7698SOL     OW23992   0.049   2.854   5.506
 7698SOL    HW123993   0.072   2.949   5.525
 7698SOL    HW223994   0.062   2.835   5.409
 7699SOL     OW23995   2.821   4.482   0.334
 7699SOL    HW123996   2.885   4.508   0.407
 7699SOL    HW223997   2.866   4.417   0.272
 7700SOL     OW23998   5.774   6.721   4.567
 7700SOL    HW123999   5.847   6.741   4.502
 7700SOL    HW224000   5.685   6.739   4.525
 7701SOL     OW24001   6.623   2.242   5.217
 7701SOL    HW124002   6.560   2.282   5.151
 7701SOL    HW224003   6.604   2.278   5.308
 7702SOL     OW24004   1.901   6.165   5.889
 7702SOL    HW124005   1.821   6.106   5.875
 7702SOL    HW224006   1.871   6.258   5.912
 7703SOL     OW24007   0.619   2.595   5.432
 7703SOL    HW124008   0.527   2.560   5.414
 7703SOL    HW224009   0.686   2.532   5.394
 7704SOL     OW24010   3.022   4.421   1.145
 7704SOL    HW124011   3.074   4.398   1.063
 7704SOL    HW224012   3.047   4.513   1.176
 7705SOL     OW24013   3.620   4.126   5.144
 7705SOL    HW124014   3.610   4.121   5.243
 7705SOL    HW224015   3.558   4.060   5.101
 7706SOL     OW24016   6.713   0.898   5.298
 7706SOL    HW124017   6.737   0.994   5.283
 7706SOL    HW224018   6.614   0.889   5.308
 7707SOL     OW24019   0.324   5.589   6.863
 7707SOL    HW124020   0.364   5.499   6.847
 7707SOL    HW224021   0.245   5.601   6.804
 7708SOL     OW24022   5.249   1.508   4.348
 7708SOL    HW124023   5.310   1.502   4.426
 7708SOL    HW224024   5.174   1.442   4.358
 7709SOL     OW24025   3.872   2.135   1.758
 7709SOL    HW124026   3.787   2.173   1.796
 7709SOL    HW224027   3.950   2.167   1.812
 7710SOL     OW24028   3.185   2.359   6.356
 7710SOL    HW124029   3.256   2.416   6.398
 7710SOL    HW224030   3.228   2.292   6.295
 7711SOL     OW24031   4.714   5.976   4.625
 7711SOL    HW124032   4.662   5.954   4.543
 7711SOL    HW224033   4.810   5.987   4.602
 7712SOL     OW24034   4.981   4.764   0.205
 7712SOL    HW124035   5.032   4.810   0.132
 7712SOL    HW224036   4.937   4.682   0.168
 7713SOL     OW24037   0.484   5.577   6.358
 7713SOL    HW124038   0.399   5.552   6.405
 7713SOL    HW224039   0.532   5.494   6.330
 7714SOL     OW24040   5.188   3.700   4.334
 7714SOL    HW124041   5.182   3.602   4.349
 7714SOL    HW224042   5.112   3.729   4.275
 7715SOL     OW24043   4.047   2.232   2.085
 7715SOL    HW124044   4.026   2.321   2.127
 7715SOL    HW224045   3.969   2.170   2.096
 7716SOL     OW24046   4.492   2.347   3.931
 7716SOL    HW124047   4.517   2.254   3.960
 7716SOL    HW224048   4.453   2.397   4.008
 7717SOL     OW24049   3.072   0.376   6.712
 7717SOL    HW124050   3.063   0.303   6.645
 7717SOL    HW224051   3.032   0.348   6.799
 7718SOL     OW24052   2.876   6.479   4.253
 7718SOL    HW124053   2.777   6.490   4.239
 7718SOL    HW224054   2.908   6.547   4.319
 7719SOL     OW24055   5.902   2.905   5.103
 7719SOL    HW124056   5.821   2.929   5.156
 7719SOL    HW224057   5.977   2.882   5.166
 7720SOL     OW24058   5.757   6.399   1.903
 7720SOL    HW124059   5.670   6.439   1.933
 7720SOL    HW224060   5.761   6.400   1.803
 7721SOL     OW24061   0.947   4.892   2.572
 7721SOL    HW124062   0.927   4.881   2.475
 7721SOL    HW224063   0.973   4.804   2.611
 7722SOL     OW24064   0.740   6.203   4.216
 7722SOL    HW124065   0.680   6.279   4.241
 7722SOL    HW224066   0.762   6.150   4.298
 7723SOL     OW24067   6.980   2.199   0.508
 7723SOL    HW124068   0.015   2.254   0.569
 7723SOL    HW224069   6.917   2.260   0.459
 7724SOL     OW24070   1.664   6.155   0.344
 7724SOL    HW124071   1.660   6.225   0.415
 7724SOL    HW224072   1.667   6.065   0.387
 7725SOL     OW24073   4.907   3.413   4.263
 7725SOL    HW124074   5.002   3.422   4.294
 7725SOL    HW224075   4.904   3.424   4.164
 7726SOL     OW24076   5.615   4.245   3.525
 7726SOL    HW124077   5.562   4.306   3.583
 7726SOL    HW224078   5.554   4.197   3.462
 7727SOL     OW24079   5.629   2.866   2.105
 7727SOL    HW124080   5.565   2.920   2.160
 7727SOL    HW224081   5.719   2.909   2.106
 7728SOL     OW24082   2.492   2.513   2.269
 7728SOL    HW124083   2.427   2.587   2.249
 7728SOL    HW224084   2.539   2.487   2.185
 7729SOL     OW24085   4.821   2.386   0.119
 7729SOL    HW124086   4.836   2.450   0.044
 7729SOL    HW224087   4.778   2.434   0.196
 7730SOL     OW24088   4.632   0.516   1.961
 7730SOL    HW124089   4.704   0.585   1.951
 7730SOL    HW224090   4.596   0.519   2.054
 7731SOL     OW24091   0.020   1.822   4.630
 7731SOL    HW124092   0.010   1.818   4.729
 7731SOL    HW224093   0.023   1.729   4.592
 7732SOL     OW24094   4.145   5.313   0.591
 7732SOL    HW124095   4.104   5.240   0.538
 7732SOL    HW224096   4.082   5.342   0.663
 7733SOL     OW24097   2.680   6.555   0.796
 7733SOL    HW124098   2.681   6.592   0.888
 7733SOL    HW224099   2.774   6.543   0.763
 7734SOL     OW24100   1.776   2.846   2.473
 7734SOL    HW124101   1.778   2.945   2.487
 7734SOL    HW224102   1.830   2.823   2.392
 7735SOL     OW24103   5.238   4.317   1.023
 7735SOL    HW124104   5.187   4.299   0.938
 7735SOL    HW224105   5.239   4.416   1.039
 7736SOL     OW24106   5.550   4.540   6.251
 7736SOL    HW124107   5.507   4.481   6.319
 7736SOL    HW224108   5.635   4.497   6.219
 7737SOL     OW24109   4.830   2.680   0.557
 7737SOL    HW124110   4.876   2.716   0.637
 7737SOL    HW224111   4.837   2.745   0.481
 7738SOL     OW24112   1.934   5.055   0.049
 7738SOL    HW124113   1.962   4.999   0.127
 7738SOL    HW224114   1.852   5.015   0.007
 7739SOL     OW24115   5.592   3.599   2.791
 7739SOL    HW124116   5.554   3.636   2.706
 7739SOL    HW224117   5.555   3.649   2.869
 7740SOL     OW24118   0.534   6.050   3.648
 7740SOL    HW124119   0.570   5.970   3.601
 7740SOL    HW224120   0.485   6.108   3.582
 7741SOL     OW24121   3.068   5.730   4.783
 7741SOL    HW124122   3.144   5.787   4.815
 7741SOL    HW224123   3.090   5.634   4.798
 7742SOL     OW24124   6.678   1.160   4.037
 7742SOL    HW124125   6.658   1.066   4.064
 7742SOL    HW224126   6.717   1.162   3.945
 7743SOL     OW24127   4.858   3.036   2.220
 7743SOL    HW124128   4.798   3.028   2.141
 7743SOL    HW224129   4.952   3.052   2.190
 7744SOL     OW24130   0.436   6.515   5.151
 7744SOL    HW124131   0.385   6.486   5.070
 7744SOL    HW224132   0.532   6.530   5.127
 7745SOL     OW24133   4.761   3.337   5.274
 7745SOL    HW124134   4.727   3.430   5.260
 7745SOL    HW224135   4.785   3.297   5.186
 7746SOL     OW24136   1.365   0.213   6.506
 7746SOL    HW124137   1.424   0.251   6.434
 7746SOL    HW224138   1.421   0.157   6.568
 7747SOL     OW24139   4.974   5.017   1.081
 7747SOL    HW124140   4.905   5.088   1.072
 7747SOL    HW224141   5.025   5.030   1.166
 7748SOL     OW24142   2.480   4.048   6.340
 7748SOL    HW124143   2.389   4.080   6.314
 7748SOL    HW224144   2.511   4.096   6.422
 7749SOL     OW24145   5.577   3.967   6.183
 7749SOL    HW124146   5.675   3.947   6.181
 7749SOL    HW224147   5.563   4.065   6.172
 7750SOL     OW24148   5.313   5.250   2.878
 7750SOL    HW124149   5.229   5.225   2.831
 7750SOL    HW224150   5.356   5.168   2.916
 7751SOL     OW24151   0.535   2.722   0.983
 7751SOL    HW124152   0.516   2.736   1.080
 7751SOL    HW224153   0.607   2.785   0.954
 7752SOL     OW24154   3.986   1.466   3.568
 7752SOL    HW124155   4.023   1.391   3.514
 7752SOL    HW224156   3.905   1.434   3.618
 7753SOL     OW24157   3.629   1.670   5.430
 7753SOL    HW124158   3.625   1.650   5.332
 7753SOL    HW224159   3.555   1.733   5.455
 7754SOL     OW24160   5.464   5.498   1.729
 7754SOL    HW124161   5.475   5.482   1.827
 7754SOL    HW224162   5.502   5.421   1.678
 7755SOL     OW24163   0.493   5.112   5.146
 7755SOL    HW124164   0.425   5.089   5.076
 7755SOL    HW224165   0.563   5.041   5.149
 7756SOL     OW24166   2.345   4.700   2.347
 7756SOL    HW124167   2.286   4.625   2.375
 7756SOL    HW224168   2.418   4.712   2.415
 7757SOL     OW24169   0.194   4.142   0.865
 7757SOL    HW124170   0.147   4.228   0.847
 7757SOL    HW224171   0.206   4.131   0.964
 7758SOL     OW24172   0.050   1.830   5.296
 7758SOL    HW124173   0.147   1.853   5.299
 7758SOL    HW224174   0.012   1.853   5.207
 7759SOL     OW24175   3.555   1.100   2.509
 7759SOL    HW124176   3.652   1.124   2.503
 7759SOL    HW224177   3.500   1.180   2.484
 7760SOL     OW24178   5.091   3.086   0.005
 7760SOL    HW124179   5.112   3.018   6.959
 7760SOL    HW224180   5.114   3.177   6.994
 7761SOL     OW24181   5.012   5.103   3.385
 7761SOL    HW124182   5.006   5.145   3.294
 7761SOL    HW224183   5.095   5.134   3.430
 7762SOL     OW24184   5.313   1.860   1.981
 7762SOL    HW124185   5.296   1.956   1.961
 7762SOL    HW224186   5.300   1.805   1.898
 7763SOL     OW24187   2.116   0.224   3.137
 7763SOL    HW124188   2.085   0.231   3.232
 7763SOL    HW224189   2.048   0.267   3.077
 7764SOL     OW24190   3.166   4.657   5.530
 7764SOL    HW124191   3.254   4.703   5.517
 7764SOL    HW224192   3.103   4.683   5.457
 7765SOL     OW24193   5.371   4.285   4.578
 7765SOL    HW124194   5.368   4.202   4.633
 7765SOL    HW224195   5.338   4.265   4.486
 7766SOL     OW24196   6.257   2.597   6.279
 7766SOL    HW124197   6.266   2.505   6.316
 7766SOL    HW224198   6.167   2.608   6.238
 7767SOL     OW24199   4.625   0.274   4.100
 7767SOL    HW124200   4.539   0.223   4.103
 7767SOL    HW224201   4.699   0.217   4.135
 7768SOL     OW24202   3.705   5.838   4.683
 7768SOL    HW124203   3.718   5.764   4.617
 7768SOL    HW224204   3.780   5.904   4.675
 7769SOL     OW24205   3.719   2.858   0.082
 7769SOL    HW124206   3.748   2.910   0.162
 7769SOL    HW224207   3.620   2.852   0.080
 7770SOL     OW24208   1.275   3.622   3.823
 7770SOL    HW124209   1.350   3.680   3.854
 7770SOL    HW224210   1.212   3.676   3.766
 7771SOL     OW24211   1.088   4.018   5.062
 7771SOL    HW124212   1.134   3.929   5.069
 7771SOL    HW224213   0.997   4.011   5.103
 7772SOL     OW24214   5.265   6.236   2.411
 7772SOL    HW124215   5.337   6.246   2.342
 7772SOL    HW224216   5.212   6.320   2.418
 7773SOL     OW24217   2.940   0.232   6.490
 7773SOL    HW124218   2.891   0.149   6.513
 7773SOL    HW224219   2.883   0.312   6.509
 7774SOL     OW24220   4.967   1.139   2.367
 7774SOL    HW124221   4.899   1.205   2.333
 7774SOL    HW224222   5.047   1.140   2.308
 7775SOL     OW24223   3.246   1.605   1.090
 7775SOL    HW124224   3.302   1.528   1.121
 7775SOL    HW224225   3.153   1.574   1.074
 7776SOL     OW24226   3.198   0.973   4.409
 7776SOL    HW124227   3.224   0.876   4.408
 7776SOL    HW224228   3.252   1.021   4.477
 7777SOL     OW24229   5.744   5.340   3.252
 7777SOL    HW124230   5.839   5.338   3.284
 7777SOL    HW224231   5.726   5.428   3.209
 7778SOL     OW24232   0.742   4.311   2.424
 7778SOL    HW124233   0.829   4.285   2.381
 7778SOL    HW224234   0.760   4.381   2.494
 7779SOL     OW24235   3.454   6.408   1.965
 7779SOL    HW124236   3.368   6.451   1.995
 7779SOL    HW224237   3.489   6.350   2.038
 7780SOL     OW24238   6.753   5.601   4.290
 7780SOL    HW124239   6.759   5.673   4.221
 7780SOL    HW224240   6.740   5.513   4.245
 7781SOL     OW24241   2.602   3.062   0.607
 7781SOL    HW124242   2.506   3.038   0.593
 7781SOL    HW224243   2.643   2.997   0.672
 7782SOL     OW24244   5.949   4.114   4.752
 7782SOL    HW124245   5.952   4.197   4.696
 7782SOL    HW224246   5.875   4.123   4.820
 7783SOL     OW24247   1.450   6.450   4.207
 7783SOL    HW124248   1.466   6.538   4.252
 7783SOL    HW224249   1.429   6.380   4.275
 7784SOL     OW24250   1.973   1.849   2.536
 7784SOL    HW124251   2.011   1.913   2.469
 7784SOL    HW224252   1.977   1.756   2.499
 7785SOL     OW24253   6.384   6.077   2.850
 7785SOL    HW124254   6.357   6.059   2.755
 7785SOL    HW224255   6.483   6.062   2.860
 7786SOL     OW24256   5.199   0.949   6.227
 7786SOL    HW124257   5.126   1.011   6.253
 7786SOL    HW224258   5.210   0.951   6.127
 7787SOL     OW24259   1.991   2.570   1.184
 7787SOL    HW124260   1.931   2.490   1.174
 7787SOL    HW224261   1.982   2.607   1.276
 7788SOL     OW24262   0.878   3.508   1.621
 7788SOL    HW124263   0.821   3.495   1.701
 7788SOL    HW224264   0.939   3.430   1.610
 7789SOL     OW24265   3.871   1.146   6.006
 7789SOL    HW124266   3.811   1.120   5.931
 7789SOL    HW224267   3.916   1.064   6.043
 7790SOL     OW24268   4.103   4.905   4.099
 7790SOL    HW124269   4.152   4.838   4.043
 7790SOL    HW224270   4.015   4.927   4.055
 7791SOL     OW24271   2.851   5.758   1.598
 7791SOL    HW124272   2.835   5.722   1.690
 7791SOL    HW224273   2.885   5.685   1.539
 7792SOL     OW24274   1.310   1.470   2.440
 7792SOL    HW124275   1.223   1.474   2.392
 7792SOL    HW224276   1.347   1.563   2.451
 7793SOL     OW24277   4.932   1.509   1.009
 7793SOL    HW124278   4.890   1.477   0.924
 7793SOL    HW224279   5.031   1.506   1.000
 7794SOL     OW24280   1.704   1.165   3.149
 7794SOL    HW124281   1.749   1.078   3.132
 7794SOL    HW224282   1.607   1.150   3.168
 7795SOL     OW24283   3.934   3.833   1.533
 7795SOL    HW124284   4.001   3.767   1.499
 7795SOL    HW224285   3.941   3.841   1.632
 7796SOL     OW24286   3.392   1.695   0.495
 7796SOL    HW124287   3.476   1.665   0.450
 7796SOL    HW224288   3.338   1.750   0.431
 7797SOL     OW24289   1.309   6.033   2.791
 7797SOL    HW124290   1.402   6.071   2.790
 7797SOL    HW224291   1.255   6.077   2.719
 7798SOL     OW24292   2.002   3.578   0.979
 7798SOL    HW124293   2.037   3.576   0.886
 7798SOL    HW224294   1.939   3.501   0.993
 7799SOL     OW24295   2.621   6.335   4.579
 7799SOL    HW124296   2.569   6.406   4.532
 7799SOL    HW224297   2.696   6.303   4.521
 7800SOL     OW24298   1.553   1.086   2.244
 7800SOL    HW124299   1.589   1.068   2.153
 7800SOL    HW224300   1.545   1.185   2.258
 7801SOL     OW24301   1.481   2.160   0.676
 7801SOL    HW124302   1.431   2.086   0.720
 7801SOL    HW224303   1.487   2.143   0.578
 7802SOL     OW24304   6.367   4.621   3.741
 7802SOL    HW124305   6.412   4.656   3.824
 7802SOL    HW224306   6.282   4.670   3.725
 7803SOL     OW24307   3.042   2.709   5.635
 7803SOL    HW124308   2.964   2.750   5.588
 7803SOL    HW224309   3.012   2.629   5.687
 7804SOL     OW24310   2.619   1.836   5.279
 7804SOL    HW124311   2.579   1.881   5.200
 7804SOL    HW224312   2.595   1.887   5.362
 7805SOL     OW24313   5.541   3.165   6.778
 7805SOL    HW124314   5.559   3.108   6.858
 7805SOL    HW224315   5.577   3.257   6.794
 7806SOL     OW24316   6.223   1.994   5.267
 7806SOL    HW124317   6.225   2.094   5.262
 7806SOL    HW224318   6.304   1.961   5.316
 7807SOL     OW24319   1.685   5.294   5.713
 7807SOL    HW124320   1.773   5.260   5.747
 7807SOL    HW224321   1.637   5.221   5.664
 7808SOL     OW24322   0.006   3.604   3.663
 7808SOL    HW124323   0.004   3.702   3.642
 7808SOL    HW224324   0.077   3.560   3.609
 7809SOL     OW24325   4.757   6.456   2.291
 7809SOL    HW124326   4.667   6.480   2.256
 7809SOL    HW224327   4.754   6.363   2.329
 7810SOL     OW24328   1.727   7.017   5.703
 7810SOL    HW124329   1.774   6.973   5.779
 7810SOL    HW224330   1.760   0.087   5.692
 7811SOL     OW24331   1.504   5.930   3.156
 7811SOL    HW124332   1.514   5.832   3.140
 7811SOL    HW224333   1.594   5.974   3.158
 7812SOL     OW24334   2.701   1.257   5.955
 7812SOL    HW124335   2.604   1.246   5.976
 7812SOL    HW224336   2.745   1.307   6.029
 7813SOL     OW24337   5.505   1.230   0.534
 7813SOL    HW124338   5.580   1.292   0.510
 7813SOL    HW224339   5.516   1.144   0.484
 7814SOL     OW24340   5.961   2.400   1.812
 7814SOL    HW124341   5.943   2.351   1.726
 7814SOL    HW224342   6.011   2.340   1.874
 7815SOL     OW24343   4.949   5.091   3.709
 7815SOL    HW124344   4.922   5.140   3.625
 7815SOL    HW224345   4.973   5.157   3.779
 7816SOL     OW24346   1.033   1.136   5.097
 7816SOL    HW124347   1.041   1.057   5.157
 7816SOL    HW224348   1.123   1.179   5.087
 7817SOL     OW24349   4.429   1.938   6.414
 7817SOL    HW124350   4.334   1.929   6.444
 7817SOL    HW224351   4.448   2.035   6.396
 7818SOL     OW24352   5.998   1.078   3.182
 7818SOL    HW124353   6.036   1.115   3.267
 7818SOL    HW224354   6.047   1.117   3.104
 7819SOL     OW24355   1.494   2.535   4.745
 7819SOL    HW124356   1.469   2.446   4.783
 7819SOL    HW224357   1.587   2.557   4.773
 7820SOL     OW24358   1.244   1.252   5.650
 7820SOL    HW124359   1.208   1.184   5.714
 7820SOL    HW224360   1.297   1.206   5.579
 7821SOL     OW24361   3.875   5.490   6.703
 7821SOL    HW124362   3.897   5.580   6.666
 7821SOL    HW224363   3.879   5.493   6.803
 7822SOL     OW24364   0.544   1.419   4.511
 7822SOL    HW124365   0.558   1.422   4.610
 7822SOL    HW224366   0.516   1.510   4.479
 7823SOL     OW24367   2.860   2.992   6.096
 7823SOL    HW124368   2.872   2.906   6.046
 7823SOL    HW224369   2.892   2.980   6.190
 7824SOL     OW24370   5.911   4.070   3.233
 7824SOL    HW124371   5.938   4.021   3.315
 7824SOL    HW224372   5.889   4.004   3.161
 7825SOL     OW24373   4.047   3.246   2.954
 7825SOL    HW124374   4.034   3.184   3.032
 7825SOL    HW224375   4.010   3.205   2.871
 7826SOL     OW24376   6.287   0.240   0.853
 7826SOL    HW124377   6.373   0.289   0.869
 7826SOL    HW224378   6.270   0.177   0.929
 7827SOL     OW24379   4.033   3.708   0.417
 7827SOL    HW124380   4.065   3.614   0.418
 7827SOL    HW224381   4.104   3.767   0.379
 7828SOL     OW24382   1.262   6.650   1.203
 7828SOL    HW124383   1.328   6.584   1.240
 7828SOL    HW224384   1.210   6.607   1.129
 7829SOL     OW24385   3.476   3.711   2.544
 7829SOL    HW124386   3.501   3.625   2.500
 7829SOL    HW224387   3.384   3.704   2.581
 7830SOL     OW24388   6.676   3.712   0.539
 7830SOL    HW124389   6.734   3.659   0.601
 7830SOL    HW224390   6.588   3.665   0.527
 7831SOL     OW24391   2.005   2.511   0.356
 7831SOL    HW124392   2.017   2.417   0.388
 7831SOL    HW224393   1.982   2.570   0.433
 7832SOL     OW24394   3.548   2.887   6.118
 7832SOL    HW124395   3.522   2.810   6.061
 7832SOL    HW224396   3.571   2.966   6.060
 7833SOL     OW24397   6.676   6.329   1.624
 7833SOL    HW124398   6.669   6.232   1.603
 7833SOL    HW224399   6.644   6.345   1.718
 7834SOL     OW24400   5.570   1.206   1.030
 7834SOL    HW124401   5.608   1.271   1.096
 7834SOL    HW224402   5.522   1.133   1.079
 7835SOL     OW24403   2.132   2.276   4.124
 7835SOL    HW124404   2.212   2.229   4.088
 7835SOL    HW224405   2.077   2.213   4.178
 7836SOL     OW24406   2.128   0.489   0.331
 7836SOL    HW124407   2.078   0.522   0.411
 7836SOL    HW224408   2.207   0.435   0.361
 7837SOL     OW24409   5.465   5.710   2.402
 7837SOL    HW124410   5.539   5.775   2.414
 7837SOL    HW224411   5.392   5.751   2.347
 7838SOL     OW24412   4.079   6.077   4.113
 7838SOL    HW124413   4.099   6.032   4.026
 7838SOL    HW224414   4.011   6.149   4.099
 7839SOL     OW24415   6.927   4.333   3.696
 7839SOL    HW124416   6.872   4.409   3.732
 7839SOL    HW224417   7.023   4.359   3.693
 7840SOL     OW24418   5.042   3.268   6.272
 7840SOL    HW124419   5.051   3.285   6.174
 7840SOL    HW224420   4.948   3.283   6.300
 7841SOL     OW24421   1.076   2.112   6.287
 7841SOL    HW124422   1.095   2.030   6.233
 7841SOL    HW224423   1.061   2.189   6.226
 7842SOL     OW24424   2.572   0.248   2.693
 7842SOL    HW124425   2.649   0.299   2.656
 7842SOL    HW224426   2.604   0.187   2.766
 7843SOL     OW24427   0.113   2.596   2.325
 7843SOL    HW124428   0.085   2.639   2.411
 7843SOL    HW224429   0.160   2.663   2.268
 7844SOL     OW24430   4.080   2.200   3.851
 7844SOL    HW124431   4.012   2.137   3.887
 7844SOL    HW224432   4.132   2.240   3.927
 7845SOL     OW24433   0.867   1.332   4.267
 7845SOL    HW124434   0.859   1.431   4.281
 7845SOL    HW224435   0.963   1.306   4.259
 7846SOL     OW24436   4.457   6.749   2.346
 7846SOL    HW124437   4.506   6.782   2.427
 7846SOL    HW224438   4.467   6.814   2.271
 7847SOL     OW24439   0.742   7.005   0.305
 7847SOL    HW124440   0.646   6.999   0.332
 7847SOL    HW224441   0.789   6.920   0.329
 7848SOL     OW24442   3.612   3.829   1.593
 7848SOL    HW124443   3.638   3.813   1.688
 7848SOL    HW224444   3.554   3.910   1.587
 7849SOL     OW24445   5.249   4.325   4.933
 7849SOL    HW124446   5.322   4.385   4.966
 7849SOL    HW224447   5.232   4.343   4.837
 7850SOL     OW24448   1.107   2.769   4.643
 7850SOL    HW124449   1.057   2.729   4.567
 7850SOL    HW224450   1.115   2.703   4.718
 7851SOL     OW24451   4.051   6.671   1.240
 7851SOL    HW124452   4.074   6.695   1.146
 7851SOL    HW224453   3.992   6.590   1.241
 7852SOL     OW24454   2.575   6.957   0.163
 7852SOL    HW124455   2.494   6.985   0.216
 7852SOL    HW224456   2.654   7.008   0.195
 7853SOL     OW24457   2.069   2.731   0.215
 7853SOL    HW124458   2.063   2.649   0.272
 7853SOL    HW224459   2.017   2.717   0.130
 7854SOL     OW24460   3.481   4.134   3.606
 7854SOL    HW124461   3.451   4.041   3.629
 7854SOL    HW224462   3.449   4.197   3.677
 7855SOL     OW24463   3.221   0.211   4.938
 7855SOL    HW124464   3.310   0.196   4.982
 7855SOL    HW224465   3.230   0.196   4.839
 7856SOL     OW24466   3.054   3.766   6.908
 7856SOL    HW124467   3.035   3.706   6.830
 7856SOL    HW224468   2.975   3.825   6.924
 7857SOL     OW24469   0.357   2.914   5.493
 7857SOL    HW124470   0.291   2.843   5.515
 7857SOL    HW224471   0.379   2.910   5.395
 7858SOL     OW24472   5.566   3.357   2.873
 7858SOL    HW124473   5.579   3.445   2.828
 7858SOL    HW224474   5.575   3.368   2.972
 7859SOL     OW24475   0.462   6.603   0.633
 7859SOL    HW124476   0.489   6.531   0.568
 7859SOL    HW224477   0.389   6.658   0.592
 7860SOL     OW24478   4.258   6.706   1.619
 7860SOL    HW124479   4.350   6.673   1.594
 7860SOL    HW224480   4.229   6.663   1.704
 7861SOL     OW24481   5.310   3.786   0.793
 7861SOL    HW124482   5.370   3.756   0.868
 7861SOL    HW224483   5.286   3.706   0.737
 7862SOL     OW24484   3.284   4.392   1.638
 7862SOL    HW124485   3.191   4.380   1.672
 7862SOL    HW224486   3.348   4.385   1.714
 7863SOL     OW24487   4.810   5.792   2.730
 7863SOL    HW124488   4.842   5.703   2.763
 7863SOL    HW224489   4.760   5.838   2.803
 7864SOL     OW24490   0.983   5.884   4.950
 7864SOL    HW124491   0.989   5.926   5.041
 7864SOL    HW224492   0.888   5.862   4.930
 7865SOL     OW24493   4.635   0.716   3.332
 7865SOL    HW124494   4.638   0.634   3.388
 7865SOL    HW224495   4.543   0.729   3.296
 7866SOL     OW24496   2.615   2.285   5.628
 7866SOL    HW124497   2.633   2.381   5.646
 7866SOL    HW224498   2.544   2.252   5.690
 7867SOL     OW24499   5.846   3.391   1.714
 7867SOL    HW124500   5.906   3.361   1.640
 7867SOL    HW224501   5.751   3.390   1.682
 7868SOL     OW24502   4.843   0.543   0.382
 7868SOL    HW124503   4.851   0.640   0.405
 7868SOL    HW224504   4.925   0.514   0.333
 7869SOL     OW24505   6.244   1.864   4.316
 7869SOL    HW124506   6.303   1.865   4.236
 7869SOL    HW224507   6.206   1.955   4.331
 7870SOL     OW24508   0.025   0.190   2.892
 7870SOL    HW124509   0.103   0.210   2.951
 7870SOL    HW224510   0.050   0.211   2.797
 7871SOL     OW24511   5.769   3.178   4.200
 7871SOL    HW124512   5.860   3.142   4.183
 7871SOL    HW224513   5.701   3.123   4.152
 7872SOL     OW24514   0.108   4.273   4.386
 7872SOL    HW124515   0.080   4.235   4.474
 7872SOL    HW224516   0.179   4.215   4.346
 7873SOL     OW24517   6.769   5.795   4.954
 7873SOL    HW124518   6.772   5.853   4.873
 7873SOL    HW224519   6.703   5.721   4.940
 7874SOL     OW24520   6.048   0.583   0.691
 7874SOL    HW124521   6.031   0.612   0.785
 7874SOL    HW224522   6.031   0.659   0.629
 7875SOL     OW24523   4.598   3.423   0.189
 7875SOL    HW124524   4.639   3.369   0.263
 7875SOL    HW224525   4.507   3.387   0.167
 7876SOL     OW24526   0.407   1.291   5.004
 7876SOL    HW124527   0.371   1.233   4.931
 7876SOL    HW224528   0.496   1.256   5.035
 7877SOL     OW24529   5.659   3.000   2.659
 7877SOL    HW124530   5.734   2.946   2.620
 7877SOL    HW224531   5.679   3.021   2.754
 7878SOL     OW24532   3.757   3.555   1.392
 7878SOL    HW124533   3.748   3.488   1.466
 7878SOL    HW224534   3.763   3.507   1.305
 7879SOL     OW24535   6.577   1.156   4.627
 7879SOL    HW124536   6.536   1.210   4.702
 7879SOL    HW224537   6.640   1.214   4.575
 7880SOL     OW24538   1.650   6.619   6.295
 7880SOL    HW124539   1.619   6.624   6.390
 7880SOL    HW224540   1.680   6.526   6.275
 7881SOL     OW24541   0.884   5.490   4.203
 7881SOL    HW124542   0.973   5.462   4.239
 7881SOL    HW224543   0.863   5.583   4.233
 7882SOL     OW24544   1.836   4.845   1.710
 7882SOL    HW124545   1.898   4.916   1.678
 7882SOL    HW224546   1.782   4.810   1.633
 7883SOL     OW24547   3.329   1.364   2.623
 7883SOL    HW124548   3.278   1.293   2.573
 7883SOL    HW224549   3.323   1.346   2.721
 7884SOL     OW24550   0.645   3.024   4.123
 7884SOL    HW124551   0.572   3.007   4.057
 7884SOL    HW224552   0.615   2.996   4.214
 7885SOL     OW24553   6.216   5.468   2.620
 7885SOL    HW124554   6.261   5.404   2.683
 7885SOL    HW224555   6.286   5.521   2.571
 7886SOL     OW24556   4.692   4.578   2.764
 7886SOL    HW124557   4.679   4.666   2.720
 7886SOL    HW224558   4.604   4.535   2.782
 7887SOL     OW24559   1.040   3.009   0.670
 7887SOL    HW124560   1.015   3.071   0.744
 7887SOL    HW224561   1.130   3.033   0.636
 7888SOL     OW24562   6.558   1.396   4.844
 7888SOL    HW124563   6.587   1.441   4.759
 7888SOL    HW224564   6.603   1.439   4.922
 7889SOL     OW24565   5.650   5.170   0.965
 7889SOL    HW124566   5.671   5.244   0.901
 7889SOL    HW224567   5.656   5.082   0.919
 7890SOL     OW24568   2.252   2.751   3.075
 7890SOL    HW124569   2.187   2.807   3.125
 7890SOL    HW224570   2.238   2.764   2.976
 7891SOL     OW24571   6.451   1.619   4.562
 7891SOL    HW124572   6.515   1.695   4.577
 7891SOL    HW224573   6.465   1.582   4.471
 7892SOL     OW24574   1.214   1.598   4.908
 7892SOL    HW124575   1.252   1.688   4.884
 7892SOL    HW224576   1.220   1.585   5.007
 7893SOL     OW24577   6.170   6.515   0.876
 7893SOL    HW124578   6.228   6.531   0.956
 7893SOL    HW224579   6.221   6.463   0.808
 7894SOL     OW24580   3.304   1.055   6.708
 7894SOL    HW124581   3.236   1.047   6.780
 7894SOL    HW224582   3.265   1.023   6.621
 7895SOL     OW24583   6.422   6.580   2.666
 7895SOL    HW124584   6.401   6.516   2.740
 7895SOL    HW224585   6.389   6.542   2.579
 7896SOL     OW24586   2.442   1.384   0.352
 7896SOL    HW124587   2.362   1.345   0.397
 7896SOL    HW224588   2.412   1.458   0.291
 7897SOL     OW24589   4.084   1.630   0.705
 7897SOL    HW124590   4.041   1.711   0.665
 7897SOL    HW224591   4.184   1.638   0.699
 7898SOL     OW24592   5.257   6.696   3.594
 7898SOL    HW124593   5.236   6.705   3.691
 7898SOL    HW224594   5.342   6.644   3.582
 7899SOL     OW24595   6.188   4.421   3.510
 7899SOL    HW124596   6.173   4.351   3.581
 7899SOL    HW224597   6.269   4.397   3.456
 7900SOL     OW24598   0.498   3.475   0.340
 7900SOL    HW124599   0.498   3.512   0.433
 7900SOL    HW224600   0.416   3.418   0.328
 7901SOL     OW24601   0.444   2.329   0.051
 7901SOL    HW124602   0.397   2.390   7.010
 7901SOL    HW224603   0.381   2.256   0.078
 7902SOL     OW24604   1.593   6.681   1.454
 7902SOL    HW124605   1.530   6.634   1.392
 7902SOL    HW224606   1.655   6.615   1.495
 7903SOL     OW24607   3.130   1.834   5.585
 7903SOL    HW124608   3.079   1.817   5.669
 7903SOL    HW224609   3.069   1.870   5.515
 7904SOL     OW24610   4.808   2.683   2.510
 7904SOL    HW124611   4.738   2.684   2.581
 7904SOL    HW224612   4.839   2.777   2.492
 7905SOL     OW24613   6.387   2.222   1.002
 7905SOL    HW124614   6.470   2.241   0.949
 7905SOL    HW224615   6.412   2.199   1.096
 7906SOL     OW24616   0.821   5.573   6.877
 7906SOL    HW124617   0.805   5.481   6.912
 7906SOL    HW224618   0.858   5.568   6.784
 7907SOL     OW24619   6.164   6.467   3.126
 7907SOL    HW124620   6.202   6.540   3.070
 7907SOL    HW224621   6.075   6.439   3.089
 7908SOL     OW24622   1.978   0.289   6.013
 7908SOL    HW124623   1.950   0.374   6.057
 7908SOL    HW224624   2.036   0.237   6.076
 7909SOL     OW24625   6.380   3.246   1.217
 7909SOL    HW124626   6.463   3.290   1.182
 7909SOL    HW224627   6.387   3.147   1.207
 7910SOL     OW24628   1.322   4.385   5.142
 7910SOL    HW124629   1.227   4.398   5.172
 7910SOL    HW224630   1.328   4.304   5.083
 7911SOL     OW24631   5.582   4.670   5.811
 7911SOL    HW124632   5.520   4.704   5.882
 7911SOL    HW224633   5.676   4.694   5.834
 7912SOL     OW24634   5.815   5.823   0.816
 7912SOL    HW124635   5.728   5.872   0.810
 7912SOL    HW224636   5.888   5.888   0.838
 7913SOL     OW24637   1.532   5.183   6.815
 7913SOL    HW124638   1.564   5.277   6.826
 7913SOL    HW224639   1.595   5.133   6.755
 7914SOL     OW24640   1.101   6.847   4.766
 7914SOL    HW124641   1.104   6.860   4.667
 7914SOL    HW224642   1.026   6.786   4.790
 7915SOL     OW24643   2.773   4.988   2.184
 7915SOL    HW124644   2.746   4.920   2.116
 7915SOL    HW224645   2.719   5.071   2.171
 7916SOL     OW24646   1.275   7.016   3.674
 7916SOL    HW124647   1.292   6.917   3.678
 7916SOL    HW224648   1.327   0.031   3.597
 7917SOL     OW24649   5.063   2.010   1.717
 7917SOL    HW124650   5.009   1.932   1.749
 7917SOL    HW224651   5.062   2.012   1.617
 7918SOL     OW24652   2.175   2.870   2.842
 7918SOL    HW124653   2.107   2.839   2.775
 7918SOL    HW224654   2.150   2.961   2.875
 7919SOL     OW24655   0.885   6.694   4.812
 7919SOL    HW124656   0.870   6.601   4.846
 7919SOL    HW224657   0.871   6.696   4.713
 7920SOL     OW24658   4.586   0.449   1.244
 7920SOL    HW124659   4.490   0.429   1.261
 7920SOL    HW224660   4.621   0.510   1.315
 7921SOL     OW24661   5.368   2.619   0.901
 7921SOL    HW124662   5.389   2.525   0.875
 7921SOL    HW224663   5.349   2.624   0.999
 7922SOL     OW24664   2.948   6.890   2.872
 7922SOL    HW124665   2.977   6.849   2.786
 7922SOL    HW224666   2.961   6.824   2.947
 7923SOL     OW24667   4.536   0.798   0.086
 7923SOL    HW124668   4.538   0.780   0.184
 7923SOL    HW224669   4.581   0.886   0.068
 7924SOL     OW24670   5.539   5.902   0.186
 7924SOL    HW124671   5.482   5.958   0.246
 7924SOL    HW224672   5.516   5.806   0.199
 7925SOL     OW24673   1.147   5.240   6.519
 7925SOL    HW124674   1.226   5.296   6.543
 7925SOL    HW224675   1.108   5.200   6.603
 7926SOL     OW24676   5.170   6.419   5.940
 7926SOL    HW124677   5.251   6.406   5.883
 7926SOL    HW224678   5.197   6.465   6.025
 7927SOL     OW24679   4.266   0.002   3.441
 7927SOL    HW124680   4.266   0.069   3.367
 7927SOL    HW224681   4.298   0.046   3.526
 7928SOL     OW24682   5.452   1.787   3.657
 7928SOL    HW124683   5.397   1.836   3.590
 7928SOL    HW224684   5.499   1.710   3.613
 7929SOL     OW24685   4.919   4.285   5.743
 7929SOL    HW124686   4.994   4.320   5.799
 7929SOL    HW224687   4.945   4.195   5.706
 7930SOL     OW24688   4.262   6.225   6.535
 7930SOL    HW124689   4.356   6.198   6.554
 7930SOL    HW224690   4.216   6.250   6.620
 7931SOL     OW24691   4.334   1.289   0.768
 7931SOL    HW124692   4.296   1.206   0.809
 7931SOL    HW224693   4.429   1.272   0.742
 7932SOL     OW24694   1.100   3.665   1.545
 7932SOL    HW124695   1.115   3.751   1.495
 7932SOL    HW224696   1.005   3.658   1.573
 7933SOL     OW24697   1.082   1.757   6.832
 7933SOL    HW124698   1.171   1.802   6.830
 7933SOL    HW224699   1.012   1.823   6.861
 7934SOL     OW24700   0.256   5.318   0.989
 7934SOL    HW124701   0.190   5.359   1.052
 7934SOL    HW224702   0.276   5.225   1.019
 7935SOL     OW24703   6.448   3.350   3.441
 7935SOL    HW124704   6.413   3.435   3.401
 7935SOL    HW224705   6.451   3.279   3.371
 7936SOL     OW24706   2.166   5.763   3.512
 7936SOL    HW124707   2.208   5.721   3.593
 7936SOL    HW224708   2.221   5.740   3.432
 7937SOL     OW24709   4.382   1.170   1.242
 7937SOL    HW124710   4.370   1.268   1.224
 7937SOL    HW224711   4.295   1.131   1.271
 7938SOL     OW24712   2.648   0.198   3.033
 7938SOL    HW124713   2.582   0.142   2.983
 7938SOL    HW224714   2.717   0.138   3.075
 7939SOL     OW24715   1.134   0.543   2.649
 7939SOL    HW124716   1.105   0.509   2.739
 7939SOL    HW224717   1.177   0.632   2.659
 7940SOL     OW24718   5.780   1.684   4.794
 7940SOL    HW124719   5.797   1.631   4.711
 7940SOL    HW224720   5.751   1.622   4.867
 7941SOL     OW24721   3.352   6.864   1.003
 7941SOL    HW124722   3.305   6.887   0.918
 7941SOL    HW224723   3.342   6.939   1.069
 7942SOL     OW24724   1.387   4.217   0.877
 7942SOL    HW124725   1.349   4.307   0.896
 7942SOL    HW224726   1.314   4.149   0.874
 7943SOL     OW24727   1.302   6.363   6.160
 7943SOL    HW124728   1.269   6.455   6.140
 7943SOL    HW224729   1.240   6.318   6.224
 7944SOL     OW24730   1.401   1.951   1.419
 7944SOL    HW124731   1.395   1.864   1.469
 7944SOL    HW224732   1.495   1.963   1.385
 7945SOL     OW24733   6.003   3.328   3.025
 7945SOL    HW124734   6.100   3.316   3.044
 7945SOL    HW224735   5.962   3.239   3.003
 7946SOL     OW24736   4.534   2.199   6.445
 7946SOL    HW124737   4.514   2.280   6.501
 7946SOL    HW224738   4.532   2.224   6.348
 7947SOL     OW24739   6.998   3.789   6.294
 7947SOL    HW124740   0.037   3.866   6.283
 7947SOL    HW224741   6.919   3.819   6.347
 7948SOL     OW24742   1.122   5.926   1.377
 7948SOL    HW124743   1.196   5.955   1.436
 7948SOL    HW224744   1.034   5.941   1.423
 7949SOL     OW24745   2.602   5.509   5.470
 7949SOL    HW124746   2.598   5.511   5.570
 7949SOL    HW224747   2.672   5.443   5.441
 7950SOL     OW24748   6.326   4.757   5.886
 7950SOL    HW124749   6.408   4.701   5.898
 7950SOL    HW224750   6.294   4.789   5.975
 7951SOL     OW24751   4.178   6.943   3.087
 7951SOL    HW124752   4.121   7.021   3.111
 7951SOL    HW224753   4.121   6.868   3.055
 7952SOL     OW24754   6.899   3.751   4.969
 7952SOL    HW124755   6.873   3.820   4.901
 7952SOL    HW224756   6.825   3.685   4.980
 7953SOL     OW24757   1.658   0.083   0.163
 7953SOL    HW124758   1.590   0.086   0.236
 7953SOL    HW224759   1.685   0.177   0.139
 7954SOL     OW24760   3.628   3.411   0.073
 7954SOL    HW124761   3.651   3.458   7.011
 7954SOL    HW224762   3.614   3.314   0.055
 7955SOL     OW24763   0.604   1.278   6.314
 7955SOL    HW124764   0.703   1.283   6.306
 7955SOL    HW224765   0.564   1.368   6.299
 7956SOL     OW24766   0.257   6.750   0.473
 7956SOL    HW124767   0.185   6.770   0.538
 7956SOL    HW224768   0.320   6.828   0.467
 7957SOL     OW24769   5.284   1.536   5.630
 7957SOL    HW124770   5.383   1.548   5.642
 7957SOL    HW224771   5.258   1.563   5.538
 7958SOL     OW24772   4.286   2.535   6.806
 7958SOL    HW124773   4.261   2.460   6.868
 7958SOL    HW224774   4.320   2.497   6.720
 7959SOL     OW24775   5.172   2.813   0.128
 7959SOL    HW124776   5.125   2.896   0.098
 7959SOL    HW224777   5.153   2.739   0.064
 7960SOL     OW24778   0.778   1.640   4.745
 7960SOL    HW124779   0.746   1.719   4.692
 7960SOL    HW224780   0.702   1.578   4.762
 7961SOL     OW24781   5.860   0.159   0.639
 7961SOL    HW124782   5.811   0.201   0.562
 7961SOL    HW224783   5.954   0.192   0.640
 7962SOL     OW24784   6.011   6.865   5.315
 7962SOL    HW124785   5.984   6.868   5.411
 7962SOL    HW224786   6.031   6.958   5.283
 7963SOL     OW24787   5.878   6.190   3.176
 7963SOL    HW124788   5.910   6.099   3.202
 7963SOL    HW224789   5.836   6.235   3.255
 7964SOL     OW24790   6.191   3.437   1.247
 7964SOL    HW124791   6.241   3.518   1.280
 7964SOL    HW224792   6.257   3.368   1.218
 7965SOL     OW24793   5.166   1.957   6.341
 7965SOL    HW124794   5.096   2.026   6.354
 7965SOL    HW224795   5.160   1.921   6.248
 7966SOL     OW24796   5.871   3.559   4.893
 7966SOL    HW124797   5.793   3.515   4.937
 7966SOL    HW224798   5.844   3.650   4.861
 7967SOL     OW24799   1.376   4.801   0.602
 7967SOL    HW124800   1.360   4.730   0.671
 7967SOL    HW224801   1.315   4.878   0.619
 7968SOL     OW24802   2.082   2.594   3.747
 7968SOL    HW124803   2.154   2.583   3.679
 7968SOL    HW224804   2.105   2.542   3.829
 7969SOL     OW24805   3.052   4.144   6.820
 7969SOL    HW124806   3.076   4.109   6.730
 7969SOL    HW224807   3.043   4.243   6.817
 7970SOL     OW24808   6.040   2.376   4.286
 7970SOL    HW124809   6.124   2.343   4.243
 7970SOL    HW224810   6.062   2.421   4.373
 7971SOL     OW24811   3.033   1.076   6.918
 7971SOL    HW124812   2.967   1.036   6.854
 7971SOL    HW224813   3.004   1.057   7.011
 7972SOL     OW24814   3.306   4.104   4.485
 7972SOL    HW124815   3.273   4.131   4.576
 7972SOL    HW224816   3.401   4.134   4.473
 7973SOL     OW24817   6.186   4.990   2.167
 7973SOL    HW124818   6.130   5.029   2.094
 7973SOL    HW224819   6.246   5.061   2.204
 7974SOL     OW24820   0.848   3.225   4.651
 7974SOL    HW124821   0.887   3.139   4.619
 7974SOL    HW224822   0.760   3.241   4.606
 7975SOL     OW24823   4.456   0.495   6.932
 7975SOL    HW124824   4.462   0.586   6.890
 7975SOL    HW224825   4.525   0.487   7.004
 7976SOL     OW24826   0.731   0.463   0.372
 7976SOL    HW124827   0.728   0.363   0.361
 7976SOL    HW224828   0.756   0.505   0.285
 7977SOL     OW24829   5.512   5.527   3.153
 7977SOL    HW124830   5.474   5.450   3.204
 7977SOL    HW224831   5.453   5.547   3.074
 7978SOL     OW24832   0.232   3.685   1.273
 7978SOL    HW124833   0.211   3.600   1.225
 7978SOL    HW224834   0.319   3.676   1.322
 7979SOL     OW24835   2.910   2.599   5.379
 7979SOL    HW124836   2.916   2.698   5.394
 7979SOL    HW224837   2.814   2.572   5.370
 7980SOL     OW24838   3.771   5.411   1.755
 7980SOL    HW124839   3.823   5.414   1.840
 7980SOL    HW224840   3.673   5.404   1.775
 7981SOL     OW24841   1.885   3.654   4.250
 7981SOL    HW124842   1.860   3.571   4.300
 7981SOL    HW224843   1.847   3.734   4.296
 7982SOL     OW24844   6.945   1.083   6.193
 7982SOL    HW124845   0.014   1.047   6.188
 7982SOL    HW224846   6.945   1.172   6.238
 7983SOL     OW24847   3.427   0.845   1.880
 7983SOL    HW124848   3.523   0.826   1.898
 7983SOL    HW224849   3.404   0.936   1.915
 7984SOL     OW24850   6.236   2.854   2.742
 7984SOL    HW124851   6.289   2.786   2.792
 7984SOL    HW224852   6.269   2.860   2.648
 7985SOL     OW24853   3.131   2.908   5.310
 7985SOL    HW124854   3.170   2.816   5.308
 7985SOL    HW224855   3.046   2.907   5.363
 7986SOL     OW24856   3.987   0.885   4.123
 7986SOL    HW124857   3.974   0.973   4.076
 7986SOL    HW224858   4.049   0.827   4.070
 7987SOL     OW24859   1.176   3.256   6.411
 7987SOL    HW124860   1.158   3.222   6.318
 7987SOL    HW224861   1.121   3.338   6.427
 7988SOL     OW24862   6.358   0.704   1.049
 7988SOL    HW124863   6.372   0.608   1.027
 7988SOL    HW224864   6.416   0.761   0.990
 7989SOL     OW24865   0.686   4.542   0.992
 7989SOL    HW124866   0.668   4.507   0.900
 7989SOL    HW224867   0.600   4.544   1.043
 7990SOL     OW24868   4.935   5.012   4.696
 7990SOL    HW124869   4.881   4.940   4.739
 7990SOL    HW224870   4.906   5.101   4.732
 7991SOL     OW24871   5.757   0.806   4.709
 7991SOL    HW124872   5.813   0.879   4.748
 7991SOL    HW224873   5.752   0.729   4.774
 7992SOL     OW24874   1.911   0.256   6.747
 7992SOL    HW124875   1.982   0.187   6.754
 7992SOL    HW224876   1.829   0.224   6.794
 7993SOL     OW24877   6.107   5.985   0.626
 7993SOL    HW124878   6.041   6.054   0.657
 7993SOL    HW224879   6.065   5.895   0.629
 7994SOL     OW24880   6.785   0.795   4.473
 7994SOL    HW124881   6.790   0.695   4.473
 7994SOL    HW224882   6.829   0.830   4.390
 7995SOL     OW24883   0.145   5.802   1.508
 7995SOL    HW124884   0.132   5.899   1.487
 7995SOL    HW224885   0.055   5.759   1.517
 7996SOL     OW24886   2.077   6.462   3.439
 7996SOL    HW124887   2.090   6.365   3.416
 7996SOL    HW224888   2.164   6.502   3.466
 7997SOL     OW24889   2.453   1.778   5.927
 7997SOL    HW124890   2.389   1.833   5.873
 7997SOL    HW224891   2.539   1.769   5.876
 7998SOL     OW24892   2.406   1.105   1.054
 7998SOL    HW124893   2.357   1.105   0.967
 7998SOL    HW224894   2.421   1.011   1.084
 7999SOL     OW24895   0.949   0.232   3.404
 7999SOL    HW124896   0.981   0.314   3.451
 7999SOL    HW224897   0.927   0.162   3.472
 8000SOL     OW24898   4.385   5.699   0.679
 8000SOL    HW124899   4.349   5.626   0.737
 8000SOL    HW224900   4.321   5.775   0.677
 8001SOL     OW24901   4.765   4.362   1.413
 8001SOL    HW124902   4.706   4.368   1.493
 8001SOL    HW224903   4.718   4.311   1.340
 8002SOL     OW24904   1.191   0.403   4.486
 8002SOL    HW124905   1.269   0.377   4.542
 8002SOL    HW224906   1.151   0.322   4.444
 8003SOL     OW24907   2.944   5.721   3.187
 8003SOL    HW124908   2.860   5.756   3.145
 8003SOL    HW224909   2.925   5.692   3.281
 8004SOL     OW24910   1.675   3.783   4.086
 8004SOL    HW124911   1.719   3.697   4.113
 8004SOL    HW224912   1.724   3.860   4.126
 8005SOL     OW24913   2.689   0.225   4.038
 8005SOL    HW124914   2.706   0.159   4.111
 8005SOL    HW224915   2.600   0.269   4.053
 8006SOL     OW24916   4.769   5.382   6.085
 8006SOL    HW124917   4.741   5.367   5.990
 8006SOL    HW224918   4.719   5.460   6.123
 8007SOL     OW24919   0.174   0.640   1.207
 8007SOL    HW124920   0.179   0.738   1.190
 8007SOL    HW224921   0.172   0.624   1.306
 8008SOL     OW24922   4.339   5.283   0.397
 8008SOL    HW124923   4.425   5.265   0.446
 8008SOL    HW224924   4.266   5.300   0.464
 8009SOL     OW24925   6.757   1.611   0.577
 8009SOL    HW124926   6.682   1.667   0.541
 8009SOL    HW224927   6.774   1.536   0.514
 8010SOL     OW24928   3.657   1.045   5.828
 8010SOL    HW124929   3.601   1.006   5.901
 8010SOL    HW224930   3.602   1.054   5.745
 8011SOL     OW24931   4.113   1.911   2.691
 8011SOL    HW124932   4.032   1.957   2.727
 8011SOL    HW224933   4.087   1.852   2.615
 8012SOL     OW24934   6.543   0.900   4.587
 8012SOL    HW124935   6.558   0.994   4.619
 8012SOL    HW224936   6.615   0.875   4.523
 8013SOL     OW24937   3.701   0.373   3.402
 8013SOL    HW124938   3.719   0.453   3.344
 8013SOL    HW224939   3.608   0.379   3.438
 8014SOL     OW24940   2.605   2.386   3.181
 8014SOL    HW124941   2.519   2.425   3.146
 8014SOL    HW224942   2.632   2.309   3.123
 8015SOL     OW24943   3.315   0.074   4.368
 8015SOL    HW124944   3.261   0.026   4.299
 8015SOL    HW224945   3.403   0.028   4.379
 8016SOL     OW24946   3.523   2.548   5.473
 8016SOL    HW124947   3.615   2.538   5.511
 8016SOL    HW224948   3.505   2.474   5.409
 8017SOL     OW24949   5.957   5.986   1.291
 8017SOL    HW124950   5.896   5.925   1.342
 8017SOL    HW224951   6.051   5.971   1.320
 8018SOL     OW24952   3.156   3.887   0.932
 8018SOL    HW124953   3.191   3.944   0.858
 8018SOL    HW224954   3.165   3.791   0.907
 8019SOL     OW24955   2.737   3.380   0.510
 8019SOL    HW124956   2.787   3.317   0.569
 8019SOL    HW224957   2.649   3.403   0.553
 8020SOL     OW24958   0.131   0.406   6.641
 8020SOL    HW124959   0.144   0.312   6.674
 8020SOL    HW224960   0.067   0.405   6.564
 8021SOL     OW24961   1.166   3.267   0.462
 8021SOL    HW124962   1.173   3.365   0.476
 8021SOL    HW224963   1.210   3.219   0.538
 8022SOL     OW24964   4.270   6.938   2.210
 8022SOL    HW124965   4.335   6.991   2.264
 8022SOL    HW224966   4.220   6.999   2.149
 8023SOL     OW24967   4.114   5.498   2.385
 8023SOL    HW124968   4.118   5.443   2.468
 8023SOL    HW224969   4.206   5.526   2.359
 8024SOL     OW24970   2.304   0.912   6.969
 8024SOL    HW124971   2.310   0.930   6.871
 8024SOL    HW224972   2.223   0.856   6.987
 8025SOL     OW24973   0.889   6.440   1.528
 8025SOL    HW124974   0.963   6.382   1.561
 8025SOL    HW224975   0.832   6.468   1.605
 8026SOL     OW24976   0.868   6.386   6.434
 8026SOL    HW124977   0.854   6.458   6.501
 8026SOL    HW224978   0.792   6.385   6.369
 8027SOL     OW24979   3.628   0.961   6.465
 8027SOL    HW124980   3.659   1.056   6.461
 8027SOL    HW224981   3.565   0.950   6.542
 8028SOL     OW24982   3.516   6.217   6.199
 8028SOL    HW124983   3.419   6.238   6.215
 8028SOL    HW224984   3.529   6.193   6.103
 8029SOL     OW24985   0.850   0.525   1.730
 8029SOL    HW124986   0.949   0.536   1.718
 8029SOL    HW224987   0.802   0.600   1.684
 8030SOL     OW24988   0.944   4.206   0.879
 8030SOL    HW124989   0.849   4.179   0.896
 8030SOL    HW224990   0.946   4.294   0.832
 8031SOL     OW24991   6.968   0.511   1.859
 8031SOL    HW124992   6.915   0.565   1.924
 8031SOL    HW224993   6.981   0.419   1.895
 8032SOL     OW24994   0.192   2.733   0.120
 8032SOL    HW124995   0.117   2.797   0.103
 8032SOL    HW224996   0.248   2.724   0.037
 8033SOL     OW24997   3.832   4.157   1.625
 8033SOL    HW124998   3.816   4.167   1.526
 8033SOL    HW224999   3.746   4.172   1.674
 8034SOL     OW25000   0.771   0.156   5.717
 8034SOL    HW125001   0.804   0.204   5.636
 8034SOL    HW225002   0.840   0.161   5.790
 8035SOL     OW25003   6.309   7.004   4.545
 8035SOL    HW125004   6.342   7.017   4.452
 8035SOL    HW225005   6.209   7.011   4.546
 8036SOL     OW25006   5.308   3.380   3.846
 8036SOL    HW125007   5.282   3.412   3.755
 8036SOL    HW225008   5.379   3.311   3.839
 8037SOL     OW25009   2.787   1.382   6.190
 8037SOL    HW125010   2.759   1.391   6.286
 8037SOL    HW225011   2.845   1.302   6.180
 8038SOL     OW25012   6.607   5.373   2.186
 8038SOL    HW125013   6.584   5.372   2.089
 8038SOL    HW225014   6.694   5.327   2.200
 8039SOL     OW25015   2.103   2.226   4.893
 8039SOL    HW125016   2.127   2.246   4.988
 8039SOL    HW225017   2.159   2.283   4.832
 8040SOL     OW25018   0.552   6.303   6.498
 8040SOL    HW125019   0.559   6.359   6.416
 8040SOL    HW225020   0.589   6.211   6.480
 8041SOL     OW25021   3.343   1.257   2.920
 8041SOL    HW125022   3.365   1.328   2.987
 8041SOL    HW225023   3.258   1.281   2.873
 8042SOL     OW25024   3.621   3.970   6.125
 8042SOL    HW125025   3.660   3.925   6.206
 8042SOL    HW225026   3.532   4.009   6.149
 8043SOL     OW25027   4.838   5.493   0.529
 8043SOL    HW125028   4.847   5.571   0.591
 8043SOL    HW225029   4.888   5.512   0.445
 8044SOL     OW25030   1.430   2.990   1.464
 8044SOL    HW125031   1.453   2.915   1.525
 8044SOL    HW225032   1.331   3.006   1.467
 8045SOL     OW25033   6.297   3.395   4.573
 8045SOL    HW125034   6.248   3.454   4.638
 8045SOL    HW225035   6.332   3.450   4.498
 8046SOL     OW25036   0.026   4.223   1.489
 8046SOL    HW125037   0.081   4.249   1.410
 8046SOL    HW225038   6.975   4.163   1.460
 8047SOL     OW25039   2.887   6.103   6.616
 8047SOL    HW125040   2.958   6.170   6.595
 8047SOL    HW225041   2.848   6.123   6.706
 8048SOL     OW25042   3.901   1.945   6.390
 8048SOL    HW125043   3.911   1.898   6.303
 8048SOL    HW225044   3.813   1.923   6.431
 8049SOL     OW25045   1.839   1.186   0.592
 8049SOL    HW125046   1.919   1.136   0.623
 8049SOL    HW225047   1.767   1.121   0.567
 8050SOL     OW25048   0.701   5.068   6.087
 8050SOL    HW125049   0.671   5.091   5.994
 8050SOL    HW225050   0.729   4.972   6.090
 8051SOL     OW25051   4.560   6.772   2.924
 8051SOL    HW125052   4.545   6.863   2.963
 8051SOL    HW225053   4.563   6.704   2.998
 8052SOL     OW25054   2.839   1.840   2.751
 8052SOL    HW125055   2.760   1.897   2.729
 8052SOL    HW225056   2.900   1.890   2.813
 8053SOL     OW25057   1.329   2.730   6.969
 8053SOL    HW125058   1.328   2.786   0.029
 8053SOL    HW225059   1.422   2.728   6.932
 8054SOL     OW25060   5.268   3.656   4.809
 8054SOL    HW125061   5.188   3.631   4.864
 8054SOL    HW225062   5.262   3.612   4.719
 8055SOL     OW25063   6.317   0.264   0.006
 8055SOL    HW125064   6.300   0.218   0.094
 8055SOL    HW225065   6.354   0.356   0.024
 8056SOL     OW25066   2.494   1.679   3.942
 8056SOL    HW125067   2.578   1.689   3.996
 8056SOL    HW225068   2.481   1.583   3.919
 8057SOL     OW25069   3.100   2.151   2.176
 8057SOL    HW125070   3.044   2.229   2.148
 8057SOL    HW225071   3.113   2.153   2.275
 8058SOL     OW25072   4.136   6.145   2.127
 8058SOL    HW125073   4.119   6.085   2.206
 8058SOL    HW225074   4.050   6.190   2.101
 8059SOL     OW25075   3.674   3.186   5.682
 8059SOL    HW125076   3.641   3.215   5.592
 8059SOL    HW225077   3.774   3.183   5.681
 8060SOL     OW25078   0.191   1.007   6.172
 8060SOL    HW125079   0.290   1.023   6.181
 8060SOL    HW225080   0.154   0.980   6.261
 8061SOL     OW25081   6.907   1.284   1.587
 8061SOL    HW125082   6.870   1.240   1.506
 8061SOL    HW225083   6.841   1.277   1.662
 8062SOL     OW25084   4.429   4.586   5.850
 8062SOL    HW125085   4.484   4.665   5.821
 8062SOL    HW225086   4.473   4.541   5.927
 8063SOL     OW25087   2.405   4.789   2.954
 8063SOL    HW125088   2.405   4.799   3.053
 8063SOL    HW225089   2.324   4.834   2.916
 8064SOL     OW25090   0.084   2.282   0.759
 8064SOL    HW125091   0.046   2.245   0.844
 8064SOL    HW225092   0.037   2.366   0.735
 8065SOL     OW25093   4.619   0.053   6.572
 8065SOL    HW125094   4.665   0.140   6.555
 8065SOL    HW225095   4.651   7.009   6.505
 8066SOL     OW25096   0.600   0.087   6.206
 8066SOL    HW125097   0.550   0.134   6.279
 8066SOL    HW225098   0.537   0.062   6.133
 8067SOL     OW25099   5.412   0.652   4.427
 8067SOL    HW125100   5.401   0.557   4.399
 8067SOL    HW225101   5.337   0.707   4.389
 8068SOL     OW25102   6.827   3.430   1.651
 8068SOL    HW125103   6.925   3.413   1.645
 8068SOL    HW225104   6.794   3.472   1.567
 8069SOL     OW25105   1.064   2.782   2.497
 8069SOL    HW125106   0.994   2.775   2.426
 8069SOL    HW225107   1.030   2.837   2.573
 8070SOL     OW25108   5.453   3.734   1.037
 8070SOL    HW125109   5.530   3.673   1.019
 8070SOL    HW225110   5.487   3.824   1.065
 8071SOL     OW25111   3.090   0.588   6.172
 8071SOL    HW125112   3.128   0.578   6.080
 8071SOL    HW225113   2.998   0.549   6.175
 8072SOL     OW25114   2.055   2.285   5.190
 8072SOL    HW125115   2.112   2.232   5.253
 8072SOL    HW225116   2.000   2.351   5.241
 8073SOL     OW25117   5.320   0.488   6.693
 8073SOL    HW125118   5.364   0.490   6.604
 8073SOL    HW225119   5.282   0.397   6.709
 8074SOL     OW25120   6.849   0.683   0.485
 8074SOL    HW125121   6.908   0.688   0.405
 8074SOL    HW225122   6.901   0.710   0.566
 8075SOL     OW25123   0.338   0.242   1.427
 8075SOL    HW125124   0.357   0.149   1.459
 8075SOL    HW225125   0.297   0.239   1.336
 8076SOL     OW25126   6.605   6.185   0.431
 8076SOL    HW125127   6.564   6.271   0.402
 8076SOL    HW225128   6.544   6.138   0.495
 8077SOL     OW25129   6.000   4.551   1.229
 8077SOL    HW125130   6.049   4.543   1.316
 8077SOL    HW225131   6.011   4.644   1.193
 8078SOL     OW25132   6.393   1.022   1.352
 8078SOL    HW125133   6.324   0.952   1.334
 8078SOL    HW225134   6.484   0.979   1.353
 8079SOL     OW25135   0.304   1.070   6.676
 8079SOL    HW125136   0.288   1.133   6.752
 8079SOL    HW225137   0.336   0.982   6.711
 8080SOL     OW25138   1.630   3.644   3.610
 8080SOL    HW125139   1.543   3.596   3.613
 8080SOL    HW225140   1.687   3.603   3.538
 8081SOL     OW25141   6.491   0.275   5.191
 8081SOL    HW125142   6.542   0.308   5.111
 8081SOL    HW225143   6.507   0.176   5.202
 8082SOL     OW25144   3.967   2.145   4.195
 8082SOL    HW125145   3.991   2.149   4.292
 8082SOL    HW225146   4.019   2.215   4.145
 8083SOL     OW25147   6.597   2.855   4.410
 8083SOL    HW125148   6.577   2.912   4.330
 8083SOL    HW225149   6.511   2.834   4.458
 8084SOL     OW25150   4.756   1.645   6.218
 8084SOL    HW125151   4.688   1.583   6.180
 8084SOL    HW225152   4.835   1.650   6.156
 8085SOL     OW25153   1.860   5.798   4.279
 8085SOL    HW125154   1.823   5.891   4.275
 8085SOL    HW225155   1.913   5.779   4.197
 8086SOL     OW25156   6.540   1.662   2.701
 8086SOL    HW125157   6.480   1.648   2.622
 8086SOL    HW225158   6.580   1.574   2.728
 8087SOL     OW25159   0.060   1.307   6.591
 8087SOL    HW125160   0.128   1.234   6.588
 8087SOL    HW225161   0.026   1.324   6.498
 8088SOL     OW25162   0.122   0.136   4.936
 8088SOL    HW125163   0.192   0.183   4.882
 8088SOL    HW225164   0.143   0.146   5.033
 8089SOL     OW25165   6.612   1.785   6.732
 8089SOL    HW125166   6.700   1.764   6.690
 8089SOL    HW225167   6.604   1.884   6.744
 8090SOL     OW25168   4.472   2.513   5.291
 8090SOL    HW125169   4.563   2.471   5.287
 8090SOL    HW225170   4.458   2.570   5.210
 8091SOL     OW25171   0.620   4.041   4.508
 8091SOL    HW125172   0.605   3.963   4.447
 8091SOL    HW225173   0.699   4.093   4.475
 8092SOL     OW25174   4.920   0.347   5.862
 8092SOL    HW125175   4.905   0.256   5.900
 8092SOL    HW225176   4.948   0.409   5.934
 8093SOL     OW25177   3.449   6.456   3.697
 8093SOL    HW125178   3.387   6.490   3.626
 8093SOL    HW225179   3.525   6.521   3.708
 8094SOL     OW25180   2.122   3.944   4.080
 8094SOL    HW125181   2.067   3.884   4.138
 8094SOL    HW225182   2.194   3.987   4.135
 8095SOL     OW25183   1.004   4.885   4.876
 8095SOL    HW125184   1.074   4.827   4.917
 8095SOL    HW225185   1.032   4.981   4.881
 8096SOL     OW25186   0.626   4.831   0.549
 8096SOL    HW125187   0.707   4.861   0.600
 8096SOL    HW225188   0.582   4.911   0.508
 8097SOL     OW25189   4.396   6.668   6.519
 8097SOL    HW125190   4.300   6.698   6.520
 8097SOL    HW225191   4.442   6.700   6.602
 8098SOL     OW25192   2.082   5.958   4.796
 8098SOL    HW125193   2.045   5.875   4.837
 8098SOL    HW225194   2.008   6.009   4.751
 8099SOL     OW25195   2.132   4.043   2.410
 8099SOL    HW125196   2.096   3.952   2.434
 8099SOL    HW225197   2.058   4.100   2.375
 8100SOL     OW25198   6.680   0.524   6.958
 8100SOL    HW125199   6.685   0.441   6.903
 8100SOL    HW225200   6.728   0.511   0.021
 8101SOL     OW25201   2.199   5.803   0.902
 8101SOL    HW125202   2.168   5.739   0.831
 8101SOL    HW225203   2.209   5.754   0.988
 8102SOL     OW25204   0.579   4.089   4.190
 8102SOL    HW125205   0.612   4.070   4.098
 8102SOL    HW225206   0.575   4.004   4.243
 8103SOL     OW25207   4.070   0.811   1.017
 8103SOL    HW125208   4.004   0.868   0.969
 8103SOL    HW225209   4.153   0.864   1.036
 8104SOL     OW25210   1.619   5.385   0.020
 8104SOL    HW125211   1.571   5.462   7.001
 8104SOL    HW225212   1.558   5.306   0.025
 8105SOL     OW25213   0.079   0.032   3.416
 8105SOL    HW125214   0.126   0.101   3.470
 8105SOL    HW225215   0.138   0.003   3.341
 8106SOL     OW25216   2.662   6.861   6.241
 8106SOL    HW125217   2.657   6.771   6.199
 8106SOL    HW225218   2.756   6.893   6.239
 8107SOL     OW25219   1.143   6.544   0.009
 8107SOL    HW125220   1.097   6.626   0.041
 8107SOL    HW225221   1.228   6.532   0.061
 8108SOL     OW25222   1.168   1.265   6.885
 8108SOL    HW125223   1.095   1.209   6.925
 8108SOL    HW225224   1.254   1.213   6.886
 8109SOL     OW25225   6.862   3.324   2.075
 8109SOL    HW125226   6.886   3.351   1.981
 8109SOL    HW225227   6.874   3.402   2.136
 8110SOL     OW25228   4.130   4.820   0.475
 8110SOL    HW125229   4.093   4.857   0.561
 8110SOL    HW225230   4.084   4.734   0.453
 8111SOL     OW25231   6.289   0.770   2.630
 8111SOL    HW125232   6.225   0.800   2.701
 8111SOL    HW225233   6.296   0.841   2.560
 8112SOL     OW25234   1.924   5.039   6.468
 8112SOL    HW125235   1.954   5.134   6.459
 8112SOL    HW225236   2.004   4.979   6.477
 8113SOL     OW25237   4.720   4.888   6.181
 8113SOL    HW125238   4.778   4.966   6.207
 8113SOL    HW225239   4.699   4.833   6.262
 8114SOL     OW25240   1.879   3.532   2.943
 8114SOL    HW125241   1.970   3.572   2.949
 8114SOL    HW225242   1.873   3.475   2.861
 8115SOL     OW25243   2.306   1.336   5.733
 8115SOL    HW125244   2.356   1.353   5.648
 8115SOL    HW225245   2.209   1.357   5.719
 8116SOL     OW25246   4.038   3.524   1.688
 8116SOL    HW125247   4.130   3.488   1.671
 8116SOL    HW225248   4.019   3.524   1.786
 8117SOL     OW25249   2.203   0.059   4.113
 8117SOL    HW125250   2.168   0.078   4.021
 8117SOL    HW225251   2.176   6.991   4.141
 8118SOL     OW25252   6.716   3.048   6.694
 8118SOL    HW125253   6.620   3.075   6.706
 8118SOL    HW225254   6.776   3.115   6.738
 8119SOL     OW25255   5.354   6.154   6.402
 8119SOL    HW125256   5.414   6.197   6.334
 8119SOL    HW225257   5.361   6.055   6.395
 8120SOL     OW25258   2.226   6.536   2.558
 8120SOL    HW125259   2.201   6.445   2.591
 8120SOL    HW225260   2.315   6.562   2.596
 8121SOL     OW25261   1.577   2.213   2.396
 8121SOL    HW125262   1.504   2.163   2.350
 8121SOL    HW225263   1.547   2.306   2.415
 8122SOL     OW25264   0.487   4.348   1.465
 8122SOL    HW125265   0.565   4.367   1.405
 8122SOL    HW225266   0.509   4.269   1.522
 8123SOL     OW25267   6.828   2.194   6.905
 8123SOL    HW125268   6.836   2.294   6.905
 8123SOL    HW225269   6.873   2.156   6.986
 8124SOL     OW25270   5.903   6.246   5.791
 8124SOL    HW125271   5.910   6.177   5.719
 8124SOL    HW225272   5.991   6.293   5.801
 8125SOL     OW25273   1.034   5.540   2.307
 8125SOL    HW125274   1.093   5.461   2.321
 8125SOL    HW225275   0.957   5.514   2.249
 8126SOL     OW25276   3.287   5.706   5.129
 8126SOL    HW125277   3.193   5.693   5.160
 8126SOL    HW225278   3.287   5.752   5.040
 8127SOL     OW25279   3.918   1.827   6.154
 8127SOL    HW125280   4.001   1.817   6.100
 8127SOL    HW225281   3.839   1.796   6.101
 8128SOL     OW25282   3.028   2.875   1.142
 8128SOL    HW125283   3.092   2.898   1.068
 8128SOL    HW225284   3.079   2.851   1.224
 8129SOL     OW25285   0.657   2.156   2.459
 8129SOL    HW125286   0.647   2.164   2.558
 8129SOL    HW225287   0.645   2.061   2.432
 8130SOL     OW25288   6.744   6.179   6.976
 8130SOL    HW125289   6.736   6.228   0.039
 8130SOL    HW225290   6.705   6.234   6.903
 8131SOL     OW25291   1.540   2.482   0.300
 8131SOL    HW125292   1.592   2.397   0.307
 8131SOL    HW225293   1.457   2.476   0.355
 8132SOL     OW25294   6.076   1.900   4.817
 8132SOL    HW125295   6.135   1.882   4.738
 8132SOL    HW225296   5.986   1.860   4.801
 8133SOL     OW25297   3.419   5.053   1.291
 8133SOL    HW125298   3.500   5.046   1.350
 8133SOL    HW225299   3.424   4.984   1.219
 8134SOL     OW25300   5.642   2.464   5.560
 8134SOL    HW125301   5.680   2.503   5.644
 8134SOL    HW225302   5.543   2.479   5.558
 8135SOL     OW25303   2.440   6.671   2.018
 8135SOL    HW125304   2.538   6.666   2.033
 8135SOL    HW225305   2.393   6.607   2.078
 8136SOL     OW25306   4.893   4.632   2.039
 8136SOL    HW125307   4.910   4.595   2.131
 8136SOL    HW225308   4.820   4.580   1.996
 8137SOL     OW25309   4.760   2.072   6.141
 8137SOL    HW125310   4.801   2.085   6.231
 8137SOL    HW225311   4.713   1.984   6.139
 8138SOL     OW25312   5.406   1.289   1.975
 8138SOL    HW125313   5.384   1.371   2.028
 8138SOL    HW225314   5.490   1.247   2.011
 8139SOL     OW25315   0.603   1.843   3.186
 8139SOL    HW125316   0.605   1.824   3.284
 8139SOL    HW225317   0.616   1.757   3.136
 8140SOL     OW25318   5.051   2.676   2.941
 8140SOL    HW125319   5.128   2.739   2.929
 8140SOL    HW225320   5.052   2.638   3.033
 8141SOL     OW25321   5.653   3.718   4.063
 8141SOL    HW125322   5.690   3.808   4.040
 8141SOL    HW225323   5.568   3.702   4.013
 8142SOL     OW25324   6.776   6.380   0.130
 8142SOL    HW125325   6.862   6.389   0.081
 8142SOL    HW225326   6.753   6.467   0.175
 8143SOL     OW25327   6.431   3.231   5.316
 8143SOL    HW125328   6.477   3.183   5.240
 8143SOL    HW225329   6.493   3.237   5.394
 8144SOL     OW25330   4.815   6.663   0.310
 8144SOL    HW125331   4.785   6.757   0.325
 8144SOL    HW225332   4.908   6.652   0.344
 8145SOL     OW25333   4.732   6.101   3.294
 8145SOL    HW125334   4.784   6.148   3.366
 8145SOL    HW225335   4.648   6.151   3.275
 8146SOL     OW25336   3.721   1.745   4.516
 8146SOL    HW125337   3.697   1.678   4.587
 8146SOL    HW225338   3.818   1.766   4.521
 8147SOL     OW25339   5.309   1.046   2.822
 8147SOL    HW125340   5.217   1.079   2.843
 8147SOL    HW225341   5.344   1.093   2.741
 8148SOL     OW25342   6.347   4.507   3.165
 8148SOL    HW125343   6.398   4.567   3.227
 8148SOL    HW225344   6.399   4.423   3.151
 8149SOL     OW25345   3.366   5.175   3.385
 8149SOL    HW125346   3.371   5.200   3.482
 8149SOL    HW225347   3.354   5.257   3.330
 8150SOL     OW25348   0.893   6.245   1.035
 8150SOL    HW125349   0.951   6.178   1.081
 8150SOL    HW225350   0.887   6.328   1.090
 8151SOL     OW25351   0.455   1.679   4.499
 8151SOL    HW125352   0.366   1.723   4.512
 8151SOL    HW225353   0.519   1.710   4.569
 8152SOL     OW25354   1.642   0.733   3.342
 8152SOL    HW125355   1.621   0.790   3.421
 8152SOL    HW225356   1.739   0.709   3.342
 8153SOL     OW25357   1.722   6.591   0.499
 8153SOL    HW125358   1.755   6.591   0.593
 8153SOL    HW225359   1.628   6.558   0.496
 8154SOL     OW25360   2.476   6.684   3.272
 8154SOL    HW125361   2.464   6.783   3.267
 8154SOL    HW225362   2.420   6.648   3.347
 8155SOL     OW25363   3.004   3.719   4.677
 8155SOL    HW125364   3.057   3.634   4.688
 8155SOL    HW225365   3.017   3.776   4.758
 8156SOL     OW25366   6.976   0.542   5.496
 8156SOL    HW125367   7.017   0.633   5.483
 8156SOL    HW225368   0.014   0.486   5.551
 8157SOL     OW25369   5.875   2.169   6.812
 8157SOL    HW125370   5.824   2.175   6.897
 8157SOL    HW225371   5.945   2.241   6.809
 8158SOL     OW25372   1.724   5.341   2.106
 8158SOL    HW125373   1.811   5.390   2.114
 8158SOL    HW225374   1.649   5.406   2.107
 8159SOL     OW25375   0.727   5.572   1.317
 8159SOL    HW125376   0.746   5.567   1.415
 8159SOL    HW225377   0.788   5.639   1.275
 8160SOL     OW25378   4.602   1.826   1.765
 8160SOL    HW125379   4.650   1.910   1.791
 8160SOL    HW225380   4.504   1.845   1.754
 8161SOL     OW25381   3.976   2.420   1.404
 8161SOL    HW125382   3.933   2.390   1.488
 8161SOL    HW225383   3.939   2.509   1.377
 8162SOL     OW25384   6.190   0.889   1.715
 8162SOL    HW125385   6.216   0.812   1.656
 8162SOL    HW225386   6.132   0.856   1.789
 8163SOL     OW25387   1.806   3.069   5.362
 8163SOL    HW125388   1.827   3.040   5.268
 8163SOL    HW225389   1.891   3.095   5.408
 8164SOL     OW25390   4.885   2.949   2.477
 8164SOL    HW125391   4.863   3.018   2.545
 8164SOL    HW225392   4.864   2.984   2.386
 8165SOL     OW25393   2.210   4.747   1.872
 8165SOL    HW125394   2.130   4.714   1.822
 8165SOL    HW225395   2.199   4.845   1.889
 8166SOL     OW25396   3.937   6.986   1.643
 8166SOL    HW125397   3.925   6.902   1.696
 8166SOL    HW225398   3.868   6.989   1.570
 8167SOL     OW25399   5.196   2.647   4.232
 8167SOL    HW125400   5.291   2.670   4.252
 8167SOL    HW225401   5.164   2.580   4.299
 8168SOL     OW25402   2.926   2.216   2.630
 8168SOL    HW125403   2.899   2.221   2.534
 8168SOL    HW225404   3.020   2.181   2.636
 8169SOL     OW25405   5.571   4.172   4.978
 8169SOL    HW125406   5.589   4.191   4.882
 8169SOL    HW225407   5.529   4.082   4.988
 8170SOL     OW25408   1.246   5.236   4.244
 8170SOL    HW125409   1.225   5.211   4.339
 8170SOL    HW225410   1.309   5.168   4.205
 8171SOL     OW25411   1.612   1.082   6.318
 8171SOL    HW125412   1.576   1.104   6.409
 8171SOL    HW225413   1.656   0.992   6.321
 8172SOL     OW25414   6.868   6.032   1.419
 8172SOL    HW125415   6.903   6.117   1.380
 8172SOL    HW225416   6.857   5.964   1.346
 8173SOL     OW25417   5.853   3.129   0.326
 8173SOL    HW125418   5.893   3.198   0.386
 8173SOL    HW225419   5.865   3.157   0.231
 8174SOL     OW25420   5.383   6.809   2.465
 8174SOL    HW125421   5.383   6.900   2.424
 8174SOL    HW225422   5.300   6.798   2.519
 8175SOL     OW25423   1.485   2.503   4.235
 8175SOL    HW125424   1.539   2.547   4.163
 8175SOL    HW225425   1.396   2.475   4.199
 8176SOL     OW25426   4.233   5.811   3.633
 8176SOL    HW125427   4.330   5.809   3.609
 8176SOL    HW225428   4.180   5.846   3.556
 8177SOL     OW25429   1.259   6.458   5.749
 8177SOL    HW125430   1.175   6.509   5.772
 8177SOL    HW225431   1.303   6.501   5.671
 8178SOL     OW25432   2.488   6.724   5.950
 8178SOL    HW125433   2.510   6.662   6.026
 8178SOL    HW225434   2.438   6.803   5.985
 8179SOL     OW25435   3.554   0.489   0.226
 8179SOL    HW125436   3.497   0.567   0.248
 8179SOL    HW225437   3.622   0.515   0.158
 8180SOL     OW25438   4.663   4.266   5.340
 8180SOL    HW125439   4.589   4.331   5.356
 8180SOL    HW225440   4.678   4.212   5.423
 8181SOL     OW25441   2.248   2.291   2.184
 8181SOL    HW125442   2.324   2.321   2.243
 8181SOL    HW225443   2.272   2.205   2.140
 8182SOL     OW25444   5.679   2.776   5.488
 8182SOL    HW125445   5.612   2.738   5.424
 8182SOL    HW225446   5.684   2.719   5.569
 8183SOL     OW25447   2.270   2.550   3.560
 8183SOL    HW125448   2.285   2.648   3.550
 8183SOL    HW225449   2.248   2.510   3.470
 8184SOL     OW25450   5.888   6.041   4.392
 8184SOL    HW125451   5.969   5.989   4.420
 8184SOL    HW225452   5.808   6.005   4.438
 8185SOL     OW25453   1.717   1.779   3.175
 8185SOL    HW125454   1.681   1.688   3.196
 8185SOL    HW225455   1.642   1.839   3.148
 8186SOL     OW25456   4.326   3.855   6.982
 8186SOL    HW125457   4.390   3.931   6.967
 8186SOL    HW225458   4.361   3.796   0.031
 8187SOL     OW25459   2.121   1.601   5.656
 8187SOL    HW125460   2.121   1.517   5.603
 8187SOL    HW225461   2.093   1.678   5.598
 8188SOL     OW25462   5.070   2.736   2.274
 8188SOL    HW125463   4.975   2.755   2.247
 8188SOL    HW225464   5.072   2.710   2.371
 8189SOL     OW25465   6.938   5.212   2.994
 8189SOL    HW125466   6.924   5.126   3.043
 8189SOL    HW225467   6.900   5.287   3.049
 8190SOL     OW25468   5.877   3.664   2.285
 8190SOL    HW125469   5.924   3.599   2.344
 8190SOL    HW225470   5.922   3.753   2.291
 8191SOL     OW25471   6.380   4.987   1.710
 8191SOL    HW125472   6.434   4.928   1.770
 8191SOL    HW225473   6.388   4.955   1.616
 8192SOL     OW25474   1.405   2.797   0.526
 8192SOL    HW125475   1.455   2.711   0.532
 8192SOL    HW225476   1.412   2.833   0.433
 8193SOL     OW25477   3.777   6.825   5.643
 8193SOL    HW125478   3.768   6.727   5.625
 8193SOL    HW225479   3.870   6.854   5.623
 8194SOL     OW25480   2.310   0.720   2.187
 8194SOL    HW125481   2.361   0.672   2.116
 8194SOL    HW225482   2.234   0.663   2.219
 8195SOL     OW25483   5.547   1.664   1.356
 8195SOL    HW125484   5.535   1.571   1.391
 8195SOL    HW225485   5.631   1.669   1.303
 8196SOL     OW25486   2.103   0.736   7.001
 8196SOL    HW125487   2.034   0.748   0.049
 8196SOL    HW225488   2.063   0.683   6.926
 8197SOL     OW25489   0.214   0.200   1.172
 8197SOL    HW125490   0.189   0.112   1.131
 8197SOL    HW225491   0.295   0.236   1.126
 8198SOL     OW25492   3.506   0.369   3.096
 8198SOL    HW125493   3.483   0.336   3.187
 8198SOL    HW225494   3.472   0.304   3.028
 8199SOL     OW25495   6.144   4.811   1.480
 8199SOL    HW125496   6.241   4.800   1.460
 8199SOL    HW225497   6.096   4.840   1.398
 8200SOL     OW25498   4.299   3.415   1.678
 8200SOL    HW125499   4.314   3.326   1.720
 8200SOL    HW225500   4.369   3.479   1.709
 8201SOL     OW25501   0.167   1.365   5.100
 8201SOL    HW125502   0.130   1.281   5.060
 8201SOL    HW225503   0.260   1.380   5.065
 8202SOL     OW25504   1.798   3.787   4.451
 8202SOL    HW125505   1.728   3.717   4.439
 8202SOL    HW225506   1.758   3.866   4.499
 8203SOL     OW25507   5.817   4.556   0.296
 8203SOL    HW125508   5.912   4.577   0.317
 8203SOL    HW225509   5.761   4.638   0.312
 8204SOL     OW25510   2.980   0.370   0.930
 8204SOL    HW125511   2.955   0.347   0.836
 8204SOL    HW225512   2.898   0.397   0.980
 8205SOL     OW25513   5.010   6.421   3.563
 8205SOL    HW125514   5.087   6.433   3.501
 8205SOL    HW225515   5.026   6.474   3.646
 8206SOL     OW25516   3.539   1.834   4.356
 8206SOL    HW125517   3.612   1.816   4.423
 8206SOL    HW225518   3.542   1.930   4.329
 8207SOL     OW25519   2.467   5.971   6.974
 8207SOL    HW125520   2.489   6.057   7.021
 8207SOL    HW225521   2.412   5.914   0.011
 8208SOL     OW25522   1.843   6.185   6.704
 8208SOL    HW125523   1.893   6.204   6.788
 8208SOL    HW225524   1.899   6.126   6.645
 8209SOL     OW25525   1.108   5.625   4.948
 8209SOL    HW125526   1.036   5.559   4.927
 8209SOL    HW225527   1.070   5.717   4.950
 8210SOL     OW25528   2.339   1.615   0.269
 8210SOL    HW125529   2.351   1.680   0.194
 8210SOL    HW225530   2.377   1.653   0.353
 8211SOL     OW25531   3.773   4.026   3.560
 8211SOL    HW125532   3.837   4.030   3.637
 8211SOL    HW225533   3.727   4.114   3.550
 8212SOL     OW25534   4.329   5.091   6.655
 8212SOL    HW125535   4.428   5.099   6.662
 8212SOL    HW225536   4.292   5.059   6.742
 8213SOL     OW25537   4.606   4.358   1.653
 8213SOL    HW125538   4.573   4.323   1.740
 8213SOL    HW225539   4.580   4.455   1.644
 8214SOL     OW25540   4.024   5.270   3.506
 8214SOL    HW125541   4.009   5.209   3.428
 8214SOL    HW225542   4.050   5.216   3.586
 8215SOL     OW25543   2.294   6.224   6.222
 8215SOL    HW125544   2.210   6.210   6.170
 8215SOL    HW225545   2.346   6.138   6.226
 8216SOL     OW25546   5.230   5.771   1.244
 8216SOL    HW125547   5.145   5.718   1.250
 8216SOL    HW225548   5.215   5.862   1.281
 8217SOL     OW25549   3.649   6.455   3.984
 8217SOL    HW125550   3.628   6.359   4.002
 8217SOL    HW225551   3.656   6.504   4.071
 8218SOL     OW25552   1.761   6.609   4.423
 8218SOL    HW125553   1.830   6.640   4.357
 8218SOL    HW225554   1.770   6.510   4.438
 8219SOL     OW25555   3.941   3.028   3.118
 8219SOL    HW125556   3.906   3.044   3.210
 8219SOL    HW225557   4.015   2.960   3.122
 8220SOL     OW25558   4.076   4.122   5.516
 8220SOL    HW125559   3.997   4.061   5.521
 8220SOL    HW225560   4.061   4.189   5.443
 8221SOL     OW25561   6.420   3.774   4.009
 8221SOL    HW125562   6.477   3.762   3.927
 8221SOL    HW225563   6.350   3.703   4.011
 8222SOL     OW25564   5.818   2.895   6.564
 8222SOL    HW125565   5.828   2.959   6.640
 8222SOL    HW225566   5.909   2.865   6.533
 8223SOL     OW25567   1.745   6.580   5.531
 8223SOL    HW125568   1.690   6.575   5.448
 8223SOL    HW225569   1.730   6.498   5.586
 8224SOL     OW25570   5.647   1.256   6.342
 8224SOL    HW125571   5.550   1.232   6.347
 8224SOL    HW225572   5.700   1.189   6.394
 8225SOL     OW25573   5.995   3.017   0.038
 8225SOL    HW125574   5.916   3.077   0.023
 8225SOL    HW225575   6.064   3.035   6.992
 8226SOL     OW25576   3.736   1.371   6.667
 8226SOL    HW125577   3.832   1.385   6.640
 8226SOL    HW225578   3.695   1.459   6.690
 8227SOL     OW25579   4.762   2.865   2.892
 8227SOL    HW125580   4.794   2.939   2.832
 8227SOL    HW225581   4.838   2.831   2.947
 8228SOL     OW25582   3.076   1.217   4.986
 8228SOL    HW125583   3.075   1.272   4.902
 8228SOL    HW225584   3.100   1.276   5.064
 8229SOL     OW25585   4.873   4.770   1.055
 8229SOL    HW125586   4.909   4.857   1.020
 8229SOL    HW225587   4.853   4.779   1.152
 8230SOL     OW25588   5.988   1.109   6.213
 8230SOL    HW125589   6.044   1.191   6.198
 8230SOL    HW225590   6.047   1.028   6.211
 8231SOL     OW25591   3.312   1.303   2.353
 8231SOL    HW125592   3.301   1.329   2.257
 8231SOL    HW225593   3.359   1.376   2.402
 8232SOL     OW25594   4.145   6.619   3.267
 8232SOL    HW125595   4.206   6.669   3.328
 8232SOL    HW225596   4.134   6.670   3.181
 8233SOL     OW25597   2.305   1.474   6.955
 8233SOL    HW125598   2.213   1.473   6.915
 8233SOL    HW225599   2.327   1.383   6.991
 8234SOL     OW25600   1.767   2.926   6.907
 8234SOL    HW125601   1.797   2.964   6.819
 8234SOL    HW225602   1.679   2.880   6.895
 8235SOL     OW25603   0.706   0.774   1.120
 8235SOL    HW125604   0.692   0.769   1.021
 8235SOL    HW225605   0.620   0.799   1.164
 8236SOL     OW25606   0.845   7.000   1.230
 8236SOL    HW125607   0.855   0.025   1.317
 8236SOL    HW225608   0.842   0.043   1.155
 8237SOL     OW25609   3.861   4.991   5.327
 8237SOL    HW125610   3.838   4.991   5.230
 8237SOL    HW225611   3.960   4.981   5.337
 8238SOL     OW25612   0.012   5.549   0.322
 8238SOL    HW125613   7.023   5.509   0.412
 8238SOL    HW225614   0.000   5.649   0.328
 8239SOL     OW25615   4.047   1.626   5.468
 8239SOL    HW125616   3.987   1.551   5.440
 8239SOL    HW225617   4.140   1.607   5.435
 8240SOL     OW25618   3.653   3.774   5.145
 8240SOL    HW125619   3.569   3.770   5.198
 8240SOL    HW225620   3.718   3.835   5.190
 8241SOL     OW25621   1.050   3.254   5.298
 8241SOL    HW125622   0.963   3.302   5.289
 8241SOL    HW225623   1.034   3.160   5.328
 8242SOL     OW25624   0.559   2.604   2.645
 8242SOL    HW125625   0.627   2.661   2.598
 8242SOL    HW225626   0.596   2.576   2.734
 8243SOL     OW25627   1.554   6.692   3.547
 8243SOL    HW125628   1.571   6.606   3.596
 8243SOL    HW225629   1.487   6.746   3.598
 8244SOL     OW25630   6.026   0.178   3.780
 8244SOL    HW125631   5.946   0.136   3.822
 8244SOL    HW225632   6.076   0.231   3.849
 8245SOL     OW25633   5.084   3.297   2.043
 8245SOL    HW125634   5.131   3.230   2.100
 8245SOL    HW225635   5.018   3.250   1.984
 8246SOL     OW25636   1.979   4.745   6.566
 8246SOL    HW125637   2.035   4.662   6.559
 8246SOL    HW225638   1.913   4.747   6.491
 8247SOL     OW25639   2.434   4.837   3.226
 8247SOL    HW125640   2.511   4.899   3.234
 8247SOL    HW225641   2.465   4.743   3.240
 8248SOL     OW25642   6.767   5.882   3.363
 8248SOL    HW125643   6.765   5.947   3.439
 8248SOL    HW225644   6.674   5.850   3.344
 8249SOL     OW25645   3.208   1.025   6.475
 8249SOL    HW125646   3.112   1.051   6.475
 8249SOL    HW225647   3.224   0.954   6.407
 8250SOL     OW25648   1.323   1.577   6.689
 8250SOL    HW125649   1.368   1.535   6.768
 8250SOL    HW225650   1.316   1.676   6.704
 8251SOL     OW25651   1.020   1.667   5.504
 8251SOL    HW125652   0.986   1.724   5.578
 8251SOL    HW225653   0.982   1.699   5.417
 8252SOL     OW25654   0.799   2.038   6.574
 8252SOL    HW125655   0.894   2.007   6.571
 8252SOL    HW225656   0.782   2.100   6.497
 8253SOL     OW25657   5.692   4.848   6.349
 8253SOL    HW125658   5.612   4.800   6.384
 8253SOL    HW225659   5.674   4.882   6.257
 8254SOL     OW25660   5.541   5.610   6.895
 8254SOL    HW125661   5.586   5.521   6.903
 8254SOL    HW225662   5.466   5.603   6.830
 8255SOL     OW25663   1.326   0.164   5.517
 8255SOL    HW125664   1.365   0.077   5.488
 8255SOL    HW225665   1.389   0.210   5.580
 8256SOL     OW25666   1.360   5.720   3.424
 8256SOL    HW125667   1.386   5.814   3.447
 8256SOL    HW225668   1.378   5.703   3.328
 8257SOL     OW25669   4.947   3.461   3.718
 8257SOL    HW125670   4.888   3.505   3.651
 8257SOL    HW225671   5.041   3.460   3.684
 8258SOL     OW25672   0.172   2.779   3.345
 8258SOL    HW125673   0.141   2.873   3.361
 8258SOL    HW225674   0.093   2.718   3.340
 8259SOL     OW25675   5.452   2.371   4.052
 8259SOL    HW125676   5.469   2.273   4.051
 8259SOL    HW225677   5.446   2.405   3.959
 8260SOL     OW25678   5.263   2.315   6.335
 8260SOL    HW125679   5.182   2.304   6.392
 8260SOL    HW225680   5.334   2.252   6.366
 8261SOL     OW25681   6.069   1.724   3.048
 8261SOL    HW125682   6.018   1.780   3.113
 8261SOL    HW225683   6.017   1.716   2.963
 8262SOL     OW25684   5.082   4.249   1.928
 8262SOL    HW125685   5.023   4.289   1.857
 8262SOL    HW225686   5.153   4.195   1.884
 8263SOL     OW25687   6.436   1.645   6.502
 8263SOL    HW125688   6.478   1.713   6.562
 8263SOL    HW225689   6.454   1.669   6.407
 8264SOL     OW25690   2.954   0.773   1.635
 8264SOL    HW125691   2.995   0.785   1.545
 8264SOL    HW225692   2.947   0.862   1.681
 8265SOL     OW25693   4.648   5.784   6.782
 8265SOL    HW125694   4.558   5.830   6.782
 8265SOL    HW225695   4.718   5.850   6.809
 8266SOL     OW25696   3.672   1.605   3.018
 8266SOL    HW125697   3.732   1.535   2.980
 8266SOL    HW225698   3.615   1.644   2.946
 8267SOL     OW25699   1.837   3.127   3.057
 8267SOL    HW125700   1.742   3.157   3.047
 8267SOL    HW225701   1.860   3.122   3.154
 8268SOL     OW25702   2.811   4.771   1.115
 8268SOL    HW125703   2.810   4.678   1.151
 8268SOL    HW225704   2.902   4.810   1.127
 8269SOL     OW25705   6.386   2.439   4.357
 8269SOL    HW125706   6.339   2.392   4.283
 8269SOL    HW225707   6.462   2.383   4.391
 8270SOL     OW25708   3.406   4.708   0.045
 8270SOL    HW125709   3.499   4.681   0.020
 8270SOL    HW225710   3.353   4.628   0.071
 8271SOL     OW25711   3.290   0.140   5.817
 8271SOL    HW125712   3.341   0.169   5.899
 8271SOL    HW225713   3.203   0.098   5.845
 8272SOL     OW25714   0.414   0.683   1.890
 8272SOL    HW125715   0.472   0.763   1.875
 8272SOL    HW225716   0.397   0.671   1.987
 8273SOL     OW25717   3.893   6.767   6.773
 8273SOL    HW125718   3.866   6.787   6.679
 8273SOL    HW225719   3.885   6.668   6.789
 8274SOL     OW25720   5.513   6.687   4.482
 8274SOL    HW125721   5.487   6.724   4.572
 8274SOL    HW225722   5.444   6.622   4.451
 8275SOL     OW25723   4.880   1.388   5.082
 8275SOL    HW125724   4.795   1.437   5.062
 8275SOL    HW225725   4.888   1.309   5.022
 8276SOL     OW25726   5.575   3.095   0.561
 8276SOL    HW125727   5.616   3.034   0.493
 8276SOL    HW225728   5.618   3.081   0.650
 8277SOL     OW25729   1.112   0.070   1.611
 8277SOL    HW125730   1.172   0.143   1.579
 8277SOL    HW225731   1.038   0.057   1.546
 8278SOL     OW25732   1.486   0.563   1.109
 8278SOL    HW125733   1.444   0.608   1.188
 8278SOL    HW225734   1.415   0.542   1.042
 8279SOL     OW25735   5.234   5.698   5.754
 8279SOL    HW125736   5.327   5.729   5.733
 8279SOL    HW225737   5.188   5.671   5.669
 8280SOL     OW25738   5.709   4.188   6.471
 8280SOL    HW125739   5.795   4.208   6.425
 8280SOL    HW225740   5.718   4.207   6.569
 8281SOL     OW25741   3.598   4.531   6.400
 8281SOL    HW125742   3.552   4.568   6.319
 8281SOL    HW225743   3.625   4.606   6.460
 8282SOL     OW25744   4.181   2.453   1.082
 8282SOL    HW125745   4.198   2.487   1.175
 8282SOL    HW225746   4.121   2.516   1.033
 8283SOL     OW25747   0.697   0.080   3.062
 8283SOL    HW125748   0.735   0.056   2.972
 8283SOL    HW225749   0.608   0.035   3.073
 8284SOL     OW25750   5.248   2.119   1.889
 8284SOL    HW125751   5.276   2.207   1.850
 8284SOL    HW225752   5.182   2.075   1.828
 8285SOL     OW25753   1.196   4.210   0.548
 8285SOL    HW125754   1.230   4.232   0.457
 8285SOL    HW225755   1.271   4.172   0.603
 8286SOL     OW25756   6.190   2.362   6.611
 8286SOL    HW125757   6.247   2.280   6.605
 8286SOL    HW225758   6.169   2.395   6.519
 8287SOL     OW25759   0.670   0.494   3.303
 8287SOL    HW125760   0.726   0.447   3.235
 8287SOL    HW225761   0.632   0.577   3.262
 8288SOL     OW25762   2.777   0.148   2.171
 8288SOL    HW125763   2.688   0.167   2.130
 8288SOL    HW225764   2.843   0.217   2.141
 8289SOL     OW25765   5.530   0.232   0.369
 8289SOL    HW125766   5.556   0.164   0.300
 8289SOL    HW225767   5.477   0.304   0.325
 8290SOL     OW25768   5.036   2.558   1.667
 8290SOL    HW125769   5.019   2.602   1.756
 8290SOL    HW225770   5.001   2.464   1.669
 8291SOL     OW25771   4.937   5.608   6.411
 8291SOL    HW125772   4.938   5.582   6.315
 8291SOL    HW225773   4.964   5.703   6.420
 8292SOL     OW25774   0.411   3.898   5.692
 8292SOL    HW125775   0.460   3.883   5.777
 8292SOL    HW225776   0.316   3.924   5.712
 8293SOL     OW25777   2.925   4.961   4.114
 8293SOL    HW125778   3.001   4.932   4.172
 8293SOL    HW225779   2.839   4.955   4.165
 8294SOL     OW25780   6.599   3.319   5.519
 8294SOL    HW125781   6.622   3.400   5.572
 8294SOL    HW225782   6.647   3.240   5.557
 8295SOL     OW25783   4.669   5.119   2.465
 8295SOL    HW125784   4.612   5.189   2.508
 8295SOL    HW225785   4.760   5.156   2.446
 8296SOL     OW25786   3.606   0.411   2.435
 8296SOL    HW125787   3.538   0.352   2.480
 8296SOL    HW225788   3.676   0.436   2.502
 8297SOL     OW25789   5.981   4.138   1.674
 8297SOL    HW125790   6.007   4.205   1.605
 8297SOL    HW225791   6.027   4.159   1.760
 8298SOL     OW25792   6.960   6.645   1.247
 8298SOL    HW125793   6.912   6.601   1.323
 8298SOL    HW225794   0.034   6.646   1.266
 8299SOL     OW25795   0.995   3.060   6.279
 8299SOL    HW125796   0.960   2.997   6.210
 8299SOL    HW225797   1.089   3.033   6.304
 8300SOL     OW25798   5.386   5.327   4.423
 8300SOL    HW125799   5.380   5.231   4.397
 8300SOL    HW225800   5.480   5.359   4.412
 8301SOL     OW25801   6.377   5.179   0.109
 8301SOL    HW125802   6.279   5.168   0.096
 8301SOL    HW225803   6.403   5.274   0.092
 8302SOL     OW25804   3.540   6.888   6.139
 8302SOL    HW125805   3.589   6.861   6.056
 8302SOL    HW225806   3.448   6.850   6.137
 8303SOL     OW25807   1.472   5.130   4.109
 8303SOL    HW125808   1.544   5.091   4.166
 8303SOL    HW225809   1.473   5.088   4.018
 8304SOL     OW25810   6.149   2.450   3.781
 8304SOL    HW125811   6.104   2.456   3.870
 8304SOL    HW225812   6.218   2.378   3.784
 8305SOL     OW25813   4.557   6.947   5.174
 8305SOL    HW125814   4.616   6.998   5.237
 8305SOL    HW225815   4.603   6.939   5.085
 8306SOL     OW25816   5.085   1.086   3.744
 8306SOL    HW125817   5.055   1.072   3.650
 8306SOL    HW225818   5.173   1.134   3.745
 8307SOL     OW25819   0.514   5.043   3.782
 8307SOL    HW125820   0.510   4.966   3.718
 8307SOL    HW225821   0.533   5.009   3.874
 8308SOL     OW25822   1.306   5.566   0.612
 8308SOL    HW125823   1.235   5.621   0.657
 8308SOL    HW225824   1.278   5.470   0.612
 8309SOL     OW25825   6.404   4.742   2.837
 8309SOL    HW125826   6.305   4.732   2.828
 8309SOL    HW225827   6.450   4.697   2.761
 8310SOL     OW25828   2.442   6.289   2.629
 8310SOL    HW125829   2.343   6.290   2.637
 8310SOL    HW225830   2.477   6.198   2.653
 8311SOL     OW25831   4.527   6.269   2.036
 8311SOL    HW125832   4.533   6.350   2.094
 8311SOL    HW225833   4.518   6.188   2.093
 8312SOL     OW25834   6.860   1.943   0.523
 8312SOL    HW125835   6.898   2.035   0.526
 8312SOL    HW225836   6.933   1.876   0.532
 8313SOL     OW25837   4.930   3.024   6.101
 8313SOL    HW125838   4.989   2.944   6.108
 8313SOL    HW225839   4.958   3.093   6.168
 8314SOL     OW25840   4.319   5.527   3.904
 8314SOL    HW125841   4.294   5.617   3.940
 8314SOL    HW225842   4.411   5.531   3.865
 8315SOL     OW25843   3.283   2.828   6.868
 8315SOL    HW125844   3.207   2.812   6.804
 8315SOL    HW225845   3.280   2.760   6.941
 8316SOL     OW25846   1.290   1.512   5.168
 8316SOL    HW125847   1.285   1.525   5.267
 8316SOL    HW225848   1.366   1.451   5.146
 8317SOL     OW25849   1.066   2.077   5.451
 8317SOL    HW125850   1.064   2.169   5.490
 8317SOL    HW225851   1.143   2.070   5.387
 8318SOL     OW25852   4.575   6.413   5.868
 8318SOL    HW125853   4.639   6.338   5.854
 8318SOL    HW225854   4.620   6.500   5.849
 8319SOL     OW25855   2.127   5.799   6.829
 8319SOL    HW125856   2.106   5.876   6.889
 8319SOL    HW225857   2.216   5.760   6.855
 8320SOL     OW25858   3.708   4.788   5.606
 8320SOL    HW125859   3.764   4.764   5.685
 8320SOL    HW225860   3.712   4.887   5.591
 8321SOL     OW25861   0.424   0.886   1.037
 8321SOL    HW125862   0.410   0.790   1.015
 8321SOL    HW225863   0.342   0.922   1.081
 8322SOL     OW25864   1.799   0.975   0.861
 8322SOL    HW125865   1.702   0.974   0.884
 8322SOL    HW225866   1.844   1.052   0.906
 8323SOL     OW25867   6.116   5.143   0.124
 8323SOL    HW125868   6.091   5.214   0.191
 8323SOL    HW225869   6.033   5.105   0.083
 8324SOL     OW25870   5.197   6.621   6.590
 8324SOL    HW125871   5.240   6.533   6.573
 8324SOL    HW225872   5.116   6.631   6.532
 8325SOL     OW25873   1.220   6.289   5.032
 8325SOL    HW125874   1.265   6.349   4.966
 8325SOL    HW225875   1.140   6.334   5.069
 8326SOL     OW25876   2.222   2.165   6.643
 8326SOL    HW125877   2.162   2.197   6.570
 8326SOL    HW225878   2.183   2.192   6.731
 8327SOL     OW25879   0.889   6.459   4.945
 8327SOL    HW125880   0.905   6.380   4.885
 8327SOL    HW225881   0.943   6.448   5.028
 8328SOL     OW25882   0.708   6.521   1.143
 8328SOL    HW125883   0.640   6.470   1.196
 8328SOL    HW225884   0.788   6.540   1.200
 8329SOL     OW25885   1.504   2.577   5.408
 8329SOL    HW125886   1.540   2.489   5.439
 8329SOL    HW225887   1.550   2.604   5.324
 8330SOL     OW25888   2.774   6.685   0.133
 8330SOL    HW125889   2.704   6.697   0.063
 8330SOL    HW225890   2.731   6.661   0.220
 8331SOL     OW25891   2.174   2.537   5.724
 8331SOL    HW125892   2.092   2.586   5.695
 8331SOL    HW225893   2.194   2.464   5.658
 8332SOL     OW25894   5.824   3.901   1.135
 8332SOL    HW125895   5.800   3.970   1.204
 8332SOL    HW225896   5.793   3.932   1.045
 8333SOL     OW25897   3.123   4.459   6.468
 8333SOL    HW125898   3.061   4.442   6.545
 8333SOL    HW225899   3.217   4.434   6.495
 8334SOL     OW25900   3.457   2.338   5.340
 8334SOL    HW125901   3.440   2.255   5.394
 8334SOL    HW225902   3.376   2.359   5.285
 8335SOL     OW25903   5.475   3.932   5.855
 8335SOL    HW125904   5.388   3.968   5.823
 8335SOL    HW225905   5.546   3.950   5.786
 8336SOL     OW25906   1.122   4.272   3.512
 8336SOL    HW125907   1.145   4.264   3.609
 8336SOL    HW225908   1.135   4.367   3.483
 8337SOL     OW25909   6.765   1.259   4.271
 8337SOL    HW125910   6.738   1.224   4.182
 8337SOL    HW225911   6.862   1.284   4.269
 8338SOL     OW25912   2.880   5.742   0.809
 8338SOL    HW125913   2.941   5.788   0.743
 8338SOL    HW225914   2.936   5.692   0.875
 8339SOL     OW25915   6.427   0.668   1.952
 8339SOL    HW125916   6.356   0.734   1.929
 8339SOL    HW225917   6.516   0.713   1.954
 8340SOL     OW25918   5.573   2.748   6.723
 8340SOL    HW125919   5.495   2.686   6.729
 8340SOL    HW225920   5.623   2.747   6.809
 8341SOL     OW25921   3.932   0.366   1.317
 8341SOL    HW125922   3.859   0.401   1.375
 8341SOL    HW225923   3.945   0.427   1.239
 8342SOL     OW25924   3.698   1.144   0.641
 8342SOL    HW125925   3.727   1.100   0.726
 8342SOL    HW225926   3.612   1.192   0.656
 8343SOL     OW25927   5.301   5.902   3.022
 8343SOL    HW125928   5.292   5.803   3.015
 8343SOL    HW225929   5.220   5.946   2.983
 8344SOL     OW25930   2.539   4.808   6.333
 8344SOL    HW125931   2.525   4.860   6.418
 8344SOL    HW225932   2.631   4.825   6.298
 8345SOL     OW25933   6.252   0.285   3.969
 8345SOL    HW125934   6.307   0.257   3.891
 8345SOL    HW225935   6.294   0.364   4.013
 8346SOL     OW25936   6.221   3.575   4.056
 8346SOL    HW125937   6.202   3.506   3.986
 8346SOL    HW225938   6.136   3.620   4.083
 8347SOL     OW25939   1.766   1.932   5.992
 8347SOL    HW125940   1.730   1.852   6.041
 8347SOL    HW225941   1.786   1.906   5.897
 8348SOL     OW25942   3.424   5.693   1.678
 8348SOL    HW125943   3.362   5.731   1.609
 8348SOL    HW225944   3.396   5.724   1.769
 8349SOL     OW25945   4.567   5.794   1.439
 8349SOL    HW125946   4.664   5.816   1.447
 8349SOL    HW225947   4.513   5.873   1.468
 8350SOL     OW25948   1.146   0.294   6.887
 8350SOL    HW125949   1.058   0.283   6.933
 8350SOL    HW225950   1.205   0.216   6.909
 8351SOL     OW25951   6.797   3.194   3.115
 8351SOL    HW125952   6.713   3.139   3.113
 8351SOL    HW225953   6.839   3.189   3.205
 8352SOL     OW25954   3.067   6.613   6.561
 8352SOL    HW125955   3.105   6.584   6.473
 8352SOL    HW225956   2.971   6.585   6.567
 8353SOL     OW25957   0.415   5.992   2.655
 8353SOL    HW125958   0.497   6.047   2.668
 8353SOL    HW225959   0.437   5.914   2.595
 8354SOL     OW25960   4.719   1.835   3.070
 8354SOL    HW125961   4.635   1.839   3.124
 8354SOL    HW225962   4.696   1.834   2.973
 8355SOL     OW25963   2.889   5.202   5.885
 8355SOL    HW125964   2.859   5.198   5.790
 8355SOL    HW225965   2.864   5.117   5.931
 8356SOL     OW25966   3.035   4.273   1.370
 8356SOL    HW125967   3.018   4.322   1.285
 8356SOL    HW225968   2.978   4.311   1.443
 8357SOL     OW25969   3.148   6.922   4.628
 8357SOL    HW125970   3.234   6.972   4.643
 8357SOL    HW225971   3.122   6.931   4.531
 8358SOL     OW25972   0.347   0.756   4.770
 8358SOL    HW125973   0.300   0.681   4.723
 8358SOL    HW225974   0.408   0.803   4.706
 8359SOL     OW25975   4.411   2.210   5.352
 8359SOL    HW125976   4.481   2.231   5.422
 8359SOL    HW225977   4.456   2.195   5.264
 8360SOL     OW25978   3.330   6.915   1.706
 8360SOL    HW125979   3.395   6.840   1.693
 8360SOL    HW225980   3.370   6.982   1.769
 8361SOL     OW25981   5.292   1.346   0.405
 8361SOL    HW125982   5.363   1.309   0.464
 8361SOL    HW225983   5.221   1.390   0.460
 8362SOL     OW25984   0.179   4.015   1.114
 8362SOL    HW125985   0.196   4.007   1.212
 8362SOL    HW225986   0.111   3.947   1.086
 8363SOL     OW25987   1.136   2.398   1.515
 8363SOL    HW125988   1.141   2.476   1.578
 8363SOL    HW225989   1.070   2.419   1.443
 8364SOL     OW25990   0.216   2.372   4.004
 8364SOL    HW125991   0.153   2.324   4.065
 8364SOL    HW225992   0.307   2.372   4.045
 8365SOL     OW25993   1.714   2.394   1.792
 8365SOL    HW125994   1.803   2.404   1.836
 8365SOL    HW225995   1.666   2.481   1.792
 8366SOL     OW25996   5.008   5.853   2.170
 8366SOL    HW125997   4.914   5.863   2.202
 8366SOL    HW225998   5.012   5.783   2.099
 8367SOL     OW25999   2.258   4.421   3.321
 8367SOL    HW126000   2.349   4.445   3.287
 8367SOL    HW226001   2.236   4.479   3.400
 8368SOL     OW26002   6.767   4.397   5.587
 8368SOL    HW126003   6.823   4.461   5.640
 8368SOL    HW226004   6.825   4.325   5.550
 8369SOL     OW26005   1.610   6.777   0.010
 8369SOL    HW126006   1.586   6.719   0.088
 8369SOL    HW226007   1.694   6.827   0.030
 8370SOL     OW26008   3.143   3.001   0.537
 8370SOL    HW126009   3.157   2.913   0.582
 8370SOL    HW226010   3.208   3.012   0.462
 8371SOL     OW26011   2.969   4.089   6.244
 8371SOL    HW126012   2.890   4.028   6.242
 8371SOL    HW226013   3.007   4.091   6.336
 8372SOL     OW26014   1.575   0.077   1.723
 8372SOL    HW126015   1.539   0.169   1.735
 8372SOL    HW226016   1.674   0.081   1.711
 8373SOL     OW26017   5.726   0.700   3.967
 8373SOL    HW126018   5.740   0.765   4.042
 8373SOL    HW226019   5.761   0.740   3.882
 8374SOL     OW26020   1.116   1.463   3.284
 8374SOL    HW126021   1.131   1.380   3.230
 8374SOL    HW226022   1.203   1.510   3.298
 8375SOL     OW26023   1.546   1.861   5.502
 8375SOL    HW126024   1.579   1.947   5.464
 8375SOL    HW226025   1.527   1.872   5.600
 8376SOL     OW26026   0.680   1.857   3.787
 8376SOL    HW126027   0.619   1.778   3.780
 8376SOL    HW226028   0.773   1.830   3.764
 8377SOL     OW26029   3.325   5.266   0.553
 8377SOL    HW126030   3.345   5.169   0.539
 8377SOL    HW226031   3.253   5.295   0.491
 8378SOL     OW26032   3.990   5.250   4.977
 8378SOL    HW126033   3.907   5.303   4.996
 8378SOL    HW226034   3.973   5.154   5.000
 8379SOL     OW26035   6.495   2.072   2.017
 8379SOL    HW126036   6.478   2.169   2.032
 8379SOL    HW226037   6.573   2.042   2.071
 8380SOL     OW26038   1.065   5.920   2.472
 8380SOL    HW126039   1.099   5.855   2.404
 8380SOL    HW226040   1.037   5.871   2.554
 8381SOL     OW26041   1.041   2.206   2.285
 8381SOL    HW126042   0.969   2.140   2.262
 8381SOL    HW226043   1.114   2.200   2.218
 8382SOL     OW26044   0.439   6.795   1.845
 8382SOL    HW126045   0.487   6.743   1.915
 8382SOL    HW226046   0.455   6.753   1.756
 8383SOL     OW26047   2.670   0.120   5.385
 8383SOL    HW126048   2.770   0.120   5.390
 8383SOL    HW226049   2.637   0.026   5.389
 8384SOL     OW26050   0.672   3.361   3.130
 8384SOL    HW126051   0.589   3.353   3.186
 8384SOL    HW226052   0.659   3.308   3.045
 8385SOL     OW26053   4.443   2.380   2.305
 8385SOL    HW126054   4.423   2.410   2.399
 8385SOL    HW226055   4.524   2.322   2.306
 8386SOL     OW26056   0.915   5.370   1.257
 8386SOL    HW126057   0.902   5.331   1.166
 8386SOL    HW226058   0.842   5.435   1.277
 8387SOL     OW26059   0.603   1.544   3.087
 8387SOL    HW126060   0.532   1.474   3.074
 8387SOL    HW226061   0.611   1.599   3.003
 8388SOL     OW26062   3.884   4.970   1.721
 8388SOL    HW126063   3.970   4.996   1.765
 8388SOL    HW226064   3.851   5.046   1.665
 8389SOL     OW26065   1.326   2.800   3.632
 8389SOL    HW126066   1.423   2.799   3.659
 8389SOL    HW226067   1.271   2.757   3.704
 8390SOL     OW26068   2.795   0.824   6.425
 8390SOL    HW126069   2.889   0.824   6.390
 8390SOL    HW226070   2.750   0.739   6.400
 8391SOL     OW26071   4.746   6.250   1.155
 8391SOL    HW126072   4.780   6.258   1.249
 8391SOL    HW226073   4.795   6.176   1.108
 8392SOL     OW26074   4.270   5.781   0.355
 8392SOL    HW126075   4.221   5.816   0.435
 8392SOL    HW226076   4.251   5.684   0.343
 8393SOL     OW26077   0.912   5.419   1.570
 8393SOL    HW126078   0.845   5.345   1.556
 8393SOL    HW226079   0.975   5.421   1.493
 8394SOL     OW26080   1.434   1.270   3.813
 8394SOL    HW126081   1.491   1.351   3.801
 8394SOL    HW226082   1.490   1.194   3.846
 8395SOL     OW26083   1.459   6.369   5.936
 8395SOL    HW126084   1.409   6.345   6.019
 8395SOL    HW226085   1.394   6.403   5.867
 8396SOL     OW26086   4.400   2.388   0.848
 8396SOL    HW126087   4.315   2.385   0.901
 8396SOL    HW226088   4.381   2.417   0.754
 8397SOL     OW26089   1.790   5.048   3.278
 8397SOL    HW126090   1.810   4.999   3.363
 8397SOL    HW226091   1.854   5.019   3.207
 8398SOL     OW26092   5.831   1.690   0.270
 8398SOL    HW126093   5.736   1.661   0.265
 8398SOL    HW226094   5.890   1.614   0.243
 8399SOL     OW26095   5.245   5.714   6.357
 8399SOL    HW126096   5.296   5.736   6.274
 8399SOL    HW226097   5.275   5.774   6.431
 8400SOL     OW26098   6.705   6.685   4.097
 8400SOL    HW126099   6.615   6.728   4.088
 8400SOL    HW226100   6.729   6.639   4.011
 8401SOL     OW26101   3.051   3.426   5.510
 8401SOL    HW126102   3.090   3.486   5.441
 8401SOL    HW226103   3.090   3.448   5.599
 8402SOL     OW26104   5.205   0.195   5.361
 8402SOL    HW126105   5.159   0.199   5.450
 8402SOL    HW226106   5.188   0.280   5.312
 8403SOL     OW26107   0.525   2.801   5.659
 8403SOL    HW126108   0.467   2.854   5.597
 8403SOL    HW226109   0.579   2.735   5.607
 8404SOL     OW26110   4.700   4.913   5.464
 8404SOL    HW126111   4.632   4.954   5.404
 8404SOL    HW226112   4.784   4.896   5.412
 8405SOL     OW26113   1.936   2.600   5.213
 8405SOL    HW126114   1.951   2.555   5.301
 8405SOL    HW226115   1.838   2.600   5.192
 8406SOL     OW26116   5.106   3.890   1.811
 8406SOL    HW126117   5.166   3.923   1.883
 8406SOL    HW226118   5.120   3.945   1.728
 8407SOL     OW26119   5.052   3.433   3.322
 8407SOL    HW126120   5.029   3.345   3.282
 8407SOL    HW226121   4.986   3.455   3.395
 8408SOL     OW26122   4.925   3.530   3.987
 8408SOL    HW126123   4.904   3.510   3.892
 8408SOL    HW226124   5.016   3.570   3.994
 8409SOL     OW26125   1.167   1.373   3.651
 8409SOL    HW126126   1.095   1.327   3.599
 8409SOL    HW226127   1.237   1.307   3.677
 8410SOL     OW26128   2.363   5.225   2.503
 8410SOL    HW126129   2.394   5.216   2.598
 8410SOL    HW226130   2.441   5.210   2.442
 8411SOL     OW26131   2.082   3.337   3.308
 8411SOL    HW126132   2.090   3.350   3.407
 8411SOL    HW226133   2.168   3.299   3.273
 8412SOL     OW26134   6.612   1.972   2.520
 8412SOL    HW126135   6.561   2.034   2.460
 8412SOL    HW226136   6.695   1.942   2.473
 8413SOL     OW26137   1.814   4.808   1.205
 8413SOL    HW126138   1.794   4.828   1.109
 8413SOL    HW226139   1.852   4.716   1.213
 8414SOL     OW26140   6.418   0.406   3.720
 8414SOL    HW126141   6.439   0.319   3.764
 8414SOL    HW226142   6.430   0.481   3.786
 8415SOL     OW26143   6.909   4.451   1.687
 8415SOL    HW126144   6.903   4.379   1.617
 8415SOL    HW226145   6.915   4.409   1.777
 8416SOL     OW26146   4.702   4.843   2.636
 8416SOL    HW126147   4.782   4.886   2.593
 8416SOL    HW226148   4.625   4.845   2.573
 8417SOL     OW26149   1.439   5.929   6.557
 8417SOL    HW126150   1.388   5.857   6.605
 8417SOL    HW226151   1.518   5.956   6.611
 8418SOL     OW26152   5.773   6.037   2.712
 8418SOL    HW126153   5.753   5.939   2.706
 8418SOL    HW226154   5.689   6.087   2.735
 8419SOL     OW26155   5.114   0.196   4.171
 8419SOL    HW126156   5.146   0.177   4.264
 8419SOL    HW226157   5.144   0.123   4.109
 8420SOL     OW26158   4.066   2.514   5.952
 8420SOL    HW126159   4.013   2.473   5.878
 8420SOL    HW226160   4.041   2.471   6.039
 8421SOL     OW26161   0.096   1.514   1.431
 8421SOL    HW126162   0.163   1.488   1.361
 8421SOL    HW226163   0.030   1.439   1.443
 8422SOL     OW26164   3.037   6.896   1.772
 8422SOL    HW126165   2.998   6.843   1.847
 8422SOL    HW226166   3.137   6.894   1.778
 8423SOL     OW26167   2.090   3.642   1.228
 8423SOL    HW126168   2.048   3.724   1.265
 8423SOL    HW226169   2.064   3.631   1.132
 8424SOL     OW26170   2.806   2.436   1.489
 8424SOL    HW126171   2.760   2.436   1.578
 8424SOL    HW226172   2.863   2.517   1.481
 8425SOL     OW26173   6.069   4.915   6.242
 8425SOL    HW126174   6.133   4.917   6.318
 8425SOL    HW226175   5.997   4.848   6.260
 8426SOL     OW26176   3.479   3.463   2.402
 8426SOL    HW126177   3.407   3.420   2.455
 8426SOL    HW226178   3.525   3.395   2.345
 8427SOL     OW26179   1.738   2.048   0.066
 8427SOL    HW126180   1.746   2.127   0.004
 8427SOL    HW226181   1.821   1.993   0.060
 8428SOL     OW26182   6.121   3.708   0.580
 8428SOL    HW126183   6.039   3.652   0.566
 8428SOL    HW226184   6.142   3.713   0.677
 8429SOL     OW26185   1.896   6.491   2.933
 8429SOL    HW126186   1.986   6.511   2.969
 8429SOL    HW226187   1.881   6.542   2.849
 8430SOL     OW26188   4.800   4.570   3.125
 8430SOL    HW126189   4.753   4.483   3.134
 8430SOL    HW226190   4.849   4.572   3.038
 8431SOL     OW26191   3.026   3.219   2.480
 8431SOL    HW126192   2.993   3.272   2.402
 8431SOL    HW226193   3.055   3.129   2.449
 8432SOL     OW26194   4.686   6.265   6.730
 8432SOL    HW126195   4.631   6.337   6.772
 8432SOL    HW226196   4.767   6.306   6.687
 8433SOL     OW26197   0.649   0.945   3.997
 8433SOL    HW126198   0.549   0.939   3.998
 8433SOL    HW226199   0.676   1.039   4.019
 8434SOL     OW26200   5.993   6.384   6.433
 8434SOL    HW126201   5.968   6.382   6.530
 8434SOL    HW226202   6.005   6.291   6.400
 8435SOL     OW26203   4.785   2.005   1.202
 8435SOL    HW126204   4.794   1.939   1.127
 8435SOL    HW226205   4.828   1.967   1.284
 8436SOL     OW26206   3.047   4.299   1.747
 8436SOL    HW126207   2.996   4.218   1.717
 8436SOL    HW226208   2.986   4.360   1.796
 8437SOL     OW26209   0.515   2.053   0.827
 8437SOL    HW126210   0.447   2.125   0.813
 8437SOL    HW226211   0.469   1.966   0.844
 8438SOL     OW26212   2.114   5.621   0.696
 8438SOL    HW126213   2.028   5.573   0.682
 8438SOL    HW226214   2.143   5.662   0.609
 8439SOL     OW26215   5.826   0.971   1.749
 8439SOL    HW126216   5.814   0.883   1.703
 8439SOL    HW226217   5.894   1.025   1.699
 8440SOL     OW26218   0.832   2.952   3.954
 8440SOL    HW126219   0.804   3.033   4.006
 8440SOL    HW226220   0.923   2.967   3.914
 8441SOL     OW26221   4.761   5.843   2.278
 8441SOL    HW126222   4.703   5.888   2.347
 8441SOL    HW226223   4.704   5.790   2.216
 8442SOL     OW26224   2.535   2.911   1.074
 8442SOL    HW126225   2.468   2.846   1.037
 8442SOL    HW226226   2.589   2.948   0.999
 8443SOL     OW26227   0.364   1.859   1.385
 8443SOL    HW126228   0.315   1.839   1.470
 8443SOL    HW226229   0.358   1.957   1.365
 8444SOL     OW26230   4.148   1.306   3.371
 8444SOL    HW126231   4.241   1.308   3.407
 8444SOL    HW226232   4.128   1.392   3.323
 8445SOL     OW26233   4.429   5.615   1.900
 8445SOL    HW126234   4.358   5.636   1.833
 8445SOL    HW226235   4.515   5.595   1.853
 8446SOL     OW26236   7.018   3.210   2.945
 8446SOL    HW126237   6.938   3.210   3.004
 8446SOL    HW226238   6.999   3.263   2.862
 8447SOL     OW26239   4.286   3.683   1.019
 8447SOL    HW126240   4.201   3.682   1.072
 8447SOL    HW226241   4.363   3.692   1.081
 8448SOL     OW26242   1.824   3.695   5.896
 8448SOL    HW126243   1.863   3.773   5.945
 8448SOL    HW226244   1.743   3.662   5.944
 8449SOL     OW26245   0.833   0.890   4.680
 8449SOL    HW126246   0.845   0.806   4.733
 8449SOL    HW226247   0.881   0.965   4.726
 8450SOL     OW26248   1.980   5.488   1.028
 8450SOL    HW126249   1.883   5.497   1.047
 8450SOL    HW226250   2.001   5.393   1.004
 8451SOL     OW26251   3.372   3.333   0.860
 8451SOL    HW126252   3.336   3.296   0.946
 8451SOL    HW226253   3.323   3.416   0.836
 8452SOL     OW26254   0.071   5.402   1.233
 8452SOL    HW126255   0.009   5.325   1.249
 8452SOL    HW226256   0.017   5.484   1.212
 8453SOL     OW26257   6.660   5.448   5.086
 8453SOL    HW126258   6.651   5.489   5.177
 8453SOL    HW226259   6.730   5.377   5.087
 8454SOL     OW26260   2.042   6.800   4.451
 8454SOL    HW126261   2.106   6.762   4.519
 8454SOL    HW226262   1.960   6.832   4.497
 8455SOL     OW26263   5.806   2.597   0.836
 8455SOL    HW126264   5.790   2.550   0.922
 8455SOL    HW226265   5.766   2.689   0.840
 8456SOL     OW26266   5.417   4.770   3.628
 8456SOL    HW126267   5.430   4.866   3.653
 8456SOL    HW226268   5.333   4.736   3.670
 8457SOL     OW26269   6.596   6.065   5.561
 8457SOL    HW126270   6.564   5.983   5.610
 8457SOL    HW226271   6.522   6.102   5.506
 8458SOL     OW26272   1.594   2.263   1.090
 8458SOL    HW126273   1.597   2.349   1.039
 8458SOL    HW226274   1.521   2.267   1.158
 8459SOL     OW26275   2.446   5.076   3.508
 8459SOL    HW126276   2.395   4.998   3.544
 8459SOL    HW226277   2.485   5.051   3.419
 8460SOL     OW26278   3.844   1.135   1.109
 8460SOL    HW126279   3.767   1.190   1.076
 8460SOL    HW226280   3.863   1.061   1.045
 8461SOL     OW26281   5.319   3.987   3.457
 8461SOL    HW126282   5.223   3.973   3.434
 8461SOL    HW226283   5.333   3.970   3.555
 8462SOL     OW26284   1.520   3.892   0.806
 8462SOL    HW126285   1.596   3.838   0.843
 8462SOL    HW226286   1.553   3.981   0.776
 8463SOL     OW26287   6.821   0.102   1.159
 8463SOL    HW126288   6.864   0.015   1.135
 8463SOL    HW226289   6.885   0.158   1.211
 8464SOL     OW26290   6.148   3.175   6.428
 8464SOL    HW126291   6.205   3.228   6.365
 8464SOL    HW226292   6.092   3.238   6.483
 8465SOL     OW26293   4.935   3.650   0.962
 8465SOL    HW126294   4.859   3.594   0.928
 8465SOL    HW226295   5.016   3.593   0.974
 8466SOL     OW26296   0.508   1.389   5.375
 8466SOL    HW126297   0.566   1.387   5.293
 8466SOL    HW226298   0.566   1.386   5.456
 8467SOL     OW26299   2.995   1.336   0.854
 8467SOL    HW126300   2.955   1.396   0.785
 8467SOL    HW226301   3.061   1.275   0.812
 8468SOL     OW26302   5.504   4.533   0.666
 8468SOL    HW126303   5.588   4.565   0.710
 8468SOL    HW226304   5.524   4.500   0.574
 8469SOL     OW26305   3.903   3.037   5.690
 8469SOL    HW126306   3.972   3.002   5.753
 8469SOL    HW226307   3.826   2.973   5.687
 8470SOL     OW26308   1.429   5.736   1.523
 8470SOL    HW126309   1.410   5.832   1.503
 8470SOL    HW226310   1.518   5.711   1.485
 8471SOL     OW26311   4.187   1.851   4.695
 8471SOL    HW126312   4.231   1.770   4.736
 8471SOL    HW226313   4.089   1.835   4.687
 8472SOL     OW26314   5.577   1.812   6.532
 8472SOL    HW126315   5.639   1.882   6.567
 8472SOL    HW226316   5.487   1.823   6.575
 8473SOL     OW26317   5.043   4.992   5.822
 8473SOL    HW126318   5.140   5.015   5.811
 8473SOL    HW226319   4.987   5.073   5.801
 8474SOL     OW26320   3.007   4.034   5.364
 8474SOL    HW126321   2.958   4.078   5.439
 8474SOL    HW226322   3.040   4.104   5.300
 8475SOL     OW26323   6.870   1.543   3.097
 8475SOL    HW126324   6.941   1.508   3.036
 8475SOL    HW226325   6.891   1.637   3.123
 8476SOL     OW26326   6.142   1.229   1.872
 8476SOL    HW126327   6.195   1.154   1.912
 8476SOL    HW226328   6.104   1.200   1.784
 8477SOL     OW26329   5.798   0.774   1.162
 8477SOL    HW126330   5.757   0.835   1.230
 8477SOL    HW226331   5.829   0.690   1.207
 8478SOL     OW26332   0.568   6.313   5.977
 8478SOL    HW126333   0.645   6.313   5.913
 8478SOL    HW226334   0.602   6.303   6.070
 8479SOL     OW26335   1.330   2.455   0.028
 8479SOL    HW126336   1.330   2.438   6.953
 8479SOL    HW226337   1.299   2.548   0.045
 8480SOL     OW26338   3.224   4.374   0.564
 8480SOL    HW126339   3.277   4.428   0.630
 8480SOL    HW226340   3.283   4.305   0.523
 8481SOL     OW26341   4.225   2.273   2.668
 8481SOL    HW126342   4.249   2.364   2.704
 8481SOL    HW226343   4.204   2.212   2.744
 8482SOL     OW26344   4.151   0.407   6.691
 8482SOL    HW126345   4.111   0.456   6.769
 8482SOL    HW226346   4.119   0.448   6.606
 8483SOL     OW26347   4.032   4.777   3.412
 8483SOL    HW126348   3.985   4.821   3.336
 8483SOL    HW226349   3.974   4.779   3.493
 8484SOL     OW26350   6.125   6.161   5.461
 8484SOL    HW126351   6.149   6.192   5.369
 8484SOL    HW226352   6.166   6.071   5.478
 8485SOL     OW26353   4.406   1.178   5.912
 8485SOL    HW126354   4.315   1.215   5.928
 8485SOL    HW226355   4.408   1.134   5.822
 8486SOL     OW26356   6.209   2.479   4.937
 8486SOL    HW126357   6.114   2.474   4.968
 8486SOL    HW226358   6.239   2.574   4.937
 8487SOL     OW26359   6.788   2.707   6.054
 8487SOL    HW126360   6.860   2.641   6.031
 8487SOL    HW226361   6.799   2.736   6.149
 8488SOL     OW26362   4.484   4.477   2.594
 8488SOL    HW126363   4.482   4.545   2.520
 8488SOL    HW226364   4.559   4.412   2.576
 8489SOL     OW26365   6.171   1.716   2.184
 8489SOL    HW126366   6.264   1.690   2.159
 8489SOL    HW226367   6.174   1.792   2.250
 8490SOL     OW26368   2.910   6.678   0.463
 8490SOL    HW126369   2.995   6.647   0.422
 8490SOL    HW226370   2.922   6.770   0.500
 8491SOL     OW26371   3.225   5.468   2.286
 8491SOL    HW126372   3.308   5.469   2.230
 8491SOL    HW226373   3.232   5.536   2.359
 8492SOL     OW26374   6.379   6.011   4.114
 8492SOL    HW126375   6.403   6.084   4.178
 8492SOL    HW226376   6.388   6.044   4.020
 8493SOL     OW26377   5.184   0.935   5.948
 8493SOL    HW126378   5.111   0.949   5.882
 8493SOL    HW226379   5.198   0.836   5.962
 8494SOL     OW26380   0.301   3.437   2.263
 8494SOL    HW126381   0.369   3.509   2.278
 8494SOL    HW226382   0.314   3.398   2.172
 8495SOL     OW26383   5.492   5.709   6.072
 8495SOL    HW126384   5.583   5.730   6.036
 8495SOL    HW226385   5.431   5.787   6.055
 8496SOL     OW26386   5.297   1.712   2.278
 8496SOL    HW126387   5.262   1.739   2.368
 8496SOL    HW226388   5.238   1.751   2.207
 8497SOL     OW26389   6.738   0.613   2.733
 8497SOL    HW126390   6.782   0.703   2.731
 8497SOL    HW226391   6.639   0.623   2.723
 8498SOL     OW26392   4.841   6.032   4.352
 8498SOL    HW126393   4.764   5.967   4.355
 8498SOL    HW226394   4.902   6.007   4.277
 8499SOL     OW26395   5.908   6.778   5.638
 8499SOL    HW126396   5.995   6.827   5.645
 8499SOL    HW226397   5.837   6.841   5.608
 8500SOL     OW26398   1.034   0.697   6.814
 8500SOL    HW126399   1.061   0.791   6.834
 8500SOL    HW226400   0.935   0.693   6.803
 8501SOL     OW26401   2.970   1.156   6.158
 8501SOL    HW126402   2.895   1.092   6.138
 8501SOL    HW226403   3.050   1.132   6.102
 8502SOL     OW26404   6.411   2.953   0.182
 8502SOL    HW126405   6.337   3.019   0.165
 8502SOL    HW226406   6.387   2.865   0.140
 8503SOL     OW26407   4.869   2.313   5.535
 8503SOL    HW126408   4.935   2.316   5.611
 8503SOL    HW226409   4.883   2.392   5.476
 8504SOL     OW26410   1.135   6.361   2.305
 8504SOL    HW126411   1.211   6.385   2.244
 8504SOL    HW226412   1.145   6.411   2.391
 8505SOL     OW26413   5.650   1.999   2.907
 8505SOL    HW126414   5.669   1.975   2.812
 8505SOL    HW226415   5.610   1.920   2.954
 8506SOL     OW26416   1.309   0.026   6.298
 8506SOL    HW126417   1.338   0.090   6.369
 8506SOL    HW226418   1.376   0.025   6.224
 8507SOL     OW26419   4.013   5.168   5.653
 8507SOL    HW126420   4.074   5.098   5.616
 8507SOL    HW226421   4.051   5.259   5.632
 8508SOL     OW26422   3.367   0.849   6.288
 8508SOL    HW126423   3.443   0.862   6.352
 8508SOL    HW226424   3.346   0.751   6.280
 8509SOL     OW26425   5.152   2.344   2.502
 8509SOL    HW126426   5.202   2.429   2.521
 8509SOL    HW226427   5.059   2.352   2.540
 8510SOL     OW26428   0.732   2.075   4.718
 8510SOL    HW126429   0.795   2.147   4.692
 8510SOL    HW226430   0.640   2.113   4.730
 8511SOL     OW26431   5.934   1.745   3.756
 8511SOL    HW126432   5.998   1.777   3.685
 8511SOL    HW226433   5.844   1.787   3.741
 8512SOL     OW26434   2.003   6.325   5.639
 8512SOL    HW126435   2.013   6.232   5.603
 8512SOL    HW226436   1.906   6.346   5.649
 8513SOL     OW26437   4.816   6.014   6.792
 8513SOL    HW126438   4.812   6.010   6.692
 8513SOL    HW226439   4.789   6.105   6.823
 8514SOL     OW26440   3.374   5.393   4.269
 8514SOL    HW126441   3.472   5.373   4.267
 8514SOL    HW226442   3.341   5.386   4.363
 8515SOL     OW26443   6.102   2.263   1.984
 8515SOL    HW126444   6.075   2.319   2.063
 8515SOL    HW226445   6.125   2.171   2.015
 8516SOL     OW26446   6.552   1.468   2.293
 8516SOL    HW126447   6.638   1.502   2.255
 8516SOL    HW226448   6.485   1.456   2.220
 8517SOL     OW26449   1.369   3.915   5.239
 8517SOL    HW126450   1.303   3.962   5.298
 8517SOL    HW226451   1.436   3.981   5.205
 8518SOL     OW26452   3.181   5.848   0.943
 8518SOL    HW126453   3.264   5.793   0.929
 8518SOL    HW226454   3.206   5.944   0.950
 8519SOL     OW26455   2.692   5.807   3.509
 8519SOL    HW126456   2.663   5.730   3.565
 8519SOL    HW226457   2.792   5.813   3.509
 8520SOL     OW26458   3.278   6.161   6.544
 8520SOL    HW126459   3.310   6.078   6.590
 8520SOL    HW226460   3.354   6.206   6.498
 8521SOL     OW26461   2.142   0.513   2.295
 8521SOL    HW126462   2.146   0.416   2.316
 8521SOL    HW226463   2.085   0.559   2.364
 8522SOL     OW26464   2.258   6.546   4.817
 8522SOL    HW126465   2.343   6.555   4.870
 8522SOL    HW226466   2.191   6.494   4.870
 8523SOL     OW26467   1.826   6.650   6.636
 8523SOL    HW126468   1.728   6.657   6.618
 8523SOL    HW226469   1.845   6.679   6.730
 8524SOL     OW26470   1.933   1.333   7.008
 8524SOL    HW126471   1.979   1.301   0.067
 8524SOL    HW226472   1.908   1.430   7.018
 8525SOL     OW26473   5.856   3.483   3.832
 8525SOL    HW126474   5.806   3.522   3.755
 8525SOL    HW226475   5.791   3.446   3.899
 8526SOL     OW26476   1.778   3.379   2.195
 8526SOL    HW126477   1.700   3.324   2.165
 8526SOL    HW226478   1.856   3.362   2.135
 8527SOL     OW26479   4.773   0.044   4.706
 8527SOL    HW126480   4.846   0.039   4.638
 8527SOL    HW226481   4.685   0.029   4.662
 8528SOL     OW26482   5.744   1.275   6.779
 8528SOL    HW126483   5.751   1.314   6.688
 8528SOL    HW226484   5.805   1.324   6.842
 8529SOL     OW26485   6.999   6.987   5.210
 8529SOL    HW126486   0.042   7.010   5.280
 8529SOL    HW226487   6.960   0.047   5.172
 8530SOL     OW26488   1.978   4.959   5.865
 8530SOL    HW126489   2.006   4.951   5.961
 8530SOL    HW226490   1.986   4.870   5.821
 8531SOL     OW26491   4.178   5.190   1.427
 8531SOL    HW126492   4.112   5.265   1.420
 8531SOL    HW226493   4.141   5.109   1.381
 8532SOL     OW26494   1.492   4.083   0.560
 8532SOL    HW126495   1.590   4.082   0.543
 8532SOL    HW226496   1.455   3.991   0.547
 8533SOL     OW26497   3.888   6.550   5.611
 8533SOL    HW126498   3.835   6.480   5.563
 8533SOL    HW226499   3.950   6.595   5.546
 8534SOL     OW26500   2.187   2.388   1.026
 8534SOL    HW126501   2.116   2.376   1.095
 8534SOL    HW226502   2.149   2.366   0.936
 8535SOL     OW26503   0.551   3.438   5.710
 8535SOL    HW126504   0.608   3.357   5.694
 8535SOL    HW226505   0.459   3.422   5.676
 8536SOL     OW26506   6.307   1.020   5.811
 8536SOL    HW126507   6.353   1.108   5.803
 8536SOL    HW226508   6.209   1.034   5.824
 8537SOL     OW26509   4.364   6.103   3.700
 8537SOL    HW126510   4.424   6.027   3.676
 8537SOL    HW226511   4.348   6.160   3.619
 8538SOL     OW26512   5.042   0.067   5.134
 8538SOL    HW126513   5.116   0.113   5.183
 8538SOL    HW226514   5.065   0.059   5.037
 8539SOL     OW26515   0.870   2.963   2.621
 8539SOL    HW126516   0.900   3.053   2.587
 8539SOL    HW226517   0.803   2.924   2.558
 8540SOL     OW26518   4.024   6.985   6.872
 8540SOL    HW126519   4.039   0.004   6.782
 8540SOL    HW226520   3.959   6.910   6.863
 8541SOL     OW26521   2.780   6.531   5.287
 8541SOL    HW126522   2.699   6.588   5.303
 8541SOL    HW226523   2.824   6.511   5.375
 8542SOL     OW26524   1.042   5.423   5.827
 8542SOL    HW126525   1.121   5.443   5.769
 8542SOL    HW226526   1.042   5.327   5.852
 8543SOL     OW26527   3.055   2.166   5.551
 8543SOL    HW126528   3.066   2.236   5.479
 8543SOL    HW226529   3.075   2.076   5.513
 8544SOL     OW26530   5.431   4.190   5.625
 8544SOL    HW126531   5.336   4.216   5.606
 8544SOL    HW226532   5.455   4.110   5.570
 8545SOL     OW26533   2.263   0.153   6.108
 8545SOL    HW126534   2.320   0.071   6.101
 8545SOL    HW226535   2.297   0.221   6.042
 8546SOL     OW26536   3.621   1.111   3.687
 8546SOL    HW126537   3.563   1.169   3.629
 8546SOL    HW226538   3.574   1.092   3.773
 8547SOL     OW26539   4.994   6.209   5.983
 8547SOL    HW126540   5.024   6.177   6.072
 8547SOL    HW226541   5.056   6.282   5.951
 8548SOL     OW26542   1.430   4.417   4.366
 8548SOL    HW126543   1.378   4.502   4.375
 8548SOL    HW226544   1.512   4.422   4.423
 8549SOL     OW26545   2.799   0.192   3.781
 8549SOL    HW126546   2.742   0.232   3.709
 8549SOL    HW226547   2.752   0.201   3.869
 8550SOL     OW26548   0.218   4.505   5.209
 8550SOL    HW126549   0.269   4.422   5.186
 8550SOL    HW226550   0.128   4.480   5.247
 8551SOL     OW26551   3.598   1.216   4.494
 8551SOL    HW126552   3.591   1.200   4.592
 8551SOL    HW226553   3.554   1.303   4.471
 8552SOL     OW26554   3.429   1.759   2.161
 8552SOL    HW126555   3.406   1.852   2.133
 8552SOL    HW226556   3.424   1.752   2.261
 8553SOL     OW26557   4.753   3.994   0.768
 8553SOL    HW126558   4.836   3.944   0.793
 8553SOL    HW226559   4.680   3.930   0.746
 8554SOL     OW26560   1.279   1.094   6.398
 8554SOL    HW126561   1.357   1.108   6.460
 8554SOL    HW226562   1.257   0.996   6.395
 8555SOL     OW26563   3.006   1.892   3.594
 8555SOL    HW126564   2.911   1.865   3.575
 8555SOL    HW226565   3.067   1.842   3.533
 8556SOL     OW26566   6.873   5.293   5.159
 8556SOL    HW126567   6.882   5.207   5.108
 8556SOL    HW226568   6.955   5.307   5.214
 8557SOL     OW26569   6.495   1.151   0.022
 8557SOL    HW126570   6.530   1.118   0.109
 8557SOL    HW226571   6.540   1.101   6.971
 8558SOL     OW26572   2.672   6.734   3.881
 8558SOL    HW126573   2.766   6.733   3.847
 8558SOL    HW226574   2.656   6.820   3.930
 8559SOL     OW26575   1.588   3.474   2.580
 8559SOL    HW126576   1.670   3.442   2.627
 8559SOL    HW226577   1.513   3.410   2.595
 8560SOL     OW26578   3.513   3.814   1.305
 8560SOL    HW126579   3.531   3.870   1.225
 8560SOL    HW226580   3.422   3.836   1.341
 8561SOL     OW26581   4.310   0.482   3.166
 8561SOL    HW126582   4.403   0.444   3.160
 8561SOL    HW226583   4.316   0.579   3.190
 8562SOL     OW26584   5.375   2.533   6.454
 8562SOL    HW126585   5.316   2.454   6.439
 8562SOL    HW226586   5.454   2.507   6.510
 8563SOL     OW26587   1.947   5.349   2.621
 8563SOL    HW126588   1.892   5.323   2.542
 8563SOL    HW226589   1.933   5.282   2.695
 8564SOL     OW26590   3.553   6.233   0.036
 8564SOL    HW126591   3.641   6.188   0.055
 8564SOL    HW226592   3.502   6.180   6.992
 8565SOL     OW26593   1.030   5.096   1.123
 8565SOL    HW126594   0.948   5.133   1.078
 8565SOL    HW226595   1.108   5.104   1.061
 8566SOL     OW26596   3.622   0.633   3.314
 8566SOL    HW126597   3.655   0.718   3.355
 8566SOL    HW226598   3.595   0.649   3.219
 8567SOL     OW26599   1.721   2.256   1.357
 8567SOL    HW126600   1.691   2.281   1.265
 8567SOL    HW226601   1.705   2.158   1.372
 8568SOL     OW26602   6.281   0.372   5.805
 8568SOL    HW126603   6.251   0.460   5.843
 8568SOL    HW226604   6.379   0.375   5.788
 8569SOL     OW26605   5.480   1.722   6.932
 8569SOL    HW126606   5.469   1.821   6.921
 8569SOL    HW226607   5.556   1.691   6.875
 8570SOL     OW26608   1.921   1.675   3.601
 8570SOL    HW126609   1.848   1.607   3.600
 8570SOL    HW226610   1.897   1.750   3.539
 8571SOL     OW26611   1.529   0.461   3.383
 8571SOL    HW126612   1.528   0.557   3.356
 8571SOL    HW226613   1.438   0.422   3.369
 8572SOL     OW26614   3.139   3.966   5.940
 8572SOL    HW126615   3.074   3.899   5.903
 8572SOL    HW226616   3.116   4.057   5.904
 8573SOL     OW26617   1.807   6.087   6.389
 8573SOL    HW126618   1.773   6.033   6.312
 8573SOL    HW226619   1.732   6.143   6.425
 8574SOL     OW26620   5.581   1.325   5.455
 8574SOL    HW126621   5.666   1.272   5.461
 8574SOL    HW226622   5.503   1.265   5.473
 8575SOL     OW26623   3.202   6.044   4.483
 8575SOL    HW126624   3.168   5.950   4.474
 8575SOL    HW226625   3.290   6.042   4.530
 8576SOL     OW26626   1.389   4.025   4.696
 8576SOL    HW126627   1.348   4.087   4.630
 8576SOL    HW226628   1.376   3.931   4.666
 8577SOL     OW26629   2.120   0.753   0.587
 8577SOL    HW126630   2.039   0.716   0.542
 8577SOL    HW226631   2.178   0.798   0.519
 8578SOL     OW26632   1.101   6.991   6.017
 8578SOL    HW126633   1.058   6.975   6.106
 8578SOL    HW226634   1.041   0.023   5.960
 8579SOL     OW26635   3.440   0.076   1.896
 8579SOL    HW126636   3.398   0.166   1.908
 8579SOL    HW226637   3.536   0.088   1.873
 8580SOL     OW26638   2.324   0.647   1.921
 8580SOL    HW126639   2.378   0.727   1.894
 8580SOL    HW226640   2.367   0.564   1.886
 8581SOL     OW26641   3.950   3.880   2.185
 8581SOL    HW126642   4.012   3.915   2.255
 8581SOL    HW226643   3.938   3.949   2.114
 8582SOL     OW26644   4.312   5.615   5.635
 8582SOL    HW126645   4.314   5.524   5.678
 8582SOL    HW226646   4.218   5.639   5.611
 8583SOL     OW26647   3.499   6.723   2.769
 8583SOL    HW126648   3.500   6.799   2.704
 8583SOL    HW226649   3.569   6.657   2.744
 8584SOL     OW26650   6.296   1.625   5.073
 8584SOL    HW126651   6.207   1.656   5.108
 8584SOL    HW226652   6.293   1.622   4.973
 8585SOL     OW26653   4.888   2.178   2.006
 8585SOL    HW126654   4.960   2.187   1.937
 8585SOL    HW226655   4.877   2.266   2.053
 8586SOL     OW26656   6.248   5.916   5.507
 8586SOL    HW126657   6.306   5.904   5.426
 8586SOL    HW226658   6.304   5.912   5.589
 8587SOL     OW26659   6.770   1.391   0.076
 8587SOL    HW126660   6.781   1.292   0.083
 8587SOL    HW226661   6.799   1.434   0.162
 8588SOL     OW26662   1.605   0.802   5.322
 8588SOL    HW126663   1.647   0.790   5.233
 8588SOL    HW226664   1.511   0.836   5.311
 8589SOL     OW26665   5.472   2.963   6.582
 8589SOL    HW126666   5.511   2.884   6.628
 8589SOL    HW226667   5.463   3.039   6.646
 8590SOL     OW26668   1.406   1.159   3.561
 8590SOL    HW126669   1.421   1.187   3.656
 8590SOL    HW226670   1.473   1.205   3.502
 8591SOL     OW26671   0.567   3.661   4.977
 8591SOL    HW126672   0.504   3.679   5.052
 8591SOL    HW226673   0.607   3.747   4.945
 8592SOL     OW26674   0.086   1.731   4.205
 8592SOL    HW126675   0.045   1.659   4.261
 8592SOL    HW226676   0.143   1.690   4.134
 8593SOL     OW26677   6.295   1.491   0.229
 8593SOL    HW126678   6.372   1.509   0.290
 8593SOL    HW226679   6.247   1.408   0.258
 8594SOL     OW26680   5.771   4.392   6.166
 8594SOL    HW126681   5.794   4.372   6.261
 8594SOL    HW226682   5.845   4.443   6.123
 8595SOL     OW26683   5.348   6.271   3.013
 8595SOL    HW126684   5.447   6.284   3.021
 8595SOL    HW226685   5.317   6.305   2.925
 8596SOL     OW26686   1.275   2.373   5.600
 8596SOL    HW126687   1.317   2.464   5.605
 8596SOL    HW226688   1.188   2.379   5.550
 8597SOL     OW26689   5.950   2.320   6.181
 8597SOL    HW126690   5.957   2.410   6.139
 8597SOL    HW226691   5.909   2.329   6.272
 8598SOL     OW26692   0.047   0.621   5.866
 8598SOL    HW126693   0.093   0.699   5.823
 8598SOL    HW226694   0.018   0.556   5.796
 8599SOL     OW26695   6.157   4.384   5.088
 8599SOL    HW126696   6.062   4.386   5.121
 8599SOL    HW226697   6.190   4.290   5.087
 8600SOL     OW26698   4.501   2.722   1.652
 8600SOL    HW126699   4.561   2.752   1.726
 8600SOL    HW226700   4.557   2.684   1.578
 8601SOL     OW26701   5.377   5.661   2.677
 8601SOL    HW126702   5.279   5.648   2.665
 8601SOL    HW226703   5.417   5.693   2.591
 8602SOL     OW26704   1.642   0.402   5.682
 8602SOL    HW126705   1.596   0.335   5.740
 8602SOL    HW226706   1.740   0.382   5.679
 8603SOL     OW26707   0.560   0.781   6.587
 8603SOL    HW126708   0.558   0.799   6.488
 8603SOL    HW226709   0.467   0.776   6.622
 8604SOL     OW26710   1.629   5.419   5.998
 8604SOL    HW126711   1.705   5.373   5.950
 8604SOL    HW226712   1.560   5.351   6.022
 8605SOL     OW26713   6.834   4.149   3.903
 8605SOL    HW126714   6.895   4.215   3.858
 8605SOL    HW226715   6.769   4.113   3.837
 8606SOL     OW26716   1.319   0.518   6.947
 8606SOL    HW126717   1.284   0.612   6.939
 8606SOL    HW226718   1.246   0.453   6.926
 8607SOL     OW26719   3.042   3.131   1.383
 8607SOL    HW126720   2.958   3.090   1.346
 8607SOL    HW226721   3.088   3.182   1.311
 8608SOL     OW26722   1.652   6.003   1.702
 8608SOL    HW126723   1.572   6.028   1.756
 8608SOL    HW226724   1.664   5.903   1.706
 8609SOL     OW26725   5.247   2.393   4.826
 8609SOL    HW126726   5.220   2.370   4.732
 8609SOL    HW226727   5.214   2.322   4.888
 8610SOL     OW26728   6.651   5.115   2.676
 8610SOL    HW126729   6.731   5.065   2.709
 8610SOL    HW226730   6.569   5.079   2.720
 8611SOL     OW26731   2.025   1.437   5.263
 8611SOL    HW126732   2.034   1.505   5.190
 8611SOL    HW226733   2.113   1.393   5.279
 8612SOL     OW26734   3.695   3.161   5.064
 8612SOL    HW126735   3.652   3.117   4.986
 8612SOL    HW226736   3.648   3.134   5.148
 8613SOL     OW26737   3.749   3.217   3.742
 8613SOL    HW126738   3.677   3.149   3.731
 8613SOL    HW226739   3.730   3.295   3.682
 8614SOL     OW26740   0.841   2.308   3.315
 8614SOL    HW126741   0.847   2.392   3.262
 8614SOL    HW226742   0.800   2.236   3.259
 8615SOL     OW26743   3.787   1.469   5.514
 8615SOL    HW126744   3.736   1.419   5.584
 8615SOL    HW226745   3.731   1.545   5.480
 8616SOL     OW26746   5.602   4.317   5.222
 8616SOL    HW126747   5.588   4.262   5.140
 8616SOL    HW226748   5.612   4.413   5.196
 8617SOL     OW26749   1.499   6.511   3.001
 8617SOL    HW126750   1.460   6.517   2.909
 8617SOL    HW226751   1.441   6.562   3.065
 8618SOL     OW26752   5.619   4.271   0.808
 8618SOL    HW126753   5.565   4.336   0.755
 8618SOL    HW226754   5.570   4.184   0.812
 8619SOL     OW26755   5.012   5.848   0.543
 8619SOL    HW126756   5.014   5.812   0.449
 8619SOL    HW226757   4.919   5.840   0.579
 8620SOL     OW26758   1.956   6.273   3.724
 8620SOL    HW126759   1.911   6.262   3.812
 8620SOL    HW226760   1.900   6.332   3.665
 8621SOL     OW26761   5.707   3.735   1.920
 8621SOL    HW126762   5.682   3.771   1.830
 8621SOL    HW226763   5.794   3.686   1.914
 8622SOL     OW26764   0.813   5.680   1.594
 8622SOL    HW126765   0.806   5.709   1.689
 8622SOL    HW226766   0.856   5.590   1.589
 8623SOL     OW26767   1.893   1.851   3.375
 8623SOL    HW126768   1.901   1.950   3.377
 8623SOL    HW226769   1.817   1.824   3.315
 8624SOL     OW26770   3.543   4.122   5.419
 8624SOL    HW126771   3.556   4.104   5.516
 8624SOL    HW226772   3.463   4.182   5.407
 8625SOL     OW26773   4.570   3.755   6.077
 8625SOL    HW126774   4.629   3.822   6.122
 8625SOL    HW226775   4.596   3.748   5.980
 8626SOL     OW26776   4.919   1.853   1.432
 8626SOL    HW126777   4.961   1.806   1.354
 8626SOL    HW226778   4.844   1.798   1.468
 8627SOL     OW26779   1.557   0.186   2.762
 8627SOL    HW126780   1.610   0.160   2.682
 8627SOL    HW226781   1.469   0.225   2.733
 8628SOL     OW26782   1.391   6.884   1.102
 8628SOL    HW126783   1.345   6.804   1.139
 8628SOL    HW226784   1.454   6.921   1.171
 8629SOL     OW26785   0.090   7.020   4.370
 8629SOL    HW126786   0.056   7.014   4.464
 8629SOL    HW226787   0.072   6.933   4.324
 8630SOL     OW26788   4.770   2.684   1.456
 8630SOL    HW126789   4.754   2.764   1.513
 8630SOL    HW226790   4.708   2.686   1.377
 8631SOL     OW26791   2.041   6.214   6.124
 8631SOL    HW126792   2.027   6.168   6.211
 8631SOL    HW226793   1.997   6.161   6.051
 8632SOL     OW26794   6.071   5.285   3.842
 8632SOL    HW126795   6.098   5.213   3.906
 8632SOL    HW226796   5.972   5.296   3.843
 8633SOL     OW26797   6.204   3.816   5.496
 8633SOL    HW126798   6.297   3.794   5.526
 8633SOL    HW226799   6.200   3.911   5.465
 8634SOL     OW26800   5.298   4.733   6.802
 8634SOL    HW126801   5.317   4.656   6.741
 8634SOL    HW226802   5.281   4.815   6.747
 8635SOL     OW26803   4.810   2.698   6.547
 8635SOL    HW126804   4.904   2.731   6.537
 8635SOL    HW226805   4.751   2.773   6.577
 8636SOL     OW26806   4.100   6.100   1.843
 8636SOL    HW126807   4.183   6.152   1.863
 8636SOL    HW226808   4.098   6.017   1.900
 8637SOL     OW26809   1.865   2.423   0.116
 8637SOL    HW126810   1.923   2.343   0.104
 8637SOL    HW226811   1.902   2.480   0.190
 8638SOL     OW26812   4.890   2.642   4.416
 8638SOL    HW126813   4.835   2.668   4.495
 8638SOL    HW226814   4.985   2.629   4.444
 8639SOL     OW26815   3.197   4.706   0.353
 8639SOL    HW126816   3.119   4.680   0.410
 8639SOL    HW226817   3.188   4.803   0.326
 8640SOL     OW26818   4.103   2.565   0.616
 8640SOL    HW126819   4.044   2.487   0.636
 8640SOL    HW226820   4.195   2.533   0.594
 8641SOL     OW26821   3.125   4.916   3.076
 8641SOL    HW126822   3.202   4.918   3.013
 8641SOL    HW226823   3.053   4.857   3.039
 8642SOL     OW26824   2.180   6.007   3.049
 8642SOL    HW126825   2.155   5.989   2.954
 8642SOL    HW226826   2.138   5.938   3.108
 8643SOL     OW26827   4.017   6.699   1.525
 8643SOL    HW126828   4.106   6.733   1.556
 8643SOL    HW226829   4.007   6.717   1.427
 8644SOL     OW26830   5.943   2.879   5.969
 8644SOL    HW126831   5.844   2.890   5.975
 8644SOL    HW226832   5.986   2.910   6.053
 8645SOL     OW26833   5.041   5.185   2.775
 8645SOL    HW126834   5.018   5.118   2.846
 8645SOL    HW226835   5.009   5.276   2.803
 8646SOL     OW26836   0.035   2.784   5.253
 8646SOL    HW126837   6.992   2.722   5.212
 8646SOL    HW226838   0.127   2.762   5.220
 8647SOL     OW26839   1.912   5.184   1.579
 8647SOL    HW126840   1.817   5.155   1.591
 8647SOL    HW226841   1.943   5.230   1.662
 8648SOL     OW26842   5.168   5.375   0.451
 8648SOL    HW126843   5.157   5.276   0.453
 8648SOL    HW226844   5.097   5.415   0.392
 8649SOL     OW26845   5.456   1.886   1.194
 8649SOL    HW126846   5.533   1.825   1.209
 8649SOL    HW226847   5.488   1.972   1.153
 8650SOL     OW26848   2.148   0.702   5.830
 8650SOL    HW126849   2.140   0.603   5.814
 8650SOL    HW226850   2.186   0.717   5.921
 8651SOL     OW26851   4.158   1.957   1.986
 8651SOL    HW126852   4.104   2.020   2.041
 8651SOL    HW226853   4.119   1.951   1.894
 8652SOL     OW26854   0.148   2.256   3.702
 8652SOL    HW126855   0.233   2.208   3.684
 8652SOL    HW226856   0.159   2.313   3.784
 8653SOL     OW26857   6.001   1.134   6.983
 8653SOL    HW126858   5.946   1.079   6.920
 8653SOL    HW226859   5.982   1.106   0.053
 8654SOL     OW26860   0.206   4.751   2.941
 8654SOL    HW126861   0.148   4.740   3.022
 8654SOL    HW226862   0.210   4.848   2.916
 8655SOL     OW26863   0.769   0.040   5.097
 8655SOL    HW126864   0.702   0.090   5.151
 8655SOL    HW226865   0.858   0.086   5.103
 8656SOL     OW26866   4.359   6.294   0.855
 8656SOL    HW126867   4.432   6.228   0.868
 8656SOL    HW226868   4.345   6.346   0.939
 8657SOL     OW26869   2.944   1.608   2.842
 8657SOL    HW126870   2.885   1.687   2.830
 8657SOL    HW226871   3.028   1.620   2.789
 8658SOL     OW26872   6.775   3.641   1.235
 8658SOL    HW126873   6.739   3.549   1.217
 8658SOL    HW226874   6.711   3.691   1.292
 8659SOL     OW26875   4.159   0.699   3.002
 8659SOL    HW126876   4.194   0.614   2.960
 8659SOL    HW226877   4.171   0.775   2.938
 8660SOL     OW26878   0.028   3.735   1.600
 8660SOL    HW126879   0.117   3.689   1.598
 8660SOL    HW226880   0.010   3.777   1.511
 8661SOL     OW26881   6.203   3.524   2.177
 8661SOL    HW126882   6.107   3.542   2.155
 8661SOL    HW226883   6.232   3.584   2.252
 8662SOL     OW26884   1.303   2.054   2.517
 8662SOL    HW126885   1.235   2.126   2.528
 8662SOL    HW226886   1.372   2.062   2.588
 8663SOL     OW26887   4.012   4.805   2.651
 8663SOL    HW126888   4.009   4.710   2.681
 8663SOL    HW226889   3.921   4.844   2.655
 8664SOL     OW26890   3.254   6.400   4.318
 8664SOL    HW126891   3.178   6.435   4.263
 8664SOL    HW226892   3.248   6.300   4.323
 8665SOL     OW26893   5.717   3.979   6.757
 8665SOL    HW126894   5.792   4.039   6.785
 8665SOL    HW226895   5.711   3.978   6.657
 8666SOL     OW26896   4.901   0.716   3.038
 8666SOL    HW126897   4.893   0.706   3.137
 8666SOL    HW226898   4.967   0.649   3.003
 8667SOL     OW26899   5.471   2.391   2.110
 8667SOL    HW126900   5.509   2.320   2.050
 8667SOL    HW226901   5.531   2.471   2.109
 8668SOL     OW26902   4.241   1.973   4.464
 8668SOL    HW126903   4.213   1.928   4.550
 8668SOL    HW226904   4.185   2.053   4.449
 8669SOL     OW26905   6.609   6.088   6.168
 8669SOL    HW126906   6.649   6.110   6.079
 8669SOL    HW226907   6.625   6.164   6.231
 8670SOL     OW26908   0.184   5.300   5.410
 8670SOL    HW126909   0.194   5.282   5.312
 8670SOL    HW226910   0.183   5.214   5.460
 8671SOL     OW26911   0.159   2.787   3.066
 8671SOL    HW126912   0.181   2.767   3.161
 8671SOL    HW226913   0.059   2.789   3.054
 8672SOL     OW26914   6.946   1.274   2.367
 8672SOL    HW126915   7.021   1.255   2.430
 8672SOL    HW226916   6.875   1.325   2.415
 8673SOL     OW26917   0.989   1.270   1.317
 8673SOL    HW126918   1.079   1.237   1.288
 8673SOL    HW226919   0.959   1.342   1.255
 8674SOL     OW26920   6.934   3.890   3.481
 8674SOL    HW126921   6.905   3.986   3.479
 8674SOL    HW226922   7.012   3.878   3.420
 8675SOL     OW26923   4.553   2.712   5.082
 8675SOL    HW126924   4.538   2.760   5.168
 8675SOL    HW226925   4.496   2.753   5.010
 8676SOL     OW26926   4.639   2.213   0.905
 8676SOL    HW126927   4.553   2.232   0.858
 8676SOL    HW226928   4.623   2.210   1.004
 8677SOL     OW26929   2.852   0.328   6.955
 8677SOL    HW126930   2.808   0.246   6.993
 8677SOL    HW226931   2.799   0.360   6.876
 8678SOL     OW26932   2.915   2.358   0.196
 8678SOL    HW126933   2.944   2.272   0.154
 8678SOL    HW226934   2.842   2.398   0.142
 8679SOL     OW26935   1.730   1.915   6.424
 8679SOL    HW126936   1.665   1.862   6.371
 8679SOL    HW226937   1.722   1.891   6.521
 8680SOL     OW26938   6.981   0.415   1.069
 8680SOL    HW126939   0.028   0.447   1.006
 8680SOL    HW226940   0.001   0.380   1.153
 8681SOL     OW26941   5.530   5.073   1.436
 8681SOL    HW126942   5.560   4.984   1.470
 8681SOL    HW226943   5.524   5.071   1.336
 8682SOL     OW26944   2.678   0.771   2.557
 8682SOL    HW126945   2.614   0.729   2.493
 8682SOL    HW226946   2.630   0.839   2.612
 8683SOL     OW26947   2.460   4.469   4.030
 8683SOL    HW126948   2.559   4.458   4.037
 8683SOL    HW226949   2.418   4.455   4.119
 8684SOL     OW26950   2.232   3.976   3.428
 8684SOL    HW126951   2.291   4.001   3.505
 8684SOL    HW226952   2.185   4.058   3.395
 8685SOL     OW26953   5.053   3.573   4.968
 8685SOL    HW126954   4.958   3.600   4.981
 8685SOL    HW226955   5.061   3.473   4.974
 8686SOL     OW26956   1.218   4.991   2.470
 8686SOL    HW126957   1.282   4.914   2.471
 8686SOL    HW226958   1.131   4.963   2.511
 8687SOL     OW26959   5.155   4.588   5.462
 8687SOL    HW126960   5.178   4.680   5.493
 8687SOL    HW226961   5.239   4.538   5.440
 8688SOL     OW26962   0.970   4.164   4.419
 8688SOL    HW126963   0.926   4.128   4.337
 8688SOL    HW226964   1.036   4.097   4.454
 8689SOL     OW26965   4.669   3.372   1.110
 8689SOL    HW126966   4.757   3.365   1.158
 8689SOL    HW226967   4.613   3.443   1.153
 8690SOL     OW26968   0.989   1.701   2.142
 8690SOL    HW126969   1.040   1.642   2.204
 8690SOL    HW226970   0.917   1.648   2.097
 8691SOL     OW26971   3.590   2.155   6.907
 8691SOL    HW126972   3.567   2.168   7.003
 8691SOL    HW226973   3.523   2.202   6.850
 8692SOL     OW26974   5.122   2.779   4.679
 8692SOL    HW126975   5.097   2.794   4.584
 8692SOL    HW226976   5.153   2.685   4.692
 8693SOL     OW26977   0.256   0.169   5.187
 8693SOL    HW126978   0.329   0.130   5.131
 8693SOL    HW226979   0.240   0.110   5.266
 8694SOL     OW26980   4.612   3.755   5.770
 8694SOL    HW126981   4.585   3.661   5.748
 8694SOL    HW226982   4.537   3.817   5.751
 8695SOL     OW26983   3.445   4.940   1.045
 8695SOL    HW126984   3.362   4.956   0.992
 8695SOL    HW226985   3.475   4.845   1.033
 8696SOL     OW26986   2.604   6.025   6.184
 8696SOL    HW126987   2.673   6.087   6.220
 8696SOL    HW226988   2.650   5.949   6.136
 8697SOL     OW26989   1.195   3.559   4.960
 8697SOL    HW126990   1.270   3.585   4.899
 8697SOL    HW226991   1.212   3.594   5.052
 8698SOL     OW26992   4.564   4.410   6.927
 8698SOL    HW126993   4.470   4.443   6.930
 8698SOL    HW226994   4.576   4.353   6.846
 8699SOL     OW26995   2.417   2.244   0.955
 8699SOL    HW126996   2.403   2.181   0.879
 8699SOL    HW226997   2.328   2.278   0.986
 8700SOL     OW26998   0.305   1.584   4.829
 8700SOL    HW126999   0.240   1.508   4.842
 8700SOL    HW227000   0.323   1.596   4.731
 8701SOL     OW27001   1.940   3.697   6.379
 8701SOL    HW127002   1.846   3.723   6.355
 8701SOL    HW227003   1.940   3.603   6.413
 8702SOL     OW27004   6.045   4.303   1.468
 8702SOL    HW127005   6.086   4.258   1.389
 8702SOL    HW227006   6.113   4.362   1.512
 8703SOL     OW27007   2.076   5.779   2.162
 8703SOL    HW127008   2.129   5.718   2.103
 8703SOL    HW227009   2.026   5.726   2.230
 8704SOL     OW27010   6.824   1.491   3.809
 8704SOL    HW127011   6.780   1.580   3.819
 8704SOL    HW227012   6.885   1.474   3.886
 8705SOL     OW27013   3.710   2.271   0.668
 8705SOL    HW127014   3.692   2.337   0.741
 8705SOL    HW227015   3.624   2.239   0.630
 8706SOL     OW27016   4.715   2.858   6.085
 8706SOL    HW127017   4.796   2.913   6.068
 8706SOL    HW227018   4.674   2.884   6.173
 8707SOL     OW27019   1.227   0.666   4.036
 8707SOL    HW127020   1.324   0.691   4.045
 8707SOL    HW227021   1.186   0.661   4.127
 8708SOL     OW27022   5.691   2.523   0.583
 8708SOL    HW127023   5.693   2.614   0.540
 8708SOL    HW227024   5.729   2.529   0.675
 8709SOL     OW27025   6.892   5.854   3.772
 8709SOL    HW127026   6.855   5.945   3.790
 8709SOL    HW227027   6.991   5.861   3.757
 8710SOL     OW27028   2.220   2.215   3.816
 8710SOL    HW127029   2.273   2.136   3.846
 8710SOL    HW227030   2.272   2.299   3.834
 8711SOL     OW27031   1.888   1.235   2.060
 8711SOL    HW127032   1.936   1.310   2.014
 8711SOL    HW227033   1.907   1.239   2.158
 8712SOL     OW27034   1.348   4.154   4.429
 8712SOL    HW127035   1.365   4.249   4.403
 8712SOL    HW227036   1.366   4.095   4.350
 8713SOL     OW27037   0.457   3.665   2.685
 8713SOL    HW127038   0.499   3.651   2.775
 8713SOL    HW227039   0.513   3.621   2.615
 8714SOL     OW27040   6.426   4.597   6.314
 8714SOL    HW127041   6.432   4.659   6.236
 8714SOL    HW227042   6.338   4.609   6.360
 8715SOL     OW27043   2.534   5.116   0.770
 8715SOL    HW127044   2.571   5.031   0.807
 8715SOL    HW227045   2.439   5.128   0.801
 8716SOL     OW27046   6.050   0.351   2.289
 8716SOL    HW127047   6.120   0.415   2.323
 8716SOL    HW227048   6.083   0.257   2.302
 8717SOL     OW27049   3.212   2.112   0.804
 8717SOL    HW127050   3.260   2.169   0.870
 8717SOL    HW227051   3.207   2.018   0.839
 8718SOL     OW27052   2.799   5.445   6.200
 8718SOL    HW127053   2.886   5.445   6.151
 8718SOL    HW227054   2.817   5.445   6.298
 8719SOL     OW27055   2.714   1.369   4.889
 8719SOL    HW127056   2.804   1.376   4.931
 8719SOL    HW227057   2.659   1.449   4.913
 8720SOL     OW27058   0.568   6.199   4.911
 8720SOL    HW127059   0.648   6.208   4.971
 8720SOL    HW227060   0.597   6.205   4.816
 8721SOL     OW27061   1.307   0.514   0.895
 8721SOL    HW127062   1.299   0.612   0.880
 8721SOL    HW227063   1.217   0.471   0.884
 8722SOL     OW27064   3.655   1.295   0.386
 8722SOL    HW127065   3.578   1.238   0.357
 8722SOL    HW227066   3.698   1.255   0.467
 8723SOL     OW27067   3.677   6.510   2.740
 8723SOL    HW127068   3.703   6.482   2.832
 8723SOL    HW227069   3.756   6.548   2.692
 8724SOL     OW27070   3.394   1.117   5.128
 8724SOL    HW127071   3.435   1.133   5.218
 8724SOL    HW227072   3.391   1.202   5.077
 8725SOL     OW27073   0.396   0.686   2.638
 8725SOL    HW127074   0.328   0.747   2.680
 8725SOL    HW227075   0.441   0.633   2.709
 8726SOL     OW27076   6.815   1.435   0.352
 8726SOL    HW127077   6.831   1.337   0.365
 8726SOL    HW227078   6.901   1.484   0.361
 8727SOL     OW27079   5.057   5.269   6.498
 8727SOL    HW127080   5.091   5.228   6.414
 8727SOL    HW227081   5.108   5.352   6.518
 8728SOL     OW27082   6.244   6.146   4.491
 8728SOL    HW127083   6.343   6.157   4.486
 8728SOL    HW227084   6.213   6.091   4.413
 8729SOL     OW27085   5.616   6.015   5.904
 8729SOL    HW127086   5.622   6.108   5.867
 8729SOL    HW227087   5.675   6.007   5.984
 8730SOL     OW27088   4.024   4.596   1.787
 8730SOL    HW127089   4.020   4.514   1.729
 8730SOL    HW227090   4.120   4.615   1.810
 8731SOL     OW27091   0.127   1.962   3.665
 8731SOL    HW127092   0.093   2.039   3.611
 8731SOL    HW227093   0.144   1.992   3.759
 8732SOL     OW27094   5.245   6.592   5.561
 8732SOL    HW127095   5.264   6.670   5.501
 8732SOL    HW227096   5.196   6.522   5.509
 8733SOL     OW27097   6.916   4.339   1.955
 8733SOL    HW127098   7.003   4.291   1.942
 8733SOL    HW227099   6.914   4.380   2.046
 8734SOL     OW27100   0.987   5.187   0.644
 8734SOL    HW127101   0.909   5.142   0.686
 8734SOL    HW227102   0.958   5.272   0.601
 8735SOL     OW27103   1.309   2.757   5.937
 8735SOL    HW127104   1.364   2.734   6.017
 8735SOL    HW227105   1.212   2.756   5.962
 8736SOL     OW27106   2.027   5.850   3.228
 8736SOL    HW127107   2.062   5.829   3.320
 8736SOL    HW227108   1.987   5.767   3.188
 8737SOL     OW27109   0.066   5.645   6.764
 8737SOL    HW127110   0.059   5.546   6.751
 8737SOL    HW227111   7.001   5.681   6.793
 8738SOL     OW27112   2.031   2.649   2.163
 8738SOL    HW127113   2.026   2.567   2.106
 8738SOL    HW227114   2.114   2.645   2.219
 8739SOL     OW27115   5.301   4.273   2.772
 8739SOL    HW127116   5.384   4.222   2.750
 8739SOL    HW227117   5.253   4.229   2.847
 8740SOL     OW27118   3.066   1.344   3.245
 8740SOL    HW127119   3.137   1.381   3.184
 8740SOL    HW227120   2.979   1.340   3.196
 8741SOL     OW27121   1.052   1.609   2.543
 8741SOL    HW127122   1.052   1.587   2.445
 8741SOL    HW227123   1.115   1.685   2.560
 8742SOL     OW27124   2.200   2.694   1.866
 8742SOL    HW127125   2.208   2.665   1.770
 8742SOL    HW227126   2.216   2.616   1.926
 8743SOL     OW27127   1.031   3.774   6.770
 8743SOL    HW127128   1.030   3.776   6.870
 8743SOL    HW227129   1.064   3.685   6.739
 8744SOL     OW27130   3.182   3.881   6.247
 8744SOL    HW127131   3.108   3.821   6.280
 8744SOL    HW227132   3.146   3.942   6.176
 8745SOL     OW27133   5.785   1.684   6.388
 8745SOL    HW127134   5.714   1.732   6.439
 8745SOL    HW227135   5.867   1.742   6.383
 8746SOL     OW27136   4.212   4.780   4.644
 8746SOL    HW127137   4.200   4.806   4.548
 8746SOL    HW227138   4.261   4.693   4.649
 8747SOL     OW27139   0.856   0.032   1.868
 8747SOL    HW127140   0.804   0.029   1.953
 8747SOL    HW227141   0.910   6.972   1.858
 8748SOL     OW27142   5.909   1.761   4.144
 8748SOL    HW127143   5.923   1.683   4.084
 8748SOL    HW227144   5.949   1.843   4.102
 8749SOL     OW27145   2.527   1.732   4.311
 8749SOL    HW127146   2.607   1.727   4.252
 8749SOL    HW227147   2.506   1.641   4.347
 8750SOL     OW27148   4.493   3.647   1.162
 8750SOL    HW127149   4.497   3.604   1.252
 8750SOL    HW227150   4.576   3.699   1.145
 8751SOL     OW27151   2.051   0.294   0.609
 8751SOL    HW127152   2.100   0.220   0.563
 8751SOL    HW227153   1.964   0.260   0.645
 8752SOL     OW27154   0.058   3.314   5.984
 8752SOL    HW127155   0.012   3.373   6.052
 8752SOL    HW227156   0.157   3.322   5.996
 8753SOL     OW27157   1.952   2.096   0.971
 8753SOL    HW127158   1.997   2.011   0.945
 8753SOL    HW227159   1.890   2.125   0.899
 8754SOL     OW27160   1.105   5.986   6.325
 8754SOL    HW127161   1.007   5.963   6.321
 8754SOL    HW227162   1.115   6.085   6.331
 8755SOL     OW27163   0.534   2.641   1.667
 8755SOL    HW127164   0.461   2.660   1.600
 8755SOL    HW227165   0.526   2.546   1.698
 8756SOL     OW27166   1.634   1.633   2.211
 8756SOL    HW127167   1.573   1.651   2.135
 8756SOL    HW227168   1.646   1.716   2.265
 8757SOL     OW27169   5.830   6.086   4.875
 8757SOL    HW127170   5.836   6.186   4.880
 8757SOL    HW227171   5.796   6.050   4.962
 8758SOL     OW27172   3.743   5.639   6.049
 8758SOL    HW127173   3.662   5.641   5.990
 8758SOL    HW227174   3.736   5.709   6.119
 8759SOL     OW27175   6.168   1.192   1.403
 8759SOL    HW127176   6.249   1.147   1.363
 8759SOL    HW227177   6.192   1.285   1.431
 8760SOL     OW27178   2.020   2.497   4.693
 8760SOL    HW127179   2.038   2.516   4.789
 8760SOL    HW227180   2.105   2.473   4.646
 8761SOL     OW27181   4.621   2.594   3.140
 8761SOL    HW127182   4.685   2.521   3.164
 8761SOL    HW227183   4.644   2.631   3.050
 8762SOL     OW27184   4.372   6.461   3.152
 8762SOL    HW127185   4.341   6.477   3.058
 8762SOL    HW227186   4.453   6.517   3.170
 8763SOL     OW27187   6.963   1.524   5.073
 8763SOL    HW127188   6.979   1.577   5.156
 8763SOL    HW227189   0.006   1.449   5.068
 8764SOL     OW27190   3.485   4.592   6.165
 8764SOL    HW127191   3.386   4.593   6.177
 8764SOL    HW227192   3.513   4.669   6.108
 8765SOL     OW27193   4.790   6.887   4.122
 8765SOL    HW127194   4.847   6.839   4.055
 8765SOL    HW227195   4.703   6.912   4.080
 8766SOL     OW27196   5.779   6.945   5.162
 8766SOL    HW127197   5.854   7.006   5.137
 8766SOL    HW227198   5.807   6.850   5.146
 8767SOL     OW27199   1.931   0.914   4.878
 8767SOL    HW127200   1.931   0.918   4.778
 8767SOL    HW227201   1.855   0.968   4.914
 8768SOL     OW27202   6.504   1.835   0.850
 8768SOL    HW127203   6.557   1.761   0.892
 8768SOL    HW227204   6.485   1.812   0.755
 8769SOL     OW27205   6.091   6.847   6.382
 8769SOL    HW127206   6.104   6.748   6.370
 8769SOL    HW227207   6.052   6.885   6.298
 8770SOL     OW27208   4.504   1.803   0.007
 8770SOL    HW127209   4.488   1.898   0.035
 8770SOL    HW227210   4.488   1.742   0.085
 8771SOL     OW27211   0.632   2.462   6.242
 8771SOL    HW127212   0.545   2.501   6.212
 8771SOL    HW227213   0.687   2.438   6.162
 8772SOL     OW27214   1.069   6.720   3.672
 8772SOL    HW127215   1.031   6.811   3.659
 8772SOL    HW227216   1.157   6.727   3.719
 8773SOL     OW27217   0.375   1.511   3.729
 8773SOL    HW127218   0.439   1.572   3.775
 8773SOL    HW227219   0.383   1.419   3.767
 8774SOL     OW27220   1.427   2.116   6.616
 8774SOL    HW127221   1.469   2.151   6.533
 8774SOL    HW227222   1.492   2.122   6.692
 8775SOL     OW27223   5.279   2.176   2.686
 8775SOL    HW127224   5.229   2.254   2.649
 8775SOL    HW227225   5.254   2.093   2.637
 8776SOL     OW27226   4.962   2.982   1.464
 8776SOL    HW127227   5.050   2.977   1.512
 8776SOL    HW227228   4.934   3.078   1.456
 8777SOL     OW27229   6.698   2.149   3.532
 8777SOL    HW127230   6.749   2.196   3.604
 8777SOL    HW227231   6.704   2.201   3.447
 8778SOL     OW27232   2.311   4.047   0.282
 8778SOL    HW127233   2.247   4.098   0.225
 8778SOL    HW227234   2.277   3.954   0.296
 8779SOL     OW27235   4.056   5.929   3.459
 8779SOL    HW127236   4.002   6.005   3.494
 8779SOL    HW227237   4.084   5.948   3.365
 8780SOL     OW27238   0.974   4.010   4.182
 8780SOL    HW127239   1.050   4.062   4.146
 8780SOL    HW227240   1.004   3.917   4.205
 8781SOL     OW27241   3.416   1.812   1.623
 8781SOL    HW127242   3.374   1.900   1.600
 8781SOL    HW227243   3.429   1.805   1.722
 8782SOL     OW27244   6.738   2.496   0.478
 8782SOL    HW127245   6.792   2.435   0.419
 8782SOL    HW227246   6.656   2.525   0.429
 8783SOL     OW27247   3.879   3.971   5.208
 8783SOL    HW127248   3.887   3.986   5.306
 8783SOL    HW227249   3.866   4.059   5.162
 8784SOL     OW27250   4.415   0.781   6.788
 8784SOL    HW127251   4.372   0.719   6.722
 8784SOL    HW227252   4.352   0.797   6.864
 8785SOL     OW27253   6.715   5.892   5.842
 8785SOL    HW127254   6.793   5.873   5.901
 8785SOL    HW227255   6.640   5.829   5.865
 8786SOL     OW27256   5.541   2.128   3.376
 8786SOL    HW127257   5.503   2.045   3.417
 8786SOL    HW227258   5.470   2.174   3.323
 8787SOL     OW27259   3.604   5.219   2.154
 8787SOL    HW127260   3.661   5.301   2.154
 8787SOL    HW227261   3.639   5.153   2.088
 8788SOL     OW27262   0.169   5.946   3.982
 8788SOL    HW127263   0.087   5.904   4.020
 8788SOL    HW227264   0.180   5.917   3.887
 8789SOL     OW27265   1.530   2.919   6.668
 8789SOL    HW127266   1.436   2.936   6.640
 8789SOL    HW227267   1.590   2.989   6.628
 8790SOL     OW27268   4.802   2.867   5.079
 8790SOL    HW127269   4.722   2.808   5.089
 8790SOL    HW227270   4.850   2.843   4.994
 8791SOL     OW27271   4.094   6.266   5.014
 8791SOL    HW127272   4.071   6.170   5.032
 8791SOL    HW227273   4.026   6.325   5.056
 8792SOL     OW27274   5.449   5.093   1.161
 8792SOL    HW127275   5.420   5.189   1.162
 8792SOL    HW227276   5.467   5.066   1.067
 8793SOL     OW27277   6.289   6.894   5.331
 8793SOL    HW127278   6.190   6.883   5.343
 8793SOL    HW227279   6.336   6.809   5.354
 8794SOL     OW27280   0.385   1.857   2.776
 8794SOL    HW127281   0.303   1.832   2.724
 8794SOL    HW227282   0.359   1.884   2.869
 8795SOL     OW27283   1.472   6.892   6.800
 8795SOL    HW127284   1.532   6.858   6.872
 8795SOL    HW227285   1.387   6.840   6.799
 8796SOL     OW27286   5.704   4.278   4.419
 8796SOL    HW127287   5.663   4.370   4.418
 8796SOL    HW227288   5.639   4.213   4.379
 8797SOL     OW27289   4.989   6.286   4.369
 8797SOL    HW127290   4.961   6.369   4.319
 8797SOL    HW227291   4.953   6.205   4.322
 8798SOL     OW27292   1.725   5.871   6.188
 8798SOL    HW127293   1.632   5.875   6.151
 8798SOL    HW227294   1.772   5.791   6.152
 8799SOL     OW27295   1.341   5.989   1.532
 8799SOL    HW127296   1.341   6.085   1.503
 8799SOL    HW227297   1.348   5.984   1.632
 8800SOL     OW27298   6.453   5.630   4.057
 8800SOL    HW127299   6.365   5.663   4.090
 8800SOL    HW227300   6.445   5.534   4.029
 8801SOL     OW27301   4.962   3.508   5.752
 8801SOL    HW127302   4.917   3.471   5.833
 8801SOL    HW227303   4.977   3.435   5.686
 8802SOL     OW27304   1.031   6.276   0.082
 8802SOL    HW127305   1.016   6.253   0.178
 8802SOL    HW227306   1.065   6.370   0.075
 8803SOL     OW27307   5.526   5.367   5.124
 8803SOL    HW127308   5.522   5.335   5.219
 8803SOL    HW227309   5.606   5.328   5.079
 8804SOL     OW27310   1.943   6.449   2.167
 8804SOL    HW127311   1.856   6.487   2.133
 8804SOL    HW227312   1.984   6.393   2.095
 8805SOL     OW27313   5.134   4.823   2.276
 8805SOL    HW127314   5.140   4.899   2.341
 8805SOL    HW227315   5.171   4.852   2.188
 8806SOL     OW27316   1.226   0.726   2.129
 8806SOL    HW127317   1.173   0.661   2.184
 8806SOL    HW227318   1.253   0.803   2.187
 8807SOL     OW27319   5.895   2.226   1.609
 8807SOL    HW127320   5.820   2.174   1.648
 8807SOL    HW227321   5.952   2.166   1.553
 8808SOL     OW27322   1.492   1.550   0.119
 8808SOL    HW127323   1.562   1.494   0.163
 8808SOL    HW227324   1.494   1.642   0.157
 8809SOL     OW27325   0.981   3.616   3.280
 8809SOL    HW127326   1.049   3.636   3.209
 8809SOL    HW227327   0.940   3.526   3.263
 8810SOL     OW27328   6.862   2.454   4.533
 8810SOL    HW127329   6.932   2.517   4.566
 8810SOL    HW227330   6.905   2.369   4.503
 8811SOL     OW27331   4.256   5.003   2.082
 8811SOL    HW127332   4.244   5.097   2.113
 8811SOL    HW227333   4.289   4.947   2.158
 8812SOL     OW27334   5.778   0.665   0.313
 8812SOL    HW127335   5.686   0.699   0.294
 8812SOL    HW227336   5.771   0.586   0.375
 8813SOL     OW27337   1.600   3.196   2.068
 8813SOL    HW127338   1.508   3.207   2.106
 8813SOL    HW227339   1.610   3.256   1.989
 8814SOL     OW27340   5.572   0.077   4.728
 8814SOL    HW127341   5.605   0.171   4.718
 8814SOL    HW227342   5.650   0.015   4.738
 8815SOL     OW27343   4.905   0.920   0.951
 8815SOL    HW127344   5.004   0.917   0.969
 8815SOL    HW227345   4.857   0.868   1.021
 8816SOL     OW27346   6.922   0.467   3.706
 8816SOL    HW127347   6.911   0.378   3.752
 8816SOL    HW227348   7.002   0.464   3.647
 8817SOL     OW27349   1.270   2.875   3.390
 8817SOL    HW127350   1.293   2.870   3.487
 8817SOL    HW227351   1.255   2.971   3.364
 8818SOL     OW27352   1.076   6.261   6.297
 8818SOL    HW127353   1.017   6.297   6.370
 8818SOL    HW227354   1.038   6.285   6.208
 8819SOL     OW27355   4.867   5.875   6.140
 8819SOL    HW127356   4.799   5.909   6.205
 8819SOL    HW227357   4.821   5.846   6.056
 8820SOL     OW27358   3.720   6.871   5.931
 8820SOL    HW127359   3.730   6.926   5.848
 8820SOL    HW227360   3.761   6.781   5.917
 8821SOL     OW27361   0.662   5.202   5.847
 8821SOL    HW127362   0.620   5.259   5.776
 8821SOL    HW227363   0.679   5.110   5.810
 8822SOL     OW27364   6.310   0.268   4.728
 8822SOL    HW127365   6.243   0.244   4.799
 8822SOL    HW227366   6.324   0.189   4.668
 8823SOL     OW27367   4.402   2.077   2.999
 8823SOL    HW127368   4.304   2.097   2.996
 8823SOL    HW227369   4.443   2.099   2.911
 8824SOL     OW27370   1.825   0.461   4.163
 8824SOL    HW127371   1.818   0.560   4.179
 8824SOL    HW227372   1.914   0.441   4.121
 8825SOL     OW27373   0.457   6.930   0.477
 8825SOL    HW127374   0.546   6.887   0.491
 8825SOL    HW227375   0.445   7.004   0.542
 8826SOL     OW27376   0.449   4.082   0.070
 8826SOL    HW127377   0.496   4.114   7.012
 8826SOL    HW227378   0.496   4.118   0.151
 8827SOL     OW27379   4.813   6.375   3.815
 8827SOL    HW127380   4.846   6.469   3.812
 8827SOL    HW227381   4.717   6.372   3.785
 8828SOL     OW27382   5.352   2.465   5.514
 8828SOL    HW127383   5.312   2.380   5.547
 8828SOL    HW227384   5.337   2.537   5.581
 8829SOL     OW27385   6.535   0.816   2.783
 8829SOL    HW127386   6.442   0.816   2.748
 8829SOL    HW227387   6.560   0.909   2.812
 8830SOL     OW27388   3.311   0.698   3.337
 8830SOL    HW127389   3.409   0.720   3.331
 8830SOL    HW227390   3.300   0.599   3.344
 8831SOL     OW27391   0.283   2.949   2.487
 8831SOL    HW127392   0.236   3.023   2.534
 8831SOL    HW227393   0.280   2.866   2.543
 8832SOL     OW27394   5.568   0.498   5.533
 8832SOL    HW127395   5.654   0.528   5.575
 8832SOL    HW227396   5.506   0.575   5.524
 8833SOL     OW27397   4.705   2.653   1.112
 8833SOL    HW127398   4.657   2.613   1.034
 8833SOL    HW227399   4.726   2.749   1.093
 8834SOL     OW27400   5.469   4.700   6.450
 8834SOL    HW127401   5.511   4.640   6.383
 8834SOL    HW227402   5.393   4.652   6.495
 8835SOL     OW27403   6.304   1.325   5.057
 8835SOL    HW127404   6.331   1.421   5.047
 8835SOL    HW227405   6.205   1.319   5.070
 8836SOL     OW27406   4.153   1.123   0.956
 8836SOL    HW127407   4.123   1.161   1.044
 8836SOL    HW227408   4.098   1.161   0.882
 8837SOL     OW27409   4.560   5.686   0.420
 8837SOL    HW127410   4.505   5.724   0.495
 8837SOL    HW227411   4.499   5.658   0.346
 8838SOL     OW27412   2.145   3.402   2.926
 8838SOL    HW127413   2.174   3.476   2.987
 8838SOL    HW227414   2.131   3.437   2.834
 8839SOL     OW27415   4.522   4.872   1.174
 8839SOL    HW127416   4.440   4.844   1.124
 8839SOL    HW227417   4.518   4.970   1.193
 8840SOL     OW27418   0.147   0.736   1.485
 8840SOL    HW127419   0.142   0.701   1.578
 8840SOL    HW227420   0.076   0.805   1.471
 8841SOL     OW27421   3.424   0.998   0.985
 8841SOL    HW127422   3.328   0.997   0.957
 8841SOL    HW227423   3.453   1.093   1.000
 8842SOL     OW27424   3.414   3.344   3.941
 8842SOL    HW127425   3.449   3.312   4.029
 8842SOL    HW227426   3.489   3.347   3.875
 8843SOL     OW27427   2.209   5.695   5.331
 8843SOL    HW127428   2.166   5.623   5.276
 8843SOL    HW227429   2.138   5.755   5.369
 8844SOL     OW27430   3.258   2.873   5.962
 8844SOL    HW127431   3.325   2.947   5.961
 8844SOL    HW227432   3.200   2.880   5.880
 8845SOL     OW27433   0.745   3.465   1.838
 8845SOL    HW127434   0.675   3.492   1.904
 8845SOL    HW227435   0.835   3.470   1.882
 8846SOL     OW27436   5.142   5.231   4.471
 8846SOL    HW127437   5.226   5.283   4.455
 8846SOL    HW227438   5.157   5.135   4.446
 8847SOL     OW27439   0.757   2.112   3.683
 8847SOL    HW127440   0.722   2.034   3.733
 8847SOL    HW227441   0.686   2.148   3.622
 8848SOL     OW27442   6.574   2.304   0.813
 8848SOL    HW127443   6.655   2.360   0.831
 8848SOL    HW227444   6.595   2.236   0.743
 8849SOL     OW27445   3.257   5.494   4.510
 8849SOL    HW127446   3.185   5.427   4.490
 8849SOL    HW227447   3.324   5.452   4.571
 8850SOL     OW27448   2.871   2.172   0.975
 8850SOL    HW127449   2.796   2.202   1.033
 8850SOL    HW227450   2.927   2.105   1.024
 8851SOL     OW27451   0.244   5.294   2.611
 8851SOL    HW127452   0.215   5.353   2.687
 8851SOL    HW227453   0.264   5.350   2.531
 8852SOL     OW27454   4.934   3.636   4.506
 8852SOL    HW127455   4.995   3.569   4.547
 8852SOL    HW227456   4.907   3.605   4.414
 8853SOL     OW27457   4.736   1.935   5.651
 8853SOL    HW127458   4.742   2.012   5.715
 8853SOL    HW227459   4.706   1.969   5.562
 8854SOL     OW27460   2.486   0.981   5.593
 8854SOL    HW127461   2.478   0.955   5.496
 8854SOL    HW227462   2.518   1.075   5.600
 8855SOL     OW27463   5.912   5.143   6.262
 8855SOL    HW127464   5.853   5.132   6.182
 8855SOL    HW227465   5.981   5.071   6.262
 8856SOL     OW27466   5.824   1.250   5.510
 8856SOL    HW127467   5.803   1.185   5.584
 8856SOL    HW227468   5.921   1.274   5.514
 8857SOL     OW27469   1.888   3.424   4.632
 8857SOL    HW127470   1.936   3.452   4.549
 8857SOL    HW227471   1.955   3.411   4.706
 8858SOL     OW27472   0.172   3.692   5.523
 8858SOL    HW127473   0.132   3.735   5.442
 8858SOL    HW227474   0.186   3.760   5.594
 8859SOL     OW27475   2.896   6.253   5.523
 8859SOL    HW127476   2.840   6.172   5.540
 8859SOL    HW227477   2.954   6.237   5.443
 8860SOL     OW27478   1.726   1.782   0.761
 8860SOL    HW127479   1.702   1.848   0.832
 8860SOL    HW227480   1.825   1.767   0.763
 8861SOL     OW27481   2.601   2.540   1.067
 8861SOL    HW127482   2.674   2.608   1.051
 8861SOL    HW227483   2.512   2.585   1.059
 8862SOL     OW27484   6.626   2.299   4.908
 8862SOL    HW127485   6.540   2.278   4.860
 8862SOL    HW227486   6.607   2.362   4.983
 8863SOL     OW27487   1.648   5.960   5.326
 8863SOL    HW127488   1.683   5.873   5.292
 8863SOL    HW227489   1.606   5.947   5.416
 8864SOL     OW27490   1.954   3.905   6.006
 8864SOL    HW127491   1.917   3.993   6.035
 8864SOL    HW227492   2.020   3.920   5.932
 8865SOL     OW27493   3.039   2.192   6.011
 8865SOL    HW127494   2.946   2.156   6.004
 8865SOL    HW227495   3.036   2.285   6.049
 8866SOL     OW27496   5.219   6.651   4.961
 8866SOL    HW127497   5.170   6.594   5.028
 8866SOL    HW227498   5.154   6.710   4.913
 8867SOL     OW27499   6.420   0.860   4.212
 8867SOL    HW127500   6.416   0.931   4.283
 8867SOL    HW227501   6.514   0.853   4.178
 8868SOL     OW27502   5.052   3.509   0.684
 8868SOL    HW127503   5.034   3.495   0.781
 8868SOL    HW227504   4.983   3.570   0.645
 8869SOL     OW27505   3.174   2.164   3.093
 8869SOL    HW127506   3.106   2.093   3.114
 8869SOL    HW227507   3.164   2.239   3.157
 8870SOL     OW27508   4.576   0.992   2.255
 8870SOL    HW127509   4.504   1.004   2.323
 8870SOL    HW227510   4.534   0.964   2.168
 8871SOL     OW27511   1.671   2.367   3.821
 8871SOL    HW127512   1.770   2.370   3.834
 8871SOL    HW227513   1.647   2.290   3.762
 8872SOL     OW27514   1.225   2.289   2.040
 8872SOL    HW127515   1.322   2.307   2.023
 8872SOL    HW227516   1.185   2.243   1.961
 8873SOL     OW27517   0.019   6.149   4.724
 8873SOL    HW127518   0.061   6.236   4.751
 8873SOL    HW227519   0.055   6.075   4.781
 8874SOL     OW27520   0.814   1.552   6.096
 8874SOL    HW127521   0.796   1.636   6.146
 8874SOL    HW227522   0.830   1.477   6.161
 8875SOL     OW27523   1.206   1.246   4.598
 8875SOL    HW127524   1.228   1.302   4.678
 8875SOL    HW227525   1.254   1.283   4.518
 8876SOL     OW27526   3.048   0.951   4.682
 8876SOL    HW127527   3.083   0.858   4.665
 8876SOL    HW227528   3.059   0.972   4.779
 8877SOL     OW27529   2.917   6.678   4.434
 8877SOL    HW127530   2.954   6.630   4.514
 8877SOL    HW227531   2.978   6.753   4.409
 8878SOL     OW27532   5.776   4.755   5.250
 8878SOL    HW127533   5.772   4.656   5.264
 8878SOL    HW227534   5.867   4.781   5.217
 8879SOL     OW27535   4.551   5.441   4.280
 8879SOL    HW127536   4.617   5.452   4.205
 8879SOL    HW227537   4.474   5.386   4.250
 8880SOL     OW27538   0.249   6.675   4.804
 8880SOL    HW127539   0.186   6.606   4.840
 8880SOL    HW227540   0.334   6.631   4.776
 8881SOL     OW27541   6.578   1.614   1.744
 8881SOL    HW127542   6.620   1.613   1.653
 8881SOL    HW227543   6.496   1.556   1.743
 8882SOL     OW27544   5.119   2.587   0.598
 8882SOL    HW127545   5.085   2.560   0.688
 8882SOL    HW227546   5.145   2.506   0.546
 8883SOL     OW27547   6.363   1.398   5.354
 8883SOL    HW127548   6.309   1.391   5.270
 8883SOL    HW227549   6.447   1.449   5.335
 8884SOL     OW27550   6.986   1.339   6.329
 8884SOL    HW127551   0.024   1.400   6.279
 8884SOL    HW227552   6.901   1.388   6.351
 8885SOL     OW27553   5.461   3.581   1.745
 8885SOL    HW127554   5.365   3.593   1.718
 8885SOL    HW227555   5.521   3.624   1.678
 8886SOL     OW27556   3.108   5.358   5.842
 8886SOL    HW127557   3.201   5.322   5.850
 8886SOL    HW227558   3.042   5.283   5.848
 8887SOL     OW27559   1.900   1.223   0.931
 8887SOL    HW127560   1.851   1.307   0.956
 8887SOL    HW227561   1.991   1.247   0.898
 8888SOL     OW27562   2.936   2.143   2.906
 8888SOL    HW127563   2.932   2.182   2.814
 8888SOL    HW227564   3.029   2.154   2.942
 8889SOL     OW27565   3.528   0.441   4.944
 8889SOL    HW127566   3.522   0.359   4.887
 8889SOL    HW227567   3.568   0.516   4.891
 8890SOL     OW27568   0.677   3.925   3.313
 8890SOL    HW127569   0.625   3.841   3.300
 8890SOL    HW227570   0.773   3.910   3.289
 8891SOL     OW27571   2.926   1.762   6.183
 8891SOL    HW127572   2.975   1.687   6.227
 8891SOL    HW227573   2.988   1.811   6.121
 8892SOL     OW27574   1.401   6.575   2.762
 8892SOL    HW127575   1.479   6.615   2.715
 8892SOL    HW227576   1.356   6.645   2.817
 8893SOL     OW27577   0.287   1.019   0.364
 8893SOL    HW127578   0.349   1.092   0.394
 8893SOL    HW227579   0.260   1.036   0.269
 8894SOL     OW27580   4.574   2.551   6.153
 8894SOL    HW127581   4.479   2.552   6.123
 8894SOL    HW227582   4.634   2.567   6.074
 8895SOL     OW27583   1.931   1.322   2.980
 8895SOL    HW127584   1.940   1.410   2.932
 8895SOL    HW227585   1.835   1.295   2.983
 8896SOL     OW27586   2.150   4.094   5.242
 8896SOL    HW127587   2.152   4.193   5.250
 8896SOL    HW227588   2.215   4.065   5.172
 8897SOL     OW27589   1.072   2.282   1.093
 8897SOL    HW127590   1.133   2.211   1.130
 8897SOL    HW227591   1.119   2.370   1.092
 8898SOL     OW27592   0.221   3.084   5.146
 8898SOL    HW127593   0.278   3.147   5.094
 8898SOL    HW227594   0.271   2.999   5.163
 8899SOL     OW27595   3.141   5.355   1.599
 8899SOL    HW127596   3.111   5.262   1.620
 8899SOL    HW227597   3.147   5.408   1.683
 8900SOL     OW27598   6.897   1.745   3.536
 8900SOL    HW127599   6.840   1.663   3.539
 8900SOL    HW227600   6.989   1.724   3.569
 8901SOL     OW27601   1.892   6.798   1.542
 8901SOL    HW127602   1.841   6.712   1.546
 8901SOL    HW227603   1.915   6.820   1.447
 8902SOL     OW27604   3.425   6.371   5.745
 8902SOL    HW127605   3.326   6.367   5.756
 8902SOL    HW227606   3.458   6.461   5.773
 8903SOL     OW27607   0.100   6.932   2.431
 8903SOL    HW127608   0.156   6.852   2.411
 8903SOL    HW227609   0.089   6.986   2.348
 8904SOL     OW27610   1.560   4.861   3.193
 8904SOL    HW127611   1.466   4.895   3.204
 8904SOL    HW227612   1.625   4.931   3.224
 8905SOL     OW27613   2.138   3.992   4.824
 8905SOL    HW127614   2.182   3.978   4.912
 8905SOL    HW227615   2.049   4.035   4.838
 8906SOL     OW27616   1.976   5.335   4.116
 8906SOL    HW127617   2.061   5.299   4.077
 8906SOL    HW227618   1.901   5.320   4.052
 8907SOL     OW27619   3.750   2.800   6.836
 8907SOL    HW127620   3.762   2.843   6.925
 8907SOL    HW227621   3.798   2.853   6.767
 8908SOL     OW27622   1.034   2.475   2.721
 8908SOL    HW127623   1.100   2.546   2.743
 8908SOL    HW227624   0.941   2.510   2.733
 8909SOL     OW27625   3.696   0.167   5.655
 8909SOL    HW127626   3.620   0.104   5.672
 8909SOL    HW227627   3.757   0.168   5.733
 8910SOL     OW27628   4.161   3.300   0.231
 8910SOL    HW127629   4.139   3.218   0.284
 8910SOL    HW227630   4.197   3.273   0.142
 8911SOL     OW27631   4.756   2.192   3.829
 8911SOL    HW127632   4.681   2.137   3.866
 8911SOL    HW227633   4.720   2.254   3.759
 8912SOL     OW27634   5.302   1.462   6.500
 8912SOL    HW127635   5.288   1.544   6.445
 8912SOL    HW227636   5.334   1.488   6.591
 8913SOL     OW27637   4.085   4.087   1.457
 8913SOL    HW127638   4.020   4.013   1.465
 8913SOL    HW227639   4.140   4.093   1.540
 8914SOL     OW27640   5.010   1.729   3.397
 8914SOL    HW127641   4.976   1.820   3.419
 8914SOL    HW227642   4.935   1.663   3.399
 8915SOL     OW27643   1.066   5.794   2.234
 8915SOL    HW127644   1.064   5.695   2.249
 8915SOL    HW227645   0.972   5.828   2.223
 8916SOL     OW27646   6.036   3.041   2.498
 8916SOL    HW127647   6.026   3.104   2.420
 8916SOL    HW227648   5.952   2.987   2.508
 8917SOL     OW27649   5.544   4.831   5.138
 8917SOL    HW127650   5.485   4.827   5.219
 8917SOL    HW227651   5.637   4.805   5.163
 8918SOL     OW27652   5.042   4.156   6.013
 8918SOL    HW127653   4.989   4.226   6.062
 8918SOL    HW227654   5.139   4.175   6.023
 8919SOL     OW27655   2.357   3.288   1.510
 8919SOL    HW127656   2.373   3.235   1.427
 8919SOL    HW227657   2.430   3.269   1.576
 8920SOL     OW27658   6.958   5.654   5.493
 8920SOL    HW127659   6.910   5.739   5.470
 8920SOL    HW227660   7.018   5.670   5.571
 8921SOL     OW27661   1.542   5.455   3.764
 8921SOL    HW127662   1.604   5.377   3.769
 8921SOL    HW227663   1.502   5.460   3.673
 8922SOL     OW27664   6.259   4.022   6.165
 8922SOL    HW127665   6.240   3.925   6.150
 8922SOL    HW227666   6.255   4.070   6.077
 8923SOL     OW27667   2.250   4.107   4.262
 8923SOL    HW127668   2.284   4.197   4.291
 8923SOL    HW227669   2.165   4.087   4.311
 8924SOL     OW27670   2.598   5.849   5.134
 8924SOL    HW127671   2.571   5.940   5.163
 8924SOL    HW227672   2.537   5.781   5.175
 8925SOL     OW27673   4.358   5.628   1.352
 8925SOL    HW127674   4.331   5.655   1.260
 8925SOL    HW227675   4.422   5.695   1.389
 8926SOL     OW27676   5.855   0.438   6.384
 8926SOL    HW127677   5.796   0.505   6.429
 8926SOL    HW227678   5.949   0.450   6.415
 8927SOL     OW27679   2.226   1.743   4.796
 8927SOL    HW127680   2.252   1.654   4.761
 8927SOL    HW227681   2.282   1.814   4.752
 8928SOL     OW27682   0.544   0.143   4.394
 8928SOL    HW127683   0.498   0.227   4.366
 8928SOL    HW227684   0.479   0.067   4.392
 8929SOL     OW27685   5.025   4.130   3.600
 8929SOL    HW127686   5.047   4.063   3.671
 8929SOL    HW227687   5.032   4.222   3.638
 8930SOL     OW27688   0.898   5.376   5.258
 8930SOL    HW127689   0.902   5.472   5.288
 8930SOL    HW227690   0.802   5.351   5.243
 8931SOL     OW27691   4.914   1.097   1.599
 8931SOL    HW127692   4.953   1.135   1.516
 8931SOL    HW227693   4.830   1.145   1.623
 8932SOL     OW27694   5.517   0.710   0.221
 8932SOL    HW127695   5.487   0.758   0.138
 8932SOL    HW227696   5.548   0.618   0.197
 8933SOL     OW27697   1.329   0.339   5.299
 8933SOL    HW127698   1.323   0.302   5.392
 8933SOL    HW227699   1.323   0.439   5.303
 8934SOL     OW27700   4.494   6.922   4.040
 8934SOL    HW127701   4.460   6.855   4.106
 8934SOL    HW227702   4.417   6.963   3.991
 8935SOL     OW27703   5.891   1.749   2.702
 8935SOL    HW127704   5.914   1.763   2.606
 8935SOL    HW227705   5.831   1.824   2.732
 8936SOL     OW27706   1.658   3.850   2.360
 8936SOL    HW127707   1.647   3.753   2.337
 8936SOL    HW227708   1.649   3.862   2.459
 8937SOL     OW27709   4.028   6.972   4.908
 8937SOL    HW127710   4.076   6.885   4.919
 8937SOL    HW227711   4.059   0.012   4.979
 8938SOL     OW27712   5.811   6.522   1.405
 8938SOL    HW127713   5.813   6.433   1.358
 8938SOL    HW227714   5.812   6.507   1.504
 8939SOL     OW27715   0.503   2.883   4.341
 8939SOL    HW127716   0.514   2.917   4.434
 8939SOL    HW227717   0.406   2.877   4.318
 8940SOL     OW27718   6.613   3.333   2.468
 8940SOL    HW127719   6.564   3.320   2.382
 8940SOL    HW227720   6.709   3.352   2.449
 8941SOL     OW27721   5.998   2.213   3.068
 8941SOL    HW127722   5.966   2.228   2.974
 8941SOL    HW227723   5.922   2.181   3.124
 8942SOL     OW27724   5.039   4.392   3.636
 8942SOL    HW127725   5.095   4.402   3.718
 8942SOL    HW227726   4.966   4.461   3.636
 8943SOL     OW27727   4.746   3.212   0.332
 8943SOL    HW127728   4.764   3.251   0.422
 8943SOL    HW227729   4.823   3.155   0.303
 8944SOL     OW27730   4.202   6.112   5.253
 8944SOL    HW127731   4.277   6.175   5.273
 8944SOL    HW227732   4.115   6.159   5.268
 8945SOL     OW27733   6.524   4.813   1.857
 8945SOL    HW127734   6.495   4.814   1.952
 8945SOL    HW227735   6.623   4.802   1.852
 8946SOL     OW27736   3.719   1.379   4.787
 8946SOL    HW127737   3.744   1.286   4.812
 8946SOL    HW227738   3.784   1.414   4.720
 8947SOL     OW27739   1.904   4.580   0.860
 8947SOL    HW127740   1.972   4.520   0.818
 8947SOL    HW227741   1.841   4.613   0.790
 8948SOL     OW27742   5.867   0.251   2.760
 8948SOL    HW127743   5.816   0.282   2.679
 8948SOL    HW227744   5.840   0.157   2.782
 8949SOL     OW27745   3.606   6.511   1.211
 8949SOL    HW127746   3.593   6.605   1.181
 8949SOL    HW227747   3.517   6.467   1.223
 8950SOL     OW27748   3.224   3.574   2.874
 8950SOL    HW127749   3.245   3.603   2.968
 8950SOL    HW227750   3.247   3.477   2.863
 8951SOL     OW27751   0.547   0.485   3.848
 8951SOL    HW127752   0.547   0.404   3.906
 8951SOL    HW227753   0.640   0.503   3.816
 8952SOL     OW27754   1.610   4.029   4.865
 8952SOL    HW127755   1.614   3.937   4.904
 8952SOL    HW227756   1.529   4.038   4.807
 8953SOL     OW27757   0.498   5.338   1.366
 8953SOL    HW127758   0.566   5.411   1.370
 8953SOL    HW227759   0.528   5.269   1.299
 8954SOL     OW27760   2.139   4.064   5.659
 8954SOL    HW127761   2.230   4.095   5.631
 8954SOL    HW227762   2.147   3.979   5.711
 8955SOL     OW27763   6.336   3.107   5.786
 8955SOL    HW127764   6.264   3.172   5.763
 8955SOL    HW227765   6.296   3.023   5.822
 8956SOL     OW27766   0.687   6.212   0.668
 8956SOL    HW127767   0.656   6.242   0.759
 8956SOL    HW227768   0.737   6.287   0.624
 8957SOL     OW27769   1.475   6.993   2.935
 8957SOL    HW127770   1.504   6.972   3.028
 8957SOL    HW227771   1.533   0.042   2.898
 8958SOL     OW27772   6.829   3.824   4.675
 8958SOL    HW127773   6.804   3.732   4.646
 8958SOL    HW227774   6.867   3.875   4.597
 8959SOL     OW27775   5.326   1.940   4.176
 8959SOL    HW127776   5.295   1.860   4.124
 8959SOL    HW227777   5.247   1.991   4.209
 8960SOL     OW27778   4.948   4.879   2.546
 8960SOL    HW127779   4.979   4.842   2.633
 8960SOL    HW227780   4.986   4.970   2.533
 8961SOL     OW27781   2.640   1.400   5.250
 8961SOL    HW127782   2.667   1.304   5.246
 8961SOL    HW227783   2.570   1.418   5.180
 8962SOL     OW27784   6.828   6.099   2.219
 8962SOL    HW127785   6.900   6.063   2.278
 8962SOL    HW227786   6.840   6.198   2.208
 8963SOL     OW27787   2.369   6.276   5.955
 8963SOL    HW127788   2.368   6.278   6.055
 8963SOL    HW227789   2.460   6.250   5.924
 8964SOL     OW27790   1.613   2.643   3.331
 8964SOL    HW127791   1.646   2.552   3.306
 8964SOL    HW227792   1.558   2.637   3.414
 8965SOL     OW27793   3.582   6.044   0.344
 8965SOL    HW127794   3.514   6.111   0.373
 8965SOL    HW227795   3.646   6.087   0.280
 8966SOL     OW27796   5.380   6.894   5.700
 8966SOL    HW127797   5.353   6.937   5.614
 8966SOL    HW227798   5.393   6.796   5.686
 8967SOL     OW27799   3.075   0.110   3.064
 8967SOL    HW127800   3.153   0.093   3.003
 8967SOL    HW227801   3.081   0.203   3.102
 8968SOL     OW27802   3.597   5.080   2.400
 8968SOL    HW127803   3.603   5.139   2.319
 8968SOL    HW227804   3.501   5.060   2.420
 8969SOL     OW27805   6.798   1.215   2.983
 8969SOL    HW127806   6.870   1.150   3.005
 8969SOL    HW227807   6.769   1.263   3.066
 8970SOL     OW27808   2.328   1.372   3.510
 8970SOL    HW127809   2.417   1.329   3.526
 8970SOL    HW227810   2.263   1.303   3.481
 8971SOL     OW27811   3.563   4.217   1.361
 8971SOL    HW127812   3.467   4.208   1.336
 8971SOL    HW227813   3.579   4.309   1.398
 8972SOL     OW27814   5.771   3.908   6.484
 8972SOL    HW127815   5.794   3.987   6.427
 8972SOL    HW227816   5.692   3.861   6.444
 8973SOL     OW27817   2.529   1.757   3.674
 8973SOL    HW127818   2.525   1.714   3.765
 8973SOL    HW227819   2.483   1.698   3.608
 8974SOL     OW27820   2.031   4.250   4.697
 8974SOL    HW127821   1.958   4.182   4.695
 8974SOL    HW227822   2.098   4.227   4.767
 8975SOL     OW27823   0.349   3.378   6.303
 8975SOL    HW127824   0.287   3.456   6.307
 8975SOL    HW227825   0.303   3.297   6.340
 8976SOL     OW27826   6.053   0.607   1.548
 8976SOL    HW127827   6.072   0.526   1.604
 8976SOL    HW227828   6.139   0.653   1.526
 8977SOL     OW27829   6.752   4.816   6.434
 8977SOL    HW127830   6.833   4.868   6.410
 8977SOL    HW227831   6.692   4.809   6.355
 8978SOL     OW27832   6.476   5.860   5.684
 8978SOL    HW127833   6.512   5.808   5.607
 8978SOL    HW227834   6.491   5.809   5.769
 8979SOL     OW27835   2.044   5.053   3.768
 8979SOL    HW127836   2.128   5.046   3.822
 8979SOL    HW227837   1.966   5.068   3.830
 8980SOL     OW27838   4.034   0.863   0.580
 8980SOL    HW127839   4.012   0.935   0.513
 8980SOL    HW227840   3.948   0.823   0.613
 8981SOL     OW27841   3.721   2.128   0.187
 8981SOL    HW127842   3.757   2.172   0.269
 8981SOL    HW227843   3.647   2.183   0.148
 8982SOL     OW27844   6.972   1.447   1.807
 8982SOL    HW127845   7.002   1.371   1.749
 8982SOL    HW227846   6.960   1.415   1.901
 8983SOL     OW27847   1.276   6.979   2.672
 8983SOL    HW127848   1.365   7.007   2.706
 8983SOL    HW227849   1.218   0.036   2.659
 8984SOL     OW27850   6.237   1.844   4.582
 8984SOL    HW127851   6.262   1.833   4.486
 8984SOL    HW227852   6.265   1.763   4.633
 8985SOL     OW27853   4.664   0.743   2.245
 8985SOL    HW127854   4.579   0.717   2.199
 8985SOL    HW227855   4.675   0.843   2.241
 8986SOL     OW27856   6.719   5.969   0.278
 8986SOL    HW127857   6.674   6.031   0.342
 8986SOL    HW227858   6.658   5.951   0.201
 8987SOL     OW27859   2.384   6.595   2.327
 8987SOL    HW127860   2.353   6.520   2.269
 8987SOL    HW227861   2.318   6.609   2.401
 8988SOL     OW27862   2.488   0.451   1.253
 8988SOL    HW127863   2.514   0.487   1.342
 8988SOL    HW227864   2.403   0.399   1.261
 8989SOL     OW27865   5.912   1.120   2.264
 8989SOL    HW127866   5.930   1.102   2.167
 8989SOL    HW227867   5.936   1.040   2.318
 8990SOL     OW27868   3.695   0.952   3.083
 8990SOL    HW127869   3.670   0.855   3.077
 8990SOL    HW227870   3.793   0.962   3.062
 8991SOL     OW27871   1.280   2.094   1.029
 8991SOL    HW127872   1.350   2.051   0.971
 8991SOL    HW227873   1.243   2.025   1.092
 8992SOL     OW27874   6.949   4.874   6.120
 8992SOL    HW127875   7.001   4.808   6.175
 8992SOL    HW227876   6.901   4.825   6.047
 8993SOL     OW27877   5.203   3.969   3.780
 8993SOL    HW127878   5.176   3.955   3.875
 8993SOL    HW227879   5.264   4.048   3.774
 8994SOL     OW27880   0.850   6.201   2.389
 8994SOL    HW127881   0.922   6.136   2.363
 8994SOL    HW227882   0.880   6.255   2.468
 8995SOL     OW27883   2.167   3.915   3.790
 8995SOL    HW127884   2.127   3.900   3.881
 8995SOL    HW227885   2.224   3.997   3.792
 8996SOL     OW27886   2.246   3.833   1.021
 8996SOL    HW127887   2.196   3.756   1.062
 8996SOL    HW227888   2.260   3.815   0.924
 8997SOL     OW27889   4.564   1.196   4.948
 8997SOL    HW127890   4.611   1.243   4.873
 8997SOL    HW227891   4.564   1.097   4.931
 8998SOL     OW27892   0.957   1.743   6.450
 8998SOL    HW127893   0.957   1.805   6.528
 8998SOL    HW227894   1.051   1.715   6.431
 8999SOL     OW27895   5.432   2.702   5.375
 8999SOL    HW127896   5.386   2.758   5.306
 8999SOL    HW227897   5.363   2.654   5.430
 9000SOL     OW27898   4.107   4.591   1.204
 9000SOL    HW127899   4.148   4.644   1.278
 9000SOL    HW227900   4.163   4.600   1.122
 9001SOL     OW27901   1.338   4.293   3.200
 9001SOL    HW127902   1.405   4.251   3.138
 9001SOL    HW227903   1.373   4.382   3.230
 9002SOL     OW27904   5.414   3.617   5.255
 9002SOL    HW127905   5.370   3.702   5.282
 9002SOL    HW227906   5.451   3.571   5.336
 9003SOL     OW27907   6.485   3.223   6.635
 9003SOL    HW127908   6.516   3.307   6.591
 9003SOL    HW227909   6.471   3.152   6.566
 9004SOL     OW27910   4.653   5.023   0.916
 9004SOL    HW127911   4.647   5.009   1.014
 9004SOL    HW227912   4.695   5.112   0.897
 9005SOL     OW27913   5.131   2.699   3.660
 9005SOL    HW127914   5.143   2.725   3.756
 9005SOL    HW227915   5.039   2.661   3.647
 9006SOL     OW27916   2.296   6.450   1.446
 9006SOL    HW127917   2.294   6.358   1.483
 9006SOL    HW227918   2.309   6.446   1.347
 9007SOL     OW27919   2.280   6.291   5.123
 9007SOL    HW127920   2.262   6.251   5.034
 9007SOL    HW227921   2.378   6.312   5.132
 9008SOL     OW27922   0.073   4.147   1.916
 9008SOL    HW127923   0.059   4.098   1.830
 9008SOL    HW227924   0.160   4.195   1.913
 9009SOL     OW27925   3.919   5.852   6.838
 9009SOL    HW127926   3.973   5.871   6.920
 9009SOL    HW227927   3.822   5.850   6.862
 9010SOL     OW27928   6.783   5.758   4.519
 9010SOL    HW127929   6.874   5.723   4.542
 9010SOL    HW227930   6.734   5.691   4.463
 9011SOL     OW27931   4.630   2.602   2.233
 9011SOL    HW127932   4.633   2.643   2.324
 9011SOL    HW227933   4.571   2.521   2.235
 9012SOL     OW27934   5.147   5.216   2.284
 9012SOL    HW127935   5.204   5.155   2.228
 9012SOL    HW227936   5.138   5.178   2.376
 9013SOL     OW27937   4.621   6.518   2.663
 9013SOL    HW127938   4.522   6.505   2.671
 9013SOL    HW227939   4.648   6.600   2.712
 9014SOL     OW27940   2.527   0.455   1.865
 9014SOL    HW127941   2.591   0.530   1.882
 9014SOL    HW227942   2.553   0.376   1.919
 9015SOL     OW27943   6.021   2.207   4.763
 9015SOL    HW127944   5.986   2.153   4.840
 9015SOL    HW227945   5.988   2.301   4.771
 9016SOL     OW27946   6.965   6.042   6.787
 9016SOL    HW127947   6.961   5.946   6.815
 9016SOL    HW227948   6.897   6.095   6.839
 9017SOL     OW27949   0.088   3.769   2.917
 9017SOL    HW127950   0.121   3.691   2.969
 9017SOL    HW227951   0.034   3.829   2.976
 9018SOL     OW27952   4.902   2.007   6.417
 9018SOL    HW127953   4.957   1.925   6.399
 9018SOL    HW227954   4.841   1.989   6.494
 9019SOL     OW27955   1.701   5.871   0.419
 9019SOL    HW127956   1.662   5.832   0.335
 9019SOL    HW227957   1.753   5.801   0.467
 9020SOL     OW27958   0.633   5.145   3.493
 9020SOL    HW127959   0.620   5.064   3.550
 9020SOL    HW227960   0.665   5.117   3.402
 9021SOL     OW27961   5.787   5.303   5.497
 9021SOL    HW127962   5.773   5.234   5.426
 9021SOL    HW227963   5.817   5.259   5.582
 9022SOL     OW27964   2.829   6.999   6.516
 9022SOL    HW127965   2.770   6.919   6.523
 9022SOL    HW227966   2.871   7.001   6.425
 9023SOL     OW27967   2.944   3.547   3.700
 9023SOL    HW127968   2.911   3.532   3.793
 9023SOL    HW227969   2.952   3.459   3.653
 9024SOL     OW27970   1.157   6.989   6.635
 9024SOL    HW127971   1.160   0.056   6.595
 9024SOL    HW227972   1.092   6.988   6.711
 9025SOL     OW27973   0.478   3.503   6.941
 9025SOL    HW127974   0.510   3.592   6.909
 9025SOL    HW227975   0.527   3.477   0.000
 9026SOL     OW27976   2.773   3.373   5.707
 9026SOL    HW127977   2.763   3.467   5.737
 9026SOL    HW227978   2.783   3.370   5.608
 9027SOL     OW27979   1.791   2.548   2.498
 9027SOL    HW127980   1.760   2.641   2.475
 9027SOL    HW227981   1.734   2.512   2.572
 9028SOL     OW27982   2.382   4.429   4.687
 9028SOL    HW127983   2.379   4.490   4.766
 9028SOL    HW227984   2.458   4.455   4.627
 9029SOL     OW27985   5.706   5.266   2.352
 9029SOL    HW127986   5.716   5.346   2.411
 9029SOL    HW227987   5.791   5.214   2.350
 9030SOL     OW27988   3.962   1.828   2.463
 9030SOL    HW127989   4.003   1.918   2.451
 9030SOL    HW227990   3.864   1.833   2.444
 9031SOL     OW27991   2.380   1.497   1.289
 9031SOL    HW127992   2.300   1.439   1.282
 9031SOL    HW227993   2.398   1.517   1.386
 9032SOL     OW27994   0.548   2.666   1.961
 9032SOL    HW127995   0.544   2.651   1.863
 9032SOL    HW227996   0.493   2.746   1.985
 9033SOL     OW27997   1.254   4.192   2.529
 9033SOL    HW127998   1.337   4.176   2.582
 9033SOL    HW227999   1.179   4.140   2.570
 9034SOL     OW28000   1.986   6.668   6.876
 9034SOL    HW128001   2.021   6.731   6.945
 9034SOL    HW228002   2.035   6.582   6.882
 9035SOL     OW28003   6.672   1.386   4.492
 9035SOL    HW128004   6.699   1.353   4.401
 9035SOL    HW228005   6.584   1.432   4.486
 9036SOL     OW28006   0.627   1.061   4.617
 9036SOL    HW128007   0.705   1.023   4.667
 9036SOL    HW228008   0.658   1.098   4.530
 9037SOL     OW28009   2.423   3.920   5.635
 9037SOL    HW128010   2.495   3.984   5.610
 9037SOL    HW228011   2.371   3.895   5.554
 9038SOL     OW28012   4.742   5.130   5.649
 9038SOL    HW128013   4.685   5.059   5.609
 9038SOL    HW228014   4.751   5.207   5.585
 9039SOL     OW28015   2.356   4.811   6.723
 9039SOL    HW128016   2.309   4.723   6.710
 9039SOL    HW228017   2.312   4.861   6.797
 9040SOL     OW28018   2.631   1.734   2.340
 9040SOL    HW128019   2.532   1.744   2.351
 9040SOL    HW228020   2.671   1.822   2.314
 9041SOL     OW28021   1.481   2.978   5.891
 9041SOL    HW128022   1.419   2.902   5.869
 9041SOL    HW228023   1.564   2.970   5.836
 9042SOL     OW28024   1.513   5.417   2.903
 9042SOL    HW128025   1.584   5.458   2.846
 9042SOL    HW228026   1.518   5.317   2.897
 9043SOL     OW28027   0.205   2.273   6.697
 9043SOL    HW128028   0.295   2.298   6.734
 9043SOL    HW228029   0.133   2.309   6.755
 9044SOL     OW28030   0.279   4.012   0.649
 9044SOL    HW128031   0.276   4.071   0.568
 9044SOL    HW228032   0.231   4.057   0.724
 9045SOL     OW28033   2.370   4.441   4.360
 9045SOL    HW128034   2.344   4.351   4.394
 9045SOL    HW228035   2.309   4.510   4.399
 9046SOL     OW28036   3.790   4.412   6.665
 9046SOL    HW128037   3.850   4.340   6.700
 9046SOL    HW228038   3.812   4.430   6.569
 9047SOL     OW28039   0.732   4.680   4.616
 9047SOL    HW128040   0.653   4.688   4.676
 9047SOL    HW228041   0.739   4.587   4.580
 9048SOL     OW28042   1.652   2.098   5.356
 9048SOL    HW128043   1.603   2.076   5.271
 9048SOL    HW228044   1.639   2.196   5.376
 9049SOL     OW28045   4.738   6.198   5.878
 9049SOL    HW128046   4.718   6.108   5.840
 9049SOL    HW228047   4.836   6.206   5.895
 9050SOL     OW28048   0.031   5.244   5.823
 9050SOL    HW128049   0.126   5.268   5.846
 9050SOL    HW228050   0.027   5.147   5.797
 9051SOL     OW28051   5.537   6.641   6.678
 9051SOL    HW128052   5.535   6.683   6.587
 9051SOL    HW228053   5.631   6.621   6.704
 9052SOL     OW28054   2.677   4.900   5.175
 9052SOL    HW128055   2.594   4.920   5.123
 9052SOL    HW228056   2.730   4.830   5.128
 9053SOL     OW28057   2.618   1.270   2.597
 9053SOL    HW128058   2.678   1.219   2.659
 9053SOL    HW228059   2.667   1.289   2.512
 9054SOL     OW28060   1.861   0.069   1.626
 9054SOL    HW128061   1.933   0.095   1.690
 9054SOL    HW228062   1.874   6.999   1.596
 9055SOL     OW28063   0.871   2.279   4.633
 9055SOL    HW128064   0.833   2.360   4.587
 9055SOL    HW228065   0.954   2.304   4.682
 9056SOL     OW28066   4.520   2.322   1.984
 9056SOL    HW128067   4.446   2.333   2.050
 9056SOL    HW228068   4.596   2.383   2.009
 9057SOL     OW28069   3.481   6.480   6.796
 9057SOL    HW128070   3.557   6.458   6.736
 9057SOL    HW228071   3.516   6.508   6.886
 9058SOL     OW28072   2.462   2.054   4.707
 9058SOL    HW128073   2.386   2.006   4.663
 9058SOL    HW228074   2.430   2.142   4.743
 9059SOL     OW28075   6.958   1.331   2.065
 9059SOL    HW128076   6.865   1.303   2.089
 9059SOL    HW228077   7.017   1.323   2.145
 9060SOL     OW28078   6.895   4.942   0.920
 9060SOL    HW128079   6.878   5.022   0.978
 9060SOL    HW228080   6.809   4.897   0.899
 9061SOL     OW28081   4.732   4.256   2.167
 9061SOL    HW128082   4.781   4.202   2.099
 9061SOL    HW228083   4.642   4.282   2.131
 9062SOL     OW28084   0.493   5.292   3.209
 9062SOL    HW128085   0.451   5.292   3.119
 9062SOL    HW228086   0.425   5.269   3.278
 9063SOL     OW28087   4.609   1.111   0.896
 9063SOL    HW128088   4.627   1.194   0.950
 9063SOL    HW228089   4.574   1.039   0.956
 9064SOL     OW28090   1.228   5.533   3.216
 9064SOL    HW128091   1.233   5.523   3.117
 9064SOL    HW228092   1.132   5.540   3.243
 9065SOL     OW28093   3.657   4.082   0.239
 9065SOL    HW128094   3.727   4.034   0.186
 9065SOL    HW228095   3.580   4.020   0.257
 9066SOL     OW28096   5.160   4.685   3.727
 9066SOL    HW128097   5.113   4.694   3.639
 9066SOL    HW228098   5.141   4.766   3.783
 9067SOL     OW28099   2.214   6.396   4.343
 9067SOL    HW128100   2.157   6.411   4.424
 9067SOL    HW228101   2.272   6.315   4.357
 9068SOL     OW28102   4.699   6.940   6.099
 9068SOL    HW128103   4.718   6.846   6.071
 9068SOL    HW228104   4.703   6.946   6.199
 9069SOL     OW28105   5.252   2.407   1.814
 9069SOL    HW128106   5.184   2.458   1.762
 9069SOL    HW228107   5.242   2.428   1.912
 9070SOL     OW28108   1.969   0.914   6.083
 9070SOL    HW128109   1.892   0.873   6.034
 9070SOL    HW228110   2.019   0.975   6.022
 9071SOL     OW28111   4.823   2.531   6.325
 9071SOL    HW128112   4.731   2.526   6.285
 9071SOL    HW228113   4.822   2.596   6.401
 9072SOL     OW28114   5.901   0.165   1.924
 9072SOL    HW128115   5.869   0.148   1.831
 9072SOL    HW228116   5.998   0.139   1.931
 9073SOL     OW28117   4.782   3.107   5.878
 9073SOL    HW128118   4.854   3.062   5.930
 9073SOL    HW228119   4.822   3.173   5.815
 9074SOL     OW28120   2.117   1.020   3.550
 9074SOL    HW128121   2.132   0.938   3.605
 9074SOL    HW228122   2.099   0.994   3.455
 9075SOL     OW28123   4.842   5.261   0.690
 9075SOL    HW128124   4.895   5.186   0.652
 9075SOL    HW228125   4.830   5.333   0.621
 9076SOL     OW28126   1.165   6.139   2.579
 9076SOL    HW128127   1.096   6.211   2.583
 9076SOL    HW228128   1.135   6.067   2.516
 9077SOL     OW28129   6.518   2.030   6.131
 9077SOL    HW128130   6.531   2.006   6.035
 9077SOL    HW228131   6.498   2.127   6.139
 9078SOL     OW28132   5.068   6.599   0.385
 9078SOL    HW128133   5.108   6.556   0.304
 9078SOL    HW228134   5.123   6.678   0.412
 9079SOL     OW28135   1.386   1.025   6.131
 9079SOL    HW128136   1.478   0.989   6.145
 9079SOL    HW228137   1.346   1.047   6.220
 9080SOL     OW28138   6.722   4.136   2.201
 9080SOL    HW128139   6.794   4.175   2.259
 9080SOL    HW228140   6.761   4.103   2.115
 9081SOL     OW28141   4.851   1.599   0.385
 9081SOL    HW128142   4.933   1.647   0.414
 9081SOL    HW228143   4.853   1.505   0.421
 9082SOL     OW28144   3.544   4.264   6.705
 9082SOL    HW128145   3.495   4.233   6.787
 9082SOL    HW228146   3.624   4.318   6.733
 9083SOL     OW28147   3.403   0.464   0.808
 9083SOL    HW128148   3.472   0.521   0.853
 9083SOL    HW228149   3.360   0.516   0.734
 9084SOL     OW28150   6.590   3.953   4.689
 9084SOL    HW128151   6.520   3.883   4.677
 9084SOL    HW228152   6.680   3.911   4.688
 9085SOL     OW28153   2.792   4.922   0.888
 9085SOL    HW128154   2.782   4.865   0.969
 9085SOL    HW228155   2.876   4.976   0.896
 9086SOL     OW28156   6.916   3.244   0.594
 9086SOL    HW128157   6.981   3.311   0.628
 9086SOL    HW228158   6.938   3.154   0.633
 9087SOL     OW28159   4.998   1.596   1.712
 9087SOL    HW128160   4.958   1.687   1.728
 9087SOL    HW228161   5.098   1.602   1.717
 9088SOL     OW28162   5.760   5.913   0.433
 9088SOL    HW128163   5.762   5.829   0.488
 9088SOL    HW228164   5.816   5.901   0.352
 9089SOL     OW28165   5.402   5.057   3.174
 9089SOL    HW128166   5.433   5.030   3.084
 9089SOL    HW228167   5.452   5.006   3.244
 9090SOL     OW28168   5.515   5.768   5.716
 9090SOL    HW128169   5.600   5.759   5.665
 9090SOL    HW228170   5.519   5.850   5.773
 9091SOL     OW28171   2.824   2.076   1.979
 9091SOL    HW128172   2.831   2.162   2.029
 9091SOL    HW228173   2.877   2.083   1.894
 9092SOL     OW28174   2.361   1.769   5.020
 9092SOL    HW128175   2.403   1.858   5.035
 9092SOL    HW228176   2.310   1.770   4.934
 9093SOL     OW28177   2.092   3.623   0.705
 9093SOL    HW128178   2.043   3.668   0.630
 9093SOL    HW228179   2.147   3.547   0.668
 9094SOL     OW28180   6.708   3.411   0.684
 9094SOL    HW128181   6.744   3.325   0.649
 9094SOL    HW228182   6.783   3.475   0.700
 9095SOL     OW28183   2.256   2.917   0.178
 9095SOL    HW128184   2.186   2.848   0.196
 9095SOL    HW228185   2.260   2.936   0.080
 9096SOL     OW28186   6.310   3.852   3.167
 9096SOL    HW128187   6.390   3.912   3.169
 9096SOL    HW228188   6.261   3.864   3.080
 9097SOL     OW28189   6.181   6.303   5.853
 9097SOL    HW128190   6.235   6.386   5.871
 9097SOL    HW228191   6.239   6.222   5.866
 9098SOL     OW28192   3.539   3.930   4.675
 9098SOL    HW128193   3.449   3.909   4.714
 9098SOL    HW228194   3.566   3.856   4.613
 9099SOL     OW28195   1.670   1.899   6.714
 9099SOL    HW128196   1.631   1.978   6.761
 9099SOL    HW228197   1.662   1.818   6.773
 9100SOL     OW28198   1.799   3.012   0.121
 9100SOL    HW128199   1.792   2.975   0.028
 9100SOL    HW228200   1.819   2.939   0.185
 9101SOL     OW28201   2.316   1.899   6.681
 9101SOL    HW128202   2.281   1.988   6.655
 9101SOL    HW228203   2.410   1.888   6.647
 9102SOL     OW28204   4.901   6.459   2.598
 9102SOL    HW128205   4.805   6.487   2.604
 9102SOL    HW228206   4.920   6.425   2.506
 9103SOL     OW28207   0.643   4.790   6.066
 9103SOL    HW128208   0.656   4.729   6.144
 9103SOL    HW228209   0.549   4.781   6.033
 9104SOL     OW28210   5.489   0.153   2.991
 9104SOL    HW128211   5.475   0.215   2.914
 9104SOL    HW228212   5.586   0.150   3.015
 9105SOL     OW28213   2.697   1.569   5.698
 9105SOL    HW128214   2.684   1.470   5.708
 9105SOL    HW228215   2.710   1.591   5.602
 9106SOL     OW28216   6.425   5.137   2.304
 9106SOL    HW128217   6.480   5.177   2.231
 9106SOL    HW228218   6.460   5.046   2.327
 9107SOL     OW28219   4.677   0.381   0.051
 9107SOL    HW128220   4.630   0.316   0.111
 9107SOL    HW228221   4.769   0.398   0.085
 9108SOL     OW28222   3.712   6.088   6.739
 9108SOL    HW128223   3.703   6.027   6.660
 9108SOL    HW228224   3.621   6.114   6.771
 9109SOL     OW28225   2.806   1.472   4.599
 9109SOL    HW128226   2.810   1.386   4.650
 9109SOL    HW228227   2.784   1.546   4.663
 9110SOL     OW28228   1.477   3.355   3.370
 9110SOL    HW128229   1.522   3.421   3.310
 9110SOL    HW228230   1.429   3.403   3.444
 9111SOL     OW28231   4.247   4.082   1.707
 9111SOL    HW128232   4.158   4.064   1.748
 9111SOL    HW228233   4.307   4.126   1.774
 9112SOL     OW28234   0.896   5.514   1.861
 9112SOL    HW128235   0.901   5.429   1.810
 9112SOL    HW228236   0.988   5.552   1.873
 9113SOL     OW28237   2.726   6.128   6.873
 9113SOL    HW128238   2.803   6.071   6.903
 9113SOL    HW228239   2.643   6.072   6.870
 9114SOL     OW28240   2.706   3.936   1.736
 9114SOL    HW128241   2.639   4.000   1.774
 9114SOL    HW228242   2.694   3.931   1.637
 9115SOL     OW28243   1.958   4.344   4.174
 9115SOL    HW128244   1.998   4.308   4.090
 9115SOL    HW228245   1.970   4.444   4.176
 9116SOL     OW28246   2.172   1.622   5.925
 9116SOL    HW128247   2.167   1.632   5.825
 9116SOL    HW228248   2.137   1.705   5.968
 9117SOL     OW28249   6.863   3.341   6.745
 9117SOL    HW128250   6.790   3.405   6.724
 9117SOL    HW228251   6.937   3.389   6.793
 9118SOL     OW28252   0.260   5.449   1.431
 9118SOL    HW128253   0.339   5.394   1.405
 9118SOL    HW228254   0.190   5.445   1.359
 9119SOL     OW28255   6.319   0.586   0.629
 9119SOL    HW128256   6.227   0.580   0.667
 9119SOL    HW228257   6.365   0.497   0.639
 9120SOL     OW28258   6.215   0.931   6.615
 9120SOL    HW128259   6.216   1.030   6.604
 9120SOL    HW228260   6.122   0.897   6.597
 9121SOL     OW28261   1.489   1.125   6.568
 9121SOL    HW128262   1.540   1.208   6.590
 9121SOL    HW228263   1.511   1.053   6.634
 9122SOL     OW28264   1.150   2.449   0.624
 9122SOL    HW128265   1.062   2.484   0.594
 9122SOL    HW228266   1.137   2.389   0.703
 9123SOL     OW28267   2.722   6.402   6.873
 9123SOL    HW128268   2.718   6.303   6.890
 9123SOL    HW228269   2.638   6.444   6.907
 9124SOL     OW28270   5.852   4.779   5.782
 9124SOL    HW128271   5.846   4.789   5.683
 9124SOL    HW228272   5.927   4.717   5.805
 9125SOL     OW28273   4.864   5.760   1.438
 9125SOL    HW128274   4.929   5.714   1.377
 9125SOL    HW228275   4.912   5.790   1.521
 9126SOL     OW28276   5.803   0.019   2.175
 9126SOL    HW128277   5.802   0.089   2.247
 9126SOL    HW228278   5.862   0.050   2.100
 9127SOL     OW28279   5.120   6.484   6.854
 9127SOL    HW128280   5.167   6.464   6.768
 9127SOL    HW228281   5.025   6.510   6.836
 9128SOL     OW28282   4.998   2.808   5.267
 9128SOL    HW128283   4.939   2.855   5.201
 9128SOL    HW228284   5.084   2.784   5.222
 9129SOL     OW28285   2.146   1.692   6.521
 9129SOL    HW128286   2.244   1.708   6.535
 9129SOL    HW228287   2.106   1.770   6.473
 9130SOL     OW28288   5.957   5.344   1.097
 9130SOL    HW128289   5.989   5.418   1.155
 9130SOL    HW228290   5.866   5.314   1.127
 9131SOL     OW28291   0.514   4.292   3.831
 9131SOL    HW128292   0.526   4.311   3.928
 9131SOL    HW228293   0.426   4.328   3.800
 9132SOL     OW28294   1.691   3.226   4.355
 9132SOL    HW128295   1.641   3.189   4.277
 9132SOL    HW228296   1.711   3.153   4.420
 9133SOL     OW28297   1.313   4.656   1.320
 9133SOL    HW128298   1.361   4.614   1.243
 9133SOL    HW228299   1.317   4.594   1.399
 9134SOL     OW28300   2.858   4.907   6.076
 9134SOL    HW128301   2.915   4.985   6.101
 9134SOL    HW228302   2.815   4.924   5.988
 9135SOL     OW28303   0.544   6.048   3.928
 9135SOL    HW128304   0.610   5.981   3.892
 9135SOL    HW228305   0.503   6.097   3.852
 9136SOL     OW28306   3.744   5.398   5.338
 9136SOL    HW128307   3.746   5.484   5.389
 9136SOL    HW228308   3.826   5.392   5.280
 9137SOL     OW28309   4.402   0.697   2.191
 9137SOL    HW128310   4.351   0.781   2.173
 9137SOL    HW228311   4.374   0.626   2.127
 9138SOL     OW28312   3.385   4.528   0.777
 9138SOL    HW128313   3.303   4.574   0.813
 9138SOL    HW228314   3.458   4.595   0.765
 9139SOL     OW28315   3.523   1.171   5.373
 9139SOL    HW128316   3.485   1.249   5.424
 9139SOL    HW228317   3.621   1.185   5.359
 9140SOL     OW28318   6.746   2.533   3.507
 9140SOL    HW128319   6.678   2.580   3.562
 9140SOL    HW228320   6.702   2.488   3.430
 9141SOL     OW28321   5.779   0.582   5.690
 9141SOL    HW128322   5.863   0.624   5.654
 9141SOL    HW228323   5.744   0.637   5.766
 9142SOL     OW28324   1.328   4.226   6.144
 9142SOL    HW128325   1.376   4.170   6.211
 9142SOL    HW228326   1.270   4.292   6.191
 9143SOL     OW28327   5.505   3.974   1.139
 9143SOL    HW128328   5.566   3.961   1.217
 9143SOL    HW228329   5.469   4.067   1.140
 9144SOL     OW28330   1.275   4.689   4.824
 9144SOL    HW128331   1.247   4.596   4.802
 9144SOL    HW228332   1.283   4.699   4.923
 9145SOL     OW28333   0.185   4.048   6.649
 9145SOL    HW128334   0.147   4.119   6.590
 9145SOL    HW228335   0.209   4.087   6.738
 9146SOL     OW28336   0.324   1.740   1.781
 9146SOL    HW128337   0.388   1.668   1.809
 9146SOL    HW228338   0.318   1.809   1.854
 9147SOL     OW28339   4.608   6.187   6.127
 9147SOL    HW128340   4.522   6.237   6.120
 9147SOL    HW228341   4.649   6.176   6.037
 9148SOL     OW28342   3.510   5.589   3.002
 9148SOL    HW128343   3.508   5.490   3.018
 9148SOL    HW228344   3.423   5.629   3.032
 9149SOL     OW28345   6.124   3.383   3.845
 9149SOL    HW128346   6.043   3.434   3.814
 9149SOL    HW228347   6.183   3.362   3.767
 9150SOL     OW28348   4.480   1.554   3.189
 9150SOL    HW128349   4.466   1.636   3.135
 9150SOL    HW228350   4.420   1.557   3.270
 9151SOL     OW28351   1.226   3.261   2.449
 9151SOL    HW128352   1.260   3.259   2.355
 9151SOL    HW228353   1.302   3.252   2.512
 9152SOL     OW28354   2.555   5.600   3.292
 9152SOL    HW128355   2.459   5.590   3.267
 9152SOL    HW228356   2.572   5.693   3.324
 9153SOL     OW28357   1.633   3.170   6.541
 9153SOL    HW128358   1.720   3.198   6.500
 9153SOL    HW228359   1.560   3.176   6.474
 9154SOL     OW28360   1.894   6.017   0.266
 9154SOL    HW128361   1.853   5.940   0.316
 9154SOL    HW228362   1.836   6.098   0.278
 9155SOL     OW28363   1.302   4.326   0.301
 9155SOL    HW128364   1.253   4.413   0.298
 9155SOL    HW228365   1.263   4.263   0.234
 9156SOL     OW28366   5.275   2.750   1.897
 9156SOL    HW128367   5.300   2.846   1.903
 9156SOL    HW228368   5.177   2.742   1.877
 9157SOL     OW28369   5.352   3.689   5.939
 9157SOL    HW128370   5.268   3.703   5.992
 9157SOL    HW228371   5.402   3.775   5.933
 9158SOL     OW28372   0.594   3.667   3.245
 9158SOL    HW128373   0.590   3.607   3.325
 9158SOL    HW228374   0.666   3.635   3.183
 9159SOL     OW28375   0.064   4.370   2.999
 9159SOL    HW128376   0.040   4.465   3.021
 9159SOL    HW228377   0.146   4.370   2.941
 9160SOL     OW28378   6.975   0.001   0.390
 9160SOL    HW128379   6.945   6.950   0.331
 9160SOL    HW228380   6.923   0.083   0.369
 9161SOL     OW28381   5.431   3.693   3.885
 9161SOL    HW128382   5.429   3.616   3.822
 9161SOL    HW228383   5.468   3.774   3.838
 9162SOL     OW28384   5.528   1.752   2.113
 9162SOL    HW128385   5.447   1.780   2.063
 9162SOL    HW228386   5.502   1.720   2.205
 9163SOL     OW28387   3.238   1.356   4.299
 9163SOL    HW128388   3.153   1.320   4.336
 9163SOL    HW228389   3.222   1.445   4.257
 9164SOL     OW28390   2.708   0.238   0.261
 9164SOL    HW128391   2.652   0.313   0.227
 9164SOL    HW228392   2.690   0.224   0.358
 9165SOL     OW28393   4.850   6.205   0.587
 9165SOL    HW128394   4.877   6.136   0.654
 9165SOL    HW228395   4.778   6.262   0.626
 9166SOL     OW28396   3.146   5.547   1.387
 9166SOL    HW128397   3.171   5.463   1.435
 9166SOL    HW228398   3.048   5.564   1.400
 9167SOL     OW28399   0.187   4.277   4.852
 9167SOL    HW128400   0.279   4.236   4.849
 9167SOL    HW228401   0.188   4.365   4.805
 9168SOL     OW28402   2.266   0.242   6.377
 9168SOL    HW128403   2.178   0.260   6.420
 9168SOL    HW228404   2.252   0.207   6.285
 9169SOL     OW28405   6.574   6.989   3.076
 9169SOL    HW128406   6.570   6.934   3.159
 9169SOL    HW228407   6.561   6.930   2.996
 9170SOL     OW28408   6.326   6.043   6.857
 9170SOL    HW128409   6.251   5.991   6.898
 9170SOL    HW228410   6.345   6.123   6.913
 9171SOL     OW28411   2.838   5.468   5.849
 9171SOL    HW128412   2.825   5.370   5.859
 9171SOL    HW228413   2.883   5.504   5.930
 9172SOL     OW28414   2.715   2.429   4.107
 9172SOL    HW128415   2.698   2.527   4.111
 9172SOL    HW228416   2.721   2.392   4.200
 9173SOL     OW28417   0.496   4.863   5.382
 9173SOL    HW128418   0.595   4.868   5.369
 9173SOL    HW228419   0.450   4.871   5.294
 9174SOL     OW28420   0.232   5.679   0.093
 9174SOL    HW128421   0.246   5.607   0.025
 9174SOL    HW228422   0.153   5.656   0.150
 9175SOL     OW28423   1.750   6.903   5.108
 9175SOL    HW128424   1.703   6.908   5.020
 9175SOL    HW228425   1.848   6.894   5.092
 9176SOL     OW28426   1.491   1.389   5.514
 9176SOL    HW128427   1.553   1.463   5.488
 9176SOL    HW228428   1.515   1.355   5.605
 9177SOL     OW28429   1.067   4.407   3.975
 9177SOL    HW128430   1.111   4.317   3.977
 9177SOL    HW228431   0.976   4.399   3.934
 9178SOL     OW28432   2.069   4.691   0.556
 9178SOL    HW128433   2.013   4.700   0.474
 9178SOL    HW228434   2.166   4.697   0.531
 9179SOL     OW28435   2.759   4.734   4.781
 9179SOL    HW128436   2.774   4.833   4.770
 9179SOL    HW228437   2.784   4.706   4.873
 9180SOL     OW28438   5.245   1.798   2.523
 9180SOL    HW128439   5.181   1.816   2.597
 9180SOL    HW228440   5.315   1.870   2.520
 9181SOL     OW28441   3.767   1.313   2.527
 9181SOL    HW128442   3.774   1.399   2.577
 9181SOL    HW228443   3.719   1.328   2.441
 9182SOL     OW28444   1.592   6.646   1.815
 9182SOL    HW128445   1.616   6.615   1.723
 9182SOL    HW228446   1.675   6.674   1.864
 9183SOL     OW28447   5.157   5.526   6.554
 9183SOL    HW128448   5.223   5.576   6.498
 9183SOL    HW228449   5.064   5.557   6.533
 9184SOL     OW28450   4.822   6.929   0.059
 9184SOL    HW128451   4.806   6.924   0.158
 9184SOL    HW228452   4.907   6.881   0.037
 9185SOL     OW28453   4.382   1.159   5.325
 9185SOL    HW128454   4.457   1.225   5.317
 9185SOL    HW228455   4.295   1.208   5.330
 9186SOL     OW28456   5.530   7.019   6.676
 9186SOL    HW128457   5.430   7.023   6.670
 9186SOL    HW228458   5.570   0.023   6.589
 9187SOL     OW28459   3.047   6.301   2.191
 9187SOL    HW128460   3.031   6.210   2.228
 9187SOL    HW228461   2.983   6.318   2.115
 9188SOL     OW28462   2.461   6.105   1.407
 9188SOL    HW128463   2.547   6.053   1.416
 9188SOL    HW228464   2.433   6.106   1.311
 9189SOL     OW28465   5.696   4.715   1.861
 9189SOL    HW128466   5.691   4.618   1.885
 9189SOL    HW228467   5.733   4.726   1.769
 9190SOL     OW28468   1.428   5.011   1.161
 9190SOL    HW128469   1.445   4.937   1.096
 9190SOL    HW228470   1.476   5.093   1.131
 9191SOL     OW28471   6.916   0.363   6.150
 9191SOL    HW128472   6.829   0.381   6.105
 9191SOL    HW228473   6.908   0.379   6.248
 9192SOL     OW28474   0.337   3.652   3.822
 9192SOL    HW128475   0.391   3.568   3.832
 9192SOL    HW228476   0.247   3.639   3.862
 9193SOL     OW28477   2.569   3.516   7.016
 9193SOL    HW128478   2.646   3.543   0.049
 9193SOL    HW228479   2.501   3.589   7.016
 9194SOL     OW28480   3.222   0.349   4.416
 9194SOL    HW128481   3.298   0.410   4.437
 9194SOL    HW228482   3.254   0.254   4.416
 9195SOL     OW28483   1.813   1.357   3.925
 9195SOL    HW128484   1.742   1.294   3.893
 9195SOL    HW228485   1.770   1.440   3.960
 9196SOL     OW28486   4.931   2.103   5.372
 9196SOL    HW128487   4.853   2.041   5.361
 9196SOL    HW228488   4.901   2.186   5.419
 9197SOL     OW28489   2.517   3.576   1.345
 9197SOL    HW128490   2.435   3.579   1.402
 9197SOL    HW228491   2.517   3.654   1.282
 9198SOL     OW28492   0.303   4.731   3.910
 9198SOL    HW128493   0.397   4.731   3.943
 9198SOL    HW228494   0.275   4.825   3.890
 9199SOL     OW28495   6.136   4.732   4.931
 9199SOL    HW128496   6.194   4.813   4.930
 9199SOL    HW228497   6.182   4.658   4.880
 9200SOL     OW28498   3.040   0.624   0.125
 9200SOL    HW128499   3.109   0.574   0.177
 9200SOL    HW228500   2.983   0.677   0.187
 9201SOL     OW28501   1.786   4.401   0.306
 9201SOL    HW128502   1.858   4.364   0.365
 9201SOL    HW228503   1.702   4.348   0.319
 9202SOL     OW28504   2.459   0.913   3.981
 9202SOL    HW128505   2.474   1.003   4.022
 9202SOL    HW228506   2.487   0.915   3.885
 9203SOL     OW28507   6.740   6.805   0.857
 9203SOL    HW128508   6.690   6.830   0.940
 9203SOL    HW228509   6.819   6.748   0.882
 9204SOL     OW28510   4.994   0.185   5.628
 9204SOL    HW128511   4.952   0.250   5.692
 9204SOL    HW228512   4.928   0.161   5.557
 9205SOL     OW28513   0.022   4.808   1.569
 9205SOL    HW128514   0.055   4.720   1.536
 9205SOL    HW228515   6.966   4.836   1.515
 9206SOL     OW28516   3.496   6.394   0.591
 9206SOL    HW128517   3.443   6.379   0.675
 9206SOL    HW228518   3.442   6.365   0.512
 9207SOL     OW28519   5.428   5.482   6.658
 9207SOL    HW128520   5.335   5.468   6.625
 9207SOL    HW228521   5.461   5.398   6.702
 9208SOL     OW28522   1.298   3.874   2.884
 9208SOL    HW128523   1.322   3.823   2.801
 9208SOL    HW228524   1.379   3.918   2.921
 9209SOL     OW28525   3.237   0.269   6.430
 9209SOL    HW128526   3.274   0.210   6.357
 9209SOL    HW228527   3.140   0.283   6.415
 9210SOL     OW28528   0.099   0.536   3.879
 9210SOL    HW128529   0.012   0.508   3.837
 9210SOL    HW228530   0.081   0.600   3.953
 9211SOL     OW28531   0.695   1.704   2.481
 9211SOL    HW128532   0.608   1.753   2.480
 9211SOL    HW228533   0.764   1.760   2.526
 9212SOL     OW28534   3.373   4.926   4.527
 9212SOL    HW128535   3.370   4.991   4.451
 9212SOL    HW228536   3.281   4.909   4.560
 9213SOL     OW28537   6.154   4.367   6.522
 9213SOL    HW128538   6.214   4.301   6.478
 9213SOL    HW228539   6.136   4.339   6.616
 9214SOL     OW28540   0.150   4.728   0.685
 9214SOL    HW128541   0.139   4.706   0.589
 9214SOL    HW228542   0.185   4.822   0.694
 9215SOL     OW28543   1.403   0.988   0.993
 9215SOL    HW128544   1.325   1.011   1.052
 9215SOL    HW228545   1.440   1.072   0.954
 9216SOL     OW28546   2.052   6.995   3.182
 9216SOL    HW128547   2.098   0.060   3.179
 9216SOL    HW228548   1.996   6.984   3.099
 9217SOL     OW28549   0.626   2.756   0.080
 9217SOL    HW128550   0.610   2.759   0.179
 9217SOL    HW228551   0.648   2.662   0.054
 9218SOL     OW28552   2.751   1.018   0.444
 9218SOL    HW128553   2.786   1.083   0.512
 9218SOL    HW228554   2.692   1.066   0.379
 9219SOL     OW28555   0.294   1.466   0.603
 9219SOL    HW128556   0.280   1.484   0.701
 9219SOL    HW228557   0.314   1.552   0.557
 9220SOL     OW28558   3.189   6.348   1.627
 9220SOL    HW128559   3.149   6.363   1.718
 9220SOL    HW228560   3.141   6.273   1.582
 9221SOL     OW28561   2.816   5.143   4.530
 9221SOL    HW128562   2.753   5.208   4.488
 9221SOL    HW228563   2.831   5.066   4.467
 9222SOL     OW28564   2.778   2.068   5.948
 9222SOL    HW128565   2.766   1.974   5.982
 9222SOL    HW228566   2.762   2.070   5.850
 9223SOL     OW28567   2.724   3.062   5.324
 9223SOL    HW128568   2.738   3.160   5.307
 9223SOL    HW228569   2.658   3.026   5.257
 9224SOL     OW28570   2.235   4.729   5.194
 9224SOL    HW128571   2.144   4.722   5.234
 9224SOL    HW228572   2.298   4.669   5.244
 9225SOL     OW28573   2.113   6.928   6.986
 9225SOL    HW128574   2.200   6.895   6.951
 9225SOL    HW228575   2.073   6.992   6.920
 9226SOL     OW28576   3.902   6.447   1.226
 9226SOL    HW128577   3.814   6.446   1.179
 9226SOL    HW228578   3.900   6.380   1.301
 9227SOL     OW28579   1.712   6.111   1.455
 9227SOL    HW128580   1.710   6.067   1.544
 9227SOL    HW228581   1.796   6.164   1.445
 9228SOL     OW28582   0.578   0.392   0.093
 9228SOL    HW128583   0.615   0.301   0.073
 9228SOL    HW228584   0.493   0.382   0.144
 9229SOL     OW28585   0.594   5.657   5.580
 9229SOL    HW128586   0.573   5.564   5.550
 9229SOL    HW228587   0.692   5.666   5.596
 9230SOL     OW28588   5.465   0.672   3.868
 9230SOL    HW128589   5.537   0.696   3.934
 9230SOL    HW228590   5.442   0.752   3.814
 9231SOL     OW28591   1.889   3.525   3.220
 9231SOL    HW128592   1.862   3.521   3.123
 9231SOL    HW228593   1.970   3.469   3.234
 9232SOL     OW28594   4.549   4.816   1.478
 9232SOL    HW128595   4.625   4.854   1.426
 9232SOL    HW228596   4.476   4.884   1.486
 9233SOL     OW28597   4.618   4.617   1.222
 9233SOL    HW128598   4.596   4.698   1.168
 9233SOL    HW228599   4.539   4.556   1.226
 9234SOL     OW28600   2.318   6.009   3.509
 9234SOL    HW128601   2.251   5.935   3.515
 9234SOL    HW228602   2.312   6.065   3.592
 9235SOL     OW28603   0.742   2.106   3.060
 9235SOL    HW128604   0.684   2.025   3.077
 9235SOL    HW228605   0.836   2.077   3.046
 9236SOL     OW28606   3.707   2.775   5.665
 9236SOL    HW128607   3.800   2.752   5.638
 9236SOL    HW228608   3.659   2.691   5.691
 9237SOL     OW28609   1.870   3.228   4.043
 9237SOL    HW128610   1.957   3.272   4.067
 9237SOL    HW228611   1.828   3.190   4.125
 9238SOL     OW28612   4.372   3.475   6.333
 9238SOL    HW128613   4.390   3.480   6.235
 9238SOL    HW228614   4.322   3.391   6.354
 9239SOL     OW28615   1.832   4.093   6.723
 9239SOL    HW128616   1.915   4.129   6.681
 9239SOL    HW228617   1.802   4.011   6.674
 9240SOL     OW28618   4.808   0.772   2.563
 9240SOL    HW128619   4.854   0.734   2.643
 9240SOL    HW228620   4.847   0.861   2.540
 9241SOL     OW28621   0.743   5.708   0.317
 9241SOL    HW128622   0.770   5.735   0.225
 9241SOL    HW228623   0.644   5.692   0.319
 9242SOL     OW28624   6.415   5.921   1.679
 9242SOL    HW128625   6.455   5.936   1.769
 9242SOL    HW228626   6.474   5.962   1.609
 9243SOL     OW28627   6.175   6.317   4.841
 9243SOL    HW128628   6.168   6.253   4.764
 9243SOL    HW228629   6.096   6.378   4.841
 9244SOL     OW28630   3.155   5.843   0.102
 9244SOL    HW128631   3.166   5.752   0.062
 9244SOL    HW228632   3.233   5.863   0.161
 9245SOL     OW28633   0.320   6.208   1.078
 9245SOL    HW128634   0.340   6.304   1.098
 9245SOL    HW228635   0.405   6.156   1.073
 9246SOL     OW28636   0.149   4.717   4.140
 9246SOL    HW128637   0.050   4.709   4.126
 9246SOL    HW228638   0.195   4.717   4.051
 9247SOL     OW28639   1.670   6.709   2.390
 9247SOL    HW128640   1.663   6.612   2.365
 9247SOL    HW228641   1.714   6.759   2.315
 9248SOL     OW28642   3.500   1.953   6.102
 9248SOL    HW128643   3.531   2.048   6.111
 9248SOL    HW228644   3.579   1.894   6.084
 9249SOL     OW28645   4.360   6.787   3.397
 9249SOL    HW128646   4.315   6.876   3.409
 9249SOL    HW228647   4.454   6.801   3.366
 9250SOL     OW28648   5.695   3.611   3.632
 9250SOL    HW128649   5.695   3.641   3.537
 9250SOL    HW228650   5.659   3.684   3.690
 9251SOL     OW28651   3.743   1.888   3.111
 9251SOL    HW128652   3.760   1.857   3.204
 9251SOL    HW228653   3.787   1.826   3.046
 9252SOL     OW28654   1.306   6.654   4.559
 9252SOL    HW128655   1.364   6.729   4.525
 9252SOL    HW228656   1.281   6.594   4.483
 9253SOL     OW28657   1.487   6.876   5.657
 9253SOL    HW128658   1.565   6.934   5.681
 9253SOL    HW228659   1.411   6.894   5.718
 9254SOL     OW28660   5.583   3.342   1.626
 9254SOL    HW128661   5.524   3.395   1.686
 9254SOL    HW228662   5.543   3.337   1.535
 9255SOL     OW28663   0.175   4.644   0.444
 9255SOL    HW128664   0.216   4.734   0.429
 9255SOL    HW228665   0.115   4.621   0.368
 9256SOL     OW28666   4.095   5.069   1.864
 9256SOL    HW128667   4.171   5.046   1.924
 9256SOL    HW228668   4.130   5.115   1.782
 9257SOL     OW28669   0.699   3.525   0.930
 9257SOL    HW128670   0.695   3.495   1.026
 9257SOL    HW228671   0.794   3.545   0.906
 9258SOL     OW28672   4.070   3.662   3.906
 9258SOL    HW128673   4.125   3.617   3.976
 9258SOL    HW228674   4.040   3.751   3.940
 9259SOL     OW28675   0.979   2.720   0.169
 9259SOL    HW128676   1.008   2.641   0.115
 9259SOL    HW228677   0.892   2.700   0.214
 9260SOL     OW28678   5.797   3.747   6.979
 9260SOL    HW128679   5.778   3.791   0.043
 9260SOL    HW228680   5.717   3.754   6.920
 9261SOL     OW28681   4.272   0.086   6.896
 9261SOL    HW128682   4.202   0.020   6.923
 9261SOL    HW228683   4.263   0.168   6.953
 9262SOL     OW28684   5.207   0.934   5.522
 9262SOL    HW128685   5.264   0.858   5.554
 9262SOL    HW228686   5.143   0.960   5.594
 9263SOL     OW28687   5.535   3.793   2.113
 9263SOL    HW128688   5.523   3.719   2.179
 9263SOL    HW228689   5.594   3.763   2.039
 9264SOL     OW28690   6.283   2.712   0.090
 9264SOL    HW128691   6.196   2.712   0.040
 9264SOL    HW228692   6.273   2.658   0.174
 9265SOL     OW28693   1.871   1.425   5.467
 9265SOL    HW128694   1.797   1.488   5.442
 9265SOL    HW228695   1.943   1.429   5.398
 9266SOL     OW28696   2.203   6.187   2.212
 9266SOL    HW128697   2.151   6.259   2.259
 9266SOL    HW228698   2.197   6.102   2.264
 9267SOL     OW28699   2.547   5.115   5.435
 9267SOL    HW128700   2.455   5.093   5.465
 9267SOL    HW228701   2.607   5.036   5.446
 9268SOL     OW28702   0.612   1.119   2.764
 9268SOL    HW128703   0.618   1.035   2.818
 9268SOL    HW228704   0.535   1.174   2.796
 9269SOL     OW28705   4.108   1.896   5.613
 9269SOL    HW128706   4.142   1.931   5.526
 9269SOL    HW228707   4.068   1.805   5.598
 9270SOL     OW28708   1.333   6.884   5.913
 9270SOL    HW128709   1.373   6.816   5.974
 9270SOL    HW228710   1.260   6.933   5.960
 9271SOL     OW28711   0.959   4.980   6.994
 9271SOL    HW128712   0.966   5.053   6.926
 9271SOL    HW228713   0.968   4.892   6.948
 9272SOL     OW28714   2.797   4.998   6.906
 9272SOL    HW128715   2.735   4.925   6.874
 9272SOL    HW228716   2.879   4.998   6.850
 9273SOL     OW28717   3.920   6.159   5.204
 9273SOL    HW128718   3.842   6.106   5.169
 9273SOL    HW228719   3.931   6.140   5.302
 9274SOL     OW28720   6.145   2.395   0.950
 9274SOL    HW128721   6.125   2.449   1.032
 9274SOL    HW228722   6.205   2.318   0.975
 9275SOL     OW28723   0.503   0.473   6.411
 9275SOL    HW128724   0.583   0.458   6.352
 9275SOL    HW228725   0.471   0.567   6.401
 9276SOL     OW28726   4.950   6.147   4.639
 9276SOL    HW128727   4.991   6.056   4.645
 9276SOL    HW228728   4.958   6.181   4.545
 9277SOL     OW28729   3.677   2.608   0.601
 9277SOL    HW128730   3.742   2.573   0.534
 9277SOL    HW228731   3.720   2.612   0.691
 9278SOL     OW28732   1.360   2.260   1.563
 9278SOL    HW128733   1.431   2.319   1.525
 9278SOL    HW228734   1.271   2.304   1.551
 9279SOL     OW28735   3.418   0.081   1.343
 9279SOL    HW128736   3.348   0.061   1.412
 9279SOL    HW228737   3.377   0.135   1.269
 9280SOL     OW28738   2.143   0.782   2.935
 9280SOL    HW128739   2.144   0.745   3.028
 9280SOL    HW228740   2.066   0.742   2.884
 9281SOL     OW28741   1.957   2.701   0.537
 9281SOL    HW128742   1.981   2.667   0.628
 9281SOL    HW228743   1.859   2.718   0.533
 9282SOL     OW28744   4.525   2.271   6.179
 9282SOL    HW128745   4.605   2.223   6.147
 9282SOL    HW228746   4.536   2.369   6.164
 9283SOL     OW28747   5.921   2.064   2.623
 9283SOL    HW128748   5.931   2.087   2.526
 9283SOL    HW228749   5.829   2.029   2.639
 9284SOL     OW28750   3.223   3.611   2.197
 9284SOL    HW128751   3.298   3.666   2.233
 9284SOL    HW228752   3.252   3.566   2.112
 9285SOL     OW28753   5.811   2.617   6.635
 9285SOL    HW128754   5.764   2.689   6.584
 9285SOL    HW228755   5.876   2.657   6.699
 9286SOL     OW28756   5.446   6.125   5.077
 9286SOL    HW128757   5.395   6.038   5.079
 9286SOL    HW228758   5.426   6.177   5.160
 9287SOL     OW28759   3.101   6.474   1.882
 9287SOL    HW128760   3.159   6.524   1.946
 9287SOL    HW228761   3.034   6.537   1.841
 9288SOL     OW28762   4.700   2.577   5.644
 9288SOL    HW128763   4.624   2.636   5.616
 9288SOL    HW228764   4.666   2.505   5.704
 9289SOL     OW28765   5.066   3.272   2.836
 9289SOL    HW128766   5.040   3.249   2.930
 9289SOL    HW228767   5.073   3.371   2.826
 9290SOL     OW28768   4.415   2.096   4.866
 9290SOL    HW128769   4.495   2.079   4.809
 9290SOL    HW228770   4.336   2.046   4.829
 9291SOL     OW28771   0.693   1.853   4.560
 9291SOL    HW128772   0.723   1.922   4.625
 9291SOL    HW228773   0.627   1.893   4.496
 9292SOL     OW28774   6.663   3.562   6.767
 9292SOL    HW128775   6.625   3.645   6.727
 9292SOL    HW228776   6.639   3.556   6.863
 9293SOL     OW28777   5.963   3.714   6.509
 9293SOL    HW128778   5.897   3.784   6.536
 9293SOL    HW228779   5.916   3.633   6.475
 9294SOL     OW28780   5.474   6.030   6.789
 9294SOL    HW128781   5.451   6.123   6.763
 9294SOL    HW228782   5.537   6.031   6.866
 9295SOL     OW28783   4.629   1.785   3.403
 9295SOL    HW128784   4.545   1.740   3.371
 9295SOL    HW228785   4.658   1.743   3.489
 9296SOL     OW28786   6.512   6.650   5.674
 9296SOL    HW128787   6.533   6.698   5.759
 9296SOL    HW228788   6.413   6.641   5.664
 9297SOL     OW28789   0.606   0.810   0.835
 9297SOL    HW128790   0.566   0.857   0.913
 9297SOL    HW228791   0.542   0.811   0.759
 9298SOL     OW28792   0.704   6.579   5.100
 9298SOL    HW128793   0.746   6.510   5.042
 9298SOL    HW228794   0.722   6.670   5.064
 9299SOL     OW28795   2.201   2.906   4.308
 9299SOL    HW128796   2.238   2.888   4.217
 9299SOL    HW228797   2.216   2.826   4.366
 9300SOL     OW28798   5.737   4.448   3.930
 9300SOL    HW128799   5.643   4.457   3.961
 9300SOL    HW228800   5.742   4.461   3.831
 9301SOL     OW28801   6.124   3.800   2.547
 9301SOL    HW128802   6.082   3.873   2.602
 9301SOL    HW228803   6.110   3.712   2.592
 9302SOL     OW28804   2.661   2.057   2.690
 9302SOL    HW128805   2.742   2.116   2.691
 9302SOL    HW228806   2.592   2.097   2.629
 9303SOL     OW28807   3.378   4.610   1.164
 9303SOL    HW128808   3.425   4.623   1.077
 9303SOL    HW228809   3.439   4.635   1.239
 9304SOL     OW28810   4.096   3.451   0.453
 9304SOL    HW128811   4.151   3.405   0.523
 9304SOL    HW228812   4.121   3.417   0.363
 9305SOL     OW28813   5.174   2.857   2.501
 9305SOL    HW128814   5.161   2.938   2.445
 9305SOL    HW228815   5.242   2.875   2.572
 9306SOL     OW28816   6.237   4.441   3.954
 9306SOL    HW128817   6.138   4.455   3.950
 9306SOL    HW228818   6.278   4.467   3.867
 9307SOL     OW28819   2.422   1.258   6.547
 9307SOL    HW128820   2.392   1.304   6.464
 9307SOL    HW228821   2.516   1.225   6.536
 9308SOL     OW28822   6.634   2.587   0.708
 9308SOL    HW128823   6.680   2.552   0.627
 9308SOL    HW228824   6.537   2.601   0.688
 9309SOL     OW28825   4.909   3.591   6.735
 9309SOL    HW128826   4.865   3.662   6.681
 9309SOL    HW228827   4.841   3.524   6.764
 9310SOL     OW28828   3.679   6.251   1.080
 9310SOL    HW128829   3.659   6.349   1.079
 9310SOL    HW228830   3.769   6.235   1.040
 9311SOL     OW28831   6.501   2.976   1.270
 9311SOL    HW128832   6.489   3.000   1.366
 9311SOL    HW228833   6.440   2.900   1.246
 9312SOL     OW28834   1.158   4.864   5.252
 9312SOL    HW128835   1.213   4.817   5.183
 9312SOL    HW228836   1.071   4.816   5.264
 9313SOL     OW28837   6.263   6.667   2.197
 9313SOL    HW128838   6.179   6.717   2.179
 9313SOL    HW228839   6.253   6.613   2.280
 9314SOL     OW28840   5.362   4.994   0.274
 9314SOL    HW128841   5.273   4.949   0.280
 9314SOL    HW228842   5.412   4.959   0.195
 9315SOL     OW28843   6.537   6.521   6.477
 9315SOL    HW128844   6.555   6.543   6.573
 9315SOL    HW228845   6.524   6.422   6.468
 9316SOL     OW28846   3.814   5.768   4.414
 9316SOL    HW128847   3.904   5.790   4.376
 9316SOL    HW228848   3.807   5.669   4.427
 9317SOL     OW28849   5.673   4.260   4.720
 9317SOL    HW128850   5.660   4.249   4.622
 9317SOL    HW228851   5.716   4.348   4.739
 9318SOL     OW28852   6.367   6.845   6.472
 9318SOL    HW128853   6.402   6.775   6.409
 9318SOL    HW228854   6.267   6.849   6.466
 9319SOL     OW28855   6.894   3.466   4.822
 9319SOL    HW128856   6.891   3.499   4.728
 9319SOL    HW228857   6.826   3.514   4.876
 9320SOL     OW28858   4.164   2.857   6.714
 9320SOL    HW128859   4.164   2.759   6.695
 9320SOL    HW228860   4.214   2.905   6.641
 9321SOL     OW28861   6.351   6.109   3.351
 9321SOL    HW128862   6.383   6.052   3.275
 9321SOL    HW228863   6.275   6.064   3.397
 9322SOL     OW28864   0.622   6.296   0.232
 9322SOL    HW128865   0.677   6.213   0.242
 9322SOL    HW228866   0.530   6.271   0.201
 9323SOL     OW28867   0.376   1.720   6.098
 9323SOL    HW128868   0.330   1.778   6.031
 9323SOL    HW228869   0.425   1.777   6.164
 9324SOL     OW28870   1.885   5.638   6.895
 9324SOL    HW128871   1.878   5.688   6.982
 9324SOL    HW228872   1.963   5.672   6.843
 9325SOL     OW28873   0.275   2.988   0.191
 9325SOL    HW128874   0.228   3.003   0.279
 9325SOL    HW228875   0.264   2.892   0.165
 9326SOL     OW28876   2.193   5.662   1.119
 9326SOL    HW128877   2.128   5.616   1.059
 9326SOL    HW228878   2.192   5.618   1.209
 9327SOL     OW28879   4.122   1.050   3.457
 9327SOL    HW128880   4.137   1.144   3.424
 9327SOL    HW228881   4.154   0.985   3.388
 9328SOL     OW28882   3.726   0.740   2.393
 9328SOL    HW128883   3.629   0.735   2.416
 9328SOL    HW228884   3.774   0.793   2.463
 9329SOL     OW28885   1.369   3.563   1.782
 9329SOL    HW128886   1.285   3.617   1.795
 9329SOL    HW228887   1.430   3.611   1.719
 9330SOL     OW28888   5.498   0.144   6.915
 9330SOL    HW128889   5.503   0.128   6.817
 9330SOL    HW228890   5.408   0.117   6.949
 9331SOL     OW28891   0.396   1.478   6.784
 9331SOL    HW128892   0.343   1.551   6.828
 9331SOL    HW228893   0.453   1.516   6.712
 9332SOL     OW28894   3.305   3.806   4.536
 9332SOL    HW128895   3.247   3.770   4.609
 9332SOL    HW228896   3.318   3.905   4.549
 9333SOL     OW28897   5.766   5.178   1.225
 9333SOL    HW128898   5.704   5.147   1.153
 9333SOL    HW228899   5.736   5.141   1.313
 9334SOL     OW28900   2.815   0.207   4.846
 9334SOL    HW128901   2.882   0.276   4.873
 9334SOL    HW228902   2.814   0.133   4.913
 9335SOL     OW28903   0.637   1.097   1.067
 9335SOL    HW128904   0.621   1.088   1.166
 9335SOL    HW228905   0.573   1.037   1.018
 9336SOL     OW28906   2.955   0.115   5.475
 9336SOL    HW128907   2.891   0.081   5.545
 9336SOL    HW228908   3.018   0.041   5.450
 9337SOL     OW28909   4.900   7.017   3.001
 9337SOL    HW128910   4.820   0.046   2.973
 9337SOL    HW228911   4.958   6.998   2.922
 9338SOL     OW28912   4.059   0.446   1.671
 9338SOL    HW128913   4.089   0.525   1.618
 9338SOL    HW228914   3.959   0.444   1.674
 9339SOL     OW28915   4.135   5.987   0.943
 9339SOL    HW128916   4.171   5.973   1.036
 9339SOL    HW228917   4.047   5.941   0.935
 9340SOL     OW28918   5.396   3.294   0.716
 9340SOL    HW128919   5.428   3.230   0.646
 9340SOL    HW228920   5.410   3.254   0.806
 9341SOL     OW28921   6.804   5.029   5.739
 9341SOL    HW128922   6.839   5.107   5.792
 9341SOL    HW228923   6.707   5.043   5.722
 9342SOL     OW28924   0.613   6.777   6.418
 9342SOL    HW128925   0.697   6.813   6.457
 9342SOL    HW228926   0.622   6.772   6.318
 9343SOL     OW28927   6.569   5.743   4.688
 9343SOL    HW128928   6.562   5.705   4.780
 9343SOL    HW228929   6.660   5.723   4.651
 9344SOL     OW28930   4.263   6.448   1.062
 9344SOL    HW128931   4.260   6.442   1.162
 9344SOL    HW228932   4.220   6.533   1.032
 9345SOL     OW28933   6.941   2.758   0.442
 9345SOL    HW128934   6.878   2.812   0.384
 9345SOL    HW228935   7.005   2.709   0.384
 9346SOL     OW28936   5.904   6.912   0.641
 9346SOL    HW128937   5.929   6.861   0.723
 9346SOL    HW228938   5.857   6.996   0.667
 9347SOL     OW28939   1.316   6.394   1.880
 9347SOL    HW128940   1.239   6.338   1.909
 9347SOL    HW228941   1.335   6.463   1.950
 9348SOL     OW28942   2.729   4.834   0.385
 9348SOL    HW128943   2.811   4.875   0.424
 9348SOL    HW228944   2.648   4.868   0.433
 9349SOL     OW28945   2.058   6.068   2.584
 9349SOL    HW128946   2.086   6.036   2.493
 9349SOL    HW228947   1.987   6.138   2.574
 9350SOL     OW28948   0.280   2.663   5.758
 9350SOL    HW128949   0.255   2.757   5.781
 9350SOL    HW228950   0.379   2.655   5.756
 9351SOL     OW28951   2.606   1.166   6.897
 9351SOL    HW128952   2.649   1.253   6.921
 9351SOL    HW228953   2.511   1.182   6.871
 9352SOL     OW28954   2.243   4.737   5.568
 9352SOL    HW128955   2.147   4.760   5.584
 9352SOL    HW228956   2.292   4.740   5.655
 9353SOL     OW28957   5.950   0.960   0.736
 9353SOL    HW128958   6.021   0.920   0.794
 9353SOL    HW228959   5.891   1.019   0.790
 9354SOL     OW28960   0.795   1.776   6.236
 9354SOL    HW128961   0.850   1.775   6.319
 9354SOL    HW228962   0.826   1.850   6.176
 9355SOL     OW28963   0.564   1.469   4.772
 9355SOL    HW128964   0.631   1.415   4.822
 9355SOL    HW228965   0.472   1.452   4.809
 9356SOL     OW28966   5.397   0.131   3.876
 9356SOL    HW128967   5.477   0.108   3.820
 9356SOL    HW228968   5.386   0.230   3.879
 9357SOL     OW28969   1.115   1.502   7.018
 9357SOL    HW128970   1.171   1.436   6.969
 9357SOL    HW228971   1.042   1.534   6.958
 9358SOL     OW28972   1.177   2.527   1.779
 9358SOL    HW128973   1.259   2.472   1.795
 9358SOL    HW228974   1.110   2.510   1.851
 9359SOL     OW28975   1.012   6.832   5.514
 9359SOL    HW128976   1.086   6.882   5.559
 9359SOL    HW228977   0.925   6.879   5.532
 9360SOL     OW28978   0.689   0.248   5.996
 9360SOL    HW128979   0.654   0.174   6.054
 9360SOL    HW228980   0.789   0.243   5.992
 9361SOL     OW28981   2.291   5.356   4.227
 9361SOL    HW128982   2.243   5.442   4.246
 9361SOL    HW228983   2.389   5.369   4.237
 9362SOL     OW28984   2.228   0.966   2.128
 9362SOL    HW128985   2.297   1.014   2.074
 9362SOL    HW228986   2.266   0.878   2.158
 9363SOL     OW28987   1.895   4.857   2.735
 9363SOL    HW128988   1.877   4.920   2.660
 9363SOL    HW228989   1.972   4.797   2.712
 9364SOL     OW28990   0.666   2.698   0.378
 9364SOL    HW128991   0.578   2.655   0.359
 9364SOL    HW228992   0.727   2.632   0.421
 9365SOL     OW28993   3.186   0.962   4.952
 9365SOL    HW128994   3.253   0.934   5.021
 9365SOL    HW228995   3.150   1.052   4.975
 9366SOL     OW28996   4.065   6.160   2.725
 9366SOL    HW128997   4.147   6.146   2.781
 9366SOL    HW228998   4.089   6.216   2.646
 9367SOL     OW28999   6.537   1.233   1.201
 9367SOL    HW129000   6.479   1.158   1.234
 9367SOL    HW229001   6.489   1.283   1.129
 9368SOL     OW29002   2.839   0.235   2.822
 9368SOL    HW129003   2.817   0.146   2.782
 9368SOL    HW229004   2.827   0.230   2.922
 9369SOL     OW29005   3.621   5.357   0.349
 9369SOL    HW129006   3.688   5.325   0.281
 9369SOL    HW229007   3.635   5.310   0.435
 9370SOL     OW29008   4.437   1.928   5.152
 9370SOL    HW129009   4.516   1.879   5.114
 9370SOL    HW229010   4.439   2.023   5.121
 9371SOL     OW29011   4.428   5.031   0.772
 9371SOL    HW129012   4.483   5.031   0.689
 9371SOL    HW229013   4.486   5.012   0.851
 9372SOL     OW29014   4.176   5.852   1.428
 9372SOL    HW129015   4.201   5.756   1.439
 9372SOL    HW229016   4.230   5.892   1.353
 9373SOL     OW29017   6.707   3.031   0.966
 9373SOL    HW129018   6.670   2.946   0.928
 9373SOL    HW229019   6.632   3.089   0.997
 9374SOL     OW29020   0.166   5.505   6.261
 9374SOL    HW129021   0.243   5.456   6.221
 9374SOL    HW229022   0.081   5.472   6.219
 9375SOL     OW29023   0.719   1.093   0.007
 9375SOL    HW129024   0.698   1.182   6.992
 9375SOL    HW229025   0.638   1.056   0.053
 9376SOL     OW29026   2.497   3.798   1.164
 9376SOL    HW129027   2.515   3.886   1.207
 9376SOL    HW229028   2.411   3.802   1.113
 9377SOL     OW29029   2.278   0.447   3.366
 9377SOL    HW129030   2.371   0.480   3.379
 9377SOL    HW229031   2.249   0.397   3.448
 9378SOL     OW29032   3.815   1.031   5.148
 9378SOL    HW129033   3.795   1.026   5.246
 9378SOL    HW229034   3.876   1.109   5.131
 9379SOL     OW29035   4.511   6.962   4.420
 9379SOL    HW129036   4.521   6.885   4.358
 9379SOL    HW229037   4.487   6.928   4.511
 9380SOL     OW29038   5.251   5.666   0.750
 9380SOL    HW129039   5.242   5.762   0.724
 9380SOL    HW229040   5.267   5.610   0.669
 9381SOL     OW29041   5.672   0.870   5.544
 9381SOL    HW129042   5.599   0.823   5.495
 9381SOL    HW229043   5.633   0.932   5.612
 9382SOL     OW29044   3.096   5.083   5.761
 9382SOL    HW129045   3.169   5.094   5.828
 9382SOL    HW229046   3.124   5.123   5.674
 9383SOL     OW29047   5.744   3.886   2.771
 9383SOL    HW129048   5.752   3.825   2.693
 9383SOL    HW229049   5.648   3.897   2.796
 9384SOL     OW29050   3.675   0.370   1.538
 9384SOL    HW129051   3.625   0.405   1.617
 9384SOL    HW229052   3.649   0.420   1.456
 9385SOL     OW29053   4.189   1.399   4.447
 9385SOL    HW129054   4.190   1.307   4.485
 9385SOL    HW229055   4.149   1.397   4.355
 9386SOL     OW29056   5.020   6.511   1.331
 9386SOL    HW129057   5.082   6.571   1.381
 9386SOL    HW229058   5.049   6.504   1.236
 9387SOL     OW29059   2.481   1.535   6.693
 9387SOL    HW129060   2.477   1.451   6.639
 9387SOL    HW229061   2.396   1.546   6.744
 9388SOL     OW29062   2.429   0.229   5.299
 9388SOL    HW129063   2.469   0.271   5.218
 9388SOL    HW229064   2.487   0.153   5.330
 9389SOL     OW29065   1.891   3.912   1.767
 9389SOL    HW129066   1.959   3.984   1.756
 9389SOL    HW229067   1.869   3.873   1.678
 9390SOL     OW29068   5.066   4.355   4.406
 9390SOL    HW129069   5.092   4.451   4.395
 9390SOL    HW229070   5.131   4.310   4.467
 9391SOL     OW29071   1.336   3.787   4.578
 9391SOL    HW129072   1.342   3.718   4.651
 9391SOL    HW229073   1.379   3.750   4.495
 9392SOL     OW29074   5.138   4.488   2.690
 9392SOL    HW129075   5.195   4.406   2.704
 9392SOL    HW229076   5.187   4.554   2.634
 9393SOL     OW29077   1.472   5.947   6.068
 9393SOL    HW129078   1.397   5.976   6.009
 9393SOL    HW229079   1.435   5.894   6.145
 9394SOL     OW29080   4.142   0.394   0.261
 9394SOL    HW129081   4.201   0.373   0.182
 9394SOL    HW229082   4.198   0.424   0.337
 9395SOL     OW29083   1.569   1.279   1.156
 9395SOL    HW129084   1.545   1.376   1.160
 9395SOL    HW229085   1.558   1.246   1.063
 9396SOL     OW29086   0.869   0.969   6.217
 9396SOL    HW129087   0.839   0.907   6.289
 9396SOL    HW229088   0.913   1.049   6.258
 9397SOL     OW29089   3.935   1.261   5.011
 9397SOL    HW129090   4.021   1.223   5.042
 9397SOL    HW229091   3.902   1.210   4.931
 9398SOL     OW29092   0.601   2.275   0.448
 9398SOL    HW129093   0.564   2.196   0.496
 9398SOL    HW229094   0.699   2.261   0.432
 9399SOL     OW29095   0.503   2.299   4.156
 9399SOL    HW129096   0.506   2.226   4.089
 9399SOL    HW229097   0.581   2.361   4.141
 9400SOL     OW29098   5.349   1.695   1.031
 9400SOL    HW129099   5.375   1.766   1.096
 9400SOL    HW229100   5.283   1.732   0.965
 9401SOL     OW29101   0.258   2.354   3.455
 9401SOL    HW129102   0.271   2.265   3.411
 9401SOL    HW229103   0.179   2.348   3.516
 9402SOL     OW29104   2.484   6.534   4.417
 9402SOL    HW129105   2.526   6.623   4.432
 9402SOL    HW229106   2.387   6.546   4.394
 9403SOL     OW29107   5.542   2.337   1.073
 9403SOL    HW129108   5.619   2.278   1.051
 9403SOL    HW229109   5.575   2.428   1.097
 9404SOL     OW29110   2.168   2.912   1.173
 9404SOL    HW129111   2.085   2.940   1.123
 9404SOL    HW229112   2.153   2.925   1.271
 9405SOL     OW29113   6.449   6.224   5.360
 9405SOL    HW129114   6.372   6.201   5.302
 9405SOL    HW229115   6.452   6.323   5.375
 9406SOL     OW29116   1.088   2.145   0.346
 9406SOL    HW129117   1.182   2.177   0.334
 9406SOL    HW229118   1.071   2.070   0.283
 9407SOL     OW29119   1.541   4.529   4.719
 9407SOL    HW129120   1.602   4.550   4.796
 9407SOL    HW229121   1.456   4.491   4.754
 9408SOL     OW29122   6.042   4.582   4.267
 9408SOL    HW129123   5.994   4.494   4.275
 9408SOL    HW229124   6.006   4.645   4.336
 9409SOL     OW29125   6.102   5.523   2.109
 9409SOL    HW129126   6.041   5.568   2.044
 9409SOL    HW229127   6.185   5.579   2.120
 9410SOL     OW29128   4.144   0.609   0.643
 9410SOL    HW129129   4.130   0.702   0.611
 9410SOL    HW229130   4.172   0.551   0.566
 9411SOL     OW29131   3.168   3.866   3.264
 9411SOL    HW129132   3.167   3.945   3.325
 9411SOL    HW229133   3.240   3.878   3.195
 9412SOL     OW29134   4.864   6.675   1.629
 9412SOL    HW129135   4.803   6.662   1.551
 9412SOL    HW229136   4.829   6.749   1.687
 9413SOL     OW29137   4.735   4.113   2.996
 9413SOL    HW129138   4.742   4.127   2.897
 9413SOL    HW229139   4.707   4.199   3.039
 9414SOL     OW29140   2.491   2.158   2.487
 9414SOL    HW129141   2.507   2.125   2.394
 9414SOL    HW229142   2.543   2.242   2.502
 9415SOL     OW29143   5.611   0.293   1.679
 9415SOL    HW129144   5.520   0.306   1.719
 9415SOL    HW229145   5.617   0.201   1.641
 9416SOL     OW29146   5.910   5.499   5.370
 9416SOL    HW129147   5.864   5.428   5.423
 9416SOL    HW229148   5.964   5.557   5.431
 9417SOL     OW29149   3.351   5.703   2.438
 9417SOL    HW129150   3.448   5.683   2.448
 9417SOL    HW229151   3.305   5.692   2.526
 9418SOL     OW29152   3.023   1.746   4.789
 9418SOL    HW129153   2.973   1.829   4.763
 9418SOL    HW229154   2.964   1.686   4.843
 9419SOL     OW29155   2.083   2.836   6.852
 9419SOL    HW129156   2.036   2.781   6.921
 9419SOL    HW229157   2.017   2.893   6.803
 9420SOL     OW29158   5.978   4.251   5.498
 9420SOL    HW129159   6.068   4.209   5.487
 9420SOL    HW229160   5.911   4.202   5.442
 9421SOL     OW29161   3.700   6.332   6.631
 9421SOL    HW129162   3.778   6.366   6.579
 9421SOL    HW229163   3.723   6.245   6.673
 9422SOL     OW29164   2.415   6.349   5.633
 9422SOL    HW129165   2.381   6.362   5.540
 9422SOL    HW229166   2.415   6.436   5.682
 9423SOL     OW29167   4.232   5.237   1.683
 9423SOL    HW129168   4.192   5.227   1.591
 9423SOL    HW229169   4.330   5.256   1.674
 9424SOL     OW29170   0.062   0.628   4.478
 9424SOL    HW129171   0.023   0.539   4.454
 9424SOL    HW229172   0.048   0.645   4.576
 9425SOL     OW29173   6.775   3.964   0.508
 9425SOL    HW129174   6.797   3.996   0.416
 9425SOL    HW229175   6.735   3.872   0.503
 9426SOL     OW29176   4.478   2.853   6.473
 9426SOL    HW129177   4.441   2.764   6.445
 9426SOL    HW229178   4.508   2.849   6.568
 9427SOL     OW29179   4.522   4.627   2.364
 9427SOL    HW129180   4.604   4.683   2.351
 9427SOL    HW229181   4.507   4.569   2.284
 9428SOL     OW29182   0.881   6.188   5.838
 9428SOL    HW129183   0.872   6.091   5.813
 9428SOL    HW229184   0.809   6.240   5.794
 9429SOL     OW29185   3.159   2.020   4.221
 9429SOL    HW129186   3.150   1.961   4.301
 9429SOL    HW229187   3.251   2.059   4.218
 9430SOL     OW29188   1.739   0.730   4.212
 9430SOL    HW129189   1.791   0.796   4.157
 9430SOL    HW229190   1.772   0.732   4.306
 9431SOL     OW29191   0.991   4.223   5.428
 9431SOL    HW129192   0.998   4.279   5.511
 9431SOL    HW229193   0.967   4.283   5.351
 9432SOL     OW29194   0.010   1.421   3.982
 9432SOL    HW129195   0.027   1.343   4.042
 9432SOL    HW229196   0.067   1.498   4.009
 9433SOL     OW29197   4.600   5.509   2.241
 9433SOL    HW129198   4.550   5.422   2.235
 9433SOL    HW229199   4.546   5.582   2.200
 9434SOL     OW29200   4.149   5.502   4.326
 9434SOL    HW129201   4.208   5.462   4.396
 9434SOL    HW229202   4.138   5.437   4.250
 9435SOL     OW29203   6.267   3.983   1.001
 9435SOL    HW129204   6.211   4.056   1.038
 9435SOL    HW229205   6.347   3.968   1.059
 9436SOL     OW29206   2.931   0.802   3.160
 9436SOL    HW129207   2.913   0.710   3.195
 9436SOL    HW229208   3.012   0.840   3.204
 9437SOL     OW29209   5.483   0.568   4.674
 9437SOL    HW129210   5.438   0.586   4.586
 9437SOL    HW229211   5.424   0.511   4.731
 9438SOL     OW29212   4.767   0.370   2.650
 9438SOL    HW129213   4.826   0.443   2.684
 9438SOL    HW229214   4.719   0.402   2.568
 9439SOL     OW29215   1.899   4.290   1.017
 9439SOL    HW129216   1.970   4.244   1.070
 9439SOL    HW229217   1.933   4.311   0.926
 9440SOL     OW29218   1.541   5.421   4.151
 9440SOL    HW129219   1.480   5.342   4.141
 9440SOL    HW229220   1.603   5.405   4.227
 9441SOL     OW29221   0.519   6.566   4.727
 9441SOL    HW129222   0.550   6.656   4.695
 9441SOL    HW229223   0.529   6.499   4.654
 9442SOL     OW29224   5.675   3.177   0.811
 9442SOL    HW129225   5.757   3.231   0.829
 9442SOL    HW229226   5.612   3.186   0.888
 9443SOL     OW29227   2.617   4.283   1.569
 9443SOL    HW129228   2.559   4.214   1.613
 9443SOL    HW229229   2.576   4.309   1.481
 9444SOL     OW29230   1.701   5.547   6.722
 9444SOL    HW129231   1.786   5.523   6.675
 9444SOL    HW229232   1.722   5.587   6.811
 9445SOL     OW29233   0.378   0.951   4.001
 9445SOL    HW129234   0.342   1.025   4.058
 9445SOL    HW229235   0.305   0.889   3.976
 9446SOL     OW29236   6.183   4.327   4.416
 9446SOL    HW129237   6.246   4.356   4.344
 9446SOL    HW229238   6.231   4.269   4.482
 9447SOL     OW29239   5.268   4.948   2.005
 9447SOL    HW129240   5.334   4.997   2.062
 9447SOL    HW229241   5.304   4.857   1.984
 9448SOL     OW29242   5.415   2.122   6.428
 9448SOL    HW129243   5.382   2.060   6.500
 9448SOL    HW229244   5.515   2.117   6.425
 9449SOL     OW29245   5.336   0.080   1.904
 9449SOL    HW129246   5.255   0.077   1.845
 9449SOL    HW229247   5.342   7.019   1.956
 9450SOL     OW29248   1.339   6.882   3.245
 9450SOL    HW129249   1.259   6.895   3.187
 9450SOL    HW229250   1.353   6.784   3.261
 9451SOL     OW29251   3.968   4.887   0.177
 9451SOL    HW129252   4.051   4.942   0.184
 9451SOL    HW229253   3.967   4.819   0.250
 9452SOL     OW29254   5.972   4.024   5.913
 9452SOL    HW129255   5.913   4.099   5.882
 9452SOL    HW229256   5.919   3.964   5.973
 9453SOL     OW29257   5.833   4.371   1.907
 9453SOL    HW129258   5.892   4.447   1.880
 9453SOL    HW229259   5.889   4.298   1.945
 9454SOL     OW29260   6.015   5.402   0.840
 9454SOL    HW129261   6.114   5.391   0.830
 9454SOL    HW229262   5.990   5.393   0.936
 9455SOL     OW29263   4.075   0.787   1.279
 9455SOL    HW129264   4.166   0.771   1.317
 9455SOL    HW229265   4.079   0.777   1.179
 9456SOL     OW29266   6.753   2.257   3.040
 9456SOL    HW129267   6.663   2.234   3.076
 9456SOL    HW229268   6.803   2.174   3.018
 9457SOL     OW29269   6.426   6.056   3.845
 9457SOL    HW129270   6.383   6.146   3.843
 9457SOL    HW229271   6.396   6.003   3.766
 9458SOL     OW29272   5.735   4.105   0.414
 9458SOL    HW129273   5.652   4.133   0.463
 9458SOL    HW229274   5.727   4.131   0.317
 9459SOL     OW29275   4.665   4.291   4.711
 9459SOL    HW129276   4.647   4.198   4.742
 9459SOL    HW229277   4.598   4.354   4.752
 9460SOL     OW29278   1.599   2.653   2.262
 9460SOL    HW129279   1.630   2.742   2.227
 9460SOL    HW229280   1.628   2.581   2.200
 9461SOL     OW29281   1.997   1.465   1.716
 9461SOL    HW129282   2.032   1.553   1.746
 9461SOL    HW229283   1.902   1.454   1.748
 9462SOL     OW29284   6.938   1.357   5.611
 9462SOL    HW129285   6.956   1.434   5.671
 9462SOL    HW229286   7.016   1.342   5.550
 9463SOL     OW29287   6.413   4.220   0.451
 9463SOL    HW129288   6.455   4.310   0.461
 9463SOL    HW229289   6.401   4.179   0.542
 9464SOL     OW29290   1.127   0.721   1.438
 9464SOL    HW129291   1.105   0.792   1.505
 9464SOL    HW229292   1.138   0.633   1.486
 9465SOL     OW29293   6.699   5.515   0.249
 9465SOL    HW129294   6.734   5.535   0.158
 9465SOL    HW229295   6.725   5.589   0.312
 9466SOL     OW29296   4.569   3.914   5.411
 9466SOL    HW129297   4.591   3.817   5.420
 9466SOL    HW229298   4.474   3.924   5.383
 9467SOL     OW29299   1.283   3.926   0.664
 9467SOL    HW129300   1.369   3.910   0.712
 9467SOL    HW229301   1.225   3.984   0.720
 9468SOL     OW29302   6.249   1.544   0.994
 9468SOL    HW129303   6.325   1.481   0.974
 9468SOL    HW229304   6.182   1.496   1.051
 9469SOL     OW29305   6.888   6.842   1.513
 9469SOL    HW129306   6.824   6.805   1.446
 9469SOL    HW229307   6.940   6.916   1.471
 9470SOL     OW29308   4.031   2.975   0.600
 9470SOL    HW129309   3.938   3.012   0.599
 9470SOL    HW229310   4.081   3.013   0.677
 9471SOL     OW29311   6.436   3.050   4.766
 9471SOL    HW129312   6.467   2.992   4.841
 9471SOL    HW229313   6.336   3.047   4.761
 9472SOL     OW29314   1.466   3.334   5.558
 9472SOL    HW129315   1.468   3.370   5.651
 9472SOL    HW229316   1.390   3.376   5.508
 9473SOL     OW29317   3.166   3.647   1.188
 9473SOL    HW129318   3.256   3.624   1.225
 9473SOL    HW229319   3.136   3.735   1.227
 9474SOL     OW29320   5.754   4.458   0.995
 9474SOL    HW129321   5.712   4.402   0.923
 9474SOL    HW229322   5.769   4.551   0.959
 9475SOL     OW29323   5.155   3.718   6.139
 9475SOL    HW129324   5.124   3.803   6.182
 9475SOL    HW229325   5.125   3.640   6.195
 9476SOL     OW29326   3.977   4.135   1.147
 9476SOL    HW129327   4.018   4.185   1.072
 9476SOL    HW229328   4.049   4.091   1.201
 9477SOL     OW29329   1.540   4.622   0.984
 9477SOL    HW129330   1.541   4.567   0.900
 9477SOL    HW229331   1.538   4.562   1.064
 9478SOL     OW29332   5.932   3.661   6.035
 9478SOL    HW129333   5.898   3.581   6.083
 9478SOL    HW229334   6.031   3.654   6.023
 9479SOL     OW29335   3.920   0.896   2.516
 9479SOL    HW129336   3.951   0.991   2.521
 9479SOL    HW229337   3.986   0.838   2.564
 9480SOL     OW29338   5.486   0.572   0.654
 9480SOL    HW129339   5.445   0.507   0.718
 9480SOL    HW229340   5.507   0.657   0.702
 9481SOL     OW29341   4.982   0.594   3.284
 9481SOL    HW129342   5.039   0.521   3.246
 9481SOL    HW229343   5.030   0.635   3.362
 9482SOL     OW29344   6.360   4.845   5.155
 9482SOL    HW129345   6.401   4.818   5.067
 9482SOL    HW229346   6.261   4.853   5.144
 9483SOL     OW29347   5.995   5.702   6.407
 9483SOL    HW129348   5.923   5.637   6.385
 9483SOL    HW229349   6.083   5.655   6.409
 9484SOL     OW29350   2.536   6.100   4.778
 9484SOL    HW129351   2.535   6.007   4.816
 9484SOL    HW229352   2.594   6.102   4.696
 9485SOL     OW29353   0.725   1.312   4.931
 9485SOL    HW129354   0.822   1.295   4.915
 9485SOL    HW229355   0.674   1.227   4.916
 9486SOL     OW29356   6.360   5.881   6.151
 9486SOL    HW129357   6.375   5.784   6.172
 9486SOL    HW229358   6.446   5.931   6.164
 9487SOL     OW29359   3.388   3.857   3.555
 9487SOL    HW129360   3.291   3.832   3.552
 9487SOL    HW229361   3.433   3.827   3.470
 9488SOL     OW29362   2.067   1.209   1.643
 9488SOL    HW129363   2.046   1.306   1.657
 9488SOL    HW229364   2.050   1.159   1.727
 9489SOL     OW29365   6.019   4.008   6.855
 9489SOL    HW129366   6.115   4.014   6.883
 9489SOL    HW229367   6.000   3.914   6.825
 9490SOL     OW29368   5.459   3.257   4.494
 9490SOL    HW129369   5.558   3.244   4.504
 9490SOL    HW229370   5.441   3.324   4.422
 9491SOL     OW29371   5.807   6.995   2.855
 9491SOL    HW129372   5.848   6.909   2.886
 9491SOL    HW229373   5.723   6.975   2.804
 9492SOL     OW29374   4.634   2.532   3.763
 9492SOL    HW129375   4.590   2.460   3.817
 9492SOL    HW229376   4.651   2.612   3.822
 9493SOL     OW29377   3.467   6.010   2.025
 9493SOL    HW129378   3.377   6.053   2.016
 9493SOL    HW229379   3.460   5.928   2.082
 9494SOL     OW29380   5.141   2.518   2.106
 9494SOL    HW129381   5.130   2.610   2.144
 9494SOL    HW229382   5.232   2.483   2.129
 9495SOL     OW29383   5.806   2.881   1.262
 9495SOL    HW129384   5.873   2.952   1.282
 9495SOL    HW229385   5.810   2.811   1.332
 9496SOL     OW29386   5.983   2.992   0.908
 9496SOL    HW129387   6.029   2.978   0.996
 9496SOL    HW229388   5.887   2.965   0.915
 9497SOL     OW29389   4.973   5.216   5.300
 9497SOL    HW129390   4.968   5.288   5.369
 9497SOL    HW229391   5.061   5.221   5.253
 9498SOL     OW29392   1.053   5.860   5.356
 9498SOL    HW129393   1.064   5.910   5.269
 9498SOL    HW229394   0.991   5.911   5.416
 9499SOL     OW29395   6.013   6.513   4.171
 9499SOL    HW129396   6.019   6.596   4.115
 9499SOL    HW229397   6.076   6.520   4.248
 9500SOL     OW29398   3.102   1.712   0.593
 9500SOL    HW129399   3.009   1.689   0.622
 9500SOL    HW229400   3.155   1.627   0.584
 9501SOL     OW29401   2.032   3.967   5.451
 9501SOL    HW129402   2.072   4.025   5.522
 9501SOL    HW229403   2.055   4.004   5.361
 9502SOL     OW29404   6.006   4.665   3.824
 9502SOL    HW129405   6.056   4.689   3.741
 9502SOL    HW229406   5.924   4.614   3.800
 9503SOL     OW29407   5.970   1.052   0.232
 9503SOL    HW129408   6.019   1.021   0.314
 9503SOL    HW229409   5.887   0.997   0.221
 9504SOL     OW29410   6.261   5.743   2.168
 9504SOL    HW129411   6.343   5.699   2.203
 9504SOL    HW229412   6.225   5.807   2.236
 9505SOL     OW29413   4.652   3.912   6.306
 9505SOL    HW129414   4.600   3.955   6.233
 9505SOL    HW229415   4.617   3.943   6.395
 9506SOL     OW29416   3.058   1.286   1.596
 9506SOL    HW129417   3.091   1.352   1.529
 9506SOL    HW229418   2.965   1.308   1.623
 9507SOL     OW29419   6.277   6.645   1.832
 9507SOL    HW129420   6.192   6.694   1.820
 9507SOL    HW229421   6.267   6.551   1.797
 9508SOL     OW29422   4.555   0.664   2.507
 9508SOL    HW129423   4.650   0.688   2.525
 9508SOL    HW229424   4.539   0.664   2.408
 9509SOL     OW29425   5.417   1.336   3.248
 9509SOL    HW129426   5.368   1.422   3.263
 9509SOL    HW229427   5.396   1.301   3.157
 9510SOL     OW29428   1.875   2.941   2.802
 9510SOL    HW129429   1.887   2.890   2.887
 9510SOL    HW229430   1.942   2.909   2.735
 9511SOL     OW29431   0.918   1.444   1.095
 9511SOL    HW129432   0.881   1.536   1.099
 9511SOL    HW229433   0.851   1.382   1.055
 9512SOL     OW29434   6.485   1.744   2.114
 9512SOL    HW129435   6.512   1.840   2.116
 9512SOL    HW229436   6.566   1.686   2.102
 9513SOL     OW29437   4.811   3.955   5.256
 9513SOL    HW129438   4.725   3.973   5.302
 9513SOL    HW229439   4.822   4.018   5.179
 9514SOL     OW29440   3.621   2.884   0.801
 9514SOL    HW129441   3.530   2.925   0.795
 9514SOL    HW229442   3.687   2.955   0.825
 9515SOL     OW29443   0.380   5.536   3.019
 9515SOL    HW129444   0.325   5.539   3.103
 9515SOL    HW229445   0.326   5.571   2.943
 9516SOL     OW29446   0.764   3.893   6.119
 9516SOL    HW129447   0.845   3.886   6.061
 9516SOL    HW229448   0.694   3.829   6.086
 9517SOL     OW29449   0.070   7.005   1.392
 9517SOL    HW129450   0.168   7.018   1.408
 9517SOL    HW229451   0.020   0.063   1.422
 9518SOL     OW29452   0.500   1.246   1.402
 9518SOL    HW129453   0.506   1.271   1.499
 9518SOL    HW229454   0.569   1.176   1.382
 9519SOL     OW29455   1.219   2.550   5.251
 9519SOL    HW129456   1.287   2.592   5.311
 9519SOL    HW229457   1.198   2.613   5.176
 9520SOL     OW29458   4.143   6.553   1.828
 9520SOL    HW129459   4.048   6.578   1.848
 9520SOL    HW229460   4.167   6.469   1.877
 9521SOL     OW29461   5.396   4.779   3.263
 9521SOL    HW129462   5.339   4.774   3.345
 9521SOL    HW229463   5.339   4.800   3.183
 9522SOL     OW29464   2.986   4.922   6.678
 9522SOL    HW129465   3.048   4.990   6.640
 9522SOL    HW229466   2.924   4.890   6.607
 9523SOL     OW29467   2.262   6.401   5.398
 9523SOL    HW129468   2.267   6.494   5.362
 9523SOL    HW229469   2.254   6.336   5.323
 9524SOL     OW29470   5.245   3.181   0.352
 9524SOL    HW129471   5.284   3.090   0.367
 9524SOL    HW229472   5.289   3.223   0.273
 9525SOL     OW29473   4.173   6.947   4.475
 9525SOL    HW129474   4.257   7.000   4.481
 9525SOL    HW229475   4.098   6.997   4.518
 9526SOL     OW29476   4.923   6.032   1.388
 9526SOL    HW129477   4.844   5.991   1.343
 9526SOL    HW229478   4.924   6.005   1.485
 9527SOL     OW29479   0.362   2.381   0.364
 9527SOL    HW129480   0.449   2.332   0.375
 9527SOL    HW229481   0.379   2.478   0.350
 9528SOL     OW29482   6.783   1.166   1.370
 9528SOL    HW129483   6.875   1.178   1.333
 9528SOL    HW229484   6.718   1.157   1.294
 9529SOL     OW29485   1.605   3.039   5.021
 9529SOL    HW129486   1.695   3.047   5.064
 9529SOL    HW229487   1.606   3.086   4.933
 9530SOL     OW29488   2.281   1.580   4.076
 9530SOL    HW129489   2.311   1.558   4.169
 9530SOL    HW229490   2.353   1.630   4.029
 9531SOL     OW29491   2.984   6.513   4.002
 9531SOL    HW129492   2.939   6.512   4.092
 9531SOL    HW229493   2.988   6.419   3.967
 9532SOL     OW29494   3.200   1.498   2.130
 9532SOL    HW129495   3.201   1.582   2.185
 9532SOL    HW229496   3.120   1.443   2.155
 9533SOL     OW29497   1.041   1.611   4.677
 9533SOL    HW129498   1.082   1.611   4.768
 9533SOL    HW229499   0.947   1.644   4.683
 9534SOL     OW29500   5.676   1.947   4.815
 9534SOL    HW129501   5.699   1.850   4.805
 9534SOL    HW229502   5.723   1.985   4.895
 9535SOL     OW29503   3.337   1.637   4.490
 9535SOL    HW129504   3.374   1.716   4.441
 9535SOL    HW229505   3.239   1.631   4.475
 9536SOL     OW29506   2.399   6.956   6.113
 9536SOL    HW129507   2.341   6.934   6.192
 9536SOL    HW229508   2.495   6.941   6.138
 9537SOL     OW29509   2.347   0.325   0.402
 9537SOL    HW129510   2.414   0.359   0.468
 9537SOL    HW229511   2.315   0.235   0.430
 9538SOL     OW29512   5.828   3.634   2.974
 9538SOL    HW129513   5.766   3.639   2.895
 9538SOL    HW229514   5.822   3.543   3.014
 9539SOL     OW29515   6.965   3.756   6.647
 9539SOL    HW129516   6.955   3.660   6.674
 9539SOL    HW229517   0.037   3.784   6.655
 9540SOL     OW29518   5.442   3.472   5.473
 9540SOL    HW129519   5.487   3.525   5.546
 9540SOL    HW229520   5.472   3.377   5.478
 9541SOL     OW29521   6.872   1.929   3.349
 9541SOL    HW129522   6.776   1.952   3.332
 9541SOL    HW229523   6.877   1.853   3.415
 9542SOL     OW29524   4.656   4.388   4.455
 9542SOL    HW129525   4.711   4.305   4.461
 9542SOL    HW229526   4.602   4.399   4.538
 9543SOL     OW29527   4.288   2.788   1.007
 9543SOL    HW129528   4.373   2.779   0.956
 9543SOL    HW229529   4.308   2.799   1.104
 9544SOL     OW29530   4.398   0.923   1.021
 9544SOL    HW129531   4.335   0.901   0.947
 9544SOL    HW229532   4.368   1.008   1.066
 9545SOL     OW29533   1.234   6.564   4.812
 9545SOL    HW129534   1.168   6.633   4.842
 9545SOL    HW229535   1.273   6.592   4.724
 9546SOL     OW29536   2.453   4.433   1.871
 9546SOL    HW129537   2.547   4.414   1.842
 9546SOL    HW229538   2.450   4.519   1.922
 9547SOL     OW29539   5.526   5.431   3.691
 9547SOL    HW129540   5.469   5.492   3.635
 9547SOL    HW229541   5.605   5.482   3.726
 9548SOL     OW29542   5.851   0.017   2.522
 9548SOL    HW129543   5.838   0.111   2.490
 9548SOL    HW229544   5.771   7.012   2.575
 9549SOL     OW29545   2.178   5.969   0.285
 9549SOL    HW129546   2.084   5.992   0.310
 9549SOL    HW229547   2.233   5.958   0.368
 9550SOL     OW29548   1.454   1.099   0.145
 9550SOL    HW129549   1.495   1.015   0.181
 9550SOL    HW229550   1.523   1.171   0.142
 9551SOL     OW29551   1.387   5.604   5.042
 9551SOL    HW129552   1.288   5.592   5.032
 9551SOL    HW229553   1.416   5.687   4.995
 9552SOL     OW29554   0.393   5.007   3.061
 9552SOL    HW129555   0.433   4.980   3.149
 9552SOL    HW229556   0.305   5.052   3.077
 9553SOL     OW29557   5.611   5.010   6.617
 9553SOL    HW129558   5.648   5.009   6.524
 9553SOL    HW229559   5.682   5.043   6.680
 9554SOL     OW29560   1.819   1.912   1.668
 9554SOL    HW129561   1.898   1.867   1.626
 9554SOL    HW229562   1.766   1.845   1.720
 9555SOL     OW29563   6.748   2.742   6.341
 9555SOL    HW129564   6.823   2.696   6.388
 9555SOL    HW229565   6.661   2.701   6.369
 9556SOL     OW29566   6.729   0.947   1.095
 9556SOL    HW129567   6.687   0.888   1.164
 9556SOL    HW229568   6.667   0.959   1.018
 9557SOL     OW29569   4.770   1.109   2.012
 9557SOL    HW129570   4.684   1.066   2.038
 9557SOL    HW229571   4.812   1.151   2.093
 9558SOL     OW29572   6.644   3.288   1.458
 9558SOL    HW129573   6.628   3.377   1.415
 9558SOL    HW229574   6.727   3.248   1.421
 9559SOL     OW29575   0.700   4.117   2.603
 9559SOL    HW129576   0.756   4.132   2.684
 9559SOL    HW229577   0.737   4.168   2.526
 9560SOL     OW29578   3.891   2.345   5.735
 9560SOL    HW129579   3.854   2.270   5.790
 9560SOL    HW229580   3.927   2.309   5.649
 9561SOL     OW29581   3.346   5.561   6.188
 9561SOL    HW129582   3.327   5.644   6.240
 9561SOL    HW229583   3.358   5.485   6.252
 9562SOL     OW29584   5.752   5.062   4.177
 9562SOL    HW129585   5.765   5.161   4.169
 9562SOL    HW229586   5.773   5.018   4.090
 9563SOL     OW29587   0.342   6.506   6.869
 9563SOL    HW129588   0.265   6.472   6.815
 9563SOL    HW229589   0.404   6.431   6.890
 9564SOL     OW29590   1.473   0.867   5.918
 9564SOL    HW129591   1.489   0.927   5.840
 9564SOL    HW229592   1.409   0.911   5.981
 9565SOL     OW29593   3.036   5.626   5.300
 9565SOL    HW129594   2.958   5.657   5.245
 9565SOL    HW229595   3.045   5.684   5.380
 9566SOL     OW29596   3.083   4.206   5.800
 9566SOL    HW129597   3.035   4.253   5.874
 9566SOL    HW229598   3.158   4.263   5.767
 9567SOL     OW29599   6.106   5.149   4.779
 9567SOL    HW129600   6.129   5.114   4.870
 9567SOL    HW229601   6.056   5.235   4.788
 9568SOL     OW29602   5.773   3.762   5.739
 9568SOL    HW129603   5.840   3.698   5.701
 9568SOL    HW229604   5.802   3.791   5.830
 9569SOL     OW29605   6.134   0.195   1.555
 9569SOL    HW129606   6.047   0.166   1.517
 9569SOL    HW229607   6.175   0.120   1.607
 9570SOL     OW29608   1.041   1.944   6.623
 9570SOL    HW129609   1.114   1.877   6.638
 9570SOL    HW229610   1.076   2.035   6.644
 9571SOL     OW29611   3.153   1.851   0.841
 9571SOL    HW129612   3.160   1.817   0.747
 9571SOL    HW229613   3.061   1.833   0.875
 9572SOL     OW29614   0.440   3.808   0.757
 9572SOL    HW129615   0.387   3.882   0.715
 9572SOL    HW229616   0.405   3.792   0.850
 9573SOL     OW29617   5.065   1.146   2.916
 9573SOL    HW129618   5.047   1.202   2.835
 9573SOL    HW229619   5.026   1.191   2.996
 9574SOL     OW29620   2.880   2.274   3.608
 9574SOL    HW129621   2.833   2.287   3.695
 9574SOL    HW229622   2.833   2.325   3.536
 9575SOL     OW29623   3.770   1.500   3.267
 9575SOL    HW129624   3.722   1.536   3.346
 9575SOL    HW229625   3.738   1.546   3.184
 9576SOL     OW29626   3.570   3.467   5.644
 9576SOL    HW129627   3.540   3.409   5.720
 9576SOL    HW229628   3.548   3.563   5.664
 9577SOL     OW29629   0.861   5.555   3.718
 9577SOL    HW129630   0.789   5.498   3.677
 9577SOL    HW229631   0.920   5.590   3.645
 9578SOL     OW29632   7.011   3.914   0.958
 9578SOL    HW129633   7.018   3.927   0.859
 9578SOL    HW229634   6.944   3.843   0.977
 9579SOL     OW29635   1.592   4.888   2.868
 9579SOL    HW129636   1.608   4.859   2.963
 9579SOL    HW229637   1.679   4.892   2.819
 9580SOL     OW29638   4.270   3.660   5.852
 9580SOL    HW129639   4.361   3.657   5.810
 9580SOL    HW229640   4.201   3.632   5.785
 9581SOL     OW29641   1.112   5.642   5.997
 9581SOL    HW129642   1.108   5.584   5.915
 9581SOL    HW229643   1.162   5.594   6.069
 9582SOL     OW29644   4.283   5.554   2.808
 9582SOL    HW129645   4.351   5.623   2.782
 9582SOL    HW229646   4.193   5.584   2.778
 9583SOL     OW29647   1.487   4.956   1.693
 9583SOL    HW129648   1.482   4.949   1.594
 9583SOL    HW229649   1.568   5.009   1.719
 9584SOL     OW29650   4.808   4.489   0.249
 9584SOL    HW129651   4.892   4.450   0.211
 9584SOL    HW229652   4.763   4.546   0.181
 9585SOL     OW29653   6.387   0.981   3.099
 9585SOL    HW129654   6.471   0.994   3.047
 9585SOL    HW229655   6.388   0.891   3.143
 9586SOL     OW29656   5.360   3.895   2.539
 9586SOL    HW129657   5.309   3.869   2.456
 9586SOL    HW229658   5.396   3.987   2.528
 9587SOL     OW29659   4.402   6.389   1.632
 9587SOL    HW129660   4.307   6.418   1.644
 9587SOL    HW229661   4.442   6.437   1.554
 9588SOL     OW29662   6.268   0.971   3.600
 9588SOL    HW129663   6.336   0.987   3.529
 9588SOL    HW229664   6.293   1.021   3.683
 9589SOL     OW29665   3.501   1.925   4.962
 9589SOL    HW129666   3.538   1.858   5.026
 9589SOL    HW229667   3.444   1.991   5.011
 9590SOL     OW29668   0.279   4.886   4.332
 9590SOL    HW129669   0.371   4.849   4.343
 9590SOL    HW229670   0.217   4.813   4.303
 9591SOL     OW29671   0.464   4.614   2.094
 9591SOL    HW129672   0.515   4.530   2.073
 9591SOL    HW229673   0.419   4.647   2.011
 9592SOL     OW29674   3.876   5.948   0.322
 9592SOL    HW129675   3.902   5.980   0.414
 9592SOL    HW229676   3.816   5.869   0.330
 9593SOL     OW29677   2.173   1.740   3.720
 9593SOL    HW129678   2.109   1.718   3.646
 9593SOL    HW229679   2.266   1.742   3.683
 9594SOL     OW29680   5.984   0.065   1.093
 9594SOL    HW129681   5.965   0.114   1.009
 9594SOL    HW229682   5.974   0.127   1.171
 9595SOL     OW29683   1.345   5.487   5.282
 9595SOL    HW129684   1.356   5.512   5.186
 9595SOL    HW229685   1.301   5.562   5.331
 9596SOL     OW29686   5.423   6.085   2.035
 9596SOL    HW129687   5.434   5.998   2.083
 9596SOL    HW229688   5.506   6.139   2.046
 9597SOL     OW29689   2.572   4.934   1.463
 9597SOL    HW129690   2.657   4.883   1.480
 9597SOL    HW229691   2.555   4.996   1.540
 9598SOL     OW29692   6.959   6.135   6.035
 9598SOL    HW129693   6.866   6.140   5.997
 9598SOL    HW229694   6.959   6.080   6.118
 9599SOL     OW29695   3.796   2.170   5.033
 9599SOL    HW129696   3.839   2.088   5.071
 9599SOL    HW229697   3.778   2.235   5.107
 9600SOL     OW29698   1.714   6.526   6.936
 9600SOL    HW129699   1.667   6.613   6.944
 9600SOL    HW229700   1.813   6.542   6.927
 9601SOL     OW29701   0.700   6.874   4.915
 9601SOL    HW129702   0.749   6.935   4.978
 9601SOL    HW229703   0.763   6.806   4.878
 9602SOL     OW29704   1.170   5.270   6.248
 9602SOL    HW129705   1.152   5.245   6.343
 9602SOL    HW229706   1.184   5.368   6.242
 9603SOL     OW29707   0.959   5.199   2.230
 9603SOL    HW129708   1.015   5.265   2.179
 9603SOL    HW229709   0.976   5.211   2.328
 9604SOL     OW29710   0.398   0.472   6.682
 9604SOL    HW129711   0.303   0.453   6.658
 9604SOL    HW229712   0.455   0.469   6.599
 9605SOL     OW29713   3.510   4.741   1.374
 9605SOL    HW129714   3.571   4.779   1.443
 9605SOL    HW229715   3.421   4.722   1.414
 9606SOL     OW29716   6.780   0.493   5.268
 9606SOL    HW129717   6.849   0.515   5.337
 9606SOL    HW229718   6.724   0.573   5.250
 9607SOL     OW29719   0.260   2.223   2.928
 9607SOL    HW129720   0.198   2.159   2.882
 9607SOL    HW229721   0.354   2.193   2.914
 9608SOL     OW29722   6.075   1.132   1.640
 9608SOL    HW129723   6.099   1.035   1.653
 9608SOL    HW229724   6.111   1.164   1.552
 9609SOL     OW29725   1.268   2.222   3.839
 9609SOL    HW129726   1.355   2.204   3.792
 9609SOL    HW229727   1.278   2.202   3.936
 9610SOL     OW29728   4.554   0.905   5.304
 9610SOL    HW129729   4.646   0.919   5.268
 9610SOL    HW229730   4.499   0.987   5.285
 9611SOL     OW29731   4.777   5.277   0.951
 9611SOL    HW129732   4.722   5.360   0.963
 9611SOL    HW229733   4.791   5.262   0.853
 9612SOL     OW29734   5.759   2.959   3.740
 9612SOL    HW129735   5.693   2.911   3.798
 9612SOL    HW229736   5.813   3.022   3.796
 9613SOL     OW29737   5.625   0.610   4.886
 9613SOL    HW129738   5.618   0.522   4.934
 9613SOL    HW229739   5.568   0.607   4.803
 9614SOL     OW29740   2.705   2.598   0.671
 9614SOL    HW129741   2.704   2.562   0.577
 9614SOL    HW229742   2.644   2.544   0.728
 9615SOL     OW29743   0.326   5.238   3.714
 9615SOL    HW129744   0.415   5.198   3.733
 9615SOL    HW229745   0.325   5.334   3.744
 9616SOL     OW29746   1.150   2.248   0.821
 9616SOL    HW129747   1.113   2.288   0.905
 9616SOL    HW229748   1.176   2.153   0.839
 9617SOL     OW29749   0.538   2.411   3.155
 9617SOL    HW129750   0.630   2.445   3.172
 9617SOL    HW229751   0.473   2.463   3.212
 9618SOL     OW29752   4.867   4.057   2.000
 9618SOL    HW129753   4.805   4.058   1.921
 9618SOL    HW229754   4.942   4.121   1.985
 9619SOL     OW29755   0.526   0.125   1.092
 9619SOL    HW129756   0.476   0.194   1.039
 9619SOL    HW229757   0.625   0.138   1.078
 9620SOL     OW29758   4.250   1.070   6.939
 9620SOL    HW129759   4.166   1.111   6.902
 9620SOL    HW229760   4.231   0.976   6.967
 9621SOL     OW29761   0.278   1.095   1.376
 9621SOL    HW129762   0.228   1.110   1.461
 9621SOL    HW229763   0.357   1.157   1.373
 9622SOL     OW29764   6.379   6.534   5.379
 9622SOL    HW129765   6.391   6.581   5.292
 9622SOL    HW229766   6.324   6.591   5.440
 9623SOL     OW29767   2.926   6.059   6.013
 9623SOL    HW129768   2.912   6.031   6.108
 9623SOL    HW229769   2.848   6.030   5.958
 9624SOL     OW29770   4.582   5.690   5.688
 9624SOL    HW129771   4.630   5.695   5.600
 9624SOL    HW229772   4.486   5.669   5.673
 9625SOL     OW29773   4.817   4.552   6.018
 9625SOL    HW129774   4.870   4.479   6.061
 9625SOL    HW229775   4.863   4.640   6.031
 9626SOL     OW29776   2.394   2.703   6.424
 9626SOL    HW129777   2.473   2.673   6.477
 9626SOL    HW229778   2.415   2.697   6.326
 9627SOL     OW29779   7.017   5.853   0.519
 9627SOL    HW129780   0.049   5.914   0.463
 9627SOL    HW229781   0.052   5.804   0.584
 9628SOL     OW29782   6.038   0.991   5.872
 9628SOL    HW129783   5.971   1.000   5.799
 9628SOL    HW229784   6.025   1.065   5.938
 9629SOL     OW29785   1.008   5.731   3.864
 9629SOL    HW129786   1.094   5.688   3.892
 9629SOL    HW229787   0.956   5.667   3.808
 9630SOL     OW29788   5.672   0.638   6.531
 9630SOL    HW129789   5.599   0.570   6.525
 9630SOL    HW229790   5.707   0.641   6.625
 9631SOL     OW29791   4.593   6.145   0.848
 9631SOL    HW129792   4.572   6.082   0.773
 9631SOL    HW229793   4.649   6.220   0.813
 9632SOL     OW29794   2.773   5.281   3.285
 9632SOL    HW129795   2.709   5.289   3.361
 9632SOL    HW229796   2.850   5.225   3.312
 9633SOL     OW29797   3.466   2.834   5.143
 9633SOL    HW129798   3.457   2.930   5.167
 9633SOL    HW229799   3.429   2.777   5.217
 9634SOL     OW29800   5.969   4.451   2.485
 9634SOL    HW129801   6.032   4.374   2.496
 9634SOL    HW229802   5.921   4.444   2.398
 9635SOL     OW29803   0.576   4.798   4.310
 9635SOL    HW129804   0.675   4.804   4.320
 9635SOL    HW229805   0.545   4.707   4.340
 9636SOL     OW29806   5.562   3.254   3.831
 9636SOL    HW129807   5.568   3.156   3.846
 9636SOL    HW229808   5.604   3.302   3.908
 9637SOL     OW29809   1.730   3.449   0.049
 9637SOL    HW129810   1.698   3.535   0.087
 9637SOL    HW229811   1.665   3.376   0.069
 9638SOL     OW29812   6.678   4.571   5.375
 9638SOL    HW129813   6.670   4.499   5.445
 9638SOL    HW229814   6.641   4.657   5.412
 9639SOL     OW29815   4.899   2.474   1.230
 9639SOL    HW129816   4.836   2.542   1.192
 9639SOL    HW229817   4.909   2.489   1.328
 9640SOL     OW29818   3.426   0.146   3.599
 9640SOL    HW129819   3.404   0.115   3.692
 9640SOL    HW229820   3.345   0.186   3.558
 9641SOL     OW29821   0.582   3.247   4.551
 9641SOL    HW129822   0.545   3.155   4.566
 9641SOL    HW229823   0.511   3.304   4.508
 9642SOL     OW29824   0.804   2.884   5.035
 9642SOL    HW129825   0.813   2.788   5.008
 9642SOL    HW229826   0.878   2.937   4.994
 9643SOL     OW29827   5.430   5.056   4.394
 9643SOL    HW129828   5.349   5.047   4.336
 9643SOL    HW229829   5.510   5.023   4.345
 9644SOL     OW29830   0.952   4.930   3.872
 9644SOL    HW129831   0.925   5.022   3.842
 9644SOL    HW229832   1.040   4.906   3.832
 9645SOL     OW29833   1.312   5.065   6.726
 9645SOL    HW129834   1.234   5.122   6.752
 9645SOL    HW229835   1.397   5.107   6.758
 9646SOL     OW29836   2.965   5.144   0.939
 9646SOL    HW129837   2.895   5.183   0.999
 9646SOL    HW229838   3.030   5.216   0.914
 9647SOL     OW29839   6.049   6.880   3.133
 9647SOL    HW129840   6.070   6.876   3.231
 9647SOL    HW229841   6.099   6.955   3.091
 9648SOL     OW29842   3.173   1.940   1.390
 9648SOL    HW129843   3.216   1.992   1.316
 9648SOL    HW229844   3.209   1.972   1.478
 9649SOL     OW29845   6.802   6.172   1.101
 9649SOL    HW129846   6.842   6.175   1.192
 9649SOL    HW229847   6.862   6.218   1.036
 9650SOL     OW29848   0.707   4.981   5.007
 9650SOL    HW129849   0.656   4.895   4.998
 9650SOL    HW229850   0.805   4.961   5.009
 9651SOL     OW29851   4.012   1.875   6.910
 9651SOL    HW129852   4.023   1.818   6.992
 9651SOL    HW229853   3.964   1.959   6.934
 9652SOL     OW29854   0.084   3.475   0.284
 9652SOL    HW129855   0.078   3.550   0.218
 9652SOL    HW229856   7.019   3.430   0.292
 9653SOL     OW29857   5.245   4.606   5.171
 9653SOL    HW129858   5.231   4.690   5.223
 9653SOL    HW229859   5.157   4.565   5.151
 9654SOL     OW29860   3.941   4.005   3.760
 9654SOL    HW129861   4.038   4.019   3.736
 9654SOL    HW229862   3.935   3.976   3.855
 9655SOL     OW29863   5.088   0.773   1.184
 9655SOL    HW129864   5.068   0.850   1.245
 9655SOL    HW229865   5.056   0.688   1.226
 9656SOL     OW29866   4.801   4.507   6.699
 9656SOL    HW129867   4.710   4.490   6.661
 9656SOL    HW229868   4.820   4.439   6.770
 9657SOL     OW29869   5.024   4.811   2.901
 9657SOL    HW129870   4.994   4.719   2.927
 9657SOL    HW229871   4.944   4.871   2.895
 9658SOL     OW29872   5.625   0.943   2.451
 9658SOL    HW129873   5.635   1.035   2.412
 9658SOL    HW229874   5.712   0.895   2.447
 9659SOL     OW29875   3.432   3.202   0.173
 9659SOL    HW129876   3.350   3.150   0.150
 9659SOL    HW229877   3.417   3.254   0.257
 9660SOL     OW29878   1.759   6.781   1.159
 9660SOL    HW129879   1.830   6.806   1.225
 9660SOL    HW229880   1.701   6.710   1.198
 9661SOL     OW29881   4.102   3.652   2.064
 9661SOL    HW129882   4.138   3.684   1.976
 9661SOL    HW229883   4.057   3.728   2.111
 9662SOL     OW29884   4.694   6.908   5.707
 9662SOL    HW129885   4.675   7.005   5.692
 9662SOL    HW229886   4.789   6.897   5.738
 9663SOL     OW29887   0.927   6.097   2.778
 9663SOL    HW129888   0.999   6.072   2.714
 9663SOL    HW229889   0.951   6.065   2.870
 9664SOL     OW29890   2.705   4.907   2.573
 9664SOL    HW129891   2.711   4.932   2.670
 9664SOL    HW229892   2.796   4.890   2.537
 9665SOL     OW29893   6.219   4.689   6.441
 9665SOL    HW129894   6.120   4.687   6.429
 9665SOL    HW229895   6.245   4.770   6.493
 9666SOL     OW29896   4.993   3.893   0.860
 9666SOL    HW129897   5.067   3.935   0.911
 9666SOL    HW229898   4.979   3.799   0.892
 9667SOL     OW29899   5.462   6.316   6.789
 9667SOL    HW129900   5.514   6.339   6.871
 9667SOL    HW229901   5.518   6.334   6.708
 9668SOL     OW29902   1.745   1.153   6.867
 9668SOL    HW129903   1.821   1.195   6.917
 9668SOL    HW229904   1.676   1.223   6.847
 9669SOL     OW29905   3.311   0.515   6.993
 9669SOL    HW129906   3.337   0.524   0.065
 9669SOL    HW229907   3.243   0.442   6.983
 9670SOL     OW29908   0.465   1.362   1.147
 9670SOL    HW129909   0.547   1.372   1.090
 9670SOL    HW229910   0.492   1.356   1.243
 9671SOL     OW29911   0.850   5.459   6.485
 9671SOL    HW129912   0.875   5.429   6.393
 9671SOL    HW229913   0.927   5.507   6.526
 9672SOL     OW29914   0.676   3.278   4.030
 9672SOL    HW129915   0.682   3.354   4.094
 9672SOL    HW229916   0.645   3.196   4.078
 9673SOL     OW29917   2.411   3.089   6.540
 9673SOL    HW129918   2.439   3.070   6.446
 9673SOL    HW229919   2.324   3.043   6.559
 9674SOL     OW29920   2.079   0.178   4.334
 9674SOL    HW129921   1.980   0.161   4.329
 9674SOL    HW229922   2.118   0.167   4.242
 9675SOL     OW29923   6.080   4.639   5.840
 9675SOL    HW129924   6.056   4.588   5.922
 9675SOL    HW229925   6.175   4.670   5.846
 9676SOL     OW29926   0.952   3.449   5.556
 9676SOL    HW129927   0.952   3.466   5.458
 9676SOL    HW229928   0.923   3.531   5.605
 9677SOL     OW29929   0.128   4.943   2.527
 9677SOL    HW129930   0.033   4.968   2.507
 9677SOL    HW229931   0.173   4.916   2.442
 9678SOL     OW29932   3.919   3.215   5.477
 9678SOL    HW129933   3.945   3.178   5.388
 9678SOL    HW229934   3.938   3.148   5.549
 9679SOL     OW29935   1.642   0.592   3.711
 9679SOL    HW129936   1.636   0.660   3.638
 9679SOL    HW229937   1.567   0.526   3.702
 9680SOL     OW29938   4.708   0.434   2.219
 9680SOL    HW129939   4.802   0.402   2.221
 9680SOL    HW229940   4.702   0.525   2.260
 9681SOL     OW29941   1.004   3.507   1.109
 9681SOL    HW129942   0.945   3.430   1.132
 9681SOL    HW229943   1.083   3.509   1.172
 9682SOL     OW29944   4.433   6.844   5.619
 9682SOL    HW129945   4.349   6.848   5.673
 9682SOL    HW229946   4.511   6.869   5.676
 9683SOL     OW29947   3.478   5.973   4.717
 9683SOL    HW129948   3.484   6.045   4.648
 9683SOL    HW229949   3.564   5.922   4.720
 9684SOL     OW29950   7.011   2.946   5.822
 9684SOL    HW129951   6.931   2.982   5.869
 9684SOL    HW229952   7.009   2.975   5.726
 9685SOL     OW29953   3.583   4.214   1.837
 9685SOL    HW129954   3.486   4.190   1.832
 9685SOL    HW229955   3.619   4.193   1.928
 9686SOL     OW29956   7.023   1.620   5.461
 9686SOL    HW129957   0.031   1.697   5.407
 9686SOL    HW229958   7.021   1.645   5.558
 9687SOL     OW29959   5.683   1.599   3.602
 9687SOL    HW129960   5.725   1.653   3.530
 9687SOL    HW229961   5.637   1.519   3.562
 9688SOL     OW29962   0.122   5.277   1.648
 9688SOL    HW129963   0.141   5.364   1.603
 9688SOL    HW229964   0.203   5.217   1.641
 9689SOL     OW29965   1.865   5.436   1.442
 9689SOL    HW129966   1.778   5.388   1.431
 9689SOL    HW229967   1.936   5.370   1.468
 9690SOL     OW29968   6.961   4.598   4.906
 9690SOL    HW129969   6.866   4.577   4.882
 9690SOL    HW229970   6.966   4.689   4.947
 9691SOL     OW29971   4.041   3.161   2.287
 9691SOL    HW129972   3.983   3.128   2.212
 9691SOL    HW229973   4.135   3.169   2.256
 9692SOL     OW29974   5.207   4.457   0.632
 9692SOL    HW129975   5.299   4.468   0.667
 9692SOL    HW229976   5.200   4.370   0.584
 9693SOL     OW29977   4.746   3.390   6.712
 9693SOL    HW129978   4.721   3.355   6.802
 9693SOL    HW229979   4.727   3.320   6.643
 9694SOL     OW29980   2.284   6.517   1.023
 9694SOL    HW129981   2.207   6.459   0.996
 9694SOL    HW229982   2.365   6.460   1.036
 9695SOL     OW29983   1.542   2.707   4.053
 9695SOL    HW129984   1.557   2.747   4.143
 9695SOL    HW229985   1.561   2.775   3.982
 9696SOL     OW29986   4.722   2.826   3.282
 9696SOL    HW129987   4.723   2.833   3.382
 9696SOL    HW229988   4.676   2.742   3.255
 9697SOL     OW29989   0.225   0.346   1.662
 9697SOL    HW129990   0.294   0.388   1.721
 9697SOL    HW229991   0.268   0.316   1.577
 9698SOL     OW29992   0.020   3.168   1.901
 9698SOL    HW129993   0.079   3.090   1.927
 9698SOL    HW229994   6.961   3.134   1.857
 9699SOL     OW29995   0.722   6.524   1.764
 9699SOL    HW129996   0.803   6.576   1.792
 9699SOL    HW229997   0.733   6.429   1.791
 9700SOL     OW29998   5.985   0.639   6.196
 9700SOL    HW129999   6.024   0.547   6.205
 9700SOL    HW230000   5.957   0.654   6.101
 9701SOL     OW30001   5.599   4.205   0.186
 9701SOL    HW130002   5.520   4.248   0.230
 9701SOL    HW230003   5.572   4.169   0.097
 9702SOL     OW30004   3.359   3.737   1.930
 9702SOL    HW130005   3.361   3.643   1.962
 9702SOL    HW230006   3.342   3.798   2.008
 9703SOL     OW30007   6.389   5.123   3.095
 9703SOL    HW130008   6.361   5.190   3.164
 9703SOL    HW230009   6.339   5.038   3.109
 9704SOL     OW30010   0.716   4.722   2.184
 9704SOL    HW130011   0.745   4.759   2.095
 9704SOL    HW230012   0.616   4.711   2.184
 9705SOL     OW30013   0.153   3.990   6.256
 9705SOL    HW130014   0.250   3.965   6.252
 9705SOL    HW230015   0.134   4.040   6.340
 9706SOL     OW30016   0.700   0.327   1.856
 9706SOL    HW130017   0.748   0.239   1.862
 9706SOL    HW230018   0.758   0.394   1.811
 9707SOL     OW30019   1.307   5.096   2.235
 9707SOL    HW130020   1.261   5.057   2.315
 9707SOL    HW230021   1.325   5.024   2.168
 9708SOL     OW30022   3.141   1.238   1.969
 9708SOL    HW130023   3.142   1.335   1.943
 9708SOL    HW230024   3.047   1.210   1.990
 9709SOL     OW30025   5.022   1.762   2.129
 9709SOL    HW130026   5.006   1.668   2.158
 9709SOL    HW230027   5.025   1.766   2.029
 9710SOL     OW30028   4.767   5.146   4.462
 9710SOL    HW130029   4.673   5.139   4.428
 9710SOL    HW230030   4.793   5.060   4.506
 9711SOL     OW30031   2.630   0.827   6.728
 9711SOL    HW130032   2.609   0.848   6.633
 9711SOL    HW230033   2.724   0.855   6.749
 9712SOL     OW30034   5.348   0.016   5.475
 9712SOL    HW130035   5.412   7.004   5.407
 9712SOL    HW230036   5.285   0.080   5.431
 9713SOL     OW30037   1.933   0.681   2.791
 9713SOL    HW130038   1.875   0.709   2.715
 9713SOL    HW230039   1.876   0.647   2.866
 9714SOL     OW30040   2.320   2.873   4.046
 9714SOL    HW130041   2.269   2.869   3.960
 9714SOL    HW230042   2.384   2.950   4.043
 9715SOL     OW30043   0.113   2.242   6.429
 9715SOL    HW130044   0.145   2.323   6.380
 9715SOL    HW230045   0.154   2.239   6.520
 9716SOL     OW30046   2.300   6.772   0.616
 9716SOL    HW130047   2.379   6.826   0.641
 9716SOL    HW230048   2.225   6.790   0.680
 9717SOL     OW30049   3.526   2.660   5.933
 9717SOL    HW130050   3.548   2.624   5.843
 9717SOL    HW230051   3.428   2.652   5.949
 9718SOL     OW30052   3.541   2.731   0.390
 9718SOL    HW130053   3.541   2.682   0.478
 9718SOL    HW230054   3.593   2.816   0.399
 9719SOL     OW30055   4.560   0.512   5.900
 9719SOL    HW130056   4.476   0.464   5.875
 9719SOL    HW230057   4.624   0.511   5.823
 9720SOL     OW30058   2.097   2.506   2.667
 9720SOL    HW130059   2.078   2.451   2.585
 9720SOL    HW230060   2.189   2.544   2.660
 9721SOL     OW30061   0.788   1.710   1.204
 9721SOL    HW130062   0.836   1.702   1.116
 9721SOL    HW230063   0.690   1.706   1.189
 9722SOL     OW30064   4.007   2.762   5.348
 9722SOL    HW130065   4.039   2.676   5.308
 9722SOL    HW230066   3.929   2.795   5.295
 9723SOL     OW30067   5.968   0.388   4.841
 9723SOL    HW130068   5.951   0.436   4.927
 9723SOL    HW230069   6.015   0.449   4.778
 9724SOL     OW30070   1.728   4.773   1.451
 9724SOL    HW130071   1.653   4.708   1.448
 9724SOL    HW230072   1.748   4.804   1.358
 9725SOL     OW30073   5.224   5.367   4.150
 9725SOL    HW130074   5.285   5.341   4.225
 9725SOL    HW230075   5.272   5.358   4.063
 9726SOL     OW30076   6.730   0.355   3.413
 9726SOL    HW130077   6.636   0.323   3.423
 9726SOL    HW230078   6.793   0.278   3.422
 9727SOL     OW30079   6.181   2.523   1.657
 9727SOL    HW130080   6.201   2.467   1.576
 9727SOL    HW230081   6.107   2.480   1.709
 9728SOL     OW30082   5.001   2.036   4.754
 9728SOL    HW130083   4.932   1.982   4.706
 9728SOL    HW230084   5.092   2.016   4.717
 9729SOL     OW30085   0.553   3.951   2.842
 9729SOL    HW130086   0.615   4.029   2.840
 9729SOL    HW230087   0.591   3.876   2.788
 9730SOL     OW30088   1.399   5.462   3.524
 9730SOL    HW130089   1.375   5.395   3.454
 9730SOL    HW230090   1.379   5.554   3.490
 9731SOL     OW30091   6.646   2.365   1.846
 9731SOL    HW130092   6.628   2.277   1.802
 9731SOL    HW230093   6.632   2.438   1.779
 9732SOL     OW30094   1.402   3.234   2.637
 9732SOL    HW130095   1.475   3.175   2.671
 9732SOL    HW230096   1.333   3.247   2.708
 9733SOL     OW30097   6.233   5.218   1.732
 9733SOL    HW130098   6.301   5.144   1.731
 9733SOL    HW230099   6.211   5.241   1.827
 9734SOL     OW30100   3.947   4.725   6.932
 9734SOL    HW130101   3.949   4.798   7.000
 9734SOL    HW230102   3.999   4.647   6.966
 9735SOL     OW30103   0.756   1.458   6.981
 9735SOL    HW130104   0.701   1.389   6.936
 9735SOL    HW230105   0.831   1.486   6.921
 9736SOL     OW30106   5.124   2.198   4.966
 9736SOL    HW130107   5.127   2.163   5.060
 9736SOL    HW230108   5.096   2.124   4.904
 9737SOL     OW30109   5.555   3.204   4.895
 9737SOL    HW130110   5.522   3.137   4.828
 9737SOL    HW230111   5.495   3.284   4.896
 9738SOL     OW30112   2.389   6.349   1.759
 9738SOL    HW130113   2.326   6.294   1.704
 9738SOL    HW230114   2.352   6.441   1.768
 9739SOL     OW30115   5.468   6.811   0.537
 9739SOL    HW130116   5.490   6.776   0.628
 9739SOL    HW230117   5.536   6.778   0.471
 9740SOL     OW30118   6.621   0.432   1.278
 9740SOL    HW130119   6.651   0.437   1.183
 9740SOL    HW230120   6.689   0.477   1.337
 9741SOL     OW30121   2.089   2.266   3.193
 9741SOL    HW130122   2.111   2.348   3.247
 9741SOL    HW230123   2.168   2.242   3.137
 9742SOL     OW30124   4.153   1.842   6.467
 9742SOL    HW130125   4.066   1.886   6.444
 9742SOL    HW230126   4.180   1.868   6.559
 9743SOL     OW30127   6.606   3.370   4.256
 9743SOL    HW130128   6.526   3.318   4.284
 9743SOL    HW230129   6.582   3.429   4.178
 9744SOL     OW30130   1.487   1.681   2.557
 9744SOL    HW130131   1.560   1.711   2.495
 9744SOL    HW230132   1.522   1.678   2.650
 9745SOL     OW30133   0.741   6.652   6.156
 9745SOL    HW130134   0.831   6.633   6.119
 9745SOL    HW230135   0.672   6.636   6.085
 9746SOL     OW30136   3.117   6.441   5.853
 9746SOL    HW130137   3.022   6.414   5.868
 9746SOL    HW230138   3.176   6.389   5.913
 9747SOL     OW30139   3.587   1.445   3.754
 9747SOL    HW130140   3.651   1.381   3.796
 9747SOL    HW230141   3.638   1.512   3.701
 9748SOL     OW30142   0.494   1.869   2.374
 9748SOL    HW130143   0.416   1.869   2.311
 9748SOL    HW230144   0.475   1.932   2.449
 9749SOL     OW30145   6.316   0.383   1.260
 9749SOL    HW130146   6.278   0.331   1.336
 9749SOL    HW230147   6.407   0.418   1.285
 9750SOL     OW30148   5.209   2.409   5.232
 9750SOL    HW130149   5.272   2.419   5.308
 9750SOL    HW230150   5.187   2.312   5.219
 9751SOL     OW30151   2.947   6.211   1.078
 9751SOL    HW130152   2.955   6.112   1.093
 9751SOL    HW230153   2.931   6.257   1.165
 9752SOL     OW30154   3.469   3.103   0.703
 9752SOL    HW130155   3.418   3.186   0.727
 9752SOL    HW230156   3.532   3.123   0.629
 9753SOL     OW30157   6.379   5.844   3.557
 9753SOL    HW130158   6.376   5.757   3.608
 9753SOL    HW230159   6.300   5.899   3.580
 9754SOL     OW30160   3.140   0.862   2.152
 9754SOL    HW130161   3.144   0.925   2.230
 9754SOL    HW230162   3.206   0.788   2.166
 9755SOL     OW30163   3.393   3.692   0.219
 9755SOL    HW130164   3.331   3.641   0.160
 9755SOL    HW230165   3.395   3.649   0.310
 9756SOL     OW30166   5.787   0.055   6.755
 9756SOL    HW130167   5.836   7.019   6.819
 9756SOL    HW230168   5.695   0.020   6.741
 9757SOL     OW30169   5.339   3.881   4.174
 9757SOL    HW130170   5.287   3.863   4.091
 9757SOL    HW230171   5.289   3.847   4.254
 9758SOL     OW30172   2.783   0.435   2.247
 9758SOL    HW130173   2.844   0.398   2.177
 9758SOL    HW230174   2.740   0.519   2.214
 9759SOL     OW30175   6.574   2.103   1.261
 9759SOL    HW130176   6.504   2.039   1.294
 9759SOL    HW230177   6.624   2.062   1.185
 9760SOL     OW30178   4.678   0.459   6.136
 9760SOL    HW130179   4.643   0.522   6.205
 9760SOL    HW230180   4.624   0.468   6.053
 9761SOL     OW30181   0.914   1.903   1.356
 9761SOL    HW130182   0.851   1.961   1.408
 9761SOL    HW230183   0.864   1.854   1.285
 9762SOL     OW30184   3.626   1.191   6.158
 9762SOL    HW130185   3.684   1.206   6.238
 9762SOL    HW230186   3.680   1.202   6.075
 9763SOL     OW30187   6.321   2.720   0.923
 9763SOL    HW130188   6.240   2.759   0.879
 9763SOL    HW230189   6.348   2.636   0.876
 9764SOL     OW30190   0.728   2.841   3.098
 9764SOL    HW130191   0.779   2.867   3.016
 9764SOL    HW230192   0.650   2.902   3.110
 9765SOL     OW30193   6.955   2.111   1.493
 9765SOL    HW130194   6.940   2.013   1.482
 9765SOL    HW230195   6.868   2.157   1.505
 9766SOL     OW30196   0.585   2.976   2.714
 9766SOL    HW130197   0.590   2.937   2.622
 9766SOL    HW230198   0.538   2.913   2.775
 9767SOL     OW30199   3.361   1.418   5.317
 9767SOL    HW130200   3.381   1.516   5.310
 9767SOL    HW230201   3.337   1.396   5.412
 9768SOL     OW30202   4.822   1.988   0.203
 9768SOL    HW130203   4.832   1.918   0.133
 9768SOL    HW230204   4.877   2.068   0.178
 9769SOL     OW30205   3.796   1.262   5.345
 9769SOL    HW130206   3.865   1.204   5.389
 9769SOL    HW230207   3.781   1.344   5.400
 9770SOL     OW30208   1.743   3.329   5.280
 9770SOL    HW130209   1.758   3.230   5.271
 9770SOL    HW230210   1.754   3.356   5.375
 9771SOL     OW30211   3.328   1.051   2.049
 9771SOL    HW130212   3.287   1.132   2.006
 9771SOL    HW230213   3.256   0.989   2.078
 9772SOL     OW30214   0.666   1.048   1.328
 9772SOL    HW130215   0.618   0.965   1.354
 9772SOL    HW230216   0.759   1.046   1.364
 9773SOL     OW30217   5.488   6.355   2.241
 9773SOL    HW130218   5.543   6.302   2.176
 9773SOL    HW230219   5.546   6.420   2.289
 9774SOL     OW30220   1.778   5.303   4.582
 9774SOL    HW130221   1.809   5.213   4.614
 9774SOL    HW230222   1.698   5.331   4.635
 9775SOL     OW30223   1.424   1.019   2.555
 9775SOL    HW130224   1.422   1.110   2.594
 9775SOL    HW230225   1.473   1.021   2.467
 9776SOL     OW30226   2.124   5.460   1.305
 9776SOL    HW130227   2.028   5.471   1.329
 9776SOL    HW230228   2.149   5.363   1.312
 9777SOL     OW30229   4.088   2.208   5.329
 9777SOL    HW130230   4.055   2.249   5.414
 9777SOL    HW230231   4.012   2.162   5.283
 9778SOL     OW30232   1.529   3.963   3.051
 9778SOL    HW130233   1.595   3.901   3.008
 9778SOL    HW230234   1.543   4.056   3.016
 9779SOL     OW30235   3.180   0.220   3.508
 9779SOL    HW130236   3.129   0.275   3.575
 9779SOL    HW230237   3.142   0.127   3.507
 9780SOL     OW30238   0.874   1.429   0.696
 9780SOL    HW130239   0.809   1.367   0.652
 9780SOL    HW230240   0.824   1.506   0.736
 9781SOL     OW30241   1.148   1.294   2.086
 9781SOL    HW130242   1.168   1.347   2.003
 9781SOL    HW230243   1.167   1.197   2.069
 9782SOL     OW30244   0.387   2.680   0.329
 9782SOL    HW130245   0.367   2.724   0.416
 9782SOL    HW230246   0.317   2.706   0.262
 9783SOL     OW30247   4.386   1.029   2.665
 9783SOL    HW130248   4.360   1.030   2.568
 9783SOL    HW230249   4.477   1.068   2.676
 9784SOL     OW30250   1.441   1.460   6.895
 9784SOL    HW130251   1.450   1.494   6.988
 9784SOL    HW230252   1.392   1.373   6.896
 9785SOL     OW30253   0.941   3.630   4.855
 9785SOL    HW130254   0.873   3.586   4.914
 9785SOL    HW230255   1.032   3.614   4.892
 9786SOL     OW30256   2.251   4.570   6.699
 9786SOL    HW130257   2.276   4.528   6.611
 9786SOL    HW230258   2.173   4.522   6.738
 9787SOL     OW30259   2.918   3.544   1.913
 9787SOL    HW130260   2.971   3.613   1.961
 9787SOL    HW230261   2.978   3.469   1.886
 9788SOL     OW30262   3.197   0.004   2.790
 9788SOL    HW130263   3.121   6.981   2.835
 9788SOL    HW230264   3.259   6.961   2.749
 9789SOL     OW30265   4.017   1.343   0.210
 9789SOL    HW130266   3.994   1.318   0.304
 9789SOL    HW230267   4.005   1.441   0.198
 9790SOL     OW30268   4.236   5.314   5.148
 9790SOL    HW130269   4.141   5.293   5.126
 9790SOL    HW230270   4.240   5.402   5.196
 9791SOL     OW30271   7.015   0.248   1.314
 9791SOL    HW130272   0.080   0.238   1.268
 9791SOL    HW230273   7.023   0.317   1.387
 9792SOL     OW30274   3.684   4.513   0.628
 9792SOL    HW130275   3.691   4.415   0.647
 9792SOL    HW230276   3.606   4.530   0.569
 9793SOL     OW30277   5.973   0.649   2.757
 9793SOL    HW130278   5.902   0.591   2.796
 9793SOL    HW230279   6.053   0.650   2.816
 9794SOL     OW30280   3.658   5.307   4.310
 9794SOL    HW130281   3.678   5.256   4.226
 9794SOL    HW230282   3.694   5.400   4.302
 9795SOL     OW30283   1.381   3.494   3.576
 9795SOL    HW130284   1.326   3.571   3.544
 9795SOL    HW230285   1.364   3.479   3.673
 9796SOL     OW30286   3.156   3.514   4.145
 9796SOL    HW130287   3.149   3.614   4.152
 9796SOL    HW230288   3.191   3.489   4.054
 9797SOL     OW30289   3.084   5.679   6.748
 9797SOL    HW130290   2.990   5.649   6.732
 9797SOL    HW230291   3.108   5.662   6.844
 9798SOL     OW30292   6.998   4.095   6.900
 9798SOL    HW130293   6.966   4.124   6.991
 9798SOL    HW230294   6.944   4.017   6.869
 9799SOL     OW30295   3.809   6.505   6.825
 9799SOL    HW130296   3.749   6.534   6.899
 9799SOL    HW230297   3.762   6.439   6.767
 9800SOL     OW30298   6.743   4.516   4.696
 9800SOL    HW130299   6.670   4.473   4.643
 9800SOL    HW230300   6.831   4.472   4.674
 9801SOL     OW30301   4.330   6.795   1.052
 9801SOL    HW130302   4.328   6.850   0.969
 9801SOL    HW230303   4.347   6.854   1.131
 9802SOL     OW30304   3.658   3.733   0.138
 9802SOL    HW130305   3.566   3.699   0.153
 9802SOL    HW230306   3.712   3.721   0.221
 9803SOL     OW30307   1.468   3.806   6.397
 9803SOL    HW130308   1.369   3.810   6.385
 9803SOL    HW230309   1.496   3.710   6.406
 9804SOL     OW30310   0.825   4.533   3.203
 9804SOL    HW130311   0.843   4.437   3.224
 9804SOL    HW230312   0.773   4.539   3.118
 9805SOL     OW30313   0.201   5.550   4.328
 9805SOL    HW130314   0.259   5.568   4.248
 9805SOL    HW230315   0.105   5.552   4.300
 9806SOL     OW30316   3.816   1.632   0.187
 9806SOL    HW130317   3.898   1.673   0.147
 9806SOL    HW230318   3.810   1.536   0.159
 9807SOL     OW30319   4.061   3.232   3.544
 9807SOL    HW130320   4.063   3.243   3.643
 9807SOL    HW230321   3.968   3.210   3.514
 9808SOL     OW30322   2.897   5.789   2.028
 9808SOL    HW130323   2.898   5.725   1.951
 9808SOL    HW230324   2.860   5.744   2.109
 9809SOL     OW30325   6.044   2.502   0.732
 9809SOL    HW130326   5.957   2.544   0.759
 9809SOL    HW230327   6.085   2.457   0.812
 9810SOL     OW30328   2.420   3.167   1.264
 9810SOL    HW130329   2.497   3.231   1.261
 9810SOL    HW230330   2.450   3.077   1.232
 9811SOL     OW30331   5.650   3.386   4.088
 9811SOL    HW130332   5.677   3.469   4.136
 9811SOL    HW230333   5.694   3.307   4.130
 9812SOL     OW30334   3.475   5.674   5.952
 9812SOL    HW130335   3.449   5.635   6.040
 9812SOL    HW230336   3.400   5.661   5.886
 9813SOL     OW30337   4.005   0.464   2.131
 9813SOL    HW130338   4.071   0.474   2.205
 9813SOL    HW230339   3.938   0.538   2.136
 9814SOL     OW30340   0.276   1.957   5.990
 9814SOL    HW130341   0.198   2.009   5.956
 9814SOL    HW230342   0.354   1.969   5.928
 9815SOL     OW30343   4.104   2.212   4.453
 9815SOL    HW130344   4.154   2.286   4.409
 9815SOL    HW230345   4.082   2.237   4.547
 9816SOL     OW30346   2.887   1.508   0.379
 9816SOL    HW130347   2.892   1.437   0.308
 9816SOL    HW230348   2.792   1.517   0.411
 9817SOL     OW30349   6.633   0.558   1.536
 9817SOL    HW130350   6.721   0.603   1.549
 9817SOL    HW230351   6.599   0.524   1.623
 9818SOL     OW30352   4.026   3.076   5.259
 9818SOL    HW130353   3.992   3.082   5.165
 9818SOL    HW230354   4.018   2.982   5.292
 9819SOL     OW30355   3.185   0.485   1.702
 9819SOL    HW130356   3.177   0.584   1.707
 9819SOL    HW230357   3.198   0.458   1.606
 9820SOL     OW30358   3.907   2.542   0.419
 9820SOL    HW130359   4.000   2.549   0.456
 9820SOL    HW230360   3.905   2.585   0.329
 9821SOL     OW30361   0.025   5.351   0.136
 9821SOL    HW130362   0.018   5.419   0.209
 9821SOL    HW230363   0.117   5.352   0.097
 9822SOL     OW30364   0.446   0.209   2.585
 9822SOL    HW130365   0.535   0.163   2.588
 9822SOL    HW230366   0.458   0.306   2.564
 9823SOL     OW30367   3.659   6.243   1.556
 9823SOL    HW130368   3.585   6.299   1.595
 9823SOL    HW230369   3.662   6.155   1.603
 9824SOL     OW30370   1.846   4.143   6.299
 9824SOL    HW130371   1.846   4.168   6.202
 9824SOL    HW230372   1.780   4.200   6.349
 9825SOL     OW30373   4.140   4.947   5.389
 9825SOL    HW130374   4.144   4.870   5.325
 9825SOL    HW230375   4.120   4.913   5.481
 9826SOL     OW30376   5.529   6.764   5.436
 9826SOL    HW130377   5.528   6.718   5.524
 9826SOL    HW230378   5.590   6.843   5.440
 9827SOL     OW30379   0.683   4.410   4.530
 9827SOL    HW130380   0.764   4.412   4.472
 9827SOL    HW230381   0.615   4.475   4.496
 9828SOL     OW30382   2.796   2.773   6.709
 9828SOL    HW130383   2.716   2.723   6.677
 9828SOL    HW230384   2.860   2.709   6.753
 9829SOL     OW30385   2.760   4.519   1.231
 9829SOL    HW130386   2.844   4.467   1.246
 9829SOL    HW230387   2.722   4.547   1.319
 9830SOL     OW30388   0.055   1.542   0.424
 9830SOL    HW130389   0.048   1.634   0.463
 9830SOL    HW230390   0.117   1.487   0.480
 9831SOL     OW30391   5.610   6.609   1.221
 9831SOL    HW130392   5.618   6.709   1.220
 9831SOL    HW230393   5.677   6.571   1.283
 9832SOL     OW30394   3.854   4.871   1.393
 9832SOL    HW130395   3.898   4.791   1.435
 9832SOL    HW230396   3.774   4.897   1.447
 9833SOL     OW30397   4.784   3.958   5.801
 9833SOL    HW130398   4.872   3.942   5.848
 9833SOL    HW230399   4.729   3.875   5.804
 9834SOL     OW30400   2.217   2.489   3.973
 9834SOL    HW130401   2.307   2.503   4.014
 9834SOL    HW230402   2.161   2.432   4.033
 9835SOL     OW30403   5.074   1.763   4.448
 9835SOL    HW130404   5.157   1.729   4.405
 9835SOL    HW230405   5.000   1.696   4.436
 9836SOL     OW30406   5.082   5.379   2.076
 9836SOL    HW130407   5.088   5.327   2.160
 9836SOL    HW230408   4.991   5.420   2.068
 9837SOL     OW30409   1.548   6.432   5.328
 9837SOL    HW130410   1.622   6.365   5.319
 9837SOL    HW230411   1.460   6.384   5.324
 9838SOL     OW30412   6.810   5.360   4.844
 9838SOL    HW130413   6.875   5.394   4.912
 9838SOL    HW230414   6.829   5.401   4.755
 9839SOL     OW30415   6.447   2.547   2.669
 9839SOL    HW130416   6.508   2.530   2.592
 9839SOL    HW230417   6.441   2.465   2.726
 9840SOL     OW30418   5.782   0.454   0.788
 9840SOL    HW130419   5.834   0.516   0.730
 9840SOL    HW230420   5.725   0.507   0.851
 9841SOL     OW30421   2.145   3.337   4.018
 9841SOL    HW130422   2.151   3.431   4.052
 9841SOL    HW230423   2.202   3.277   4.075
 9842SOL     OW30424   2.916   3.292   3.579
 9842SOL    HW130425   2.824   3.289   3.540
 9842SOL    HW230426   2.979   3.243   3.518
 9843SOL     OW30427   5.817   3.900   3.030
 9843SOL    HW130428   5.799   3.933   2.937
 9843SOL    HW230429   5.839   3.802   3.027
 9844SOL     OW30430   5.194   0.365   2.480
 9844SOL    HW130431   5.253   0.444   2.488
 9844SOL    HW230432   5.164   0.335   2.571
 9845SOL     OW30433   1.237   1.774   3.752
 9845SOL    HW130434   1.217   1.872   3.758
 9845SOL    HW230435   1.177   1.732   3.683
 9846SOL     OW30436   3.065   3.205   3.371
 9846SOL    HW130437   3.092   3.297   3.345
 9846SOL    HW230438   3.130   3.139   3.333
 9847SOL     OW30439   2.004   4.514   4.611
 9847SOL    HW130440   1.991   4.567   4.695
 9847SOL    HW230441   2.017   4.418   4.634
 9848SOL     OW30442   5.326   3.543   0.672
 9848SOL    HW130443   5.237   3.546   0.717
 9848SOL    HW230444   5.373   3.458   0.695
 9849SOL     OW30445   0.096   0.046   5.692
 9849SOL    HW130446   0.133   0.091   5.773
 9849SOL    HW230447   0.166   7.011   5.651
 9850SOL     OW30448   4.444   0.145   2.829
 9850SOL    HW130449   4.400   0.091   2.757
 9850SOL    HW230450   4.417   0.241   2.820
 9851SOL     OW30451   5.503   2.999   5.077
 9851SOL    HW130452   5.574   2.984   5.145
 9851SOL    HW230453   5.517   3.088   5.034
 9852SOL     OW30454   4.808   1.639   4.242
 9852SOL    HW130455   4.835   1.696   4.165
 9852SOL    HW230456   4.757   1.559   4.208
 9853SOL     OW30457   0.235   4.009   1.372
 9853SOL    HW130458   0.234   4.057   1.460
 9853SOL    HW230459   0.269   3.916   1.386
 9854SOL     OW30460   4.479   5.685   3.603
 9854SOL    HW130461   4.511   5.661   3.511
 9854SOL    HW230462   4.525   5.768   3.633
 9855SOL     OW30463   1.704   3.688   0.869
 9855SOL    HW130464   1.746   3.608   0.826
 9855SOL    HW230465   1.608   3.669   0.888
 9856SOL     OW30466   4.092   2.652   0.882
 9856SOL    HW130467   4.094   2.646   0.783
 9856SOL    HW230468   4.167   2.711   0.913
 9857SOL     OW30469   6.247   4.258   2.961
 9857SOL    HW130470   6.221   4.242   3.056
 9857SOL    HW230471   6.204   4.342   2.928
 9858SOL     OW30472   4.222   1.547   1.227
 9858SOL    HW130473   4.175   1.635   1.225
 9858SOL    HW230474   4.224   1.513   1.321
 9859SOL     OW30475   6.388   0.334   1.621
 9859SOL    HW130476   6.430   0.370   1.705
 9859SOL    HW230477   6.290   0.325   1.635
 9860SOL     OW30478   0.604   0.824   2.458
 9860SOL    HW130479   0.552   0.803   2.541
 9860SOL    HW230480   0.638   0.918   2.463
 9861SOL     OW30481   3.233   6.705   4.984
 9861SOL    HW130482   3.275   6.759   5.056
 9861SOL    HW230483   3.303   6.650   4.938
 9862SOL     OW30484   0.835   2.183   1.033
 9862SOL    HW130485   0.780   2.220   1.108
 9862SOL    HW230486   0.932   2.196   1.052
 9863SOL     OW30487   3.001   6.982   0.877
 9863SOL    HW130488   3.097   7.010   0.881
 9863SOL    HW230489   2.992   6.890   0.915
 9864SOL     OW30490   4.272   6.418   2.882
 9864SOL    HW130491   4.289   6.489   2.815
 9864SOL    HW230492   4.338   6.344   2.870
 9865SOL     OW30493   1.297   2.473   4.575
 9865SOL    HW130494   1.315   2.380   4.544
 9865SOL    HW230495   1.372   2.504   4.634
 9866SOL     OW30496   3.862   4.853   3.005
 9866SOL    HW130497   3.946   4.817   2.964
 9866SOL    HW230498   3.832   4.934   2.955
 9867SOL     OW30499   4.155   0.414   6.405
 9867SOL    HW130500   4.099   0.497   6.403
 9867SOL    HW230501   4.097   0.334   6.386
 9868SOL     OW30502   0.266   5.166   6.445
 9868SOL    HW130503   0.170   5.188   6.430
 9868SOL    HW230504   0.306   5.131   6.361
 9869SOL     OW30505   1.844   3.869   3.252
 9869SOL    HW130506   1.863   3.771   3.241
 9869SOL    HW230507   1.888   3.920   3.178
 9870SOL     OW30508   4.883   4.501   2.534
 9870SOL    HW130509   4.966   4.476   2.585
 9870SOL    HW230510   4.822   4.553   2.594
 9871SOL     OW30511   1.288   1.605   5.431
 9871SOL    HW130512   1.198   1.634   5.464
 9871SOL    HW230513   1.319   1.526   5.484
 9872SOL     OW30514   1.366   4.659   3.667
 9872SOL    HW130515   1.377   4.586   3.735
 9872SOL    HW230516   1.307   4.627   3.593
 9873SOL     OW30517   1.264   2.490   0.387
 9873SOL    HW130518   1.232   2.453   0.474
 9873SOL    HW230519   1.216   2.575   0.367
 9874SOL     OW30520   0.646   3.051   3.563
 9874SOL    HW130521   0.704   3.128   3.586
 9874SOL    HW230522   0.647   2.984   3.637
 9875SOL     OW30523   1.538   0.877   3.121
 9875SOL    HW130524   1.571   0.797   3.171
 9875SOL    HW230525   1.554   0.864   3.023
 9876SOL     OW30526   0.081   5.584   2.456
 9876SOL    HW130527   0.142   5.505   2.455
 9876SOL    HW230528   7.020   5.560   2.504
 9877SOL     OW30529   3.790   6.920   1.993
 9877SOL    HW130530   3.802   6.853   1.920
 9877SOL    HW230531   3.751   7.004   1.954
 9878SOL     OW30532   0.670   0.328   5.478
 9878SOL    HW130533   0.608   0.398   5.443
 9878SOL    HW230534   0.619   0.245   5.498
 9879SOL     OW30535   5.262   6.192   5.552
 9879SOL    HW130536   5.283   6.216   5.457
 9879SOL    HW230537   5.318   6.115   5.580
 9880SOL     OW30538   1.830   2.155   4.447
 9880SOL    HW130539   1.877   2.240   4.424
 9880SOL    HW230540   1.854   2.127   4.540
 9881SOL     OW30541   0.033   1.860   6.345
 9881SOL    HW130542   0.122   1.896   6.316
 9881SOL    HW230543   7.001   1.841   6.264
 9882SOL     OW30544   1.534   1.590   2.841
 9882SOL    HW130545   1.580   1.678   2.858
 9882SOL    HW230546   1.435   1.602   2.847
 9883SOL     OW30547   2.443   1.465   1.968
 9883SOL    HW130548   2.510   1.401   2.003
 9883SOL    HW230549   2.409   1.522   2.043
 9884SOL     OW30550   3.864   0.736   4.323
 9884SOL    HW130551   3.884   0.803   4.395
 9884SOL    HW230552   3.913   0.761   4.240
 9885SOL     OW30553   6.498   4.534   3.501
 9885SOL    HW130554   6.455   4.546   3.591
 9885SOL    HW230555   6.484   4.439   3.470
 9886SOL     OW30556   0.965   3.499   1.999
 9886SOL    HW130557   0.913   3.574   2.041
 9886SOL    HW230558   1.063   3.512   2.019
 9887SOL     OW30559   4.472   0.060   5.971
 9887SOL    HW130560   4.423   0.039   6.056
 9887SOL    HW230561   4.570   0.055   5.987
 9888SOL     OW30562   6.672   4.736   0.359
 9888SOL    HW130563   6.574   4.756   0.350
 9888SOL    HW230564   6.706   4.697   0.273
 9889SOL     OW30565   0.567   5.044   0.384
 9889SOL    HW130566   0.647   5.091   0.348
 9889SOL    HW230567   0.522   5.102   0.452
 9890SOL     OW30568   1.187   3.519   0.570
 9890SOL    HW130569   1.216   3.612   0.548
 9890SOL    HW230570   1.120   3.521   0.644
 9891SOL     OW30571   5.014   1.322   1.822
 9891SOL    HW130572   5.025   1.419   1.802
 9891SOL    HW230573   5.090   1.270   1.782
 9892SOL     OW30574   0.211   6.056   6.819
 9892SOL    HW130575   0.123   6.087   6.783
 9892SOL    HW230576   0.283   6.118   6.787
 9893SOL     OW30577   2.576   1.684   1.228
 9893SOL    HW130578   2.566   1.744   1.307
 9893SOL    HW230579   2.498   1.621   1.224
 9894SOL     OW30580   1.702   1.042   1.179
 9894SOL    HW130581   1.802   1.043   1.176
 9894SOL    HW230582   1.667   1.135   1.169
 9895SOL     OW30583   4.859   3.655   6.112
 9895SOL    HW130584   4.789   3.651   6.183
 9895SOL    HW230585   4.843   3.582   6.046
 9896SOL     OW30586   6.723   6.774   6.479
 9896SOL    HW130587   6.815   6.743   6.503
 9896SOL    HW230588   6.687   6.715   6.406
 9897SOL     OW30589   6.159   4.984   3.925
 9897SOL    HW130590   6.103   4.968   3.844
 9897SOL    HW230591   6.168   4.898   3.976
 9898SOL     OW30592   2.776   6.528   5.652
 9898SOL    HW130593   2.788   6.429   5.647
 9898SOL    HW230594   2.681   6.551   5.630
 9899SOL     OW30595   0.075   5.363   6.739
 9899SOL    HW130596   0.130   5.291   6.782
 9899SOL    HW230597   7.002   5.347   6.757
 9900SOL     OW30598   2.123   3.401   3.566
 9900SOL    HW130599   2.151   3.339   3.639
 9900SOL    HW230600   2.147   3.495   3.591
 9901SOL     OW30601   2.024   2.496   5.440
 9901SOL    HW130602   2.093   2.434   5.476
 9901SOL    HW230603   1.984   2.549   5.516
 9902SOL     OW30604   2.755   4.283   6.810
 9902SOL    HW130605   2.766   4.183   6.806
 9902SOL    HW230606   2.683   4.306   6.875
 9903SOL     OW30607   5.675   0.814   4.435
 9903SOL    HW130608   5.694   0.805   4.533
 9903SOL    HW230609   5.588   0.768   4.413
 9904SOL     OW30610   6.650   2.314   0.071
 9904SOL    HW130611   6.688   2.246   0.009
 9904SOL    HW230612   6.551   2.319   0.059
 9905SOL     OW30613   4.948   0.909   0.170
 9905SOL    HW130614   5.008   0.882   0.245
 9905SOL    HW230615   4.912   0.827   0.125
 9906SOL     OW30616   3.934   3.048   5.005
 9906SOL    HW130617   3.864   3.118   5.017
 9906SOL    HW230618   3.890   2.959   4.991
 9907SOL     OW30619   1.110   0.462   1.550
 9907SOL    HW130620   1.173   0.396   1.590
 9907SOL    HW230621   1.026   0.415   1.522
 9908SOL     OW30622   5.029   3.176   3.086
 9908SOL    HW130623   4.948   3.119   3.096
 9908SOL    HW230624   5.111   3.122   3.102
 9909SOL     OW30625   2.175   0.179   5.187
 9909SOL    HW130626   2.087   0.211   5.222
 9909SOL    HW230627   2.247   0.196   5.255
 9910SOL     OW30628   0.289   4.284   3.177
 9910SOL    HW130629   0.364   4.228   3.212
 9910SOL    HW230630   0.202   4.243   3.203
 9911SOL     OW30631   2.586   5.993   2.796
 9911SOL    HW130632   2.550   5.978   2.888
 9911SOL    HW230633   2.626   6.084   2.790
 9912SOL     OW30634   5.799   0.776   6.335
 9912SOL    HW130635   5.859   0.725   6.274
 9912SOL    HW230636   5.774   0.717   6.413
 9913SOL     OW30637   4.629   3.223   6.538
 9913SOL    HW130638   4.540   3.219   6.584
 9913SOL    HW230639   4.616   3.258   6.445
 9914SOL     OW30640   0.070   4.106   4.584
 9914SOL    HW130641   0.041   4.033   4.522
 9914SOL    HW230642   0.160   4.084   4.622
 9915SOL     OW30643   5.424   0.920   3.810
 9915SOL    HW130644   5.358   0.986   3.843
 9915SOL    HW230645   5.515   0.962   3.805
 9916SOL     OW30646   2.429   2.516   1.639
 9916SOL    HW130647   2.347   2.563   1.609
 9916SOL    HW230648   2.480   2.483   1.559
 9917SOL     OW30649   6.394   4.845   4.846
 9917SOL    HW130650   6.370   4.899   4.765
 9917SOL    HW230651   6.479   4.796   4.831
 9918SOL     OW30652   4.507   2.482   2.544
 9918SOL    HW130653   4.458   2.568   2.558
 9918SOL    HW230654   4.586   2.478   2.605
 9919SOL     OW30655   6.299   6.543   0.441
 9919SOL    HW130656   6.288   6.637   0.409
 9919SOL    HW230657   6.392   6.512   0.420
 9920SOL     OW30658   4.748   1.538   2.117
 9920SOL    HW130659   4.701   1.597   2.052
 9920SOL    HW230660   4.691   1.458   2.136
 9921SOL     OW30661   3.479   5.093   6.443
 9921SOL    HW130662   3.573   5.108   6.411
 9921SOL    HW230663   3.438   5.018   6.391
 9922SOL     OW30664   0.279   5.326   0.699
 9922SOL    HW130665   0.293   5.324   0.797
 9922SOL    HW230666   0.283   5.421   0.666
 9923SOL     OW30667   5.474   4.676   1.171
 9923SOL    HW130668   5.492   4.585   1.209
 9923SOL    HW230669   5.385   4.708   1.204
 9924SOL     OW30670   0.833   3.784   4.645
 9924SOL    HW130671   0.750   3.823   4.686
 9924SOL    HW230672   0.878   3.724   4.711
 9925SOL     OW30673   5.284   2.470   3.355
 9925SOL    HW130674   5.241   2.460   3.445
 9925SOL    HW230675   5.382   2.449   3.363
 9926SOL     OW30676   2.425   5.431   6.647
 9926SOL    HW130677   2.520   5.417   6.672
 9926SOL    HW230678   2.366   5.378   6.707
 9927SOL     OW30679   5.865   0.055   3.322
 9927SOL    HW130680   5.879   6.982   3.342
 9927SOL    HW230681   5.915   0.111   3.388
 9928SOL     OW30682   4.565   4.717   1.945
 9928SOL    HW130683   4.630   4.651   1.908
 9928SOL    HW230684   4.514   4.675   2.021
 9929SOL     OW30685   1.107   4.574   2.430
 9929SOL    HW130686   1.063   4.542   2.346
 9929SOL    HW230687   1.173   4.646   2.408
 9930SOL     OW30688   6.702   0.629   3.669
 9930SOL    HW130689   6.786   0.578   3.685
 9930SOL    HW230690   6.636   0.609   3.741
 9931SOL     OW30691   0.701   4.715   5.811
 9931SOL    HW130692   0.696   4.748   5.905
 9931SOL    HW230693   0.609   4.697   5.777
 9932SOL     OW30694   0.769   6.231   5.096
 9932SOL    HW130695   0.715   6.156   5.134
 9932SOL    HW230696   0.827   6.196   5.023
 9933SOL     OW30697   0.617   6.041   2.310
 9933SOL    HW130698   0.548   6.071   2.376
 9933SOL    HW230699   0.696   6.103   2.314
 9934SOL     OW30700   6.800   1.939   5.987
 9934SOL    HW130701   6.823   1.888   6.069
 9934SOL    HW230702   6.882   1.954   5.932
 9935SOL     OW30703   3.384   0.464   6.221
 9935SOL    HW130704   3.372   0.414   6.306
 9935SOL    HW230705   3.294   0.491   6.185
 9936SOL     OW30706   0.691   3.969   3.599
 9936SOL    HW130707   0.754   4.046   3.609
 9936SOL    HW230708   0.678   3.949   3.502
 9937SOL     OW30709   6.673   2.149   6.353
 9937SOL    HW130710   6.757   2.135   6.405
 9937SOL    HW230711   6.657   2.070   6.293
 9938SOL     OW30712   6.888   6.505   2.866
 9938SOL    HW130713   6.824   6.434   2.838
 9938SOL    HW230714   6.965   6.506   2.802
 9939SOL     OW30715   3.575   3.157   2.899
 9939SOL    HW130716   3.630   3.081   2.934
 9939SOL    HW230717   3.510   3.123   2.831
 9940SOL     OW30718   6.968   1.194   0.463
 9940SOL    HW130719   6.946   1.112   0.410
 9940SOL    HW230720   6.938   1.180   0.558
 9941SOL     OW30721   3.015   5.406   5.574
 9941SOL    HW130722   3.105   5.367   5.555
 9941SOL    HW230723   2.983   5.373   5.663
 9942SOL     OW30724   2.996   5.625   4.032
 9942SOL    HW130725   2.975   5.688   3.958
 9942SOL    HW230726   2.919   5.619   4.094
 9943SOL     OW30727   1.425   6.601   5.009
 9943SOL    HW130728   1.367   6.573   4.932
 9943SOL    HW230729   1.509   6.642   4.975
 9944SOL     OW30730   1.483   3.959   6.783
 9944SOL    HW130731   1.494   3.967   6.882
 9944SOL    HW230732   1.385   3.955   6.761
 9945SOL     OW30733   6.568   6.069   6.666
 9945SOL    HW130734   6.605   5.978   6.647
 9945SOL    HW230735   6.487   6.060   6.724
 9946SOL     OW30736   5.450   1.474   4.510
 9946SOL    HW130737   5.491   1.384   4.496
 9946SOL    HW230738   5.461   1.501   4.605
 9947SOL     OW30739   5.869   4.692   3.410
 9947SOL    HW130740   5.859   4.593   3.420
 9947SOL    HW230741   5.943   4.712   3.346
 9948SOL     OW30742   5.079   3.902   4.034
 9948SOL    HW130743   5.028   3.827   4.077
 9948SOL    HW230744   5.055   3.988   4.080
 9949SOL     OW30745   5.621   5.163   2.105
 9949SOL    HW130746   5.676   5.085   2.076
 9949SOL    HW230747   5.658   5.199   2.191
 9950SOL     OW30748   3.614   5.921   5.856
 9950SOL    HW130749   3.585   5.828   5.876
 9950SOL    HW230750   3.714   5.923   5.846
 9951SOL     OW30751   6.223   2.269   3.204
 9951SOL    HW130752   6.217   2.276   3.304
 9951SOL    HW230753   6.140   2.225   3.169
 9952SOL     OW30754   0.243   5.211   6.897
 9952SOL    HW130755   0.317   5.218   6.830
 9952SOL    HW230756   0.269   5.260   6.980
 9953SOL     OW30757   6.485   2.711   3.712
 9953SOL    HW130758   6.560   2.754   3.662
 9953SOL    HW230759   6.398   2.733   3.668
 9954SOL     OW30760   4.064   0.171   5.515
 9954SOL    HW130761   4.009   0.204   5.438
 9954SOL    HW230762   4.161   0.183   5.494
 9955SOL     OW30763   0.475   4.575   4.424
 9955SOL    HW130764   0.474   4.516   4.344
 9955SOL    HW230765   0.400   4.549   4.486
 9956SOL     OW30766   1.174   6.000   0.780
 9956SOL    HW130767   1.192   5.978   0.684
 9956SOL    HW230768   1.179   6.099   0.793
 9957SOL     OW30769   5.998   5.396   2.479
 9957SOL    HW130770   6.081   5.420   2.529
 9957SOL    HW230771   5.999   5.298   2.458
 9958SOL     OW30772   2.241   4.389   0.930
 9958SOL    HW130773   2.193   4.404   0.843
 9958SOL    HW230774   2.306   4.314   0.919
 9959SOL     OW30775   3.377   3.489   1.280
 9959SOL    HW130776   3.446   3.488   1.208
 9959SOL    HW230777   3.416   3.532   1.362
 9960SOL     OW30778   0.557   1.358   2.080
 9960SOL    HW130779   0.549   1.384   2.176
 9960SOL    HW230780   0.652   1.332   2.060
 9961SOL     OW30781   2.146   3.979   4.551
 9961SOL    HW130782   2.148   3.969   4.651
 9961SOL    HW230783   2.215   4.046   4.523
 9962SOL     OW30784   5.164   6.398   4.607
 9962SOL    HW130785   5.254   6.402   4.565
 9962SOL    HW230786   5.106   6.469   4.567
 9963SOL     OW30787   3.150   0.991   0.608
 9963SOL    HW130788   3.128   0.900   0.642
 9963SOL    HW230789   3.166   0.986   0.509
 9964SOL     OW30790   5.010   5.858   4.644
 9964SOL    HW130791   5.108   5.864   4.663
 9964SOL    HW230792   4.959   5.865   4.730
 9965SOL     OW30793   3.885   6.728   0.140
 9965SOL    HW130794   3.886   6.823   0.110
 9965SOL    HW230795   3.979   6.695   0.147
 9966SOL     OW30796   0.040   0.321   3.278
 9966SOL    HW130797   0.090   0.297   3.195
 9966SOL    HW230798   6.970   0.286   3.272
 9967SOL     OW30799   0.869   5.466   0.540
 9967SOL    HW130800   0.959   5.488   0.504
 9967SOL    HW230801   0.802   5.531   0.504
 9968SOL     OW30802   2.882   3.453   2.798
 9968SOL    HW130803   2.911   3.486   2.887
 9968SOL    HW230804   2.947   3.385   2.764
 9969SOL     OW30805   1.595   3.237   1.630
 9969SOL    HW130806   1.545   3.151   1.640
 9969SOL    HW230807   1.564   3.285   1.549
 9970SOL     OW30808   5.890   4.717   1.605
 9970SOL    HW130809   5.835   4.647   1.560
 9970SOL    HW230810   5.917   4.786   1.537
 9971SOL     OW30811   2.310   6.207   0.211
 9971SOL    HW130812   2.325   6.138   0.281
 9971SOL    HW230813   2.237   6.268   0.240
 9972SOL     OW30814   6.794   4.825   1.452
 9972SOL    HW130815   6.755   4.772   1.527
 9972SOL    HW230816   6.827   4.763   1.381
 9973SOL     OW30817   6.256   6.813   3.810
 9973SOL    HW130818   6.183   6.744   3.814
 9973SOL    HW230819   6.339   6.770   3.775
 9974SOL     OW30820   2.621   0.550   4.528
 9974SOL    HW130821   2.697   0.485   4.514
 9974SOL    HW230822   2.543   0.523   4.472
 9975SOL     OW30823   6.390   3.702   0.527
 9975SOL    HW130824   6.428   3.758   0.453
 9975SOL    HW230825   6.291   3.703   0.523
 9976SOL     OW30826   2.028   6.824   5.114
 9976SOL    HW130827   2.051   6.855   5.206
 9976SOL    HW230828   2.001   6.728   5.117
 9977SOL     OW30829   6.379   4.354   4.169
 9977SOL    HW130830   6.313   4.371   4.096
 9977SOL    HW230831   6.392   4.437   4.224
 9978SOL     OW30832   0.450   2.894   5.232
 9978SOL    HW130833   0.526   2.947   5.271
 9978SOL    HW230834   0.470   2.873   5.136
 9979SOL     OW30835   0.498   4.189   4.963
 9979SOL    HW130836   0.476   4.092   4.978
 9979SOL    HW230837   0.594   4.204   4.984
 9980SOL     OW30838   3.078   6.620   4.678
 9980SOL    HW130839   3.050   6.712   4.707
 9980SOL    HW230840   3.058   6.555   4.751
 9981SOL     OW30841   4.208   2.246   4.070
 9981SOL    HW130842   4.247   2.297   4.147
 9981SOL    HW230843   4.255   2.158   4.062
 9982SOL     OW30844   6.684   6.070   2.786
 9982SOL    HW130845   6.724   5.992   2.737
 9982SOL    HW230846   6.672   6.146   2.722
 9983SOL     OW30847   6.613   1.078   0.892
 9983SOL    HW130848   6.665   1.151   0.935
 9983SOL    HW230849   6.540   1.118   0.836
 9984SOL     OW30850   2.518   1.027   0.074
 9984SOL    HW130851   2.563   1.075   7.022
 9984SOL    HW230852   2.444   0.970   0.038
 9985SOL     OW30853   1.732   1.423   1.834
 9985SOL    HW130854   1.685   1.381   1.756
 9985SOL    HW230855   1.737   1.358   1.910
 9986SOL     OW30856   5.048   4.129   4.644
 9986SOL    HW130857   5.146   4.115   4.659
 9986SOL    HW230858   5.002   4.040   4.640
 9987SOL     OW30859   0.299   4.538   5.968
 9987SOL    HW130860   0.212   4.498   5.997
 9987SOL    HW230861   0.374   4.498   6.020
 9988SOL     OW30862   6.735   6.969   4.555
 9988SOL    HW130863   6.727   6.899   4.626
 9988SOL    HW230864   6.756   6.925   4.467
 9989SOL     OW30865   1.272   2.826   4.211
 9989SOL    HW130866   1.253   2.752   4.275
 9989SOL    HW230867   1.356   2.874   4.238
 9990SOL     OW30868   1.497   5.509   2.157
 9990SOL    HW130869   1.443   5.585   2.120
 9990SOL    HW230870   1.454   5.422   2.131
 9991SOL     OW30871   4.179   2.300   3.211
 9991SOL    HW130872   4.088   2.266   3.185
 9991SOL    HW230873   4.185   2.306   3.311
 9992SOL     OW30874   6.652   5.531   6.078
 9992SOL    HW130875   6.684   5.545   6.171
 9992SOL    HW230876   6.730   5.511   6.018
 9993SOL     OW30877   1.285   0.658   1.868
 9993SOL    HW130878   1.267   0.700   1.957
 9993SOL    HW230879   1.383   0.641   1.859
 9994SOL     OW30880   6.001   4.881   3.009
 9994SOL    HW130881   6.048   4.816   3.069
 9994SOL    HW230882   5.917   4.838   2.973
 9995SOL     OW30883   5.116   1.276   4.345
 9995SOL    HW130884   5.127   1.243   4.438
 9995SOL    HW230885   5.051   1.218   4.296
 9996SOL     OW30886   2.605   3.245   0.039
 9996SOL    HW130887   2.592   3.344   0.040
 9996SOL    HW230888   2.534   3.202   7.007
 9997SOL     OW30889   2.515   0.494   4.798
 9997SOL    HW130890   2.491   0.542   4.714
 9997SOL    HW230891   2.534   0.398   4.777
 9998SOL     OW30892   5.694   6.220   5.486
 9998SOL    HW130893   5.745   6.240   5.403
 9998SOL    HW230894   5.614   6.280   5.490
 9999SOL     OW30895   6.555   2.013   4.394
 9999SOL    HW130896   6.533   1.981   4.486
 9999SOL    HW230897   6.559   2.113   4.394
10000SOL     OW30898   6.815   4.683   0.154
10000SOL    HW130899   6.869   4.767   0.153
10000SOL    HW230900   6.783   4.662   0.062
10001SOL     OW30901   3.888   0.090   3.568
10001SOL    HW130902   3.941   0.009   3.544
10001SOL    HW230903   3.913   0.165   3.507
10002SOL     OW30904   1.455   1.721   1.990
10002SOL    HW130905   1.413   1.661   1.921
10002SOL    HW230906   1.419   1.814   1.979
10003SOL     OW30907   5.147   2.841   3.423
10003SOL    HW130908   5.205   2.791   3.358
10003SOL    HW230909   5.130   2.785   3.503
10004SOL     OW30910   0.501   2.739   2.983
10004SOL    HW130911   0.459   2.823   2.947
10004SOL    HW230912   0.451   2.710   3.065
10005SOL     OW30913   5.191   0.209   4.439
10005SOL    HW130914   5.221   0.121   4.476
10005SOL    HW230915   5.125   0.251   4.501
10006SOL     OW30916   4.750   1.717   4.717
10006SOL    HW130917   4.755   1.626   4.675
10006SOL    HW230918   4.804   1.781   4.662
10007SOL     OW30919   6.562   3.784   3.767
10007SOL    HW130920   6.633   3.721   3.735
10007SOL    HW230921   6.584   3.877   3.737
10008SOL     OW30922   3.649   6.938   4.146
10008SOL    HW130923   3.666   6.942   4.047
10008SOL    HW230924   3.686   6.853   4.182
10009SOL     OW30925   2.285   4.441   1.665
10009SOL    HW130926   2.250   4.349   1.682
10009SOL    HW230927   2.357   4.462   1.732
10010SOL     OW30928   6.117   1.339   6.049
10010SOL    HW130929   6.211   1.310   6.030
10010SOL    HW230930   6.057   1.306   5.977
10011SOL     OW30931   6.825   6.813   4.290
10011SOL    HW130932   6.778   6.762   4.218
10011SOL    HW230933   6.924   6.795   4.284
10012SOL     OW30934   5.892   0.597   4.385
10012SOL    HW130935   5.838   0.513   4.385
10012SOL    HW230936   5.830   0.676   4.380
10013SOL     OW30937   1.555   0.716   1.977
10013SOL    HW130938   1.566   0.787   1.906
10013SOL    HW230939   1.631   0.722   2.041
10014SOL     OW30940   1.418   4.708   5.937
10014SOL    HW130941   1.434   4.669   6.028
10014SOL    HW230942   1.322   4.731   5.926
10015SOL     OW30943   2.268   5.217   6.758
10015SOL    HW130944   2.243   5.267   6.841
10015SOL    HW230945   2.191   5.160   6.729
10016SOL     OW30946   2.585   0.506   5.359
10016SOL    HW130947   2.640   0.557   5.426
10016SOL    HW230948   2.598   0.408   5.374
10017SOL     OW30949   0.368   2.266   4.388
10017SOL    HW130950   0.423   2.288   4.308
10017SOL    HW230951   0.336   2.350   4.431
10018SOL     OW30952   5.075   6.657   5.759
10018SOL    HW130953   5.111   6.609   5.839
10018SOL    HW230954   5.139   6.650   5.683
10019SOL     OW30955   1.775   1.059   2.410
10019SOL    HW130956   1.768   1.151   2.447
10019SOL    HW230957   1.706   1.047   2.338
10020SOL     OW30958   6.986   3.141   0.008
10020SOL    HW130959   6.898   3.189   0.018
10020SOL    HW230960   0.036   3.201   0.040
10021SOL     OW30961   5.562   3.057   1.678
10021SOL    HW130962   5.625   3.128   1.708
10021SOL    HW230963   5.486   3.098   1.627
10022SOL     OW30964   1.862   0.540   6.382
10022SOL    HW130965   1.782   0.513   6.435
10022SOL    HW230966   1.872   0.639   6.383
10023SOL     OW30967   0.184   3.071   0.677
10023SOL    HW130968   0.253   3.143   0.689
10023SOL    HW230969   0.114   3.080   0.747
10024SOL     OW30970   1.241   4.529   3.459
10024SOL    HW130971   1.160   4.572   3.419
10024SOL    HW230972   1.295   4.486   3.386
10025SOL     OW30973   0.789   0.889   0.502
10025SOL    HW130974   0.839   0.871   0.587
10025SOL    HW230975   0.841   0.853   0.425
10026SOL     OW30976   6.706   0.659   4.125
10026SOL    HW130977   6.650   0.611   4.193
10026SOL    HW230978   6.755   0.592   4.069
10027SOL     OW30979   5.674   2.683   5.740
10027SOL    HW130980   5.594   2.665   5.798
10027SOL    HW230981   5.712   2.772   5.763
10028SOL     OW30982   2.298   0.594   1.558
10028SOL    HW130983   2.248   0.529   1.615
10028SOL    HW230984   2.395   0.569   1.556
10029SOL     OW30985   4.255   1.056   4.117
10029SOL    HW130986   4.297   0.994   4.050
10029SOL    HW230987   4.247   1.148   4.077
10030SOL     OW30988   1.611   0.810   2.863
10030SOL    HW130989   1.549   0.773   2.793
10030SOL    HW230990   1.651   0.895   2.829
10031SOL     OW30991   6.690   4.538   4.025
10031SOL    HW130992   6.596   4.568   4.039
10031SOL    HW230993   6.698   4.493   3.936
10032SOL     OW30994   3.271   1.720   5.306
10032SOL    HW130995   3.263   1.775   5.223
10032SOL    HW230996   3.181   1.710   5.348
10033SOL     OW30997   5.067   2.936   4.160
10033SOL    HW130998   5.106   3.020   4.198
10033SOL    HW230999   5.119   2.857   4.193
10034SOL     OW31000   4.347   0.336   5.908
10034SOL    HW131001   4.260   0.316   5.862
10034SOL    HW231002   4.382   0.253   5.951
10035SOL     OW31003   0.665   6.814   3.850
10035SOL    HW131004   0.712   6.852   3.930
10035SOL    HW231005   0.721   6.742   3.809
10036SOL     OW31006   6.506   0.357   0.323
10036SOL    HW131007   6.547   0.294   0.257
10036SOL    HW231008   6.423   0.316   0.362
10037SOL     OW31009   6.550   6.950   1.058
10037SOL    HW131010   6.490   7.012   1.007
10037SOL    HW231011   6.605   7.003   1.123
10038SOL     OW31012   6.095   0.457   1.089
10038SOL    HW131013   6.046   0.373   1.064
10038SOL    HW231014   6.178   0.433   1.140
10039SOL     OW31015   3.968   0.288   3.365
10039SOL    HW131016   4.026   0.342   3.426
10039SOL    HW231017   3.874   0.321   3.370
10040SOL     OW31018   0.351   2.354   0.835
10040SOL    HW131019   0.423   2.409   0.792
10040SOL    HW231020   0.283   2.330   0.766
10041SOL     OW31021   1.259   6.674   0.880
10041SOL    HW131022   1.191   6.606   0.906
10041SOL    HW231023   1.344   6.627   0.854
10042SOL     OW31024   6.041   2.019   3.442
10042SOL    HW131025   6.126   2.066   3.467
10042SOL    HW231026   5.967   2.086   3.435
10043SOL     OW31027   1.335   2.963   5.048
10043SOL    HW131028   1.298   3.043   5.000
10043SOL    HW231029   1.434   2.958   5.033
10044SOL     OW31030   4.671   1.805   6.429
10044SOL    HW131031   4.711   1.768   6.346
10044SOL    HW231032   4.592   1.862   6.406
10045SOL     OW31033   2.706   0.953   1.043
10045SOL    HW131034   2.729   0.932   1.138
10045SOL    HW231035   2.686   1.051   1.035
10046SOL     OW31036   0.848   5.258   1.021
10046SOL    HW131037   0.887   5.317   0.950
10046SOL    HW231038   0.749   5.271   1.023
10047SOL     OW31039   1.760   3.403   0.397
10047SOL    HW131040   1.695   3.369   0.329
10047SOL    HW231041   1.826   3.332   0.420
10048SOL     OW31042   6.215   4.566   2.161
10048SOL    HW131043   6.203   4.476   2.118
10048SOL    HW231044   6.154   4.632   2.117
10049SOL     OW31045   6.043   1.369   5.047
10049SOL    HW131046   6.034   1.402   4.953
10049SOL    HW231047   5.954   1.341   5.082
10050SOL     OW31048   6.601   2.778   5.838
10050SOL    HW131049   6.658   2.812   5.764
10050SOL    HW231050   6.653   2.781   5.924
10051SOL     OW31051   2.547   1.061   4.251
10051SOL    HW131052   2.456   1.019   4.250
10051SOL    HW231053   2.591   1.042   4.340
10052SOL     OW31054   1.170   0.350   3.774
10052SOL    HW131055   1.157   0.395   3.863
10052SOL    HW231056   1.248   0.287   3.780
10053SOL     OW31057   5.768   5.145   2.828
10053SOL    HW131058   5.719   5.232   2.833
10053SOL    HW231059   5.734   5.092   2.751
10054SOL     OW31060   6.413   3.799   4.288
10054SOL    HW131061   6.394   3.887   4.331
10054SOL    HW231062   6.422   3.812   4.189
10055SOL     OW31063   1.662   1.652   6.841
10055SOL    HW131064   1.580   1.603   6.870
10055SOL    HW231065   1.692   1.618   6.752
10056SOL     OW31066   5.807   2.226   4.112
10056SOL    HW131067   5.762   2.162   4.174
10056SOL    HW231068   5.867   2.287   4.164
10057SOL     OW31069   5.626   4.892   5.453
10057SOL    HW131070   5.604   4.839   5.535
10057SOL    HW231071   5.686   4.838   5.394
10058SOL     OW31072   6.470   4.059   4.415
10058SOL    HW131073   6.528   3.980   4.438
10058SOL    HW231074   6.525   4.129   4.370
10059SOL     OW31075   5.231   6.284   7.019
10059SOL    HW131076   5.190   6.347   6.953
10059SOL    HW231077   5.309   6.238   6.978
10060SOL     OW31078   3.082   1.797   2.160
10060SOL    HW131079   3.116   1.833   2.247
10060SOL    HW231080   3.110   1.858   2.086
10061SOL     OW31081   3.540   6.736   2.354
10061SOL    HW131082   3.587   6.650   2.336
10061SOL    HW231083   3.517   6.780   2.267
10062SOL     OW31084   6.761   6.965   4.940
10062SOL    HW131085   6.767   0.041   4.936
10062SOL    HW231086   6.766   6.935   5.035
10063SOL     OW31087   3.151   2.117   4.834
10063SOL    HW131088   3.167   2.183   4.907
10063SOL    HW231089   3.070   2.143   4.783
10064SOL     OW31090   3.162   0.065   2.346
10064SOL    HW131091   3.215   0.137   2.301
10064SOL    HW231092   3.070   0.099   2.366
10065SOL     OW31093   0.061   2.339   1.612
10065SOL    HW131094   0.002   2.267   1.576
10065SOL    HW231095   0.038   2.357   1.708
10066SOL     OW31096   6.406   4.194   3.758
10066SOL    HW131097   6.389   4.176   3.855
10066SOL    HW231098   6.343   4.139   3.704
10067SOL     OW31099   6.141   4.015   5.096
10067SOL    HW131100   6.238   4.017   5.121
10067SOL    HW231101   6.132   3.974   5.005
10068SOL     OW31102   1.961   2.897   2.235
10068SOL    HW131103   2.012   2.820   2.197
10068SOL    HW231104   2.022   2.954   2.290
10069SOL     OW31105   3.298   4.635   1.487
10069SOL    HW131106   3.296   4.695   1.567
10069SOL    HW231107   3.301   4.539   1.517
10070SOL     OW31108   5.057   0.224   0.409
10070SOL    HW131109   5.126   0.263   0.470
10070SOL    HW231110   4.967   0.232   0.452
10071SOL     OW31111   5.347   0.630   5.617
10071SOL    HW131112   5.300   0.549   5.653
10071SOL    HW231113   5.367   0.693   5.692
10072SOL     OW31114   6.062   2.809   2.236
10072SOL    HW131115   6.054   2.804   2.137
10072SOL    HW231116   6.150   2.770   2.264
10073SOL     OW31117   5.469   5.779   5.387
10073SOL    HW131118   5.457   5.682   5.411
10073SOL    HW231119   5.566   5.796   5.369
10074SOL     OW31120   1.956   4.844   0.885
10074SOL    HW131121   1.860   4.842   0.914
10074SOL    HW231122   1.994   4.751   0.888
10075SOL     OW31123   1.614   2.647   1.789
10075SOL    HW131124   1.699   2.653   1.737
10075SOL    HW231125   1.599   2.734   1.837
10076SOL     OW31126   5.809   3.983   3.983
10076SOL    HW131127   5.815   4.082   3.998
10076SOL    HW231128   5.840   3.961   3.890
10077SOL     OW31129   4.155   3.647   6.279
10077SOL    HW131130   4.239   3.599   6.307
10077SOL    HW231131   4.159   3.665   6.181
10078SOL     OW31132   5.892   5.337   4.727
10078SOL    HW131133   5.793   5.327   4.717
10078SOL    HW231134   5.925   5.407   4.663
10079SOL     OW31135   5.280   4.757   3.009
10079SOL    HW131136   5.208   4.754   2.940
10079SOL    HW231137   5.320   4.666   3.020
10080SOL     OW31138   5.208   2.208   5.605
10080SOL    HW131139   5.155   2.145   5.547
10080SOL    HW231140   5.278   2.156   5.654
10081SOL     OW31141   1.569   4.728   6.626
10081SOL    HW131142   1.594   4.810   6.574
10081SOL    HW231143   1.634   4.655   6.606
10082SOL     OW31144   0.992   4.386   1.069
10082SOL    HW131145   0.974   4.310   1.006
10082SOL    HW231146   1.068   4.441   1.034
10083SOL     OW31147   2.972   6.242   2.833
10083SOL    HW131148   3.033   6.319   2.818
10083SOL    HW231149   2.877   6.271   2.822
10084SOL     OW31150   1.929   2.901   4.416
10084SOL    HW131151   1.938   2.980   4.477
10084SOL    HW231152   1.997   2.908   4.343
10085SOL     OW31153   4.761   6.910   1.794
10085SOL    HW131154   4.740   6.999   1.834
10085SOL    HW231155   4.851   6.879   1.826
10086SOL     OW31156   3.555   0.027   3.223
10086SOL    HW131157   3.458   0.055   3.222
10086SOL    HW231158   3.589   0.031   3.317
10087SOL     OW31159   1.566   5.675   5.270
10087SOL    HW131160   1.539   5.705   5.178
10087SOL    HW231161   1.517   5.592   5.294
10088SOL     OW31162   6.608   2.389   1.324
10088SOL    HW131163   6.591   2.293   1.301
10088SOL    HW231164   6.639   2.438   1.243
10089SOL     OW31165   4.299   6.849   1.924
10089SOL    HW131166   4.264   6.943   1.922
10089SOL    HW231167   4.286   6.811   2.016
10090SOL     OW31168   2.167   5.933   2.356
10090SOL    HW131169   2.132   5.913   2.264
10090SOL    HW231170   2.231   5.861   2.383
10091SOL     OW31171   5.494   4.873   4.008
10091SOL    HW131172   5.526   4.919   4.091
10091SOL    HW231173   5.573   4.844   3.954
10092SOL     OW31174   0.412   1.263   2.902
10092SOL    HW131175   0.335   1.302   2.853
10092SOL    HW231176   0.431   1.316   2.985
10093SOL     OW31177   4.270   3.940   6.304
10093SOL    HW131178   4.224   4.016   6.258
10093SOL    HW231179   4.256   3.856   6.251
10094SOL     OW31180   4.071   2.148   0.367
10094SOL    HW131181   4.003   2.216   0.394
10094SOL    HW231182   4.073   2.140   0.268
10095SOL     OW31183   4.319   3.277   5.322
10095SOL    HW131184   4.347   3.370   5.301
10095SOL    HW231185   4.388   3.233   5.379
10096SOL     OW31186   6.797   4.176   2.621
10096SOL    HW131187   6.823   4.219   2.535
10096SOL    HW231188   6.878   4.139   2.666
10097SOL     OW31189   1.111   1.700   0.776
10097SOL    HW131190   1.135   1.650   0.693
10097SOL    HW231191   1.112   1.799   0.756
10098SOL     OW31192   3.892   5.930   5.919
10098SOL    HW131193   3.889   5.843   5.970
10098SOL    HW231194   3.949   5.995   5.969
10099SOL     OW31195   0.084   5.648   3.346
10099SOL    HW131196   0.078   5.638   3.247
10099SOL    HW231197   0.104   5.743   3.369
10100SOL     OW31198   5.245   4.699   4.069
10100SOL    HW131199   5.334   4.731   4.101
10100SOL    HW231200   5.220   4.746   3.984
10101SOL     OW31201   0.048   2.408   6.872
10101SOL    HW131202   0.069   2.419   6.969
10101SOL    HW231203   7.015   2.485   6.841
10102SOL     OW31204   6.724   4.846   2.880
10102SOL    HW131205   6.750   4.795   2.798
10102SOL    HW231206   6.641   4.899   2.861
10103SOL     OW31207   0.011   6.777   6.686
10103SOL    HW131208   0.108   6.794   6.671
10103SOL    HW231209   6.986   6.865   6.689
10104SOL     OW31210   2.729   1.121   5.086
10104SOL    HW131211   2.745   1.199   5.025
10104SOL    HW231212   2.703   1.041   5.031
10105SOL     OW31213   3.467   1.364   4.137
10105SOL    HW131214   3.391   1.345   4.200
10105SOL    HW231215   3.431   1.374   4.044
10106SOL     OW31216   6.202   3.982   1.513
10106SOL    HW131217   6.121   4.031   1.544
10106SOL    HW231218   6.176   3.913   1.446
10107SOL     OW31219   5.697   6.044   6.426
10107SOL    HW131220   5.683   5.979   6.500
10107SOL    HW231221   5.782   6.022   6.378
10108SOL     OW31222   2.557   2.558   5.058
10108SOL    HW131223   2.514   2.632   5.006
10108SOL    HW231224   2.610   2.597   5.133
10109SOL     OW31225   1.220   3.169   0.924
10109SOL    HW131226   1.285   3.238   0.893
10109SOL    HW231227   1.134   3.179   0.873
10110SOL     OW31228   6.328   5.996   2.603
10110SOL    HW131229   6.329   6.031   2.509
10110SOL    HW231230   6.236   5.965   2.625
10111SOL     OW31231   6.621   2.562   1.635
10111SOL    HW131232   6.656   2.576   1.542
10111SOL    HW231233   6.575   2.645   1.666
10112SOL     OW31234   6.894   2.705   4.279
10112SOL    HW131235   6.827   2.652   4.332
10112SOL    HW231236   6.846   2.756   4.208
10113SOL     OW31237   6.970   6.388   5.706
10113SOL    HW131238   6.885   6.347   5.676
10113SOL    HW231239   6.954   6.441   5.790
10114SOL     OW31240   5.106   3.971   1.541
10114SOL    HW131241   5.053   4.055   1.532
10114SOL    HW231242   5.062   3.897   1.490
10115SOL     OW31243   3.556   2.875   6.640
10115SOL    HW131244   3.550   2.973   6.660
10115SOL    HW231245   3.619   2.832   6.704
10116SOL     OW31246   0.244   6.856   6.570
10116SOL    HW131247   0.322   6.918   6.576
10116SOL    HW231248   0.269   6.776   6.516
10117SOL     OW31249   0.330   4.352   1.168
10117SOL    HW131250   0.403   4.296   1.207
10117SOL    HW231251   0.361   4.392   1.082
10118SOL     OW31252   4.263   4.720   3.589
10118SOL    HW131253   4.204   4.733   3.509
10118SOL    HW231254   4.346   4.774   3.578
10119SOL     OW31255   6.035   5.850   6.885
10119SOL    HW131256   6.014   5.895   6.972
10119SOL    HW231257   5.950   5.821   6.842
10120SOL     OW31258   2.715   2.372   2.740
10120SOL    HW131259   2.812   2.352   2.751
10120SOL    HW231260   2.685   2.343   2.649
10121SOL     OW31261   6.345   5.628   1.921
10121SOL    HW131262   6.298   5.697   1.866
10121SOL    HW231263   6.380   5.670   2.005
10122SOL     OW31264   2.152   0.590   3.146
10122SOL    HW131265   2.221   0.558   3.210
10122SOL    HW231266   2.133   0.518   3.079
10123SOL     OW31267   6.163   5.851   6.613
10123SOL    HW131268   6.123   5.853   6.705
10123SOL    HW231269   6.090   5.843   6.545
10124SOL     OW31270   2.667   5.234   2.171
10124SOL    HW131271   2.597   5.300   2.199
10124SOL    HW231272   2.739   5.281   2.120
10125SOL     OW31273   1.665   1.618   4.803
10125SOL    HW131274   1.584   1.659   4.846
10125SOL    HW231275   1.698   1.677   4.730
10126SOL     OW31276   6.593   6.249   4.534
10126SOL    HW131277   6.689   6.265   4.513
10126SOL    HW231278   6.555   6.330   4.578
10127SOL     OW31279   2.288   0.408   5.433
10127SOL    HW131280   2.302   0.505   5.411
10127SOL    HW231281   2.353   0.353   5.381
10128SOL     OW31282   2.368   2.019   0.235
10128SOL    HW131283   2.357   2.117   0.217
10128SOL    HW231284   2.460   1.991   0.211
10129SOL     OW31285   0.118   2.544   4.858
10129SOL    HW131286   0.105   2.507   4.949
10129SOL    HW231287   0.035   2.529   4.803
10130SOL     OW31288   1.248   1.837   3.310
10130SOL    HW131289   1.213   1.811   3.400
10130SOL    HW231290   1.173   1.873   3.255
10131SOL     OW31291   1.947   0.205   5.361
10131SOL    HW131292   1.848   0.215   5.347
10131SOL    HW231293   1.976   0.263   5.437
10132SOL     OW31294   6.227   0.445   2.476
10132SOL    HW131295   6.241   0.394   2.561
10132SOL    HW231296   6.293   0.520   2.471
10133SOL     OW31297   4.230   5.516   0.802
10133SOL    HW131298   4.305   5.456   0.775
10133SOL    HW231299   4.197   5.490   0.893
10134SOL     OW31300   0.244   6.621   3.217
10134SOL    HW131301   0.258   6.646   3.312
10134SOL    HW231302   0.146   6.611   3.199
10135SOL     OW31303   6.476   6.520   3.919
10135SOL    HW131304   6.475   6.546   4.016
10135SOL    HW231305   6.402   6.456   3.901
10136SOL     OW31306   4.846   0.810   3.678
10136SOL    HW131307   4.927   0.808   3.620
10136SOL    HW231308   4.848   0.732   3.741
10137SOL     OW31309   6.818   5.620   3.472
10137SOL    HW131310   6.766   5.612   3.557
10137SOL    HW231311   6.820   5.716   3.443
10138SOL     OW31312   0.138   1.697   2.240
10138SOL    HW131313   0.169   1.782   2.284
10138SOL    HW231314   0.205   1.625   2.258
10139SOL     OW31315   4.043   2.942   0.241
10139SOL    HW131316   4.048   2.859   0.296
10139SOL    HW231317   4.127   2.995   0.254
10140SOL     OW31318   6.451   6.404   4.905
10140SOL    HW131319   6.359   6.365   4.898
10140SOL    HW231320   6.491   6.410   4.814
10141SOL     OW31321   1.294   1.852   4.823
10141SOL    HW131322   1.260   1.916   4.755
10141SOL    HW231323   1.381   1.884   4.860
10142SOL     OW31324   4.610   5.763   2.041
10142SOL    HW131325   4.530   5.725   1.996
10142SOL    HW231326   4.635   5.850   1.997
10143SOL     OW31327   5.838   3.466   6.457
10143SOL    HW131328   5.878   3.477   6.366
10143SOL    HW231329   5.742   3.438   6.448
10144SOL     OW31330   3.673   0.277   1.072
10144SOL    HW131331   3.660   0.208   1.001
10144SOL    HW231332   3.646   0.239   1.160
10145SOL     OW31333   6.643   0.350   4.984
10145SOL    HW131334   6.689   0.397   5.060
10145SOL    HW231335   6.710   0.297   4.933
10146SOL     OW31336   1.715   2.676   5.769
10146SOL    HW131337   1.651   2.694   5.694
10146SOL    HW231338   1.665   2.675   5.856
10147SOL     OW31339   3.327   5.269   0.244
10147SOL    HW131340   3.319   5.173   0.273
10147SOL    HW231341   3.397   5.314   0.299
10148SOL     OW31342   0.577   5.331   6.220
10148SOL    HW131343   0.536   5.240   6.221
10148SOL    HW231344   0.677   5.322   6.220
10149SOL     OW31345   3.438   3.210   3.289
10149SOL    HW131346   3.415   3.252   3.376
10149SOL    HW231347   3.427   3.276   3.215
10150SOL     OW31348   4.978   4.242   1.486
10150SOL    HW131349   4.893   4.281   1.450
10150SOL    HW231350   5.054   4.302   1.464
10151SOL     OW31351   0.121   0.634   6.777
10151SOL    HW131352   0.126   0.547   6.727
10151SOL    HW231353   0.050   0.692   6.735
10152SOL     OW31354   3.877   6.243   4.064
10152SOL    HW131355   3.869   6.255   3.965
10152SOL    HW231356   3.807   6.178   4.096
10153SOL     OW31357   5.184   3.638   1.823
10153SOL    HW131358   5.162   3.602   1.732
10153SOL    HW231359   5.125   3.716   1.843
10154SOL     OW31360   4.476   5.260   5.276
10154SOL    HW131361   4.486   5.196   5.352
10154SOL    HW231362   4.394   5.238   5.224
10155SOL     OW31363   4.270   1.990   4.156
10155SOL    HW131364   4.176   1.971   4.130
10155SOL    HW231365   4.288   1.953   4.247
10156SOL     OW31366   3.669   2.418   6.571
10156SOL    HW131367   3.739   2.481   6.604
10156SOL    HW231368   3.617   2.382   6.649
10157SOL     OW31369   0.928   4.642   0.875
10157SOL    HW131370   0.849   4.650   0.936
10157SOL    HW231371   0.923   4.555   0.825
10158SOL     OW31372   5.778   4.859   6.996
10158SOL    HW131373   5.825   4.947   6.985
10158SOL    HW231374   5.763   4.817   6.906
10159SOL     OW31375   3.962   2.857   1.637
10159SOL    HW131376   4.043   2.798   1.628
10159SOL    HW231377   3.916   2.865   1.549
10160SOL     OW31378   0.188   3.746   2.672
10160SOL    HW131379   0.147   3.743   2.763
10160SOL    HW231380   0.286   3.723   2.679
10161SOL     OW31381   6.233   3.039   6.911
10161SOL    HW131382   6.192   3.123   6.876
10161SOL    HW231383   6.331   3.052   6.925
10162SOL     OW31384   1.812   2.096   2.403
10162SOL    HW131385   1.726   2.137   2.433
10162SOL    HW231386   1.887   2.130   2.461
10163SOL     OW31387   3.398   5.130   4.715
10163SOL    HW131388   3.375   5.062   4.645
10163SOL    HW231389   3.448   5.206   4.673
10164SOL     OW31390   0.191   0.767   4.126
10164SOL    HW131391   0.212   0.816   4.210
10164SOL    HW231392   0.100   0.727   4.133
10165SOL     OW31393   1.724   3.487   3.835
10165SOL    HW131394   1.678   3.545   3.769
10165SOL    HW231395   1.812   3.528   3.861
10166SOL     OW31396   3.594   6.352   3.134
10166SOL    HW131397   3.507   6.304   3.126
10166SOL    HW231398   3.579   6.450   3.123
10167SOL     OW31399   3.702   1.653   6.624
10167SOL    HW131400   3.797   1.659   6.656
10167SOL    HW231401   3.700   1.663   6.525
10168SOL     OW31402   0.863   1.358   6.275
10168SOL    HW131403   0.865   1.421   6.353
10168SOL    HW231404   0.940   1.294   6.281
10169SOL     OW31405   4.607   5.595   2.841
10169SOL    HW131406   4.660   5.568   2.761
10169SOL    HW231407   4.621   5.692   2.859
10170SOL     OW31408   4.572   6.551   0.366
10170SOL    HW131409   4.501   6.555   0.296
10170SOL    HW231410   4.655   6.595   0.331
10171SOL     OW31411   1.752   4.309   3.712
10171SOL    HW131412   1.653   4.295   3.718
10171SOL    HW231413   1.776   4.340   3.620
10172SOL     OW31414   0.861   0.756   2.739
10172SOL    HW131415   0.913   0.804   2.668
10172SOL    HW231416   0.854   0.659   2.715
10173SOL     OW31417   4.498   3.198   5.528
10173SOL    HW131418   4.480   3.263   5.602
10173SOL    HW231419   4.512   3.107   5.566
10174SOL     OW31420   5.062   4.652   1.823
10174SOL    HW131421   5.143   4.597   1.848
10174SOL    HW231422   4.992   4.641   1.893
10175SOL     OW31423   6.671   0.114   3.973
10175SOL    HW131424   6.693   0.045   3.904
10175SOL    HW231425   6.707   0.086   4.062
10176SOL     OW31426   0.231   1.272   4.473
10176SOL    HW131427   0.224   1.274   4.573
10176SOL    HW231428   0.326   1.254   4.447
10177SOL     OW31429   3.317   1.106   4.683
10177SOL    HW131430   3.289   1.107   4.779
10177SOL    HW231431   3.325   1.200   4.649
10178SOL     OW31432   6.738   1.140   2.067
10178SOL    HW131433   6.640   1.130   2.054
10178SOL    HW231434   6.765   1.097   2.153
10179SOL     OW31435   0.374   6.293   0.657
10179SOL    HW131436   0.292   6.298   0.600
10179SOL    HW231437   0.449   6.255   0.604
10180SOL     OW31438   2.729   0.154   6.248
10180SOL    HW131439   2.656   0.192   6.304
10180SOL    HW231440   2.773   0.079   6.297
10181SOL     OW31441   0.054   4.059   2.751
10181SOL    HW131442   0.131   4.052   2.814
10181SOL    HW231443   0.039   3.971   2.706
10182SOL     OW31444   4.437   6.854   0.045
10182SOL    HW131445   4.475   6.936   0.000
10182SOL    HW231446   4.485   6.773   0.011
10183SOL     OW31447   3.886   6.411   6.040
10183SOL    HW131448   3.899   6.313   6.057
10183SOL    HW231449   3.813   6.446   6.098
10184SOL     OW31450   5.483   2.848   4.554
10184SOL    HW131451   5.463   2.936   4.598
10184SOL    HW231452   5.578   2.823   4.573
10185SOL     OW31453   3.066   4.808   1.980
10185SOL    HW131454   2.980   4.758   1.993
10185SOL    HW231455   3.143   4.750   2.005
10186SOL     OW31456   3.352   2.882   1.153
10186SOL    HW131457   3.371   2.897   1.250
10186SOL    HW231458   3.371   2.787   1.130
10187SOL     OW31459   1.764   3.721   5.624
10187SOL    HW131460   1.772   3.699   5.721
10187SOL    HW231461   1.853   3.753   5.590
10188SOL     OW31462   2.084   0.064   6.750
10188SOL    HW131463   2.184   0.070   6.748
10188SOL    HW231464   2.056   7.002   6.706
10189SOL     OW31465   2.101   1.815   5.504
10189SOL    HW131466   2.067   1.900   5.545
10189SOL    HW231467   2.077   1.813   5.407
10190SOL     OW31468   4.009   3.661   0.700
10190SOL    HW131469   4.080   3.723   0.734
10190SOL    HW231470   3.983   3.689   0.607
10191SOL     OW31471   5.490   0.981   0.403
10191SOL    HW131472   5.550   0.912   0.363
10191SOL    HW231473   5.395   0.950   0.398
10192SOL     OW31474   2.403   0.474   3.989
10192SOL    HW131475   2.384   0.566   4.024
10192SOL    HW231476   2.318   0.422   3.986
10193SOL     OW31477   3.622   3.807   3.687
10193SOL    HW131478   3.533   3.844   3.662
10193SOL    HW231479   3.690   3.836   3.620
10194SOL     OW31480   3.112   5.969   3.835
10194SOL    HW131481   3.180   5.952   3.907
10194SOL    HW231482   3.023   5.934   3.864
10195SOL     OW31483   5.171   0.621   2.925
10195SOL    HW131484   5.186   0.522   2.917
10195SOL    HW231485   5.258   0.668   2.937
10196SOL     OW31486   5.030   4.123   4.180
10196SOL    HW131487   5.052   4.220   4.169
10196SOL    HW231488   4.930   4.111   4.181
10197SOL     OW31489   4.670   2.044   2.803
10197SOL    HW131490   4.764   2.025   2.833
10197SOL    HW231491   4.671   2.112   2.730
10198SOL     OW31492   2.913   1.564   1.979
10198SOL    HW131493   2.965   1.619   2.045
10198SOL    HW231494   2.967   1.552   1.896
10199SOL     OW31495   0.832   1.879   6.914
10199SOL    HW131496   0.833   1.966   6.963
10199SOL    HW231497   0.762   1.882   6.842
10200SOL     OW31498   5.966   6.703   3.935
10200SOL    HW131499   5.884   6.696   3.878
10200SOL    HW231500   5.971   6.795   3.975
10201SOL     OW31501   1.364   4.451   2.172
10201SOL    HW131502   1.431   4.522   2.194
10201SOL    HW231503   1.396   4.363   2.207
10202SOL     OW31504   1.015   1.950   3.213
10202SOL    HW131505   0.969   1.959   3.301
10202SOL    HW231506   1.001   2.033   3.159
10203SOL     OW31507   0.545   2.061   1.110
10203SOL    HW131508   0.465   2.119   1.121
10203SOL    HW231509   0.569   2.055   1.014
10204SOL     OW31510   2.425   5.835   3.886
10204SOL    HW131511   2.485   5.912   3.903
10204SOL    HW231512   2.330   5.867   3.882
10205SOL     OW31513   3.677   0.177   1.348
10205SOL    HW131514   3.699   0.243   1.419
10205SOL    HW231515   3.584   0.144   1.361
10206SOL     OW31516   5.783   6.177   0.483
10206SOL    HW131517   5.814   6.192   0.577
10206SOL    HW231518   5.772   6.079   0.466
10207SOL     OW31519   4.009   1.572   2.695
10207SOL    HW131520   4.052   1.482   2.704
10207SOL    HW231521   4.061   1.628   2.631
10208SOL     OW31522   6.752   3.270   6.265
10208SOL    HW131523   6.847   3.295   6.249
10208SOL    HW231524   6.749   3.185   6.318
10209SOL     OW31525   3.170   6.375   0.008
10209SOL    HW131526   3.218   6.322   0.077
10209SOL    HW231527   3.106   6.439   0.052
10210SOL     OW31528   5.180   5.733   6.797
10210SOL    HW131529   5.158   5.647   6.843
10210SOL    HW231530   5.133   5.809   6.843
10211SOL     OW31531   3.843   5.882   5.418
10211SOL    HW131532   3.892   5.884   5.506
10211SOL    HW231533   3.773   5.954   5.417
10212SOL     OW31534   6.140   6.561   6.289
10212SOL    HW131535   6.110   6.570   6.194
10212SOL    HW231536   6.079   6.499   6.338
10213SOL     OW31537   4.025   0.061   4.638
10213SOL    HW131538   4.038   0.053   4.737
10213SOL    HW231539   3.928   0.074   4.619
10214SOL     OW31540   0.015   0.674   0.291
10214SOL    HW131541   0.025   0.574   0.289
10214SOL    HW231542   0.024   0.710   0.199
10215SOL     OW31543   4.511   2.511   0.263
10215SOL    HW131544   4.467   2.432   0.305
10215SOL    HW231545   4.443   2.570   0.220
10216SOL     OW31546   5.018   0.244   2.689
10216SOL    HW131547   4.936   0.301   2.696
10216SOL    HW231548   5.000   0.168   2.626
10217SOL     OW31549   3.733   2.296   5.304
10217SOL    HW131550   3.792   2.334   5.375
10217SOL    HW231551   3.639   2.327   5.319
10218SOL     OW31552   3.733   1.217   6.440
10218SOL    HW131553   3.830   1.192   6.432
10218SOL    HW231554   3.719   1.268   6.525
10219SOL     OW31555   1.387   5.502   0.262
10219SOL    HW131556   1.366   5.428   0.197
10219SOL    HW231557   1.302   5.544   0.293
10220SOL     OW31558   3.996   2.280   0.118
10220SOL    HW131559   3.974   2.213   0.048
10220SOL    HW231560   3.916   2.337   0.136
10221SOL     OW31561   2.819   0.983   4.090
10221SOL    HW131562   2.804   0.884   4.079
10221SOL    HW231563   2.743   1.022   4.142
10222SOL     OW31564   1.836   4.438   5.126
10222SOL    HW131565   1.928   4.404   5.107
10222SOL    HW231566   1.771   4.395   5.062
10223SOL     OW31567   0.955   4.887   6.023
10223SOL    HW131568   0.900   4.844   6.095
10223SOL    HW231569   1.026   4.943   6.065
10224SOL     OW31570   2.579   6.377   5.151
10224SOL    HW131571   2.637   6.456   5.167
10224SOL    HW231572   2.555   6.372   5.054
10225SOL     OW31573   5.239   6.175   4.396
10225SOL    HW131574   5.282   6.108   4.457
10225SOL    HW231575   5.157   6.213   4.440
10226SOL     OW31576   6.329   2.602   6.025
10226SOL    HW131577   6.322   2.696   5.992
10226SOL    HW231578   6.327   2.602   6.125
10227SOL     OW31579   4.853   4.591   5.386
10227SOL    HW131580   4.778   4.537   5.424
10227SOL    HW231581   4.940   4.558   5.423
10228SOL     OW31582   0.874   3.001   2.034
10228SOL    HW131583   0.924   2.918   2.010
10228SOL    HW231584   0.779   2.993   2.005
10229SOL     OW31585   2.798   0.625   1.789
10229SOL    HW131586   2.870   0.662   1.730
10229SOL    HW231587   2.766   0.538   1.753
10230SOL     OW31588   5.968   6.346   3.416
10230SOL    HW131589   6.065   6.347   3.391
10230SOL    HW231590   5.941   6.437   3.447
10231SOL     OW31591   4.649   6.194   4.274
10231SOL    HW131592   4.621   6.123   4.210
10231SOL    HW231593   4.721   6.159   4.334
10232SOL     OW31594   3.767   2.128   3.417
10232SOL    HW131595   3.709   2.109   3.496
10232SOL    HW231596   3.855   2.164   3.448
10233SOL     OW31597   4.919   6.757   5.227
10233SOL    HW131598   4.896   6.851   5.249
10233SOL    HW231599   4.886   6.735   5.135
10234SOL     OW31600   4.187   5.066   1.087
10234SOL    HW131601   4.164   5.009   1.167
10234SOL    HW231602   4.105   5.083   1.033
10235SOL     OW31603   5.179   0.706   0.237
10235SOL    HW131604   5.251   0.637   0.238
10235SOL    HW231605   5.173   0.747   0.146
10236SOL     OW31606   1.852   5.757   1.247
10236SOL    HW131607   1.939   5.796   1.218
10236SOL    HW231608   1.831   5.676   1.193
10237SOL     OW31609   5.875   2.536   2.829
10237SOL    HW131610   5.778   2.513   2.830
10237SOL    HW231611   5.913   2.516   2.738
10238SOL     OW31612   4.695   5.770   5.116
10238SOL    HW131613   4.660   5.850   5.166
10238SOL    HW231614   4.687   5.786   5.018
10239SOL     OW31615   5.987   3.021   4.453
10239SOL    HW131616   5.898   3.039   4.493
10239SOL    HW231617   6.052   3.092   4.481
10240SOL     OW31618   5.115   3.756   3.645
10240SOL    HW131619   5.016   3.763   3.642
10240SOL    HW231620   5.154   3.837   3.688
10241SOL     OW31621   1.399   2.584   2.967
10241SOL    HW131622   1.375   2.570   2.871
10241SOL    HW231623   1.340   2.527   3.024
10242SOL     OW31624   1.056   5.176   5.898
10242SOL    HW131625   1.081   5.120   5.818
10242SOL    HW231626   1.111   5.148   5.976
10243SOL     OW31627   0.530   5.857   3.118
10243SOL    HW131628   0.470   5.817   3.049
10243SOL    HW231629   0.625   5.839   3.093
10244SOL     OW31630   1.822   5.669   0.540
10244SOL    HW131631   1.807   5.578   0.501
10244SOL    HW231632   1.808   5.665   0.639
10245SOL     OW31633   2.419   2.742   0.713
10245SOL    HW131634   2.431   2.643   0.712
10245SOL    HW231635   2.500   2.785   0.754
10246SOL     OW31636   2.983   3.922   4.496
10246SOL    HW131637   2.987   3.838   4.551
10246SOL    HW231638   3.000   4.001   4.554
10247SOL     OW31639   0.721   6.307   6.222
10247SOL    HW131640   0.813   6.295   6.184
10247SOL    HW231641   0.676   6.218   6.229
10248SOL     OW31642   6.038   0.795   3.559
10248SOL    HW131643   6.084   0.710   3.533
10248SOL    HW231644   6.105   0.869   3.567
10249SOL     OW31645   5.185   0.636   5.925
10249SOL    HW131646   5.233   0.550   5.943
10249SOL    HW231647   5.088   0.626   5.947
10250SOL     OW31648   4.476   6.006   0.641
10250SOL    HW131649   4.501   5.961   0.556
10250SOL    HW231650   4.381   5.983   0.664
10251SOL     OW31651   3.980   4.387   1.612
10251SOL    HW131652   3.985   4.371   1.514
10251SOL    HW231653   3.920   4.320   1.655
10252SOL     OW31654   0.349   3.795   1.021
10252SOL    HW131655   0.293   3.876   1.041
10252SOL    HW231656   0.320   3.720   1.080
10253SOL     OW31657   3.924   4.666   0.356
10253SOL    HW131658   3.862   4.714   0.418
10253SOL    HW231659   3.888   4.574   0.338
10254SOL     OW31660   2.633   1.634   4.995
10254SOL    HW131661   2.538   1.665   4.996
10254SOL    HW231662   2.693   1.707   5.026
10255SOL     OW31663   3.398   5.702   3.700
10255SOL    HW131664   3.350   5.789   3.684
10255SOL    HW231665   3.476   5.696   3.637
10256SOL     OW31666   5.374   6.314   0.911
10256SOL    HW131667   5.360   6.222   0.949
10256SOL    HW231668   5.338   6.317   0.818
10257SOL     OW31669   1.431   5.446   5.633
10257SOL    HW131670   1.491   5.369   5.655
10257SOL    HW231671   1.446   5.520   5.698
10258SOL     OW31672   4.385   0.740   3.223
10258SOL    HW131673   4.306   0.799   3.242
10258SOL    HW231674   4.461   0.796   3.191
10259SOL     OW31675   0.314   3.001   3.602
10259SOL    HW131676   0.386   2.975   3.538
10259SOL    HW231677   0.226   2.972   3.566
10260SOL     OW31678   0.124   5.764   2.238
10260SOL    HW131679   0.124   5.864   2.245
10260SOL    HW231680   0.093   5.725   2.325
10261SOL     OW31681   2.199   0.353   2.066
10261SOL    HW131682   2.254   0.283   2.112
10261SOL    HW231683   2.204   0.438   2.119
10262SOL     OW31684   1.265   6.593   4.007
10262SOL    HW131685   1.312   6.681   4.013
10262SOL    HW231686   1.305   6.529   4.072
10263SOL     OW31687   6.761   3.584   4.577
10263SOL    HW131688   6.691   3.528   4.620
10263SOL    HW231689   6.814   3.528   4.513
10264SOL     OW31690   0.322   6.673   0.088
10264SOL    HW131691   0.320   6.618   0.004
10264SOL    HW231692   0.253   6.745   0.082
10265SOL     OW31693   4.625   2.033   3.531
10265SOL    HW131694   4.626   2.114   3.472
10265SOL    HW231695   4.605   1.952   3.477
10266SOL     OW31696   3.773   3.636   6.909
10266SOL    HW131697   3.854   3.648   6.966
10266SOL    HW231698   3.697   3.687   6.949
10267SOL     OW31699   6.215   0.985   6.157
10267SOL    HW131700   6.276   1.062   6.136
10267SOL    HW231701   6.271   0.904   6.177
10268SOL     OW31702   6.835   3.706   0.972
10268SOL    HW131703   6.827   3.679   1.068
10268SOL    HW231704   6.753   3.757   0.944
10269SOL     OW31705   4.339   1.939   6.146
10269SOL    HW131706   4.307   1.844   6.142
10269SOL    HW231707   4.350   1.967   6.241
10270SOL     OW31708   2.981   6.048   2.309
10270SOL    HW131709   3.031   5.980   2.257
10270SOL    HW231710   2.983   6.024   2.406
10271SOL     OW31711   2.114   4.957   1.494
10271SOL    HW131712   2.205   4.996   1.482
10271SOL    HW231713   2.052   5.027   1.530
10272SOL     OW31714   1.609   2.070   4.036
10272SOL    HW131715   1.683   2.003   4.029
10272SOL    HW231716   1.616   2.118   4.124
10273SOL     OW31717   4.421   6.358   4.101
10273SOL    HW131718   4.446   6.452   4.125
10273SOL    HW231719   4.321   6.349   4.106
10274SOL     OW31720   2.800   4.807   6.513
10274SOL    HW131721   2.811   4.887   6.453
10274SOL    HW231722   2.828   4.725   6.465
10275SOL     OW31723   0.632   6.369   1.434
10275SOL    HW131724   0.731   6.377   1.446
10275SOL    HW231725   0.592   6.333   1.518
10276SOL     OW31726   0.712   6.835   0.574
10276SOL    HW131727   0.686   6.799   0.663
10276SOL    HW231728   0.802   6.799   0.549
10277SOL     OW31729   0.123   6.169   2.061
10277SOL    HW131730   0.140   6.139   1.967
10277SOL    HW231731   0.105   6.267   2.062
10278SOL     OW31732   6.693   0.966   5.654
10278SOL    HW131733   6.751   0.998   5.729
10278SOL    HW231734   6.656   0.876   5.678
10279SOL     OW31735   3.550   6.181   4.898
10279SOL    HW131736   3.496   6.133   4.829
10279SOL    HW231737   3.500   6.186   4.984
10280SOL     OW31738   2.992   2.839   0.333
10280SOL    HW131739   3.005   2.889   0.248
10280SOL    HW231740   3.050   2.878   0.404
10281SOL     OW31741   5.091   0.600   4.342
10281SOL    HW131742   4.995   0.626   4.332
10281SOL    HW231743   5.121   0.556   4.258
10282SOL     OW31744   1.118   2.697   4.029
10282SOL    HW131745   1.185   2.744   4.086
10282SOL    HW231746   1.165   2.633   3.968
10283SOL     OW31747   1.753   4.269   5.807
10283SOL    HW131748   1.665   4.235   5.774
10283SOL    HW231749   1.819   4.266   5.732
10284SOL     OW31750   5.006   3.368   0.034
10284SOL    HW131751   5.101   3.366   0.002
10284SOL    HW231752   4.988   3.457   0.077
10285SOL     OW31753   4.967   1.756   1.188
10285SOL    HW131754   5.028   1.725   1.116
10285SOL    HW231755   4.892   1.691   1.201
10286SOL     OW31756   4.315   0.510   4.482
10286SOL    HW131757   4.388   0.448   4.452
10286SOL    HW231758   4.242   0.458   4.525
10287SOL     OW31759   1.632   4.694   1.855
10287SOL    HW131760   1.698   4.751   1.806
10287SOL    HW231761   1.611   4.735   1.944
10288SOL     OW31762   3.939   6.465   4.606
10288SOL    HW131763   3.923   6.556   4.646
10288SOL    HW231764   4.009   6.418   4.659
10289SOL     OW31765   3.048   1.539   1.752
10289SOL    HW131766   3.113   1.610   1.778
10289SOL    HW231767   3.059   1.516   1.656
10290SOL     OW31768   3.242   3.042   3.223
10290SOL    HW131769   3.306   3.115   3.249
10290SOL    HW231770   3.291   2.971   3.173
10291SOL     OW31771   3.901   0.307   4.875
10291SOL    HW131772   3.926   0.308   4.972
10291SOL    HW231773   3.840   0.229   4.857
10292SOL     OW31774   0.009   2.223   4.140
10292SOL    HW131775   7.017   2.140   4.192
10292SOL    HW231776   6.974   2.296   4.175
10293SOL     OW31777   3.177   4.967   2.630
10293SOL    HW131778   3.228   4.940   2.712
10293SOL    HW231779   3.128   5.052   2.647
10294SOL     OW31780   6.426   1.076   3.403
10294SOL    HW131781   6.517   1.036   3.412
10294SOL    HW231782   6.432   1.160   3.349
10295SOL     OW31783   1.739   4.039   4.153
10295SOL    HW131784   1.714   4.102   4.226
10295SOL    HW231785   1.785   4.089   4.079
10296SOL     OW31786   6.492   3.099   1.780
10296SOL    HW131787   6.462   3.072   1.872
10296SOL    HW231788   6.458   3.190   1.760
10297SOL     OW31789   3.106   4.997   5.290
10297SOL    HW131790   3.029   5.040   5.245
10297SOL    HW231791   3.087   4.899   5.302
10298SOL     OW31792   6.016   3.011   2.972
10298SOL    HW131793   5.930   3.036   3.017
10298SOL    HW231794   6.003   2.926   2.921
10299SOL     OW31795   4.691   4.319   2.439
10299SOL    HW131796   4.691   4.289   2.344
10299SOL    HW231797   4.768   4.380   2.455
10300SOL     OW31798   0.625   6.124   1.986
10300SOL    HW131799   0.551   6.069   1.947
10300SOL    HW231800   0.586   6.201   2.037
10301SOL     OW31801   4.764   0.497   1.689
10301SOL    HW131802   4.794   0.566   1.755
10301SOL    HW231803   4.787   0.406   1.723
10302SOL     OW31804   1.910   3.933   3.517
10302SOL    HW131805   1.900   3.896   3.425
10302SOL    HW231806   1.964   4.017   3.513
10303SOL     OW31807   4.416   2.955   1.506
10303SOL    HW131808   4.437   2.871   1.556
10303SOL    HW231809   4.347   3.008   1.555
10304SOL     OW31810   5.651   6.193   3.627
10304SOL    HW131811   5.615   6.233   3.543
10304SOL    HW231812   5.742   6.156   3.610
10305SOL     OW31813   1.682   5.249   1.166
10305SOL    HW131814   1.747   5.188   1.211
10305SOL    HW231815   1.603   5.264   1.225
10306SOL     OW31816   4.248   4.273   0.576
10306SOL    HW131817   4.331   4.252   0.628
10306SOL    HW231818   4.201   4.188   0.553
10307SOL     OW31819   2.573   1.878   5.567
10307SOL    HW131820   2.607   1.784   5.575
10307SOL    HW231821   2.639   1.941   5.610
10308SOL     OW31822   2.546   5.095   3.798
10308SOL    HW131823   2.624   5.032   3.804
10308SOL    HW231824   2.512   5.095   3.704
10309SOL     OW31825   0.489   6.397   3.712
10309SOL    HW131826   0.581   6.379   3.677
10309SOL    HW231827   0.471   6.495   3.711
10310SOL     OW31828   2.907   3.433   4.248
10310SOL    HW131829   2.920   3.440   4.347
10310SOL    HW231830   2.991   3.459   4.201
10311SOL     OW31831   0.900   1.030   1.032
10311SOL    HW131832   0.918   0.949   1.088
10311SOL    HW231833   0.807   1.061   1.047
10312SOL     OW31834   2.419   4.802   0.838
10312SOL    HW131835   2.435   4.705   0.818
10312SOL    HW231836   2.329   4.828   0.803
10313SOL     OW31837   0.004   5.641   4.173
10313SOL    HW131838   0.023   5.628   4.075
10313SOL    HW231839   6.930   5.628   4.189
10314SOL     OW31840   0.001   6.183   5.050
10314SOL    HW131841   6.997   6.088   5.060
10314SOL    HW231842   7.011   6.212   4.956
10315SOL     OW31843   4.306   6.637   5.842
10315SOL    HW131844   4.355   6.632   5.929
10315SOL    HW231845   4.357   6.585   5.773
10316SOL     OW31846   0.407   4.228   2.922
10316SOL    HW131847   0.375   4.278   3.003
10316SOL    HW231848   0.361   4.140   2.917
10317SOL     OW31849   4.920   4.160   6.834
10317SOL    HW131850   4.981   4.239   6.843
10317SOL    HW231851   4.970   4.077   6.859
10318SOL     OW31852   5.650   4.951   2.649
10318SOL    HW131853   5.577   4.992   2.595
10318SOL    HW231854   5.695   4.879   2.595
10319SOL     OW31855   5.011   6.674   3.786
10319SOL    HW131856   4.955   6.706   3.709
10319SOL    HW231857   4.953   6.667   3.868
10320SOL     OW31858   4.492   6.513   2.201
10320SOL    HW131859   4.452   6.537   2.112
10320SOL    HW231860   4.501   6.595   2.257
10321SOL     OW31861   4.572   6.524   4.437
10321SOL    HW131862   4.625   6.495   4.517
10321SOL    HW231863   4.476   6.498   4.449
10322SOL     OW31864   0.436   2.030   0.005
10322SOL    HW131865   0.456   1.934   7.009
10322SOL    HW231866   0.339   2.047   7.012
10323SOL     OW31867   0.767   2.344   5.351
10323SOL    HW131868   0.775   2.265   5.291
10323SOL    HW231869   0.733   2.314   5.440
10324SOL     OW31870   3.658   2.895   3.918
10324SOL    HW131871   3.575   2.915   3.970
10324SOL    HW231872   3.647   2.926   3.824
10325SOL     OW31873   6.557   3.705   3.423
10325SOL    HW131874   6.616   3.630   3.391
10325SOL    HW231875   6.596   3.792   3.395
10326SOL     OW31876   6.027   2.055   1.439
10326SOL    HW131877   5.962   2.069   1.364
10326SOL    HW231878   6.120   2.063   1.404
10327SOL     OW31879   6.282   1.392   3.360
10327SOL    HW131880   6.312   1.389   3.265
10327SOL    HW231881   6.188   1.360   3.366
10328SOL     OW31882   6.305   3.715   2.352
10328SOL    HW131883   6.330   3.787   2.287
10328SOL    HW231884   6.248   3.755   2.425
10329SOL     OW31885   3.686   5.752   3.093
10329SOL    HW131886   3.765   5.765   3.034
10329SOL    HW231887   3.628   5.680   3.055
10330SOL     OW31888   3.286   4.014   1.145
10330SOL    HW131889   3.368   4.029   1.090
10330SOL    HW231890   3.212   3.981   1.086
10331SOL     OW31891   5.531   1.329   3.953
10331SOL    HW131892   5.532   1.249   4.013
10331SOL    HW231893   5.472   1.399   3.991
10332SOL     OW31894   1.182   1.945   6.106
10332SOL    HW131895   1.201   1.848   6.090
10332SOL    HW231896   1.246   1.981   6.174
10333SOL     OW31897   6.864   4.432   5.113
10333SOL    HW131898   6.928   4.355   5.111
10333SOL    HW231899   6.898   4.506   5.055
10334SOL     OW31900   0.627   5.321   5.259
10334SOL    HW131901   0.571   5.241   5.235
10334SOL    HW231902   0.595   5.400   5.207
10335SOL     OW31903   3.399   5.221   2.854
10335SOL    HW131904   3.475   5.286   2.864
10335SOL    HW231905   3.382   5.204   2.757
10336SOL     OW31906   4.980   6.773   3.122
10336SOL    HW131907   4.973   6.838   3.046
10336SOL    HW231908   5.004   6.822   3.205
10337SOL     OW31909   0.670   4.140   6.268
10337SOL    HW131910   0.672   4.046   6.234
10337SOL    HW231911   0.603   4.147   6.342
10338SOL     OW31912   2.902   4.757   2.253
10338SOL    HW131913   2.893   4.696   2.175
10338SOL    HW231914   2.869   4.848   2.228
10339SOL     OW31915   2.687   5.673   0.310
10339SOL    HW131916   2.594   5.659   0.344
10339SOL    HW231917   2.736   5.586   0.308
10340SOL     OW31918   1.573   6.573   0.792
10340SOL    HW131919   1.666   6.536   0.797
10340SOL    HW231920   1.574   6.659   0.741
10341SOL     OW31921   0.829   2.480   1.804
10341SOL    HW131922   0.732   2.467   1.825
10341SOL    HW231923   0.878   2.395   1.820
10342SOL     OW31924   3.171   5.787   4.495
10342SOL    HW131925   3.179   5.689   4.474
10342SOL    HW231926   3.130   5.798   4.586
10343SOL     OW31927   2.435   2.636   4.528
10343SOL    HW131928   2.485   2.575   4.589
10343SOL    HW231929   2.424   2.593   4.438
10344SOL     OW31930   4.605   3.652   1.667
10344SOL    HW131931   4.533   3.721   1.664
10344SOL    HW231932   4.695   3.697   1.666
10345SOL     OW31933   3.455   2.096   6.460
10345SOL    HW131934   3.465   2.003   6.425
10345SOL    HW231935   3.453   2.095   6.560
10346SOL     OW31936   6.381   5.155   0.389
10346SOL    HW131937   6.359   5.185   0.296
10346SOL    HW231938   6.310   5.187   0.451
10347SOL     OW31939   4.504   0.191   1.593
10347SOL    HW131940   4.559   0.217   1.672
10347SOL    HW231941   4.429   0.132   1.623
10348SOL     OW31942   6.639   4.907   5.446
10348SOL    HW131943   6.615   4.996   5.407
10348SOL    HW231944   6.568   4.840   5.423
10349SOL     OW31945   6.404   2.078   7.018
10349SOL    HW131946   6.342   2.050   6.945
10349SOL    HW231947   6.392   2.175   0.013
10350SOL     OW31948   1.682   4.970   4.530
10350SOL    HW131949   1.760   4.911   4.511
10350SOL    HW231950   1.648   5.009   4.444
10351SOL     OW31951   3.746   4.895   5.093
10351SOL    HW131952   3.688   4.949   5.033
10351SOL    HW231953   3.840   4.896   5.059
10352SOL     OW31954   0.005   1.232   1.297
10352SOL    HW131955   0.095   1.193   1.319
10352SOL    HW231956   0.010   1.276   1.208
10353SOL     OW31957   5.872   2.680   3.859
10353SOL    HW131958   5.914   2.590   3.870
10353SOL    HW231959   5.938   2.744   3.821
10354SOL     OW31960   6.791   2.924   1.244
10354SOL    HW131961   6.704   2.914   1.293
10354SOL    HW231962   6.773   2.927   1.146
10355SOL     OW31963   0.770   1.944   0.874
10355SOL    HW131964   0.696   1.986   0.822
10355SOL    HW231965   0.817   2.014   0.929
10356SOL     OW31966   5.715   2.716   6.968
10356SOL    HW131967   5.681   2.626   6.997
10356SOL    HW231968   5.815   2.715   6.964
10357SOL     OW31969   0.755   0.399   6.261
10357SOL    HW131970   0.729   0.453   6.180
10357SOL    HW231971   0.837   0.345   6.240
10358SOL     OW31972   0.771   2.574   3.225
10358SOL    HW131973   0.730   2.663   3.241
10358SOL    HW231974   0.853   2.585   3.168
10359SOL     OW31975   0.815   2.389   2.449
10359SOL    HW131976   0.740   2.333   2.414
10359SOL    HW231977   0.900   2.337   2.447
10360SOL     OW31978   6.114   4.170   1.125
10360SOL    HW131979   6.185   4.220   1.174
10360SOL    HW231980   6.024   4.201   1.155
10361SOL     OW31981   6.313   1.300   2.412
10361SOL    HW131982   6.353   1.376   2.462
10361SOL    HW231983   6.332   1.311   2.314
10362SOL     OW31984   0.746   6.064   1.343
10362SOL    HW131985   0.841   6.080   1.368
10362SOL    HW231986   0.686   6.091   1.418
10363SOL     OW31987   5.288   4.550   6.590
10363SOL    HW131988   5.190   4.564   6.574
10363SOL    HW231989   5.303   4.460   6.628
10364SOL     OW31990   5.910   5.317   2.140
10364SOL    HW131991   5.978   5.388   2.158
10364SOL    HW231992   5.873   5.329   2.048
10365SOL     OW31993   6.088   5.579   6.911
10365SOL    HW131994   6.084   5.679   6.913
10365SOL    HW231995   6.162   5.547   6.970
10366SOL     OW31996   3.082   0.114   3.931
10366SOL    HW131997   2.994   0.152   3.902
10366SOL    HW231998   3.067   0.028   3.980
10367SOL     OW31999   5.380   6.825   2.019
10367SOL    HW132000   5.339   6.767   1.949
10367SOL    HW232001   5.330   6.813   2.105
10368SOL     OW32002   0.780   6.243   1.776
10368SOL    HW132003   0.748   6.209   1.688
10368SOL    HW232004   0.763   6.174   1.847
10369SOL     OW32005   2.419   0.521   5.752
10369SOL    HW132006   2.340   0.573   5.785
10369SOL    HW232007   2.487   0.584   5.714
10370SOL     OW32008   2.234   2.142   5.751
10370SOL    HW132009   2.184   2.152   5.837
10370SOL    HW232010   2.256   2.046   5.736
10371SOL     OW32011   4.405   5.970   3.116
10371SOL    HW132012   4.445   6.058   3.141
10371SOL    HW232013   4.466   5.896   3.143
10372SOL     OW32014   1.986   6.295   0.718
10372SOL    HW132015   2.055   6.299   0.645
10372SOL    HW232016   1.973   6.200   0.747
10373SOL     OW32017   6.418   0.527   0.023
10373SOL    HW132018   6.410   0.622   7.015
10373SOL    HW232019   6.515   0.504   0.036
10374SOL     OW32020   2.903   4.790   2.971
10374SOL    HW132021   2.830   4.830   2.916
10374SOL    HW232022   2.870   4.706   3.014
10375SOL     OW32023   2.548   5.579   7.020
10375SOL    HW132024   2.498   5.498   0.025
10375SOL    HW232025   2.538   5.651   0.065
10376SOL     OW32026   2.345   4.840   3.600
10376SOL    HW132027   2.314   4.801   3.687
10376SOL    HW232028   2.279   4.819   3.528
10377SOL     OW32029   2.515   0.683   3.090
10377SOL    HW132030   2.491   0.647   3.180
10377SOL    HW232031   2.572   0.764   3.100
10378SOL     OW32032   0.541   6.438   5.426
10378SOL    HW132033   0.515   6.464   5.333
10378SOL    HW232034   0.639   6.452   5.438
10379SOL     OW32035   1.801   6.453   3.584
10379SOL    HW132036   1.783   6.523   3.653
10379SOL    HW232037   1.858   6.491   3.512
10380SOL     OW32038   3.622   1.010   3.992
10380SOL    HW132039   3.556   0.935   3.988
10380SOL    HW232040   3.603   1.067   4.073
10381SOL     OW32041   4.086   0.062   2.766
10381SOL    HW132042   4.144   0.091   2.690
10381SOL    HW232043   4.057   0.142   2.818
10382SOL     OW32044   4.033   5.717   1.831
10382SOL    HW132045   3.984   5.712   1.744
10382SOL    HW232046   4.076   5.629   1.851
10383SOL     OW32047   0.396   5.865   6.913
10383SOL    HW132048   0.367   5.771   6.892
10383SOL    HW232049   0.329   5.929   6.876
10384SOL     OW32050   4.902   5.438   1.482
10384SOL    HW132051   4.815   5.404   1.445
10384SOL    HW232052   4.887   5.471   1.575
10385SOL     OW32053   4.056   4.486   0.107
10385SOL    HW132054   4.137   4.514   0.158
10385SOL    HW232055   3.983   4.462   0.171
10386SOL     OW32056   0.173   0.659   1.747
10386SOL    HW132057   0.115   0.622   1.820
10386SOL    HW232058   0.267   0.667   1.779
10387SOL     OW32059   5.156   2.999   2.167
10387SOL    HW132060   5.146   2.906   2.203
10387SOL    HW232061   5.210   2.997   2.083
10388SOL     OW32062   1.846   0.381   4.708
10388SOL    HW132063   1.824   0.397   4.804
10388SOL    HW232064   1.908   0.453   4.675
10389SOL     OW32065   0.549   3.801   0.030
10389SOL    HW132066   0.548   3.784   0.129
10389SOL    HW232067   0.634   3.846   0.005
10390SOL     OW32068   2.120   1.961   1.794
10390SOL    HW132069   2.057   1.952   1.871
10390SOL    HW232070   2.072   1.999   1.716
10391SOL     OW32071   6.546   0.090   3.538
10391SOL    HW132072   6.530   0.010   3.597
10391SOL    HW232073   6.644   0.107   3.531
10392SOL     OW32074   6.525   4.172   4.029
10392SOL    HW132075   6.622   4.194   4.036
10392SOL    HW232076   6.472   4.237   4.084
10393SOL     OW32077   2.028   2.441   2.413
10393SOL    HW132078   1.934   2.467   2.436
10393SOL    HW232079   2.052   2.478   2.324
10394SOL     OW32080   3.254   6.297   4.007
10394SOL    HW132081   3.166   6.271   3.967
10394SOL    HW232082   3.267   6.247   4.093
10395SOL     OW32083   1.104   0.753   1.014
10395SOL    HW132084   1.164   0.800   0.950
10395SOL    HW232085   1.105   0.800   1.102
10396SOL     OW32086   3.322   2.082   5.162
10396SOL    HW132087   3.269   2.160   5.128
10396SOL    HW232088   3.340   2.094   5.260
10397SOL     OW32089   5.084   1.558   3.930
10397SOL    HW132090   5.073   1.590   3.836
10397SOL    HW232091   5.151   1.484   3.932
10398SOL     OW32092   5.850   2.170   2.103
10398SOL    HW132093   5.771   2.118   2.134
10398SOL    HW232094   5.821   2.262   2.075
10399SOL     OW32095   0.767   3.779   2.237
10399SOL    HW132096   0.827   3.852   2.204
10399SOL    HW232097   0.688   3.819   2.283
10400SOL     OW32098   2.041   6.351   1.014
10400SOL    HW132099   1.990   6.400   1.084
10400SOL    HW232100   1.985   6.341   0.932
10401SOL     OW32101   0.395   0.520   5.696
10401SOL    HW132102   0.373   0.422   5.699
10401SOL    HW232103   0.343   0.563   5.622
10402SOL     OW32104   6.740   4.141   5.252
10402SOL    HW132105   6.716   4.234   5.225
10402SOL    HW232106   6.706   4.077   5.184
10403SOL     OW32107   3.212   0.090   1.059
10403SOL    HW132108   3.134   0.060   1.115
10403SOL    HW232109   3.201   0.186   1.037
10404SOL     OW32110   6.939   6.517   5.923
10404SOL    HW132111   6.905   6.461   5.998
10404SOL    HW232112   6.930   6.614   5.946
10405SOL     OW32113   0.431   2.577   6.529
10405SOL    HW132114   0.508   2.619   6.577
10405SOL    HW232115   0.347   2.626   6.553
10406SOL     OW32116   1.594   5.276   1.427
10406SOL    HW132117   1.555   5.189   1.456
10406SOL    HW232118   1.541   5.351   1.468
10407SOL     OW32119   2.191   5.793   5.733
10407SOL    HW132120   2.170   5.809   5.637
10407SOL    HW232121   2.173   5.876   5.786
10408SOL     OW32122   4.675   1.030   0.081
10408SOL    HW132123   4.769   1.001   0.064
10408SOL    HW232124   4.642   1.082   0.002
10409SOL     OW32125   6.121   3.772   0.865
10409SOL    HW132126   6.080   3.690   0.903
10409SOL    HW232127   6.142   3.837   0.939
10410SOL     OW32128   4.169   0.132   0.236
10410SOL    HW132129   4.147   0.221   0.278
10410SOL    HW232130   4.088   0.074   0.238
10411SOL     OW32131   1.846   4.775   4.415
10411SOL    HW132132   1.901   4.697   4.386
10411SOL    HW232133   1.749   4.752   4.406
10412SOL     OW32134   5.030   6.872   0.615
10412SOL    HW132135   5.060   6.960   0.651
10412SOL    HW232136   5.092   6.843   0.543
10413SOL     OW32137   6.211   3.285   2.409
10413SOL    HW132138   6.222   3.255   2.315
10413SOL    HW232139   6.283   3.245   2.466
10414SOL     OW32140   4.716   2.749   4.214
10414SOL    HW132141   4.754   2.838   4.191
10414SOL    HW232142   4.774   2.703   4.281
10415SOL     OW32143   0.505   0.822   6.296
10415SOL    HW132144   0.485   0.908   6.250
10415SOL    HW232145   0.444   0.751   6.261
10416SOL     OW32146   5.628   2.729   3.962
10416SOL    HW132147   5.548   2.693   3.913
10416SOL    HW232148   5.710   2.711   3.908
10417SOL     OW32149   1.966   4.031   3.068
10417SOL    HW132150   1.965   4.034   2.968
10417SOL    HW232151   1.932   4.118   3.104
10418SOL     OW32152   1.804   5.877   5.684
10418SOL    HW132153   1.808   5.948   5.754
10418SOL    HW232154   1.710   5.868   5.651
10419SOL     OW32155   1.075   1.334   0.214
10419SOL    HW132156   1.015   1.390   0.271
10419SOL    HW232157   1.094   1.383   0.129
10420SOL     OW32158   0.385   2.976   2.921
10420SOL    HW132159   0.294   2.964   2.960
10420SOL    HW232160   0.397   3.072   2.894
10421SOL     OW32161   0.393   1.375   3.160
10421SOL    HW132162   0.424   1.350   3.252
10421SOL    HW232163   0.319   1.314   3.133
10422SOL     OW32164   5.537   3.603   5.681
10422SOL    HW132165   5.613   3.656   5.720
10422SOL    HW232166   5.455   3.616   5.738
10423SOL     OW32167   4.955   3.962   2.984
10423SOL    HW132168   4.970   3.863   2.986
10423SOL    HW232169   4.859   3.981   3.000
10424SOL     OW32170   5.348   1.226   6.354
10424SOL    HW132171   5.264   1.196   6.309
10424SOL    HW232172   5.331   1.315   6.398
10425SOL     OW32173   1.776   6.543   1.645
10425SOL    HW132174   1.711   6.467   1.640
10425SOL    HW232175   1.855   6.515   1.700
10426SOL     OW32176   6.179   4.123   0.366
10426SOL    HW132177   6.266   4.150   0.407
10426SOL    HW232178   6.117   4.091   0.437
10427SOL     OW32179   4.733   0.738   1.076
10427SOL    HW132180   4.750   0.680   1.155
10427SOL    HW232181   4.647   0.713   1.033
10428SOL     OW32182   4.314   0.862   3.613
10428SOL    HW132183   4.307   0.885   3.710
10428SOL    HW232184   4.405   0.888   3.580
10429SOL     OW32185   5.789   5.931   2.001
10429SOL    HW132186   5.741   5.905   1.917
10429SOL    HW232187   5.882   5.893   1.999
10430SOL     OW32188   4.403   6.525   3.476
10430SOL    HW132189   4.436   6.491   3.388
10430SOL    HW232190   4.346   6.605   3.461
10431SOL     OW32191   1.965   1.198   5.136
10431SOL    HW132192   1.965   1.284   5.187
10431SOL    HW232193   1.962   1.217   5.038
10432SOL     OW32194   5.197   1.543   4.848
10432SOL    HW132195   5.292   1.549   4.817
10432SOL    HW232196   5.191   1.575   4.942
10433SOL     OW32197   3.031   7.008   1.233
10433SOL    HW132198   2.936   6.981   1.218
10433SOL    HW232199   3.079   6.936   1.284
10434SOL     OW32200   2.548   2.309   4.553
10434SOL    HW132201   2.549   2.370   4.632
10434SOL    HW232202   2.528   2.216   4.583
10435SOL     OW32203   5.783   5.475   6.687
10435SOL    HW132204   5.763   5.477   6.589
10435SOL    HW232205   5.716   5.416   6.733
10436SOL     OW32206   1.052   0.232   1.842
10436SOL    HW132207   1.123   0.189   1.787
10436SOL    HW232208   0.980   0.165   1.862
10437SOL     OW32209   6.838   4.735   5.923
10437SOL    HW132210   6.885   4.652   5.894
10437SOL    HW232211   6.805   4.784   5.842
10438SOL     OW32212   3.696   0.367   6.085
10438SOL    HW132213   3.630   0.414   6.026
10438SOL    HW232214   3.787   0.373   6.045
10439SOL     OW32215   3.984   1.097   5.450
10439SOL    HW132216   3.997   1.095   5.549
10439SOL    HW232217   4.030   1.019   5.409
10440SOL     OW32218   1.820   6.060   0.746
10440SOL    HW132219   1.734   6.010   0.733
10440SOL    HW232220   1.858   6.039   0.836
10441SOL     OW32221   3.920   0.412   0.117
10441SOL    HW132222   3.868   0.489   0.154
10441SOL    HW232223   4.001   0.397   0.174
10442SOL     OW32224   4.821   6.323   5.125
10442SOL    HW132225   4.756   6.313   5.049
10442SOL    HW232226   4.851   6.233   5.156
10443SOL     OW32227   6.153   3.053   4.776
10443SOL    HW132228   6.101   3.081   4.856
10443SOL    HW232229   6.166   3.132   4.716
10444SOL     OW32230   3.613   4.879   4.361
10444SOL    HW132231   3.697   4.858   4.410
10444SOL    HW232232   3.541   4.900   4.427
10445SOL     OW32233   6.138   5.910   3.233
10445SOL    HW132234   6.150   5.979   3.162
10445SOL    HW232235   6.215   5.846   3.231
10446SOL     OW32236   0.847   6.188   6.696
10446SOL    HW132237   0.759   6.226   6.725
10446SOL    HW232238   0.882   6.241   6.618
10447SOL     OW32239   6.201   2.018   0.670
10447SOL    HW132240   6.118   1.995   0.619
10447SOL    HW232241   6.179   2.027   0.767
10448SOL     OW32242   3.423   3.979   2.332
10448SOL    HW132243   3.465   3.889   2.322
10448SOL    HW232244   3.477   4.035   2.395
10449SOL     OW32245   1.765   5.565   4.396
10449SOL    HW132246   1.804   5.635   4.337
10449SOL    HW232247   1.769   5.476   4.350
10450SOL     OW32248   6.956   2.814   0.875
10450SOL    HW132249   6.926   2.897   0.828
10450SOL    HW232250   0.023   2.787   0.843
10451SOL     OW32251   2.230   4.453   2.682
10451SOL    HW132252   2.329   4.459   2.692
10451SOL    HW232253   2.193   4.390   2.751
10452SOL     OW32254   1.287   3.194   4.927
10452SOL    HW132255   1.197   3.235   4.944
10452SOL    HW232256   1.354   3.235   4.989
10453SOL     OW32257   5.450   0.800   1.559
10453SOL    HW132258   5.388   0.813   1.636
10453SOL    HW232259   5.479   0.704   1.554
10454SOL     OW32260   4.894   3.843   2.200
10454SOL    HW132261   4.882   3.910   2.128
10454SOL    HW232262   4.860   3.880   2.287
10455SOL     OW32263   0.179   4.643   2.679
10455SOL    HW132264   0.200   4.668   2.774
10455SOL    HW232265   0.127   4.716   2.636
10456SOL     OW32266   3.818   6.188   1.857
10456SOL    HW132267   3.763   6.109   1.885
10456SOL    HW232268   3.914   6.162   1.852
10457SOL     OW32269   3.560   3.317   4.166
10457SOL    HW132270   3.623   3.361   4.102
10457SOL    HW232271   3.609   3.246   4.218
10458SOL     OW32272   6.498   6.336   1.836
10458SOL    HW132273   6.452   6.354   1.923
10458SOL    HW232274   6.484   6.241   1.810
10459SOL     OW32275   6.755   5.084   2.156
10459SOL    HW132276   6.665   5.105   2.117
10459SOL    HW232277   6.747   5.075   2.255
10460SOL     OW32278   1.768   4.471   1.756
10460SOL    HW132279   1.735   4.561   1.785
10460SOL    HW232280   1.862   4.480   1.721
10461SOL     OW32281   3.027   1.311   6.600
10461SOL    HW132282   3.012   1.390   6.660
10461SOL    HW232283   2.945   1.254   6.600
10462SOL     OW32284   5.110   6.780   0.881
10462SOL    HW132285   5.112   6.768   0.782
10462SOL    HW232286   5.203   6.786   0.917
10463SOL     OW32287   3.279   3.393   1.652
10463SOL    HW132288   3.263   3.485   1.616
10463SOL    HW232289   3.363   3.356   1.612
10464SOL     OW32290   5.400   6.529   1.377
10464SOL    HW132291   5.347   6.613   1.391
10464SOL    HW232292   5.482   6.550   1.324
10465SOL     OW32293   6.990   5.102   4.853
10465SOL    HW132294   6.947   5.187   4.824
10465SOL    HW232295   0.060   5.099   4.817
10466SOL     OW32296   5.049   6.000   6.278
10466SOL    HW132297   5.053   5.944   6.360
10466SOL    HW232298   4.982   5.963   6.215
10467SOL     OW32299   4.269   1.471   3.619
10467SOL    HW132300   4.185   1.425   3.650
10467SOL    HW232301   4.345   1.443   3.678
10468SOL     OW32302   3.400   5.421   3.232
10468SOL    HW132303   3.333   5.403   3.160
10468SOL    HW232304   3.371   5.499   3.286
10469SOL     OW32305   1.460   5.548   6.906
10469SOL    HW132306   1.487   5.582   6.816
10469SOL    HW232307   1.362   5.563   6.919
10470SOL     OW32308   2.659   1.916   4.577
10470SOL    HW132309   2.590   1.982   4.609
10470SOL    HW232310   2.667   1.922   4.478
10471SOL     OW32311   4.136   4.029   0.549
10471SOL    HW132312   4.174   3.974   0.624
10471SOL    HW232313   4.129   3.974   0.467
10472SOL     OW32314   4.340   1.682   3.429
10472SOL    HW132315   4.342   1.743   3.508
10472SOL    HW232316   4.316   1.590   3.458
10473SOL     OW32317   4.575   5.444   0.010
10473SOL    HW132318   4.516   5.371   6.997
10473SOL    HW232319   4.626   5.486   6.958
10474SOL     OW32320   5.074   1.322   3.476
10474SOL    HW132321   5.156   1.378   3.462
10474SOL    HW232322   4.994   1.381   3.488
10475SOL     OW32323   4.838   6.197   1.707
10475SOL    HW132324   4.836   6.257   1.627
10475SOL    HW232325   4.748   6.195   1.750
10476SOL     OW32326   0.374   4.846   6.899
10476SOL    HW132327   0.394   4.759   6.856
10476SOL    HW232328   0.445   4.913   6.876
10477SOL     OW32329   4.637   4.356   5.091
10477SOL    HW132330   4.661   4.324   5.183
10477SOL    HW232331   4.721   4.371   5.039
10478SOL     OW32332   0.404   6.362   3.132
10478SOL    HW132333   0.370   6.456   3.131
10478SOL    HW232334   0.355   6.309   3.062
10479SOL     OW32335   0.944   4.476   2.219
10479SOL    HW132336   0.979   4.383   2.232
10479SOL    HW232337   0.884   4.477   2.138
10480SOL     OW32338   5.793   0.686   1.609
10480SOL    HW132339   5.886   0.649   1.606
10480SOL    HW232340   5.729   0.620   1.568
10481SOL     OW32341   2.670   1.175   4.516
10481SOL    HW132342   2.744   1.221   4.467
10481SOL    HW232343   2.705   1.093   4.560
10482SOL     OW32344   0.674   5.672   6.572
10482SOL    HW132345   0.738   5.602   6.540
10482SOL    HW232346   0.592   5.672   6.515
10483SOL     OW32347   6.438   5.310   0.949
10483SOL    HW132348   6.530   5.298   0.909
10483SOL    HW232349   6.441   5.288   1.046
10484SOL     OW32350   6.276   2.121   1.594
10484SOL    HW132351   6.214   2.061   1.644
10484SOL    HW232352   6.356   2.140   1.650
10485SOL     OW32353   3.377   4.183   3.877
10485SOL    HW132354   3.472   4.156   3.864
10485SOL    HW232355   3.350   4.168   3.972
10486SOL     OW32356   6.059   5.661   5.506
10486SOL    HW132357   6.120   5.673   5.584
10486SOL    HW232358   6.098   5.706   5.426
10487SOL     OW32359   5.243   3.024   3.072
10487SOL    HW132360   5.336   3.042   3.102
10487SOL    HW232361   5.241   2.941   3.017
10488SOL     OW32362   0.358   2.675   4.828
10488SOL    HW132363   0.319   2.737   4.760
10488SOL    HW232364   0.287   2.613   4.862
10489SOL     OW32365   5.747   4.698   4.094
10489SOL    HW132366   5.764   4.610   4.049
10489SOL    HW232367   5.803   4.769   4.051
10490SOL     OW32368   5.797   6.645   6.785
10490SOL    HW132369   5.886   6.609   6.756
10490SOL    HW232370   5.800   6.667   6.882
10491SOL     OW32371   1.896   3.045   5.923
10491SOL    HW132372   1.976   3.098   5.897
10491SOL    HW232373   1.865   2.991   5.846
10492SOL     OW32374   2.800   6.249   0.587
10492SOL    HW132375   2.716   6.303   0.584
10492SOL    HW232376   2.836   6.249   0.680
10493SOL     OW32377   4.117   5.449   1.038
10493SOL    HW132378   4.116   5.379   1.110
10493SOL    HW232379   4.111   5.539   1.080
10494SOL     OW32380   0.528   4.845   4.023
10494SOL    HW132381   0.600   4.814   3.961
10494SOL    HW232382   0.556   4.826   4.118
10495SOL     OW32383   6.872   0.255   0.361
10495SOL    HW132384   6.960   0.301   0.376
10495SOL    HW232385   6.805   0.288   0.428
10496SOL     OW32386   0.472   4.727   6.413
10496SOL    HW132387   0.390   4.772   6.448
10496SOL    HW232388   0.533   4.706   6.489
10497SOL     OW32389   3.168   7.018   1.509
10497SOL    HW132390   3.082   6.973   1.534
10497SOL    HW232391   3.241   6.986   1.570
10498SOL     OW32392   3.899   3.388   6.829
10498SOL    HW132393   3.856   3.478   6.836
10498SOL    HW232394   3.996   3.399   6.809
10499SOL     OW32395   4.765   4.136   2.684
10499SOL    HW132396   4.739   4.211   2.624
10499SOL    HW232397   4.862   4.115   2.670
10500SOL     OW32398   1.459   3.254   5.107
10500SOL    HW132399   1.484   3.277   5.201
10500SOL    HW232400   1.513   3.175   5.077
10501SOL     OW32401   3.875   4.940   3.259
10501SOL    HW132402   3.798   4.965   3.317
10501SOL    HW232403   3.842   4.891   3.178
10502SOL     OW32404   2.941   3.565   2.543
10502SOL    HW132405   2.893   3.504   2.606
10502SOL    HW232406   2.933   3.531   2.450
10503SOL     OW32407   6.645   1.039   6.862
10503SOL    HW132408   6.716   0.986   6.907
10503SOL    HW232409   6.680   1.077   6.776
10504SOL     OW32410   1.443   4.186   5.749
10504SOL    HW132411   1.376   4.222   5.813
10504SOL    HW232412   1.428   4.089   5.735
10505SOL     OW32413   6.335   6.840   0.703
10505SOL    HW132414   6.324   6.918   0.641
10505SOL    HW232415   6.246   6.798   0.719
10506SOL     OW32416   1.668   4.676   5.780
10506SOL    HW132417   1.673   4.597   5.718
10506SOL    HW232418   1.576   4.679   5.821
10507SOL     OW32419   0.949   6.312   6.072
10507SOL    HW132420   0.934   6.261   5.987
10507SOL    HW232421   0.968   6.408   6.051
10508SOL     OW32422   1.400   6.205   0.559
10508SOL    HW132423   1.353   6.118   0.548
10508SOL    HW232424   1.497   6.194   0.537
10509SOL     OW32425   4.656   2.672   2.735
10509SOL    HW132426   4.659   2.763   2.775
10509SOL    HW232427   4.640   2.604   2.807
10510SOL     OW32428   5.253   5.703   3.335
10510SOL    HW132429   5.194   5.774   3.373
10510SOL    HW232430   5.197   5.623   3.312
10511SOL     OW32431   4.185   1.821   0.954
10511SOL    HW132432   4.261   1.821   1.019
10511SOL    HW232433   4.176   1.730   0.913
10512SOL     OW32434   4.333   1.493   5.870
10512SOL    HW132435   4.399   1.460   5.937
10512SOL    HW232436   4.355   1.587   5.845
10513SOL     OW32437   3.122   3.618   0.937
10513SOL    HW132438   3.120   3.610   1.036
10513SOL    HW232439   3.029   3.616   0.901
10514SOL     OW32440   1.284   5.384   1.575
10514SOL    HW132441   1.230   5.432   1.506
10514SOL    HW232442   1.246   5.293   1.589
10515SOL     OW32443   2.140   3.608   4.867
10515SOL    HW132444   2.079   3.646   4.799
10515SOL    HW232445   2.186   3.527   4.830
10516SOL     OW32446   5.761   1.677   2.027
10516SOL    HW132447   5.666   1.702   2.048
10516SOL    HW232448   5.773   1.669   1.928
10517SOL     OW32449   0.617   2.363   1.996
10517SOL    HW132450   0.575   2.299   2.060
10517SOL    HW232451   0.715   2.370   2.016
10518SOL     OW32452   0.371   6.283   2.116
10518SOL    HW132453   0.311   6.204   2.104
10518SOL    HW232454   0.340   6.337   2.195
10519SOL     OW32455   3.125   6.787   1.353
10519SOL    HW132456   3.219   6.818   1.364
10519SOL    HW232457   3.110   6.704   1.407
10520SOL     OW32458   1.850   2.331   6.310
10520SOL    HW132459   1.870   2.427   6.329
10520SOL    HW232460   1.850   2.316   6.211
10521SOL     OW32461   6.373   2.509   3.105
10521SOL    HW132462   6.276   2.533   3.103
10521SOL    HW232463   6.384   2.419   3.147
10522SOL     OW32464   5.318   1.495   3.643
10522SOL    HW132465   5.220   1.510   3.645
10522SOL    HW232466   5.356   1.511   3.735
10523SOL     OW32467   0.581   4.180   1.666
10523SOL    HW132468   0.669   4.137   1.646
10523SOL    HW232469   0.597   4.263   1.720
10524SOL     OW32470   6.781   5.997   4.770
10524SOL    HW132471   6.728   6.047   4.839
10524SOL    HW232472   6.868   6.044   4.755
10525SOL     OW32473   4.600   1.224   3.947
10525SOL    HW132474   4.514   1.207   3.996
10525SOL    HW232475   4.636   1.137   3.913
10526SOL     OW32476   1.223   5.536   6.233
10526SOL    HW132477   1.164   5.584   6.298
10526SOL    HW232478   1.318   5.562   6.249
10527SOL     OW32479   6.886   6.203   5.385
10527SOL    HW132480   6.823   6.265   5.430
10527SOL    HW232481   6.884   6.114   5.430
10528SOL     OW32482   1.515   4.855   5.039
10528SOL    HW132483   1.562   4.895   4.960
10528SOL    HW232484   1.515   4.921   5.115
10529SOL     OW32485   0.084   4.777   0.974
10529SOL    HW132486   0.010   4.836   0.944
10529SOL    HW232487   0.127   4.735   0.895
10530SOL     OW32488   6.868   0.223   0.795
10530SOL    HW132489   6.839   0.239   0.889
10530SOL    HW232490   6.809   0.275   0.733
10531SOL     OW32491   3.397   2.254   6.103
10531SOL    HW132492   3.396   2.297   6.012
10531SOL    HW232493   3.488   2.218   6.121
10532SOL     OW32494   4.772   5.972   5.726
10532SOL    HW132495   4.744   5.978   5.631
10532SOL    HW232496   4.869   5.946   5.731
10533SOL     OW32497   4.005   6.876   3.502
10533SOL    HW132498   4.094   6.862   3.458
10533SOL    HW232499   3.934   6.830   3.448
10534SOL     OW32500   1.628   6.526   4.011
10534SOL    HW132501   1.550   6.505   4.071
10534SOL    HW232502   1.627   6.463   3.933
10535SOL     OW32503   3.863   2.157   2.809
10535SOL    HW132504   3.843   2.200   2.721
10535SOL    HW232505   3.779   2.114   2.844
10536SOL     OW32506   5.774   3.802   4.873
10536SOL    HW132507   5.725   3.821   4.788
10536SOL    HW232508   5.711   3.811   4.950
10537SOL     OW32509   3.807   1.295   3.766
10537SOL    HW132510   3.763   1.208   3.745
10537SOL    HW232511   3.904   1.280   3.781
10538SOL     OW32512   6.820   2.872   3.317
10538SOL    HW132513   6.874   2.789   3.327
10538SOL    HW232514   6.761   2.863   3.236
10539SOL     OW32515   6.864   6.351   3.275
10539SOL    HW132516   6.765   6.338   3.274
10539SOL    HW232517   6.886   6.441   3.236
10540SOL     OW32518   1.775   4.028   6.978
10540SOL    HW132519   1.794   4.037   6.880
10540SOL    HW232520   1.726   3.942   6.994
10541SOL     OW32521   3.330   2.579   5.692
10541SOL    HW132522   3.397   2.552   5.623
10541SOL    HW232523   3.268   2.647   5.653
10542SOL     OW32524   4.355   6.592   2.705
10542SOL    HW132525   4.329   6.589   2.609
10542SOL    HW232526   4.351   6.687   2.738
10543SOL     OW32527   2.469   2.607   4.054
10543SOL    HW132528   2.451   2.573   4.146
10543SOL    HW232529   2.429   2.699   4.044
10544SOL     OW32530   3.032   1.529   2.493
10544SOL    HW132531   2.956   1.589   2.469
10544SOL    HW232532   3.027   1.445   2.440
10545SOL     OW32533   1.935   3.134   1.926
10545SOL    HW132534   1.963   3.042   1.953
10545SOL    HW232535   1.837   3.146   1.942
10546SOL     OW32536   2.645   0.174   5.991
10546SOL    HW132537   2.691   0.157   6.078
10546SOL    HW232538   2.646   0.091   5.935
10547SOL     OW32539   3.484   6.575   5.982
10547SOL    HW132540   3.551   6.558   6.054
10547SOL    HW232541   3.416   6.641   6.015
10548SOL     OW32542   0.987   6.056   3.027
10548SOL    HW132543   1.078   6.090   3.004
10548SOL    HW232544   0.951   6.108   3.105
10549SOL     OW32545   0.217   0.816   2.791
10549SOL    HW132546   0.259   0.891   2.842
10549SOL    HW232547   0.135   0.849   2.745
10550SOL     OW32548   5.075   5.867   3.432
10550SOL    HW132549   5.029   5.914   3.357
10550SOL    HW232550   5.137   5.931   3.478
10551SOL     OW32551   3.984   0.894   4.888
10551SOL    HW132552   3.990   0.813   4.831
10551SOL    HW232553   3.975   0.867   4.984
10552SOL     OW32554   3.099   6.990   3.511
10552SOL    HW132555   3.145   6.951   3.590
10552SOL    HW232556   3.005   7.016   3.537
10553SOL     OW32557   5.777   5.843   1.405
10553SOL    HW132558   5.737   5.880   1.489
10553SOL    HW232559   5.710   5.783   1.361
10554SOL     OW32560   6.023   6.347   2.071
10554SOL    HW132561   6.031   6.273   2.005
10554SOL    HW232562   5.941   6.401   2.052
10555SOL     OW32563   3.698   3.202   1.511
10555SOL    HW132564   3.604   3.212   1.477
10555SOL    HW232565   3.724   3.285   1.562
10556SOL     OW32566   2.597   1.710   1.860
10556SOL    HW132567   2.623   1.633   1.919
10556SOL    HW232568   2.622   1.689   1.766
10557SOL     OW32569   1.562   4.388   2.716
10557SOL    HW132570   1.595   4.431   2.799
10557SOL    HW232571   1.474   4.429   2.690
10558SOL     OW32572   4.156   4.883   4.397
10558SOL    HW132573   4.130   4.970   4.440
10558SOL    HW232574   4.177   4.899   4.301
10559SOL     OW32575   3.682   5.930   1.879
10559SOL    HW132576   3.763   5.901   1.931
10559SOL    HW232577   3.613   5.964   1.943
10560SOL     OW32578   6.135   6.993   3.619
10560SOL    HW132579   6.150   6.907   3.668
10560SOL    HW232580   6.112   0.042   3.685
10561SOL     OW32581   0.916   5.343   6.215
10561SOL    HW132582   1.003   5.299   6.194
10561SOL    HW232583   0.876   5.381   6.131
10562SOL     OW32584   4.046   5.914   2.348
10562SOL    HW132585   4.039   5.934   2.445
10562SOL    HW232586   4.129   5.862   2.330
10563SOL     OW32587   1.335   6.557   2.120
10563SOL    HW132588   1.388   6.513   2.192
10563SOL    HW232589   1.379   6.642   2.093
10564SOL     OW32590   5.326   4.382   3.309
10564SOL    HW132591   5.230   4.359   3.321
10564SOL    HW232592   5.382   4.300   3.318
10565SOL     OW32593   0.603   1.086   4.907
10565SOL    HW132594   0.566   1.021   4.973
10565SOL    HW232595   0.578   1.058   4.815
10566SOL     OW32596   3.629   2.015   1.033
10566SOL    HW132597   3.647   1.972   1.121
10566SOL    HW232598   3.547   1.974   0.992
10567SOL     OW32599   2.460   2.517   6.205
10567SOL    HW132600   2.502   2.498   6.116
10567SOL    HW232601   2.513   2.474   6.277
10568SOL     OW32602   5.249   2.388   5.830
10568SOL    HW132603   5.287   2.306   5.787
10568SOL    HW232604   5.152   2.396   5.809
10569SOL     OW32605   5.390   0.307   0.844
10569SOL    HW132606   5.356   0.298   0.937
10569SOL    HW232607   5.481   0.265   0.837
10570SOL     OW32608   1.576   3.820   3.277
10570SOL    HW132609   1.529   3.888   3.221
10570SOL    HW232610   1.672   3.845   3.285
10571SOL     OW32611   6.905   4.483   5.818
10571SOL    HW132612   6.843   4.404   5.815
10571SOL    HW232613   6.989   4.457   5.865
10572SOL     OW32614   6.357   4.155   0.714
10572SOL    HW132615   6.297   4.222   0.757
10572SOL    HW232616   6.346   4.066   0.758
10573SOL     OW32617   0.012   2.129   3.431
10573SOL    HW132618   6.981   2.052   3.398
10573SOL    HW232619   7.002   2.214   3.390
10574SOL     OW32620   5.859   2.337   2.385
10574SOL    HW132621   5.895   2.243   2.383
10574SOL    HW232622   5.759   2.334   2.381
10575SOL     OW32623   5.298   6.726   3.049
10575SOL    HW132624   5.209   6.682   3.040
10575SOL    HW232625   5.287   6.818   3.086
10576SOL     OW32626   1.259   3.293   4.612
10576SOL    HW132627   1.277   3.230   4.688
10576SOL    HW232628   1.182   3.352   4.635
10577SOL     OW32629   4.477   4.300   0.363
10577SOL    HW132630   4.486   4.271   0.268
10577SOL    HW232631   4.413   4.240   0.411
10578SOL     OW32632   0.802   3.374   2.655
10578SOL    HW132633   0.725   3.394   2.595
10578SOL    HW232634   0.872   3.324   2.604
10579SOL     OW32635   0.212   3.261   0.089
10579SOL    HW132636   0.273   3.322   0.138
10579SOL    HW232637   0.238   3.166   0.106
10580SOL     OW32638   5.599   6.308   6.999
10580SOL    HW132639   5.675   6.359   0.017
10580SOL    HW232640   5.623   6.212   6.994
10581SOL     OW32641   4.474   0.611   3.667
10581SOL    HW132642   4.412   0.676   3.624
10581SOL    HW232643   4.540   0.660   3.724
10582SOL     OW32644   6.247   3.677   6.851
10582SOL    HW132645   6.152   3.707   6.851
10582SOL    HW232646   6.251   3.578   6.856
10583SOL     OW32647   4.135   2.022   5.896
10583SOL    HW132648   4.145   1.985   5.803
10583SOL    HW232649   4.205   1.982   5.955
10584SOL     OW32650   0.503   0.334   3.514
10584SOL    HW132651   0.578   0.291   3.562
10584SOL    HW232652   0.538   0.399   3.446
10585SOL     OW32653   1.442   1.127   5.429
10585SOL    HW132654   1.476   1.219   5.449
10585SOL    HW232655   1.485   1.093   5.345
10586SOL     OW32656   4.689   4.097   5.570
10586SOL    HW132657   4.630   4.031   5.525
10586SOL    HW232658   4.747   4.051   5.637
10587SOL     OW32659   1.914   4.939   5.139
10587SOL    HW132660   1.860   4.971   5.217
10587SOL    HW232661   1.877   4.979   5.055
10588SOL     OW32662   1.513   4.187   3.759
10588SOL    HW132663   1.533   4.093   3.732
10588SOL    HW232664   1.527   4.197   3.858
10589SOL     OW32665   6.565   6.928   3.766
10589SOL    HW132666   6.542   6.839   3.728
10589SOL    HW232667   6.658   6.952   3.740
10590SOL     OW32668   0.910   5.779   2.691
10590SOL    HW132669   0.955   5.698   2.654
10590SOL    HW232670   0.894   5.766   2.789
10591SOL     OW32671   6.744   3.852   2.522
10591SOL    HW132672   6.672   3.818   2.582
10591SOL    HW232673   6.732   3.950   2.506
10592SOL     OW32674   0.039   2.620   4.604
10592SOL    HW132675   0.125   2.664   4.574
10592SOL    HW232676   6.992   2.690   4.615
10593SOL     OW32677   3.302   5.957   3.646
10593SOL    HW132678   3.367   6.031   3.663
10593SOL    HW232679   3.214   5.980   3.688
10594SOL     OW32680   3.501   5.798   3.928
10594SOL    HW132681   3.471   5.740   3.852
10594SOL    HW232682   3.487   5.749   4.014
10595SOL     OW32683   4.629   6.996   0.904
10595SOL    HW132684   4.727   7.012   0.892
10595SOL    HW232685   4.609   6.977   1.001
10596SOL     OW32686   5.182   3.978   0.611
10596SOL    HW132687   5.238   4.047   0.656
10596SOL    HW232688   5.185   3.893   0.665
10597SOL     OW32689   2.240   0.003   4.987
10597SOL    HW132690   2.205   0.066   5.056
10597SOL    HW232691   2.193   6.938   4.996
10598SOL     OW32692   3.181   0.897   0.348
10598SOL    HW132693   3.097   0.843   0.338
10598SOL    HW232694   3.196   0.952   0.266
10599SOL     OW32695   0.902   2.536   0.508
10599SOL    HW132696   0.820   2.531   0.565
10599SOL    HW232697   0.882   2.501   0.417
10600SOL     OW32698   4.158   0.874   1.801
10600SOL    HW132699   4.244   0.859   1.850
10600SOL    HW232700   4.087   0.815   1.840
10601SOL     OW32701   1.922   1.251   4.867
10601SOL    HW132702   1.947   1.344   4.840
10601SOL    HW232703   1.945   1.187   4.793
10602SOL     OW32704   6.449   6.451   1.420
10602SOL    HW132705   6.489   6.373   1.371
10602SOL    HW232706   6.514   6.485   1.487
10603SOL     OW32707   6.190   0.388   2.977
10603SOL    HW132708   6.268   0.393   3.040
10603SOL    HW232709   6.105   0.391   3.030
10604SOL     OW32710   4.714   1.790   5.150
10604SOL    HW132711   4.738   1.844   5.070
10604SOL    HW232712   4.796   1.749   5.190
10605SOL     OW32713   3.662   1.774   1.543
10605SOL    HW132714   3.710   1.766   1.630
10605SOL    HW232715   3.563   1.774   1.560
10606SOL     OW32716   6.769   1.721   0.132
10606SOL    HW132717   6.713   1.640   0.113
10606SOL    HW232718   6.718   1.784   0.191
10607SOL     OW32719   3.154   4.395   0.916
10607SOL    HW132720   3.182   4.490   0.904
10607SOL    HW232721   3.230   4.334   0.893
10608SOL     OW32722   5.626   3.907   3.458
10608SOL    HW132723   5.640   3.988   3.402
10608SOL    HW232724   5.698   3.840   3.440
10609SOL     OW32725   6.029   0.093   6.398
10609SOL    HW132726   6.059   7.022   6.410
10609SOL    HW232727   6.026   0.139   6.487
10610SOL     OW32728   0.811   1.255   3.107
10610SOL    HW132729   0.819   1.343   3.060
10610SOL    HW232730   0.857   1.260   3.195
10611SOL     OW32731   4.321   4.995   5.138
10611SOL    HW132732   4.279   4.908   5.114
10611SOL    HW232733   4.253   5.068   5.137
10612SOL     OW32734   6.654   2.656   3.154
10612SOL    HW132735   6.582   2.625   3.091
10612SOL    HW232736   6.740   2.666   3.104
10613SOL     OW32737   4.798   5.650   4.520
10613SOL    HW132738   4.852   5.566   4.507
10613SOL    HW232739   4.860   5.728   4.531
10614SOL     OW32740   3.856   2.569   6.708
10614SOL    HW132741   3.827   2.663   6.722
10614SOL    HW232742   3.826   2.513   6.785
10615SOL     OW32743   2.610   2.627   5.315
10615SOL    HW132744   2.560   2.713   5.327
10615SOL    HW232745   2.599   2.571   5.396
10616SOL     OW32746   1.253   5.949   0.208
10616SOL    HW132747   1.237   5.861   0.253
10616SOL    HW232748   1.206   6.021   0.257
10617SOL     OW32749   1.640   2.786   0.876
10617SOL    HW132750   1.638   2.852   0.801
10617SOL    HW232751   1.731   2.786   0.918
10618SOL     OW32752   0.858   5.295   4.016
10618SOL    HW132753   0.867   5.389   4.048
10618SOL    HW232754   0.857   5.233   4.095
10619SOL     OW32755   1.010   2.815   1.354
10619SOL    HW132756   1.052   2.745   1.412
10619SOL    HW232757   1.043   2.803   1.260
10620SOL     OW32758   3.417   1.244   5.854
10620SOL    HW132759   3.483   1.241   5.930
10620SOL    HW232760   3.332   1.286   5.886
10621SOL     OW32761   0.893   4.162   3.468
10621SOL    HW132762   0.899   4.078   3.414
10621SOL    HW232763   0.985   4.198   3.483
10622SOL     OW32764   4.159   2.371   6.362
10622SOL    HW132765   4.122   2.288   6.403
10622SOL    HW232766   4.178   2.356   6.265
10623SOL     OW32767   5.191   5.369   5.858
10623SOL    HW132768   5.110   5.339   5.807
10623SOL    HW232769   5.173   5.457   5.901
10624SOL     OW32770   0.433   1.817   6.536
10624SOL    HW132771   0.460   1.869   6.455
10624SOL    HW232772   0.357   1.756   6.514
10625SOL     OW32773   6.797   5.541   0.922
10625SOL    HW132774   6.773   5.447   0.900
10625SOL    HW232775   6.737   5.604   0.872
10626SOL     OW32776   5.896   2.998   2.146
10626SOL    HW132777   5.964   2.940   2.191
10626SOL    HW232778   5.843   3.047   2.215
10627SOL     OW32779   5.451   4.468   5.448
10627SOL    HW132780   5.480   4.436   5.538
10627SOL    HW232781   5.459   4.393   5.382
10628SOL     OW32782   2.942   6.297   0.816
10628SOL    HW132783   2.963   6.309   0.913
10628SOL    HW232784   2.963   6.382   0.767
10629SOL     OW32785   4.453   4.954   3.955
10629SOL    HW132786   4.438   4.938   4.052
10629SOL    HW232787   4.524   4.891   3.921
10630SOL     OW32788   4.141   1.059   1.350
10630SOL    HW132789   4.085   0.979   1.331
10630SOL    HW232790   4.176   1.054   1.444
10631SOL     OW32791   3.487   5.458   1.833
10631SOL    HW132792   3.486   5.532   1.766
10631SOL    HW232793   3.401   5.407   1.828
10632SOL     OW32794   5.959   6.922   4.086
10632SOL    HW132795   5.906   7.006   4.074
10632SOL    HW232796   6.051   6.945   4.120
10633SOL     OW32797   2.483   3.272   0.310
10633SOL    HW132798   2.516   3.192   0.361
10633SOL    HW232799   2.517   3.268   0.216
10634SOL     OW32800   0.669   4.622   6.566
10634SOL    HW132801   0.753   4.573   6.544
10634SOL    HW232802   0.682   4.672   6.652
10635SOL     OW32803   3.039   5.284   6.453
10635SOL    HW132804   3.070   5.218   6.521
10635SOL    HW232805   3.077   5.260   6.364
10636SOL     OW32806   5.849   2.784   0.562
10636SOL    HW132807   5.880   2.868   0.607
10636SOL    HW232808   5.929   2.729   0.536
10637SOL     OW32809   2.584   0.982   6.419
10637SOL    HW132810   2.563   1.006   6.324
10637SOL    HW232811   2.677   0.946   6.424
10638SOL     OW32812   4.955   5.023   0.655
10638SOL    HW132813   5.030   4.979   0.704
10638SOL    HW232814   4.918   4.959   0.588
10639SOL     OW32815   6.643   4.858   0.870
10639SOL    HW132816   6.556   4.892   0.836
10639SOL    HW232817   6.632   4.826   0.964
10640SOL     OW32818   3.931   6.318   4.364
10640SOL    HW132819   3.925   6.358   4.272
10640SOL    HW232820   3.905   6.386   4.432
10641SOL     OW32821   1.149   1.160   3.282
10641SOL    HW132822   1.118   1.068   3.306
10641SOL    HW232823   1.242   1.155   3.247
10642SOL     OW32824   0.072   2.237   6.125
10642SOL    HW132825   0.088   2.191   6.213
10642SOL    HW232826   7.003   2.272   6.122
10643SOL     OW32827   2.699   4.985   5.866
10643SOL    HW132828   2.612   5.031   5.884
10643SOL    HW232829   2.719   4.989   5.768
10644SOL     OW32830   0.219   3.513   2.969
10644SOL    HW132831   0.136   3.457   2.960
10644SOL    HW232832   0.297   3.462   2.933
10645SOL     OW32833   2.400   2.483   3.011
10645SOL    HW132834   2.322   2.424   2.986
10645SOL    HW232835   2.366   2.571   3.043
10646SOL     OW32836   4.843   0.601   3.879
10646SOL    HW132837   4.922   0.634   3.931
10646SOL    HW232838   4.759   0.627   3.926
10647SOL     OW32839   3.627   5.129   4.979
10647SOL    HW132840   3.601   5.180   4.898
10647SOL    HW232841   3.587   5.173   5.060
10648SOL     OW32842   4.950   4.236   5.376
10648SOL    HW132843   4.958   4.175   5.297
10648SOL    HW232844   4.869   4.293   5.366
10649SOL     OW32845   6.181   3.112   3.210
10649SOL    HW132846   6.127   3.051   3.152
10649SOL    HW232847   6.177   3.205   3.174
10650SOL     OW32848   0.469   6.952   2.526
10650SOL    HW132849   0.451   6.923   2.620
10650SOL    HW232850   0.425   0.016   2.509
10651SOL     OW32851   2.541   5.513   5.876
10651SOL    HW132852   2.512   5.545   5.786
10651SOL    HW232853   2.609   5.440   5.865
10652SOL     OW32854   2.081   0.517   6.826
10652SOL    HW132855   2.154   0.554   6.769
10652SOL    HW232856   2.005   0.488   6.768
10653SOL     OW32857   5.540   6.109   4.778
10653SOL    HW132858   5.506   6.124   4.871
10653SOL    HW232859   5.639   6.094   4.780
10654SOL     OW32860   6.793   1.948   3.712
10654SOL    HW132861   6.743   1.968   3.628
10654SOL    HW232862   6.876   1.897   3.690
10655SOL     OW32863   6.627   4.617   0.692
10655SOL    HW132864   6.612   4.703   0.739
10655SOL    HW232865   6.697   4.629   0.621
10656SOL     OW32866   5.680   1.751   5.349
10656SOL    HW132867   5.643   1.820   5.411
10656SOL    HW232868   5.750   1.698   5.396
10657SOL     OW32869   4.837   7.012   5.285
10657SOL    HW132870   4.820   0.056   5.356
10657SOL    HW232871   4.915   0.018   5.229
10658SOL     OW32872   0.328   1.860   5.342
10658SOL    HW132873   0.362   1.771   5.375
10658SOL    HW232874   0.404   1.924   5.336
10659SOL     OW32875   7.006   5.420   0.569
10659SOL    HW132876   7.014   5.407   0.667
10659SOL    HW232877   6.933   5.363   0.533
10660SOL     OW32878   5.837   3.110   6.731
10660SOL    HW132879   5.738   3.101   6.722
10660SOL    HW232880   5.864   3.206   6.721
10661SOL     OW32881   3.345   4.848   5.191
10661SOL    HW132882   3.301   4.928   5.232
10661SOL    HW232883   3.294   4.819   5.110
10662SOL     OW32884   2.991   1.519   1.086
10662SOL    HW132885   2.938   1.447   1.043
10662SOL    HW232886   2.941   1.554   1.165
10663SOL     OW32887   0.343   2.568   3.281
10663SOL    HW132888   0.279   2.642   3.303
10663SOL    HW232889   0.370   2.521   3.365
10664SOL     OW32890   1.315   6.200   4.645
10664SOL    HW132891   1.401   6.217   4.693
10664SOL    HW232892   1.269   6.121   4.686
10665SOL     OW32893   2.952   3.608   0.628
10665SOL    HW132894   2.941   3.511   0.650
10665SOL    HW232895   3.046   3.625   0.600
10666SOL     OW32896   3.982   3.548   1.092
10666SOL    HW132897   4.059   3.504   1.140
10666SOL    HW232898   3.898   3.497   1.110
10667SOL     OW32899   5.680   2.508   4.401
10667SOL    HW132900   5.671   2.517   4.302
10667SOL    HW232901   5.776   2.508   4.426
10668SOL     OW32902   3.208   2.635   6.092
10668SOL    HW132903   3.210   2.720   6.040
10668SOL    HW232904   3.192   2.655   6.189
10669SOL     OW32905   6.204   2.017   1.215
10669SOL    HW132906   6.164   1.967   1.138
10669SOL    HW232907   6.281   1.965   1.251
10670SOL     OW32908   4.749   4.124   4.136
10670SOL    HW132909   4.731   4.221   4.149
10670SOL    HW232910   4.688   4.070   4.195
10671SOL     OW32911   1.612   3.198   4.784
10671SOL    HW132912   1.608   3.297   4.768
10671SOL    HW232913   1.620   3.151   4.696
10672SOL     OW32914   6.353   3.957   1.736
10672SOL    HW132915   6.313   3.920   1.820
10672SOL    HW232916   6.280   3.986   1.674
10673SOL     OW32917   2.784   1.265   1.025
10673SOL    HW132918   2.833   1.280   0.939
10673SOL    HW232919   2.689   1.293   1.015
10674SOL     OW32920   3.918   3.592   4.268
10674SOL    HW132921   3.823   3.563   4.256
10674SOL    HW232922   3.977   3.542   4.205
10675SOL     OW32923   3.281   6.834   5.544
10675SOL    HW132924   3.365   6.870   5.584
10675SOL    HW232925   3.231   6.781   5.613
10676SOL     OW32926   1.278   0.481   5.667
10676SOL    HW132927   1.330   0.509   5.748
10676SOL    HW232928   1.332   0.497   5.585
10677SOL     OW32929   0.755   2.408   6.810
10677SOL    HW132930   0.742   2.309   6.814
10677SOL    HW232931   0.852   2.428   6.797
10678SOL     OW32932   4.010   5.364   2.699
10678SOL    HW132933   4.098   5.317   2.706
10678SOL    HW232934   4.023   5.462   2.716
10679SOL     OW32935   4.780   4.233   0.640
10679SOL    HW132936   4.825   4.210   0.553
10679SOL    HW232937   4.755   4.149   0.687
10680SOL     OW32938   4.160   1.292   5.854
10680SOL    HW132939   4.204   1.378   5.878
10680SOL    HW232940   4.179   1.269   5.758
10681SOL     OW32941   2.371   3.147   5.359
10681SOL    HW132942   2.422   3.180   5.439
10681SOL    HW232943   2.433   3.099   5.298
10682SOL     OW32944   5.175   3.664   6.781
10682SOL    HW132945   5.174   3.718   6.697
10682SOL    HW232946   5.084   3.625   6.796
10683SOL     OW32947   2.853   0.322   3.458
10683SOL    HW132948   2.772   0.293   3.509
10683SOL    HW232949   2.906   0.242   3.431
10684SOL     OW32950   4.524   4.622   1.672
10684SOL    HW132951   4.543   4.681   1.750
10684SOL    HW232952   4.547   4.670   1.587
10685SOL     OW32953   0.789   6.405   2.198
10685SOL    HW132954   0.697   6.443   2.211
10685SOL    HW232955   0.814   6.350   2.277
10686SOL     OW32956   2.716   0.824   0.123
10686SOL    HW132957   2.652   0.897   0.151
10686SOL    HW232958   2.702   0.802   0.027
10687SOL     OW32959   1.050   3.542   3.553
10687SOL    HW132960   1.060   3.443   3.546
10687SOL    HW232961   1.019   3.579   3.465
10688SOL     OW32962   5.087   0.894   3.030
10688SOL    HW132963   5.090   0.956   2.952
10688SOL    HW232964   5.014   0.826   3.016
10689SOL     OW32965   0.720   0.533   2.288
10689SOL    HW132966   0.768   0.477   2.220
10689SOL    HW232967   0.686   0.616   2.244
10690SOL     OW32968   0.945   6.428   4.498
10690SOL    HW132969   1.013   6.413   4.570
10690SOL    HW232970   0.903   6.341   4.473
10691SOL     OW32971   3.508   6.905   2.084
10691SOL    HW132972   3.483   6.965   2.008
10691SOL    HW232973   3.607   6.895   2.086
10692SOL     OW32974   2.361   1.476   4.670
10692SOL    HW132975   2.442   1.533   4.657
10692SOL    HW232976   2.370   1.423   4.754
10693SOL     OW32977   1.585   5.779   0.183
10693SOL    HW132978   1.606   5.689   0.145
10693SOL    HW232979   1.570   5.844   0.108
10694SOL     OW32980   4.761   0.173   5.465
10694SOL    HW132981   4.697   0.162   5.541
10694SOL    HW232982   4.727   0.244   5.403
10695SOL     OW32983   5.561   4.382   1.961
10695SOL    HW132984   5.655   4.372   1.928
10695SOL    HW232985   5.556   4.351   2.056
10696SOL     OW32986   6.438   4.667   4.066
10696SOL    HW132987   6.471   4.726   4.139
10696SOL    HW232988   6.339   4.678   4.055
10697SOL     OW32989   2.556   5.255   5.204
10697SOL    HW132990   2.467   5.234   5.163
10697SOL    HW232991   2.570   5.197   5.284
10698SOL     OW32992   3.304   3.496   0.439
10698SOL    HW132993   3.260   3.427   0.496
10698SOL    HW232994   3.399   3.471   0.423
10699SOL     OW32995   3.828   3.089   0.888
10699SOL    HW132996   3.920   3.124   0.877
10699SOL    HW232997   3.812   3.066   0.984
10700SOL     OW32998   4.690   0.590   1.449
10700SOL    HW132999   4.738   0.573   1.535
10700SOL    HW233000   4.639   0.676   1.456
10701SOL     OW33001   3.179   6.806   6.313
10701SOL    HW133002   3.192   6.869   6.390
10701SOL    HW233003   3.206   6.714   6.340
10702SOL     OW33004   5.516   2.133   1.921
10702SOL    HW133005   5.554   2.079   1.996
10702SOL    HW233006   5.417   2.121   1.918
10703SOL     OW33007   0.295   2.658   5.233
10703SOL    HW133008   0.317   2.564   5.261
10703SOL    HW233009   0.379   2.713   5.234
10704SOL     OW33010   5.130   6.697   2.545
10704SOL    HW133011   5.123   6.642   2.629
10704SOL    HW233012   5.049   6.756   2.537
10705SOL     OW33013   5.150   3.490   0.965
10705SOL    HW133014   5.143   3.395   0.996
10705SOL    HW233015   5.237   3.528   0.993
10706SOL     OW33016   3.358   0.604   1.346
10706SOL    HW133017   3.409   0.653   1.276
10706SOL    HW233018   3.399   0.622   1.435
10707SOL     OW33019   5.119   0.049   3.724
10707SOL    HW133020   5.210   0.079   3.750
10707SOL    HW233021   5.097   0.083   3.632
10708SOL     OW33022   4.244   0.917   2.141
10708SOL    HW133023   4.302   0.955   2.069
10708SOL    HW233024   4.148   0.928   2.117
10709SOL     OW33025   5.721   4.806   2.935
10709SOL    HW133026   5.706   4.868   2.858
10709SOL    HW233027   5.663   4.726   2.925
10710SOL     OW33028   4.711   1.843   3.921
10710SOL    HW133029   4.657   1.895   3.855
10710SOL    HW233030   4.653   1.776   3.967
10711SOL     OW33031   3.428   6.920   2.569
10711SOL    HW133032   3.343   6.917   2.518
10711SOL    HW233033   3.501   6.877   2.515
10712SOL     OW33034   5.307   0.223   3.519
10712SOL    HW133035   5.351   0.137   3.490
10712SOL    HW233036   5.340   0.298   3.462
10713SOL     OW33037   2.017   4.146   1.749
10713SOL    HW133038   2.082   4.199   1.803
10713SOL    HW233039   2.041   4.150   1.652
10714SOL     OW33040   3.112   3.720   5.058
10714SOL    HW133041   3.027   3.716   5.111
10714SOL    HW233042   3.175   3.649   5.089
10715SOL     OW33043   6.039   0.710   1.895
10715SOL    HW133044   6.010   0.637   1.956
10715SOL    HW233045   5.990   0.700   1.807
10716SOL     OW33046   5.448   1.093   3.356
10716SOL    HW133047   5.369   1.113   3.414
10716SOL    HW233048   5.438   1.138   3.267
10717SOL     OW33049   2.132   2.793   6.435
10717SOL    HW133050   2.225   2.755   6.437
10717SOL    HW233051   2.136   2.892   6.444
10718SOL     OW33052   1.708   5.314   5.335
10718SOL    HW133053   1.742   5.389   5.391
10718SOL    HW233054   1.673   5.241   5.394
10719SOL     OW33055   0.304   5.365   4.498
10719SOL    HW133056   0.287   5.444   4.440
10719SOL    HW233057   0.390   5.321   4.471
10720SOL     OW33058   6.939   4.857   3.412
10720SOL    HW133059   0.003   4.814   3.432
10720SOL    HW233060   6.866   4.790   3.419
10721SOL     OW33061   5.180   3.497   5.490
10721SOL    HW133062   5.277   3.495   5.468
10721SOL    HW233063   5.165   3.544   5.576
10722SOL     OW33064   6.847   4.190   5.827
10722SOL    HW133065   6.843   4.133   5.909
10722SOL    HW233066   6.862   4.132   5.747
10723SOL     OW33067   5.972   6.749   0.845
10723SOL    HW133068   5.960   6.767   0.943
10723SOL    HW233069   6.047   6.685   0.831
10724SOL     OW33070   6.502   6.461   6.784
10724SOL    HW133071   6.586   6.413   6.758
10724SOL    HW233072   6.523   6.556   6.806
10725SOL     OW33073   2.029   5.867   5.512
10725SOL    HW133074   1.944   5.853   5.562
10725SOL    HW233075   2.044   5.964   5.496
10726SOL     OW33076   5.232   1.367   4.078
10726SOL    HW133077   5.268   1.274   4.072
10726SOL    HW233078   5.236   1.398   4.173
10727SOL     OW33079   2.358   6.651   5.716
10727SOL    HW133080   2.260   6.660   5.697
10727SOL    HW233081   2.379   6.697   5.802
10728SOL     OW33082   5.028   6.349   0.838
10728SOL    HW133083   5.029   6.424   0.771
10728SOL    HW233084   4.999   6.265   0.792
10729SOL     OW33085   6.631   2.740   1.423
10729SOL    HW133086   6.592   2.823   1.465
10729SOL    HW233087   6.569   2.706   1.352
10730SOL     OW33088   4.628   0.030   2.550
10730SOL    HW133089   4.650   0.114   2.600
10730SOL    HW233090   4.690   0.020   2.472
10731SOL     OW33091   4.482   0.515   0.969
10731SOL    HW133092   4.499   0.423   0.933
10731SOL    HW233093   4.464   0.509   1.067
10732SOL     OW33094   0.495   3.896   5.957
10732SOL    HW133095   0.445   3.848   6.028
10732SOL    HW233096   0.481   3.995   5.967
10733SOL     OW33097   6.422   2.369   6.931
10733SOL    HW133098   6.429   2.324   6.842
10733SOL    HW233099   6.331   2.411   6.939
10734SOL     OW33100   6.702   2.728   2.121
10734SOL    HW133101   6.682   2.805   2.182
10734SOL    HW233102   6.794   2.737   2.085
10735SOL     OW33103   0.020   4.721   3.142
10735SOL    HW133104   6.951   4.713   3.180
10735SOL    HW233105   0.080   4.654   3.185
10736SOL     OW33106   2.561   0.679   3.611
10736SOL    HW133107   2.545   0.769   3.650
10736SOL    HW233108   2.556   0.610   3.683
10737SOL     OW33109   6.870   2.618   1.470
10737SOL    HW133110   6.789   2.674   1.450
10737SOL    HW233111   6.843   2.523   1.478
10738SOL     OW33112   4.350   0.128   3.661
10738SOL    HW133113   4.282   0.161   3.727
10738SOL    HW233114   4.390   0.042   3.694
10739SOL     OW33115   2.174   1.664   1.873
10739SOL    HW133116   2.141   1.757   1.887
10739SOL    HW233117   2.242   1.641   1.943
10740SOL     OW33118   4.647   4.947   3.224
10740SOL    HW133119   4.668   5.045   3.225
10740SOL    HW233120   4.656   4.912   3.131
10741SOL     OW33121   3.622   0.906   3.376
10741SOL    HW133122   3.570   0.977   3.424
10741SOL    HW233123   3.681   0.949   3.308
10742SOL     OW33124   6.701   5.296   0.837
10742SOL    HW133125   6.657   5.261   0.754
10742SOL    HW233126   6.750   5.221   0.883
10743SOL     OW33127   2.381   2.289   5.030
10743SOL    HW133128   2.353   2.289   5.126
10743SOL    HW233129   2.435   2.370   5.010
10744SOL     OW33130   4.575   1.545   0.567
10744SOL    HW133131   4.595   1.534   0.469
10744SOL    HW233132   4.606   1.465   0.617
10745SOL     OW33133   6.496   5.701   5.895
10745SOL    HW133134   6.431   5.640   5.849
10745SOL    HW233135   6.525   5.659   5.981
10746SOL     OW33136   0.476   4.174   5.985
10746SOL    HW133137   0.482   4.207   6.079
10746SOL    HW233138   0.512   4.244   5.923
10747SOL     OW33139   3.128   1.895   4.498
10747SOL    HW133140   3.115   1.798   4.515
10747SOL    HW233141   3.065   1.948   4.556
10748SOL     OW33142   5.023   1.410   2.078
10748SOL    HW133143   5.028   1.348   2.000
10748SOL    HW233144   4.934   1.456   2.078
10749SOL     OW33145   2.236   6.671   6.246
10749SOL    HW133146   2.142   6.668   6.279
10749SOL    HW233147   2.287   6.740   6.297
10750SOL     OW33148   4.065   0.142   6.640
10750SOL    HW133149   3.981   0.143   6.586
10750SOL    HW233150   4.084   0.233   6.676
10751SOL     OW33151   2.257   4.710   3.835
10751SOL    HW133152   2.351   4.715   3.868
10751SOL    HW233153   2.210   4.635   3.880
10752SOL     OW33154   4.875   4.839   3.779
10752SOL    HW133155   4.912   4.929   3.753
10752SOL    HW233156   4.780   4.850   3.809
10753SOL     OW33157   6.834   3.389   4.391
10753SOL    HW133158   6.894   3.450   4.340
10753SOL    HW233159   6.746   3.382   4.345
10754SOL     OW33160   1.734   0.525   2.314
10754SOL    HW133161   1.786   0.595   2.264
10754SOL    HW233162   1.783   0.439   2.312
10755SOL     OW33163   6.493   5.638   2.259
10755SOL    HW133164   6.534   5.552   2.229
10755SOL    HW233165   6.562   5.710   2.257
10756SOL     OW33166   0.269   0.438   5.072
10756SOL    HW133167   0.259   0.485   5.159
10756SOL    HW233168   0.293   0.342   5.088
10757SOL     OW33169   2.638   3.332   1.322
10757SOL    HW133170   2.604   3.423   1.346
10757SOL    HW233171   2.737   3.336   1.308
10758SOL     OW33172   0.614   5.480   4.082
10758SOL    HW133173   0.587   5.406   4.022
10758SOL    HW233174   0.688   5.450   4.142
10759SOL     OW33175   0.185   2.675   6.665
10759SOL    HW133176   0.092   2.713   6.661
10759SOL    HW233177   0.231   2.708   6.748
10760SOL     OW33178   5.958   1.257   4.048
10760SOL    HW133179   5.968   1.337   3.989
10760SOL    HW233180   5.961   1.174   3.992
10761SOL     OW33181   2.556   4.777   5.387
10761SOL    HW133182   2.638   4.722   5.405
10761SOL    HW233183   2.570   4.832   5.305
10762SOL     OW33184   3.471   0.729   4.714
10762SOL    HW133185   3.388   0.720   4.768
10762SOL    HW233186   3.551   0.724   4.775
10763SOL     OW33187   4.347   6.680   3.800
10763SOL    HW133188   4.432   6.637   3.771
10763SOL    HW233189   4.270   6.623   3.772
10764SOL     OW33190   5.375   0.284   5.053
10764SOL    HW133191   5.325   0.332   5.126
10764SOL    HW233192   5.473   0.298   5.066
10765SOL     OW33193   5.430   3.408   1.124
10765SOL    HW133194   5.523   3.443   1.112
10765SOL    HW233195   5.426   3.354   1.208
10766SOL     OW33196   4.196   3.036   1.640
10766SOL    HW133197   4.150   2.954   1.676
10766SOL    HW233198   4.131   3.113   1.639
10767SOL     OW33199   3.632   1.381   2.299
10767SOL    HW133200   3.607   1.288   2.274
10767SOL    HW233201   3.666   1.429   2.218
10768SOL     OW33202   6.235   4.656   0.667
10768SOL    HW133203   6.280   4.654   0.577
10768SOL    HW233204   6.145   4.611   0.659
10769SOL     OW33205   1.818   4.114   5.586
10769SOL    HW133206   1.731   4.079   5.552
10769SOL    HW233207   1.881   4.037   5.600
10770SOL     OW33208   4.125   6.020   3.843
10770SOL    HW133209   4.206   6.075   3.824
10770SOL    HW233210   4.121   5.942   3.781
10771SOL     OW33211   2.349   1.628   3.525
10771SOL    HW133212   2.283   1.673   3.465
10771SOL    HW233213   2.341   1.529   3.514
10772SOL     OW33214   5.347   5.073   3.901
10772SOL    HW133215   5.389   4.989   3.936
10772SOL    HW233216   5.308   5.056   3.811
10773SOL     OW33217   5.531   4.561   3.486
10773SOL    HW133218   5.460   4.529   3.423
10773SOL    HW233219   5.498   4.641   3.535
10774SOL     OW33220   0.936   0.655   3.694
10774SOL    HW133221   0.860   0.662   3.630
10774SOL    HW233222   0.913   0.589   3.765
10775SOL     OW33223   0.592   3.612   2.033
10775SOL    HW133224   0.613   3.709   2.046
10775SOL    HW233225   0.498   3.604   1.999
10776SOL     OW33226   1.534   0.077   6.664
10776SOL    HW133227   1.512   7.017   6.716
10776SOL    HW233228   1.504   0.157   6.716
10777SOL     OW33229   2.696   5.847   1.092
10777SOL    HW133230   2.662   5.894   1.010
10777SOL    HW233231   2.661   5.754   1.094
10778SOL     OW33232   5.769   5.620   2.827
10778SOL    HW133233   5.864   5.642   2.851
10778SOL    HW233234   5.714   5.703   2.828
10779SOL     OW33235   5.215   2.412   3.602
10779SOL    HW133236   5.161   2.485   3.643
10779SOL    HW233237   5.262   2.360   3.674
10780SOL     OW33238   0.035   0.563   2.512
10780SOL    HW133239   0.034   0.647   2.565
10780SOL    HW233240   7.001   0.494   2.556
10781SOL     OW33241   3.522   0.267   4.682
10781SOL    HW133242   3.473   0.320   4.613
10781SOL    HW233243   3.614   0.245   4.649
10782SOL     OW33244   6.100   5.588   4.079
10782SOL    HW133245   6.113   5.494   4.111
10782SOL    HW233246   6.112   5.591   3.980
10783SOL     OW33247   0.072   2.072   3.106
10783SOL    HW133248   0.126   2.126   3.041
10783SOL    HW233249   0.121   2.067   3.193
10784SOL     OW33250   3.066   1.615   4.507
10784SOL    HW133251   3.047   1.601   4.410
10784SOL    HW233252   3.005   1.557   4.561
10785SOL     OW33253   1.011   4.045   6.408
10785SOL    HW133254   1.065   4.107   6.466
10785SOL    HW233255   0.976   4.095   6.329
10786SOL     OW33256   0.740   5.085   3.227
10786SOL    HW133257   0.664   5.125   3.176
10786SOL    HW233258   0.780   5.009   3.175
10787SOL     OW33259   1.375   1.981   6.313
10787SOL    HW133260   1.430   1.900   6.333
10787SOL    HW233261   1.433   2.063   6.319
10788SOL     OW33262   5.855   3.888   6.202
10788SOL    HW133263   5.858   3.805   6.146
10788SOL    HW233264   5.942   3.897   6.251
10789SOL     OW33265   6.249   1.714   0.350
10789SOL    HW133266   6.263   1.634   0.292
10789SOL    HW233267   6.152   1.723   0.373
10790SOL     OW33268   0.080   5.871   2.893
10790SOL    HW133269   0.058   5.911   2.982
10790SOL    HW233270   0.067   5.939   2.822
10791SOL     OW33271   0.647   6.698   3.116
10791SOL    HW133272   0.739   6.717   3.149
10791SOL    HW233273   0.639   6.724   3.020
10792SOL     OW33274   3.884   4.225   5.108
10792SOL    HW133275   3.910   4.286   5.033
10792SOL    HW233276   3.785   4.221   5.116
10793SOL     OW33277   5.444   3.429   4.288
10793SOL    HW133278   5.476   3.413   4.194
10793SOL    HW233279   5.484   3.514   4.322
10794SOL     OW33280   3.117   3.775   3.641
10794SOL    HW133281   3.129   3.866   3.680
10794SOL    HW233282   3.038   3.731   3.686
10795SOL     OW33283   0.247   4.082   3.408
10795SOL    HW133284   0.192   4.010   3.365
10795SOL    HW233285   0.225   4.087   3.505
10796SOL     OW33286   1.477   5.839   4.929
10796SOL    HW133287   1.571   5.829   4.960
10796SOL    HW233288   1.443   5.929   4.955
10797SOL     OW33289   3.908   2.672   0.170
10797SOL    HW133290   3.837   2.740   0.150
10797SOL    HW233291   3.997   2.708   0.142
10798SOL     OW33292   6.987   1.627   0.755
10798SOL    HW133293   6.904   1.615   0.699
10798SOL    HW233294   6.961   1.654   0.847
10799SOL     OW33295   4.066   1.901   1.744
10799SOL    HW133296   3.996   1.966   1.716
10799SOL    HW233297   4.085   1.837   1.669
10800SOL     OW33298   1.447   0.297   1.377
10800SOL    HW133299   1.546   0.281   1.381
10800SOL    HW233300   1.415   0.285   1.283
10801SOL     OW33301   1.767   0.530   1.338
10801SOL    HW133302   1.692   0.589   1.308
10801SOL    HW233303   1.846   0.586   1.360
10802SOL     OW33304   6.365   0.733   3.260
10802SOL    HW133305   6.388   0.800   3.330
10802SOL    HW233306   6.449   0.695   3.222
10803SOL     OW33307   1.950   5.505   6.591
10803SOL    HW133308   1.932   5.599   6.562
10803SOL    HW233309   2.046   5.483   6.576
10804SOL     OW33310   0.117   3.361   4.501
10804SOL    HW133311   0.093   3.326   4.592
10804SOL    HW233312   0.037   3.357   4.442
10805SOL     OW33313   6.694   1.505   5.898
10805SOL    HW133314   6.671   1.546   5.986
10805SOL    HW233315   6.741   1.573   5.841
10806SOL     OW33316   1.701   4.925   6.964
10806SOL    HW133317   1.703   4.974   6.876
10806SOL    HW233318   1.676   4.829   6.947
10807SOL     OW33319   2.879   6.424   5.055
10807SOL    HW133320   2.887   6.514   5.013
10807SOL    HW233321   2.820   6.430   5.136
10808SOL     OW33322   0.576   3.120   6.150
10808SOL    HW133323   0.640   3.177   6.098
10808SOL    HW233324   0.549   3.041   6.095
10809SOL     OW33325   2.425   0.405   4.387
10809SOL    HW133326   2.386   0.496   4.373
10809SOL    HW233327   2.435   0.359   4.299
10810SOL     OW33328   6.816   0.214   4.428
10810SOL    HW133329   6.754   0.140   4.452
10810SOL    HW233330   6.847   0.261   4.511
10811SOL     OW33331   5.220   4.867   4.895
10811SOL    HW133332   5.192   4.950   4.944
10811SOL    HW233333   5.320   4.866   4.888
10812SOL     OW33334   6.048   2.698   0.349
10812SOL    HW133335   6.143   2.724   0.332
10812SOL    HW233336   6.043   2.604   0.381
10813SOL     OW33337   0.095   4.087   6.012
10813SOL    HW133338   7.020   4.073   6.023
10813SOL    HW233339   0.144   4.044   6.088
10814SOL     OW33340   2.979   1.110   1.374
10814SOL    HW133341   3.021   1.129   1.285
10814SOL    HW233342   3.024   1.165   1.444
10815SOL     OW33343   5.268   0.833   4.729
10815SOL    HW133344   5.236   0.757   4.672
10815SOL    HW233345   5.361   0.859   4.700
10816SOL     OW33346   4.022   3.301   4.579
10816SOL    HW133347   3.935   3.317   4.532
10816SOL    HW233348   4.004   3.279   4.675
10817SOL     OW33349   1.920   6.060   3.444
10817SOL    HW133350   1.996   6.095   3.390
10817SOL    HW233351   1.863   6.136   3.475
10818SOL     OW33352   3.737   4.395   7.018
10818SOL    HW133353   3.649   4.355   0.020
10818SOL    HW233354   3.791   4.328   6.967
10819SOL     OW33355   6.861   6.529   5.329
10819SOL    HW133356   6.889   6.614   5.285
10819SOL    HW233357   6.911   6.452   5.288
10820SOL     OW33358   2.078   4.392   6.274
10820SOL    HW133359   2.118   4.371   6.185
10820SOL    HW233360   2.111   4.327   6.342
10821SOL     OW33361   4.942   5.662   3.088
10821SOL    HW133362   5.002   5.598   3.137
10821SOL    HW233363   4.956   5.754   3.124
10822SOL     OW33364   5.242   1.123   2.230
10822SOL    HW133365   5.295   1.197   2.190
10822SOL    HW233366   5.234   1.048   2.165
10823SOL     OW33367   5.207   6.711   1.423
10823SOL    HW133368   5.172   6.792   1.376
10823SOL    HW233369   5.176   6.711   1.518
10824SOL     OW33370   0.956   2.728   3.493
10824SOL    HW133371   0.958   2.718   3.592
10824SOL    HW233372   1.048   2.711   3.456
10825SOL     OW33373   0.841   2.475   0.246
10825SOL    HW133374   0.762   2.475   0.185
10825SOL    HW233375   0.923   2.450   0.193
10826SOL     OW33376   0.474   3.427   2.881
10826SOL    HW133377   0.479   3.374   2.797
10826SOL    HW233378   0.563   3.470   2.899
10827SOL     OW33379   6.586   4.239   4.620
10827SOL    HW133380   6.548   4.146   4.615
10827SOL    HW233381   6.679   4.239   4.585
10828SOL     OW33382   6.193   4.581   5.345
10828SOL    HW133383   6.168   4.529   5.427
10828SOL    HW233384   6.181   4.523   5.264
10829SOL     OW33385   3.565   2.894   4.622
10829SOL    HW133386   3.544   2.874   4.526
10829SOL    HW233387   3.584   2.808   4.670
10830SOL     OW33388   4.030   2.117   3.492
10830SOL    HW133389   4.047   2.019   3.477
10830SOL    HW233390   4.105   2.155   3.547
10831SOL     OW33391   4.102   0.147   3.817
10831SOL    HW133392   4.020   0.089   3.811
10831SOL    HW233393   4.094   0.222   3.750
10832SOL     OW33394   6.595   3.334   0.244
10832SOL    HW133395   6.557   3.273   0.313
10832SOL    HW233396   6.521   3.386   0.201
10833SOL     OW33397   0.573   1.271   6.848
10833SOL    HW133398   0.581   1.225   6.759
10833SOL    HW233399   0.495   1.333   6.846
10834SOL     OW33400   6.254   6.451   1.608
10834SOL    HW133401   6.326   6.435   1.540
10834SOL    HW233402   6.177   6.497   1.565
10835SOL     OW33403   0.276   2.350   5.540
10835SOL    HW133404   0.189   2.399   5.545
10835SOL    HW233405   0.315   2.343   5.632
10836SOL     OW33406   0.074   1.170   3.628
10836SOL    HW133407   0.143   1.155   3.699
10836SOL    HW233408   0.039   1.264   3.635
10837SOL     OW33409   0.470   3.201   2.637
10837SOL    HW133410   0.530   3.130   2.676
10837SOL    HW233411   0.390   3.158   2.596
10838SOL     OW33412   0.441   5.967   1.882
10838SOL    HW133413   0.345   5.989   1.868
10838SOL    HW233414   0.476   5.915   1.804
10839SOL     OW33415   5.029   2.523   0.855
10839SOL    HW133416   4.954   2.459   0.838
10839SOL    HW233417   5.111   2.472   0.880
10840SOL     OW33418   2.420   0.216   1.664
10840SOL    HW133419   2.365   0.230   1.582
10840SOL    HW233420   2.439   0.304   1.707
10841SOL     OW33421   2.073   5.212   4.681
10841SOL    HW133422   2.033   5.138   4.628
10841SOL    HW233423   2.069   5.189   4.778
10842SOL     OW33424   5.273   4.172   1.424
10842SOL    HW133425   5.296   4.104   1.493
10842SOL    HW233426   5.181   4.154   1.389
10843SOL     OW33427   2.631   2.083   1.319
10843SOL    HW133428   2.704   2.132   1.271
10843SOL    HW233429   2.543   2.109   1.280
10844SOL     OW33430   1.379   5.196   5.077
10844SOL    HW133431   1.298   5.212   5.133
10844SOL    HW233432   1.443   5.138   5.127
10845SOL     OW33433   3.952   0.582   4.854
10845SOL    HW133434   3.924   0.611   4.762
10845SOL    HW233435   3.942   0.483   4.862
10846SOL     OW33436   5.428   0.180   6.435
10846SOL    HW133437   5.460   0.156   6.344
10846SOL    HW233438   5.328   0.169   6.439
10847SOL     OW33439   3.068   0.767   6.398
10847SOL    HW133440   3.086   0.710   6.479
10847SOL    HW233441   3.070   0.709   6.317
10848SOL     OW33442   1.761   5.127   1.931
10848SOL    HW133443   1.783   5.040   1.974
10848SOL    HW233444   1.779   5.202   1.994
10849SOL     OW33445   2.082   6.717   3.641
10849SOL    HW133446   2.021   6.797   3.635
10849SOL    HW233447   2.154   6.725   3.573
10850SOL     OW33448   3.584   4.683   0.999
10850SOL    HW133449   3.667   4.722   1.040
10850SOL    HW233450   3.600   4.588   0.975
10851SOL     OW33451   1.527   4.582   0.248
10851SOL    HW133452   1.607   4.544   0.200
10851SOL    HW233453   1.515   4.535   0.335
10852SOL     OW33454   2.415   1.899   2.727
10852SOL    HW133455   2.397   1.851   2.812
10852SOL    HW233456   2.511   1.927   2.725
10853SOL     OW33457   3.245   1.410   6.450
10853SOL    HW133458   3.301   1.360   6.384
10853SOL    HW233459   3.170   1.351   6.481
10854SOL     OW33460   2.952   6.701   5.027
10854SOL    HW133461   2.923   6.709   5.123
10854SOL    HW233462   3.052   6.703   5.022
10855SOL     OW33463   3.759   1.228   6.899
10855SOL    HW133464   3.755   1.260   6.805
10855SOL    HW233465   3.764   1.307   6.961
10856SOL     OW33466   0.472   1.262   0.796
10856SOL    HW133467   0.415   1.263   0.714
10856SOL    HW233468   0.567   1.243   0.770
10857SOL     OW33469   6.577   2.248   2.361
10857SOL    HW133470   6.483   2.217   2.343
10857SOL    HW233471   6.585   2.345   2.338
10858SOL     OW33472   2.694   6.467   2.080
10858SOL    HW133473   2.606   6.419   2.077
10858SOL    HW233474   2.766   6.409   2.043
10859SOL     OW33475   1.854   5.373   3.610
10859SOL    HW133476   1.777   5.310   3.609
10859SOL    HW233477   1.845   5.436   3.687
10860SOL     OW33478   6.741   3.558   3.280
10860SOL    HW133479   6.836   3.527   3.280
10860SOL    HW233480   6.684   3.490   3.235
10861SOL     OW33481   3.689   2.863   4.973
10861SOL    HW133482   3.598   2.829   4.999
10861SOL    HW233483   3.679   2.927   4.897
10862SOL     OW33484   0.966   0.450   4.685
10862SOL    HW133485   1.039   0.432   4.618
10862SOL    HW233486   0.880   0.414   4.651
10863SOL     OW33487   2.621   6.122   4.316
10863SOL    HW133488   2.655   6.028   4.308
10863SOL    HW233489   2.526   6.125   4.285
10864SOL     OW33490   3.929   6.164   3.491
10864SOL    HW133491   3.975   6.218   3.421
10864SOL    HW233492   3.830   6.168   3.477
10865SOL     OW33493   6.355   1.839   5.753
10865SOL    HW133494   6.381   1.837   5.656
10865SOL    HW233495   6.321   1.749   5.781
10866SOL     OW33496   5.136   4.969   0.870
10866SOL    HW133497   5.088   4.961   0.957
10866SOL    HW233498   5.183   4.884   0.850
10867SOL     OW33499   2.934   2.023   0.061
10867SOL    HW133500   2.974   2.050   0.149
10867SOL    HW233501   2.991   2.058   7.010
10868SOL     OW33502   2.802   2.157   3.162
10868SOL    HW133503   2.827   2.157   3.065
10868SOL    HW233504   2.873   2.205   3.214
10869NA      NA33505   6.258   2.473   5.827
10870NA      NA33506   4.505   4.559   5.145
10871NA      NA33507   2.278   3.472   1.653
10872NA      NA33508   4.872   3.725   5.246
10873NA      NA33509   4.265   2.398   5.308
10874NA      NA33510   3.818   4.744   1.754
10875NA      NA33511   6.638   5.989   4.570
10876NA      NA33512   3.766   3.636   4.998
10877NA      NA33513   4.466   0.075   6.744
10878NA      NA33514   3.090   0.346   5.075
10879NA      NA33515   0.323   5.075   2.643
10880NA      NA33516   2.971   0.406   2.725
10881NA      NA33517   3.733   3.806   1.383
10882NA      NA33518   3.999   3.471   2.968
   7.02372   7.02372   7.02372
